/*--------------------------------*- C++ -*----------------------------------*\
| =========                 |                                                 |
| \\      /  F ield         | OpenFOAM: The Open Source CFD Toolbox           |
|  \\    /   O peration     | Version:  5.x                                   |
|   \\  /    A nd           | Web:      www.OpenFOAM.org                      |
|    \\/     M anipulation  |                                                 |
\*---------------------------------------------------------------------------*/
FoamFile
{
    version     2.0;
    format      ascii;
    class       volVectorField;
    location    "90000";
    object      stored_U;
}
// * * * * * * * * * * * * * * * * * * * * * * * * * * * * * * * * * * * * * //

dimensions      [0 1 -1 0 0 0 0];

internalField   nonuniform List<vector> 
2250
(
(-8.30585e-11 5.02765e-11 -0.001)
(-7.52755e-11 4.74896e-11 -0.001)
(-7.10398e-11 4.34606e-11 -0.001)
(-4.81832e-11 4.07252e-11 -0.001)
(-1.82156e-11 4.03119e-11 -0.001)
(-8.70129e-11 1.51991e-10 -0.001)
(-8.23302e-11 1.48241e-10 -0.001)
(-7.79077e-11 1.40006e-10 -0.001)
(-5.13234e-11 1.33976e-10 -0.001)
(-1.85877e-11 1.31575e-10 -0.001)
(-9.00564e-11 2.47339e-10 -0.001)
(-8.74557e-11 2.40689e-10 -0.001)
(-8.54045e-11 2.29672e-10 -0.001)
(-5.64004e-11 2.21117e-10 -0.001)
(-2.03584e-11 2.16273e-10 -0.001)
(-9.58691e-11 3.18693e-10 -0.001)
(-9.99742e-11 2.99235e-10 -0.001)
(-9.74612e-11 2.82704e-10 -0.001)
(-6.42663e-11 2.67828e-10 -0.001)
(-2.29788e-11 2.59904e-10 -0.001)
(-1.12916e-10 3.01052e-10 -0.000999999)
(-1.23471e-10 2.82444e-10 -0.000999999)
(-1.1678e-10 2.73794e-10 -0.000999999)
(-7.86707e-11 2.69153e-10 -0.001)
(-2.77796e-11 2.64111e-10 -0.001)
(-2.18582e-10 1.37143e-10 -0.001)
(-1.98426e-10 1.29859e-10 -0.001)
(-1.88864e-10 1.19649e-10 -0.001)
(-1.2509e-10 1.13888e-10 -0.001)
(-4.54925e-11 1.14576e-10 -0.001)
(-2.295e-10 4.1334e-10 -0.001)
(-2.16308e-10 4.00349e-10 -0.001)
(-2.05083e-10 3.7857e-10 -0.001)
(-1.30078e-10 3.64099e-10 -0.001)
(-4.4635e-11 3.60012e-10 -0.001)
(-2.40965e-10 6.53401e-10 -0.001)
(-2.33543e-10 6.3447e-10 -0.001)
(-2.25363e-10 6.08406e-10 -0.001)
(-1.43098e-10 5.87259e-10 -0.001)
(-4.89163e-11 5.75375e-10 -0.001)
(-2.58871e-10 8.07648e-10 -0.001)
(-2.61367e-10 7.70151e-10 -0.001)
(-2.52256e-10 7.40087e-10 -0.001)
(-1.61979e-10 7.09854e-10 -0.001)
(-5.53996e-11 6.91705e-10 -0.001)
(-3.03748e-10 7.95109e-10 -0.000999999)
(-3.01124e-10 7.44759e-10 -0.000999999)
(-2.85588e-10 7.24282e-10 -0.001)
(-1.90155e-10 7.14141e-10 -0.001)
(-6.57995e-11 7.0114e-10 -0.001)
(-3.83922e-10 2.28948e-10 -0.001)
(-3.51045e-10 2.18717e-10 -0.001)
(-3.19839e-10 2.05431e-10 -0.001)
(-2.05615e-10 1.99387e-10 -0.001)
(-7.06425e-11 2.01566e-10 -0.001)
(-4.01048e-10 6.80761e-10 -0.001)
(-3.75054e-10 6.58892e-10 -0.001)
(-3.39668e-10 6.28823e-10 -0.001)
(-2.09412e-10 6.12572e-10 -0.001)
(-6.81929e-11 6.08641e-10 -0.001)
(-4.19568e-10 1.03511e-09 -0.001)
(-4.03502e-10 1.01884e-09 -0.001)
(-3.6665e-10 9.85466e-10 -0.001)
(-2.24915e-10 9.64645e-10 -0.001)
(-7.3461e-11 9.50143e-10 -0.001)
(-4.40672e-10 1.22351e-09 -0.001)
(-4.24715e-10 1.21184e-09 -0.001)
(-3.93796e-10 1.19193e-09 -0.001)
(-2.42867e-10 1.17025e-09 -0.001)
(-8.08587e-11 1.15032e-09 -0.001)
(-5.03888e-10 1.303e-09 -0.000999999)
(-4.35015e-10 1.22123e-09 -0.001)
(-4.08108e-10 1.20657e-09 -0.001)
(-2.64273e-10 1.19851e-09 -0.001)
(-9.124e-11 1.18476e-09 -0.001)
(-5.89781e-10 3.27702e-10 -0.001)
(-5.40919e-10 3.12694e-10 -0.001)
(-4.69442e-10 2.99695e-10 -0.001)
(-2.96729e-10 2.95928e-10 -0.001)
(-9.81802e-11 2.99388e-10 -0.001)
(-6.12769e-10 9.50444e-10 -0.001)
(-5.69841e-10 9.2005e-10 -0.001)
(-4.87076e-10 8.91951e-10 -0.001)
(-2.96983e-10 8.82208e-10 -0.001)
(-9.43343e-11 8.80195e-10 -0.001)
(-6.37254e-10 1.41389e-09 -0.001)
(-6.00354e-10 1.40557e-09 -0.001)
(-5.08116e-10 1.37911e-09 -0.001)
(-3.07297e-10 1.3701e-09 -0.001)
(-9.86667e-11 1.35801e-09 -0.001)
(-6.5934e-10 1.63439e-09 -0.001)
(-6.04694e-10 1.67325e-09 -0.001)
(-5.22449e-10 1.67534e-09 -0.001)
(-3.15439e-10 1.67739e-09 -0.001)
(-1.03852e-10 1.66472e-09 -0.001)
(-7.45603e-10 1.86728e-09 -0.001)
(-5.59408e-10 1.75962e-09 -0.001)
(-5.0379e-10 1.75414e-09 -0.001)
(-3.14688e-10 1.75488e-09 -0.001)
(-1.08267e-10 1.74753e-09 -0.001)
(-8.5349e-10 4.34026e-10 -0.001)
(-7.81662e-10 4.20177e-10 -0.001)
(-6.48262e-10 4.11063e-10 -0.001)
(-4.0746e-10 4.10913e-10 -0.001)
(-1.3457e-10 4.14889e-10 -0.001)
(-8.76833e-10 1.24221e-09 -0.001)
(-8.06141e-10 1.21734e-09 -0.001)
(-6.58799e-10 1.19749e-09 -0.001)
(-4.03647e-10 1.19754e-09 -0.001)
(-1.30104e-10 1.19852e-09 -0.001)
(-9.01187e-10 1.85399e-09 -0.001)
(-8.27932e-10 1.85916e-09 -0.001)
(-6.69294e-10 1.84527e-09 -0.001)
(-4.04955e-10 1.84818e-09 -0.001)
(-1.31656e-10 1.84099e-09 -0.001)
(-9.21099e-10 2.16765e-09 -0.001)
(-8.14965e-10 2.23576e-09 -0.001)
(-6.69652e-10 2.26513e-09 -0.001)
(-4.04399e-10 2.28979e-09 -0.001)
(-1.33928e-10 2.28583e-09 -0.001)
(-1.04955e-09 2.57452e-09 -0.001)
(-7.30432e-10 2.44029e-09 -0.001)
(-6.14958e-10 2.4388e-09 -0.001)
(-3.79794e-10 2.44672e-09 -0.001)
(-1.31447e-10 2.44527e-09 -0.001)
(-1.19392e-09 5.62754e-10 -0.001)
(-1.08759e-09 5.5615e-10 -0.001)
(-8.75141e-10 5.52942e-10 -0.001)
(-5.52903e-10 5.5588e-10 -0.001)
(-1.8564e-10 5.58878e-10 -0.001)
(-1.20999e-09 1.60781e-09 -0.001)
(-1.09947e-09 1.59928e-09 -0.001)
(-8.76992e-10 1.59046e-09 -0.001)
(-5.4696e-10 1.59672e-09 -0.001)
(-1.81996e-10 1.59881e-09 -0.001)
(-1.22724e-09 2.42852e-09 -0.001)
(-1.1071e-09 2.45584e-09 -0.001)
(-8.79249e-10 2.45106e-09 -0.001)
(-5.42574e-10 2.45837e-09 -0.001)
(-1.8102e-10 2.45457e-09 -0.001)
(-1.25189e-09 2.91307e-09 -0.001)
(-1.07707e-09 3.00191e-09 -0.001)
(-8.74248e-10 3.04589e-09 -0.001)
(-5.38768e-10 3.07599e-09 -0.001)
(-1.81406e-10 3.0755e-09 -0.001)
(-1.42407e-09 3.52612e-09 -0.001)
(-9.74275e-10 3.34957e-09 -0.001)
(-8.04758e-10 3.33874e-09 -0.001)
(-5.07135e-10 3.34745e-09 -0.001)
(-1.76135e-10 3.34586e-09 -0.001)
(-1.64527e-09 7.38218e-10 -0.001)
(-1.49222e-09 7.39624e-10 -0.001)
(-1.18304e-09 7.40962e-10 -0.001)
(-7.55621e-10 7.45121e-10 -0.00100001)
(-2.58728e-10 7.44967e-10 -0.00100001)
(-1.65137e-09 2.11085e-09 -0.001)
(-1.49217e-09 2.12024e-09 -0.001)
(-1.17957e-09 2.11996e-09 -0.001)
(-7.5162e-10 2.12779e-09 -0.001)
(-2.58053e-10 2.12659e-09 -0.001)
(-1.65663e-09 3.22198e-09 -0.001)
(-1.48601e-09 3.26881e-09 -0.001)
(-1.1775e-09 3.27078e-09 -0.001)
(-7.46447e-10 3.27592e-09 -0.001)
(-2.56671e-10 3.27103e-09 -0.001)
(-1.68912e-09 3.96847e-09 -0.001)
(-1.44356e-09 4.06089e-09 -0.001)
(-1.17218e-09 4.10389e-09 -0.001)
(-7.45304e-10 4.12269e-09 -0.001)
(-2.57279e-10 4.11619e-09 -0.001)
(-1.87661e-09 4.78785e-09 -0.001)
(-1.35052e-09 4.57973e-09 -0.001)
(-1.11514e-09 4.5482e-09 -0.001)
(-7.26385e-10 4.54783e-09 -0.001)
(-2.56014e-10 4.54005e-09 -0.001)
(-2.26093e-09 9.84706e-10 -0.00100001)
(-2.05109e-09 9.91717e-10 -0.00100001)
(-1.61502e-09 9.95465e-10 -0.00100001)
(-1.04086e-09 9.98968e-10 -0.00100001)
(-3.61685e-10 9.94392e-10 -0.00100001)
(-2.2576e-09 2.81717e-09 -0.00100001)
(-2.04395e-09 2.84205e-09 -0.00100001)
(-1.61052e-09 2.84752e-09 -0.00100001)
(-1.04201e-09 2.85358e-09 -0.00100001)
(-3.65197e-10 2.84662e-09 -0.00100001)
(-2.25107e-09 4.33119e-09 -0.001)
(-2.02468e-09 4.39446e-09 -0.001)
(-1.60623e-09 4.40102e-09 -0.00100001)
(-1.03843e-09 4.40038e-09 -0.00100001)
(-3.6436e-10 4.39155e-09 -0.00100001)
(-2.27894e-09 5.42259e-09 -0.001)
(-1.97438e-09 5.51564e-09 -0.001)
(-1.60422e-09 5.54812e-09 -0.001)
(-1.04337e-09 5.54754e-09 -0.001)
(-3.66455e-10 5.53099e-09 -0.001)
(-2.46377e-09 6.46416e-09 -0.001)
(-1.89901e-09 6.24832e-09 -0.001)
(-1.57355e-09 6.19588e-09 -0.001)
(-1.04505e-09 6.17669e-09 -0.001)
(-3.71148e-10 6.15893e-09 -0.001)
(-3.09542e-09 1.32801e-09 -0.00100001)
(-2.81299e-09 1.33961e-09 -0.00100001)
(-2.20748e-09 1.34454e-09 -0.00100001)
(-1.42863e-09 1.34654e-09 -0.00100001)
(-4.99549e-10 1.33828e-09 -0.00100001)
(-3.08364e-09 3.81249e-09 -0.00100001)
(-2.80149e-09 3.84968e-09 -0.00100001)
(-2.20441e-09 3.85871e-09 -0.00100001)
(-1.43506e-09 3.86215e-09 -0.00100001)
(-5.06409e-10 3.85042e-09 -0.00100001)
(-3.06833e-09 5.90211e-09 -0.00100001)
(-2.77221e-09 5.97124e-09 -0.00100001)
(-2.1988e-09 5.97799e-09 -0.00100001)
(-1.43247e-09 5.97216e-09 -0.00100001)
(-5.05514e-10 5.96047e-09 -0.00100001)
(-3.07074e-09 7.42126e-09 -0.001)
(-2.72598e-09 7.52141e-09 -0.001)
(-2.20297e-09 7.54145e-09 -0.00100001)
(-1.44151e-09 7.52602e-09 -0.00100001)
(-5.07716e-10 7.50498e-09 -0.00100001)
(-3.25777e-09 8.69793e-09 -0.001)
(-2.65215e-09 8.51558e-09 -0.001)
(-2.19315e-09 8.45659e-09 -0.001)
(-1.45455e-09 8.41926e-09 -0.001)
(-5.13112e-10 8.3936e-09 -0.001)
(-4.20006e-09 1.80859e-09 -0.00100001)
(-3.81345e-09 1.82286e-09 -0.00100001)
(-2.99505e-09 1.8284e-09 -0.00100001)
(-1.9393e-09 1.82925e-09 -0.00100001)
(-6.77974e-10 1.8198e-09 -0.00100002)
(-4.18467e-09 5.22174e-09 -0.00100001)
(-3.80055e-09 5.26129e-09 -0.00100001)
(-2.99389e-09 5.27169e-09 -0.00100001)
(-1.94802e-09 5.2729e-09 -0.00100001)
(-6.85496e-10 5.25928e-09 -0.00100001)
(-4.16788e-09 8.1214e-09 -0.00100001)
(-3.7709e-09 8.18037e-09 -0.00100001)
(-2.98856e-09 8.18532e-09 -0.00100001)
(-1.94552e-09 8.1775e-09 -0.00100001)
(-6.8367e-10 8.16526e-09 -0.00100001)
(-4.14549e-09 1.02144e-08 -0.00100001)
(-3.73712e-09 1.03145e-08 -0.00100001)
(-2.99604e-09 1.03225e-08 -0.00100001)
(-1.95278e-09 1.03042e-08 -0.00100001)
(-6.83354e-10 1.02867e-08 -0.00100001)
(-4.31267e-09 1.17388e-08 -0.001)
(-3.6628e-09 1.16163e-08 -0.001)
(-2.99745e-09 1.15694e-08 -0.001)
(-1.96161e-09 1.15278e-08 -0.001)
(-6.82801e-10 1.15006e-08 -0.00100001)
(-5.65895e-09 2.48366e-09 -0.00100002)
(-5.11965e-09 2.49545e-09 -0.00100002)
(-4.03703e-09 2.50061e-09 -0.00100002)
(-2.61007e-09 2.501e-09 -0.00100002)
(-9.09039e-10 2.49214e-09 -0.00100002)
(-5.65043e-09 7.20169e-09 -0.00100001)
(-5.11195e-09 7.22797e-09 -0.00100002)
(-4.03835e-09 7.23667e-09 -0.00100002)
(-2.61848e-09 7.23618e-09 -0.00100002)
(-9.15176e-10 7.22153e-09 -0.00100002)
(-5.64241e-09 1.12128e-08 -0.00100001)
(-5.09458e-09 1.12488e-08 -0.00100001)
(-4.03559e-09 1.12524e-08 -0.00100001)
(-2.61651e-09 1.12451e-08 -0.00100002)
(-9.12696e-10 1.12313e-08 -0.00100002)
(-5.61574e-09 1.41147e-08 -0.00100001)
(-5.07306e-09 1.41874e-08 -0.00100001)
(-4.04102e-09 1.41914e-08 -0.00100001)
(-2.61841e-09 1.41789e-08 -0.00100001)
(-9.09118e-10 1.41648e-08 -0.00100001)
(-5.72619e-09 1.59364e-08 -0.001)
(-5.01789e-09 1.5876e-08 -0.001)
(-4.04212e-09 1.58488e-08 -0.00100001)
(-2.61597e-09 1.58185e-08 -0.00100001)
(-9.01621e-10 1.57928e-08 -0.00100001)
(-7.62373e-09 3.41958e-09 -0.00100002)
(-6.87122e-09 3.42332e-09 -0.00100003)
(-5.43863e-09 3.42669e-09 -0.00100003)
(-3.5087e-09 3.42712e-09 -0.00100003)
(-1.21694e-09 3.41868e-09 -0.00100003)
(-7.63236e-09 9.92972e-09 -0.00100002)
(-6.87639e-09 9.93406e-09 -0.00100002)
(-5.44393e-09 9.93742e-09 -0.00100002)
(-3.51648e-09 9.93489e-09 -0.00100003)
(-1.22158e-09 9.91671e-09 -0.00100003)
(-7.63932e-09 1.5452e-08 -0.00100002)
(-6.87671e-09 1.54602e-08 -0.00100002)
(-5.44681e-09 1.54601e-08 -0.00100002)
(-3.51727e-09 1.54526e-08 -0.00100002)
(-1.2199e-09 1.54316e-08 -0.00100002)
(-7.62988e-09 1.94677e-08 -0.00100001)
(-6.86921e-09 1.94972e-08 -0.00100001)
(-5.45024e-09 1.94989e-08 -0.00100001)
(-3.51599e-09 1.94932e-08 -0.00100002)
(-1.21527e-09 1.94735e-08 -0.00100002)
(-7.67069e-09 2.17247e-08 -0.001)
(-6.84547e-09 2.17082e-08 -0.00100001)
(-5.44817e-09 2.16946e-08 -0.00100001)
(-3.50542e-09 2.16805e-08 -0.00100001)
(-1.20501e-09 2.16526e-08 -0.00100001)
(-1.03123e-08 4.69307e-09 -0.00100003)
(-9.27367e-09 4.68834e-09 -0.00100003)
(-7.35116e-09 4.68927e-09 -0.00100004)
(-4.73328e-09 4.68927e-09 -0.00100004)
(-1.63679e-09 4.67903e-09 -0.00100004)
(-1.03404e-08 1.36308e-08 -0.00100003)
(-9.29387e-09 1.36154e-08 -0.00100003)
(-7.36254e-09 1.36103e-08 -0.00100003)
(-4.74318e-09 1.36034e-08 -0.00100004)
(-1.64179e-09 1.35766e-08 -0.00100004)
(-1.03635e-08 2.12054e-08 -0.00100002)
(-9.3119e-09 2.11859e-08 -0.00100003)
(-7.37542e-09 2.11742e-08 -0.00100003)
(-4.75025e-09 2.11611e-08 -0.00100003)
(-1.64266e-09 2.11259e-08 -0.00100003)
(-1.03795e-08 2.67221e-08 -0.00100001)
(-9.3263e-09 2.67065e-08 -0.00100002)
(-7.38554e-09 2.66961e-08 -0.00100002)
(-4.75185e-09 2.66906e-08 -0.00100002)
(-1.63969e-09 2.66564e-08 -0.00100002)
(-1.04005e-08 2.96588e-08 -0.00100001)
(-9.33784e-09 2.96434e-08 -0.00100001)
(-7.38773e-09 2.96321e-08 -0.00100001)
(-4.73904e-09 2.96271e-08 -0.00100001)
(-1.62957e-09 2.95892e-08 -0.00100001)
(-1.39922e-08 6.41075e-09 -0.00100004)
(-1.25735e-08 6.40134e-09 -0.00100005)
(-9.96714e-09 6.39966e-09 -0.00100005)
(-6.41061e-09 6.39745e-09 -0.00100005)
(-2.21363e-09 6.38264e-09 -0.00100005)
(-1.40358e-08 1.86242e-08 -0.00100004)
(-1.26068e-08 1.85942e-08 -0.00100004)
(-9.98795e-09 1.85782e-08 -0.00100005)
(-6.42722e-09 1.85635e-08 -0.00100005)
(-2.22128e-09 1.85236e-08 -0.00100005)
(-1.40738e-08 2.89816e-08 -0.00100003)
(-1.26435e-08 2.89295e-08 -0.00100004)
(-1.00146e-08 2.88981e-08 -0.00100004)
(-6.44243e-09 2.88742e-08 -0.00100004)
(-2.225e-09 2.882e-08 -0.00100004)
(-1.41166e-08 3.65234e-08 -0.00100002)
(-1.2692e-08 3.64479e-08 -0.00100002)
(-1.00408e-08 3.64149e-08 -0.00100003)
(-6.45113e-09 3.64027e-08 -0.00100003)
(-2.22455e-09 3.63466e-08 -0.00100003)
(-1.41624e-08 4.04335e-08 -0.00100001)
(-1.27519e-08 4.0398e-08 -0.00100001)
(-1.00549e-08 4.03797e-08 -0.00100002)
(-6.44128e-09 4.03732e-08 -0.00100002)
(-2.21648e-09 4.03139e-08 -0.00100002)
(-1.8996e-08 8.729e-09 -0.00100006)
(-1.70718e-08 8.71821e-09 -0.00100006)
(-1.35348e-08 8.7133e-09 -0.00100007)
(-8.70485e-09 8.70695e-09 -0.00100007)
(-3.00501e-09 8.68669e-09 -0.00100007)
(-1.90519e-08 2.53616e-08 -0.00100005)
(-1.71181e-08 2.53201e-08 -0.00100006)
(-1.35694e-08 2.52933e-08 -0.00100006)
(-8.73099e-09 2.52692e-08 -0.00100007)
(-3.01554e-09 2.52149e-08 -0.00100007)
(-1.91036e-08 3.94706e-08 -0.00100004)
(-1.71731e-08 3.93855e-08 -0.00100005)
(-1.36087e-08 3.93359e-08 -0.00100005)
(-8.75233e-09 3.93012e-08 -0.00100006)
(-3.02054e-09 3.92246e-08 -0.00100006)
(-1.91674e-08 4.97353e-08 -0.00100003)
(-1.7255e-08 4.96052e-08 -0.00100003)
(-1.36503e-08 4.95501e-08 -0.00100004)
(-8.76846e-09 4.95255e-08 -0.00100004)
(-3.02266e-09 4.94378e-08 -0.00100004)
(-1.92284e-08 5.50001e-08 -0.00100001)
(-1.73582e-08 5.49592e-08 -0.00100002)
(-1.36817e-08 5.49312e-08 -0.00100002)
(-8.76997e-09 5.4914e-08 -0.00100003)
(-3.02019e-09 5.48195e-08 -0.00100003)
(-2.57789e-08 1.18693e-08 -0.00100008)
(-2.31824e-08 1.18569e-08 -0.00100009)
(-1.8392e-08 1.18478e-08 -0.00100009)
(-1.18343e-08 1.18372e-08 -0.0010001)
(-4.08559e-09 1.18126e-08 -0.0010001)
(-2.58491e-08 3.44709e-08 -0.00100007)
(-2.32459e-08 3.44212e-08 -0.00100008)
(-1.84436e-08 3.4387e-08 -0.00100009)
(-1.18689e-08 3.43564e-08 -0.00100009)
(-4.09698e-09 3.42877e-08 -0.00100009)
(-2.59109e-08 5.36262e-08 -0.00100006)
(-2.33115e-08 5.35252e-08 -0.00100007)
(-1.84883e-08 5.34695e-08 -0.00100007)
(-1.18915e-08 5.34284e-08 -0.00100008)
(-4.10142e-09 5.3325e-08 -0.00100008)
(-2.59861e-08 6.75539e-08 -0.00100004)
(-2.34058e-08 6.74119e-08 -0.00100005)
(-1.85358e-08 6.73452e-08 -0.00100005)
(-1.19128e-08 6.73041e-08 -0.00100006)
(-4.10576e-09 6.71752e-08 -0.00100006)
(-2.60318e-08 7.47305e-08 -0.00100002)
(-2.35199e-08 7.46984e-08 -0.00100002)
(-1.85869e-08 7.46584e-08 -0.00100003)
(-1.19326e-08 7.46238e-08 -0.00100003)
(-4.11041e-09 7.44836e-08 -0.00100004)
(-3.49872e-08 1.61327e-08 -0.00100011)
(-3.14941e-08 1.61165e-08 -0.00100012)
(-2.49997e-08 1.61038e-08 -0.00100013)
(-1.60901e-08 1.60921e-08 -0.00100013)
(-5.55406e-09 1.60633e-08 -0.00100014)
(-3.50777e-08 4.68189e-08 -0.0010001)
(-3.15804e-08 4.67672e-08 -0.00100011)
(-2.50676e-08 4.67322e-08 -0.00100012)
(-1.61299e-08 4.6702e-08 -0.00100012)
(-5.56485e-09 4.66168e-08 -0.00100013)
(-3.5143e-08 7.28e-08 -0.00100008)
(-3.16425e-08 7.27076e-08 -0.00100009)
(-2.51078e-08 7.26572e-08 -0.0010001)
(-1.61483e-08 7.26157e-08 -0.0010001)
(-5.56734e-09 7.24809e-08 -0.00100011)
(-3.52244e-08 9.17066e-08 -0.00100005)
(-3.17275e-08 9.15831e-08 -0.00100006)
(-2.51533e-08 9.15113e-08 -0.00100007)
(-1.61692e-08 9.14556e-08 -0.00100008)
(-5.57081e-09 9.12813e-08 -0.00100008)
(-3.52665e-08 1.01554e-07 -0.00100002)
(-3.18374e-08 1.01511e-07 -0.00100003)
(-2.52228e-08 1.01449e-07 -0.00100004)
(-1.62027e-08 1.01395e-07 -0.00100005)
(-5.57833e-09 1.01201e-07 -0.00100005)
(-4.75108e-08 2.19208e-08 -0.00100015)
(-4.28036e-08 2.19035e-08 -0.00100016)
(-3.39694e-08 2.18928e-08 -0.00100017)
(-2.18581e-08 2.18845e-08 -0.00100018)
(-7.54275e-09 2.18491e-08 -0.00100019)
(-4.76234e-08 6.35892e-08 -0.00100013)
(-4.291e-08 6.35475e-08 -0.00100015)
(-3.40478e-08 6.35229e-08 -0.00100016)
(-2.19006e-08 6.35012e-08 -0.00100017)
(-7.55362e-09 6.33943e-08 -0.00100017)
(-4.7682e-08 9.88627e-08 -0.00100011)
(-4.29541e-08 9.87942e-08 -0.00100012)
(-3.40741e-08 9.87563e-08 -0.00100013)
(-2.19087e-08 9.87212e-08 -0.00100014)
(-7.55181e-09 9.85495e-08 -0.00100015)
(-4.77692e-08 1.24569e-07 -0.00100007)
(-4.30222e-08 1.24457e-07 -0.00100009)
(-3.41122e-08 1.24383e-07 -0.0010001)
(-2.19209e-08 1.24322e-07 -0.00100011)
(-7.54983e-09 1.24097e-07 -0.00100011)
(-4.78554e-08 1.38064e-07 -0.00100003)
(-4.31398e-08 1.37972e-07 -0.00100004)
(-3.41919e-08 1.37877e-07 -0.00100006)
(-2.19552e-08 1.37802e-07 -0.00100006)
(-7.55424e-09 1.37542e-07 -0.00100007)
(-6.45353e-08 2.97801e-08 -0.0010002)
(-5.81494e-08 2.97736e-08 -0.00100022)
(-4.61099e-08 2.97738e-08 -0.00100024)
(-2.9655e-08 2.97731e-08 -0.00100025)
(-1.02308e-08 2.97272e-08 -0.00100025)
(-6.46627e-08 8.63931e-08 -0.00100018)
(-5.82622e-08 8.63804e-08 -0.0010002)
(-4.6191e-08 8.63805e-08 -0.00100022)
(-2.96999e-08 8.63745e-08 -0.00100023)
(-1.02432e-08 8.62367e-08 -0.00100023)
(-6.46997e-08 1.3434e-07 -0.00100015)
(-5.82766e-08 1.34299e-07 -0.00100016)
(-4.61952e-08 1.34281e-07 -0.00100018)
(-2.96924e-08 1.34257e-07 -0.00100019)
(-1.02351e-08 1.34034e-07 -0.0010002)
(-6.47882e-08 1.69306e-07 -0.0010001)
(-5.83289e-08 1.69188e-07 -0.00100012)
(-4.62208e-08 1.69114e-07 -0.00100013)
(-2.96931e-08 1.69052e-07 -0.00100014)
(-1.02277e-08 1.68756e-07 -0.00100015)
(-6.49321e-08 1.8771e-07 -0.00100004)
(-5.84679e-08 1.87556e-07 -0.00100006)
(-4.63075e-08 1.87419e-07 -0.00100008)
(-2.97249e-08 1.87316e-07 -0.00100009)
(-1.02282e-08 1.86963e-07 -0.00100009)
(-8.76527e-08 4.04676e-08 -0.00100027)
(-7.89199e-08 4.04867e-08 -0.0010003)
(-6.252e-08 4.05062e-08 -0.00100032)
(-4.01875e-08 4.05163e-08 -0.00100034)
(-1.38622e-08 4.04552e-08 -0.00100035)
(-8.77826e-08 1.17426e-07 -0.00100025)
(-7.90258e-08 1.17463e-07 -0.00100027)
(-6.25995e-08 1.17502e-07 -0.00100029)
(-4.02358e-08 1.17518e-07 -0.00100031)
(-1.38775e-08 1.17335e-07 -0.00100032)
(-8.77767e-08 1.82626e-07 -0.0010002)
(-7.89997e-08 1.82616e-07 -0.00100022)
(-6.2573e-08 1.82626e-07 -0.00100025)
(-4.02093e-08 1.82614e-07 -0.00100026)
(-1.3863e-08 1.82314e-07 -0.00100027)
(-8.78564e-08 2.30171e-07 -0.00100013)
(-7.90368e-08 2.30034e-07 -0.00100016)
(-6.25853e-08 2.29953e-07 -0.00100018)
(-4.02014e-08 2.29878e-07 -0.0010002)
(-1.3852e-08 2.29474e-07 -0.00100021)
(-8.8039e-08 2.55186e-07 -0.00100005)
(-7.92174e-08 2.54963e-07 -0.00100008)
(-6.26979e-08 2.54765e-07 -0.0010001)
(-4.02446e-08 2.54611e-07 -0.00100012)
(-1.38541e-08 2.54121e-07 -0.00100013)
(-1.1905e-07 5.50175e-08 -0.00100037)
(-1.07041e-07 5.50754e-08 -0.00100041)
(-8.4714e-08 5.51241e-08 -0.00100044)
(-5.44221e-08 5.51522e-08 -0.00100046)
(-1.87681e-08 5.50733e-08 -0.00100047)
(-1.19163e-07 1.59656e-07 -0.00100034)
(-1.0713e-07 1.59774e-07 -0.00100037)
(-8.4785e-08 1.59876e-07 -0.0010004)
(-5.44688e-08 1.5993e-07 -0.00100042)
(-1.87846e-08 1.59694e-07 -0.00100043)
(-1.19071e-07 2.48292e-07 -0.00100027)
(-1.07032e-07 2.48344e-07 -0.00100031)
(-8.47038e-08 2.48403e-07 -0.00100034)
(-5.44064e-08 2.48417e-07 -0.00100036)
(-1.87569e-08 2.48022e-07 -0.00100037)
(-1.19115e-07 3.12903e-07 -0.00100018)
(-1.07034e-07 3.12752e-07 -0.00100022)
(-8.469e-08 3.12655e-07 -0.00100025)
(-5.43778e-08 3.1256e-07 -0.00100027)
(-1.87361e-08 3.12007e-07 -0.00100028)
(-1.19339e-07 3.46903e-07 -0.00100007)
(-1.07279e-07 3.46563e-07 -0.00100011)
(-8.48533e-08 3.46266e-07 -0.00100014)
(-5.44493e-08 3.46028e-07 -0.00100016)
(-1.8746e-08 3.45344e-07 -0.00100017)
(-1.61738e-07 7.48211e-08 -0.0010005)
(-1.4517e-07 7.49483e-08 -0.00100055)
(-1.1475e-07 7.50536e-08 -0.00100059)
(-7.3656e-08 7.51213e-08 -0.00100062)
(-2.53888e-08 7.50306e-08 -0.00100064)
(-1.61779e-07 2.17094e-07 -0.00100046)
(-1.45202e-07 2.1738e-07 -0.00100051)
(-1.14776e-07 2.17616e-07 -0.00100055)
(-7.36723e-08 2.17763e-07 -0.00100058)
(-2.53942e-08 2.17483e-07 -0.00100059)
(-1.61492e-07 3.37538e-07 -0.00100037)
(-1.44934e-07 3.37756e-07 -0.00100042)
(-1.14564e-07 3.37941e-07 -0.00100046)
(-7.35179e-08 3.38042e-07 -0.00100049)
(-2.5331e-08 3.37547e-07 -0.0010005)
(-1.61416e-07 4.25276e-07 -0.00100025)
(-1.44819e-07 4.2517e-07 -0.00100029)
(-1.1446e-07 4.25094e-07 -0.00100033)
(-7.34233e-08 4.25007e-07 -0.00100036)
(-2.52846e-08 4.24271e-07 -0.00100038)
(-1.61701e-07 4.71536e-07 -0.0010001)
(-1.45114e-07 4.71003e-07 -0.00100015)
(-1.14669e-07 4.70564e-07 -0.00100019)
(-7.35167e-08 4.70202e-07 -0.00100022)
(-2.52992e-08 4.69254e-07 -0.00100024)
(-2.19837e-07 1.01776e-07 -0.00100069)
(-1.96898e-07 1.02055e-07 -0.00100075)
(-1.55384e-07 1.02285e-07 -0.00100081)
(-9.96142e-08 1.02443e-07 -0.00100085)
(-3.43036e-08 1.02357e-07 -0.00100087)
(-2.19658e-07 2.95226e-07 -0.00100062)
(-1.96746e-07 2.95889e-07 -0.00100069)
(-1.55265e-07 2.96429e-07 -0.00100074)
(-9.95307e-08 2.96797e-07 -0.00100078)
(-3.42729e-08 2.96502e-07 -0.0010008)
(-2.18929e-07 4.58845e-07 -0.0010005)
(-1.96083e-07 4.59458e-07 -0.00100057)
(-1.54744e-07 4.59957e-07 -0.00100062)
(-9.91695e-08 4.60281e-07 -0.00100066)
(-3.41366e-08 4.59694e-07 -0.00100068)
(-2.18523e-07 5.77899e-07 -0.00100034)
(-1.95661e-07 5.77981e-07 -0.0010004)
(-1.54402e-07 5.78039e-07 -0.00100045)
(-9.89168e-08 5.78044e-07 -0.00100049)
(-3.40356e-08 5.77094e-07 -0.00100051)
(-2.1885e-07 6.40802e-07 -0.00100014)
(-1.95941e-07 6.40011e-07 -0.00100021)
(-1.546e-07 6.39383e-07 -0.00100026)
(-9.89901e-08 6.38863e-07 -0.0010003)
(-3.40402e-08 6.37558e-07 -0.00100032)
(-2.98999e-07 1.38512e-07 -0.00100094)
(-2.67088e-07 1.39121e-07 -0.00100103)
(-2.10333e-07 1.39612e-07 -0.0010011)
(-1.34612e-07 1.39965e-07 -0.00100115)
(-4.62717e-08 1.39908e-07 -0.00100118)
(-2.98278e-07 4.01622e-07 -0.00100085)
(-2.66464e-07 4.03096e-07 -0.00100094)
(-2.09847e-07 4.0428e-07 -0.00100101)
(-1.34294e-07 4.05124e-07 -0.00100106)
(-4.61668e-08 4.04872e-07 -0.00100109)
(-2.96592e-07 6.23809e-07 -0.00100068)
(-2.6495e-07 6.25289e-07 -0.00100077)
(-2.08662e-07 6.26472e-07 -0.00100084)
(-1.33509e-07 6.27294e-07 -0.0010009)
(-4.58929e-08 6.26656e-07 -0.00100092)
(-2.95408e-07 7.85184e-07 -0.00100046)
(-2.63838e-07 7.85751e-07 -0.00100054)
(-2.07787e-07 7.86175e-07 -0.00100062)
(-1.32915e-07 7.86444e-07 -0.00100067)
(-4.56809e-08 7.85246e-07 -0.0010007)
(-2.95637e-07 8.70505e-07 -0.00100019)
(-2.63956e-07 8.69432e-07 -0.00100028)
(-2.0786e-07 8.6857e-07 -0.00100035)
(-1.32905e-07 8.67865e-07 -0.0010004)
(-4.56635e-08 8.66041e-07 -0.00100043)
(-4.07069e-07 1.88692e-07 -0.00100127)
(-3.6241e-07 1.9e-07 -0.0010014)
(-2.84657e-07 1.91008e-07 -0.0010015)
(-1.81783e-07 1.9178e-07 -0.00100157)
(-6.2234e-08 1.91798e-07 -0.00100161)
(-4.05141e-07 5.4674e-07 -0.00100115)
(-3.60723e-07 5.49938e-07 -0.00100127)
(-2.83349e-07 5.52409e-07 -0.00100137)
(-1.80954e-07 5.54278e-07 -0.00100145)
(-6.19911e-08 5.5418e-07 -0.00100148)
(-4.01448e-07 8.48264e-07 -0.00100093)
(-3.57434e-07 8.51621e-07 -0.00100105)
(-2.8079e-07 8.54198e-07 -0.00100114)
(-1.79305e-07 8.56117e-07 -0.00100122)
(-6.14683e-08 8.55512e-07 -0.00100125)
(-3.98565e-07 1.0666e-06 -0.00100062)
(-3.54839e-07 1.06832e-06 -0.00100074)
(-2.78778e-07 1.06955e-06 -0.00100083)
(-1.78009e-07 1.07046e-06 -0.0010009)
(-6.10627e-08 1.06895e-06 -0.00100094)
(-3.98335e-07 1.18192e-06 -0.00100027)
(-3.5448e-07 1.18063e-06 -0.00100038)
(-2.78508e-07 1.17946e-06 -0.00100048)
(-1.77817e-07 1.17856e-06 -0.00100054)
(-6.10273e-08 1.17595e-06 -0.00100058)
(-5.55044e-07 2.57448e-07 -0.00100174)
(-4.92069e-07 2.60282e-07 -0.00100191)
(-3.85294e-07 2.62245e-07 -0.00100204)
(-2.45429e-07 2.6397e-07 -0.00100215)
(-8.31077e-08 2.64108e-07 -0.00100219)
(-5.50538e-07 7.45154e-07 -0.00100157)
(-4.88087e-07 7.52124e-07 -0.00100174)
(-3.82215e-07 7.56983e-07 -0.00100187)
(-2.43487e-07 7.61195e-07 -0.00100197)
(-8.26534e-08 7.61351e-07 -0.00100201)
(-5.42695e-07 1.15393e-06 -0.00100126)
(-4.81149e-07 1.16145e-06 -0.00100142)
(-3.76839e-07 1.16663e-06 -0.00100155)
(-2.40075e-07 1.17108e-06 -0.00100165)
(-8.17608e-08 1.17052e-06 -0.00100169)
(-5.36257e-07 1.44846e-06 -0.00100085)
(-4.75455e-07 1.45289e-06 -0.001001)
(-3.7248e-07 1.45565e-06 -0.00100113)
(-2.37368e-07 1.45813e-06 -0.00100122)
(-8.11097e-08 1.45612e-06 -0.00100126)
(-5.34826e-07 1.60348e-06 -0.00100036)
(-4.73956e-07 1.6023e-06 -0.00100052)
(-3.71393e-07 1.60061e-06 -0.00100064)
(-2.36748e-07 1.59963e-06 -0.00100073)
(-8.1106e-08 1.59573e-06 -0.00100077)
(-7.58571e-07 3.52011e-07 -0.00100236)
(-6.68791e-07 3.58475e-07 -0.00100262)
(-5.2183e-07 3.61849e-07 -0.00100278)
(-3.31876e-07 3.66019e-07 -0.00100294)
(-1.08632e-07 3.66078e-07 -0.00100299)
(-7.48659e-07 1.01731e-06 -0.00100214)
(-6.59978e-07 1.03319e-06 -0.00100238)
(-5.15047e-07 1.04164e-06 -0.00100254)
(-3.27491e-07 1.05185e-06 -0.00100269)
(-1.08115e-07 1.05174e-06 -0.00100274)
(-7.32304e-07 1.57059e-06 -0.00100172)
(-6.4563e-07 1.58792e-06 -0.00100194)
(-5.03956e-07 1.59701e-06 -0.0010021)
(-3.20379e-07 1.60792e-06 -0.00100223)
(-1.0707e-07 1.60663e-06 -0.00100228)
(-7.18562e-07 1.96597e-06 -0.00100115)
(-6.33648e-07 1.97711e-06 -0.00100136)
(-4.94898e-07 1.98201e-06 -0.00100151)
(-3.14807e-07 1.98887e-06 -0.00100164)
(-1.06501e-07 1.98543e-06 -0.00100169)
(-7.14463e-07 2.1725e-06 -0.0010005)
(-6.29578e-07 2.17276e-06 -0.00100069)
(-4.91919e-07 2.16966e-06 -0.00100085)
(-3.13052e-07 2.16943e-06 -0.00100097)
(-1.06844e-07 2.16295e-06 -0.00100103)
(-1.04064e-06 4.82139e-07 -0.0010032)
(-9.10473e-07 4.98578e-07 -0.00100363)
(-7.07244e-07 5.02326e-07 -0.00100378)
(-4.52642e-07 5.13659e-07 -0.00100406)
(-1.32397e-07 5.12139e-07 -0.00100408)
(-1.01959e-06 1.39117e-06 -0.00100289)
(-8.91503e-07 1.43132e-06 -0.00100328)
(-6.93061e-07 1.44085e-06 -0.00100343)
(-4.42506e-07 1.46887e-06 -0.00100369)
(-1.33213e-07 1.46451e-06 -0.00100371)
(-9.85693e-07 2.13779e-06 -0.00100231)
(-8.62235e-07 2.18162e-06 -0.00100264)
(-6.70641e-07 2.19156e-06 -0.00100281)
(-4.26949e-07 2.22188e-06 -0.00100302)
(-1.34319e-07 2.21462e-06 -0.00100306)
(-9.56889e-07 2.66466e-06 -0.00100156)
(-8.37848e-07 2.69483e-06 -0.00100184)
(-6.52602e-07 2.69881e-06 -0.00100202)
(-4.15185e-07 2.71978e-06 -0.00100219)
(-1.36361e-07 2.71027e-06 -0.00100225)
(-9.4727e-07 2.93568e-06 -0.00100068)
(-8.28078e-07 2.94316e-06 -0.00100093)
(-6.45317e-07 2.93413e-06 -0.00100112)
(-4.10106e-07 2.93877e-06 -0.00100127)
(-1.3871e-07 2.92534e-06 -0.00100134)
(-1.43568e-06 6.59085e-07 -0.00100426)
(-1.24536e-06 7.0571e-07 -0.00100513)
(-9.55279e-07 7.01762e-07 -0.00100508)
(-6.35698e-07 7.34368e-07 -0.00100569)
(-1.27599e-07 7.25682e-07 -0.00100557)
(-1.39247e-06 1.90113e-06 -0.00100384)
(-1.20395e-06 2.01547e-06 -0.00100459)
(-9.27558e-07 2.00426e-06 -0.00100459)
(-6.11085e-07 2.08753e-06 -0.00100512)
(-1.35082e-07 2.06306e-06 -0.00100503)
(-1.32224e-06 2.90175e-06 -0.00100306)
(-1.14388e-06 3.02792e-06 -0.00100364)
(-8.84265e-07 3.01065e-06 -0.00100371)
(-5.73747e-07 3.10386e-06 -0.00100411)
(-1.48157e-07 3.0687e-06 -0.00100407)
(-1.2618e-06 3.59685e-06 -0.00100208)
(-1.09519e-06 3.68965e-06 -0.0010025)
(-8.51326e-07 3.66851e-06 -0.00100265)
(-5.4694e-07 3.73899e-06 -0.00100293)
(-1.64018e-07 3.70432e-06 -0.00100296)
(-1.24121e-06 3.94392e-06 -0.00100092)
(-1.07221e-06 3.98394e-06 -0.00100122)
(-8.34405e-07 3.94722e-06 -0.00100144)
(-5.30365e-07 3.97446e-06 -0.00100163)
(-1.75361e-07 3.9385e-06 -0.0010017)
(-1.98919e-06 8.93839e-07 -0.00100554)
(-1.73045e-06 1.02415e-06 -0.00100741)
(-1.27196e-06 9.88674e-07 -0.00100678)
(-9.46614e-07 1.07626e-06 -0.00100811)
(-2.30895e-08 1.04619e-06 -0.00100763)
(-1.90533e-06 2.58874e-06 -0.001005)
(-1.63649e-06 2.91407e-06 -0.00100657)
(-1.22054e-06 2.81155e-06 -0.00100605)
(-8.8756e-07 3.04645e-06 -0.00100721)
(-5.08351e-08 2.95859e-06 -0.0010068)
(-1.76193e-06 3.90631e-06 -0.00100391)
(-1.50923e-06 4.27739e-06 -0.00100505)
(-1.14049e-06 4.13185e-06 -0.00100475)
(-7.94227e-07 4.40643e-06 -0.00100557)
(-1.03778e-07 4.27864e-06 -0.00100532)
(-1.63463e-06 4.80534e-06 -0.0010027)
(-1.41112e-06 5.10554e-06 -0.00100343)
(-1.09106e-06 4.96268e-06 -0.0010034)
(-7.31424e-07 5.19336e-06 -0.00100394)
(-1.67978e-07 5.07485e-06 -0.00100387)
(-1.59374e-06 5.2278e-06 -0.0010012)
(-1.35186e-06 5.40067e-06 -0.00100155)
(-1.05195e-06 5.24807e-06 -0.00100175)
(-6.70916e-07 5.36078e-06 -0.00100197)
(-2.1031e-07 5.25126e-06 -0.00100202)
(-2.74901e-06 1.19284e-06 -0.00100701)
(-2.47875e-06 1.52726e-06 -0.00101095)
(-1.65966e-06 1.41143e-06 -0.00100898)
(-1.50804e-06 1.62266e-06 -0.00101182)
(3.28455e-07 1.54129e-06 -0.00101053)
(-2.59799e-06 3.5227e-06 -0.00100636)
(-2.25929e-06 4.36446e-06 -0.00100961)
(-1.56402e-06 4.01473e-06 -0.00100789)
(-1.37473e-06 4.61519e-06 -0.00101035)
(2.51987e-07 4.36603e-06 -0.00100922)
(-2.3124e-06 5.19925e-06 -0.00100475)
(-1.98736e-06 6.17591e-06 -0.001007)
(-1.4091e-06 5.6627e-06 -0.00100583)
(-1.1466e-06 6.37721e-06 -0.00100747)
(9.41426e-08 5.99938e-06 -0.00100672)
(-2.04122e-06 6.31277e-06 -0.00100344)
(-1.79597e-06 7.1916e-06 -0.00100479)
(-1.36203e-06 6.67766e-06 -0.00100429)
(-1.02221e-06 7.34344e-06 -0.00100536)
(-1.04904e-07 6.99854e-06 -0.00100508)
(-1.96736e-06 6.74128e-06 -0.00100141)
(-1.62241e-06 7.35158e-06 -0.00100175)
(-1.25626e-06 6.81403e-06 -0.00100183)
(-8.07998e-07 7.18083e-06 -0.00100203)
(-2.2895e-07 6.8609e-06 -0.00100204)
(-3.75223e-06 1.51964e-06 -0.00100855)