/*--------------------------------*- C++ -*----------------------------------*\
| =========                 |                                                 |
| \\      /  F ield         | OpenFOAM: The Open Source CFD Toolbox           |
|  \\    /   O peration     | Version:  5.x                                   |
|   \\  /    A nd           | Web:      www.OpenFOAM.org                      |
|    \\/     M anipulation  |                                                 |
\*---------------------------------------------------------------------------*/
FoamFile
{
    version     2.0;
    format      ascii;
    class       volVectorField;
    location    "90000";
    object      U;
}
// * * * * * * * * * * * * * * * * * * * * * * * * * * * * * * * * * * * * * //

dimensions      [0 1 -1 0 0 0 0];

internalField   nonuniform List<vector> 
2250
(
(-5.64145e-11 4.09496e-11 -0.001)
(-6.28865e-11 3.8255e-11 -0.001)
(-5.76791e-11 3.8067e-11 -0.001)
(-3.49254e-11 3.89551e-11 -0.001)
(-1.25018e-11 3.87359e-11 -0.001)
(-5.61377e-11 1.02865e-10 -0.001)
(-6.59806e-11 1.02695e-10 -0.001)
(-5.70461e-11 1.04765e-10 -0.001)
(-3.42188e-11 1.06775e-10 -0.001)
(-1.26718e-11 1.0677e-10 -0.001)
(-5.46303e-11 1.54286e-10 -0.001)
(-6.11611e-11 1.56196e-10 -0.001)
(-5.36756e-11 1.6004e-10 -0.001)
(-3.273e-11 1.61702e-10 -0.001)
(-1.22914e-11 1.6206e-10 -0.001)
(-5.1122e-11 2.12492e-10 -0.001)
(-6.02037e-11 2.04235e-10 -0.001)
(-5.15219e-11 2.04837e-10 -0.001)
(-3.18487e-11 2.02386e-10 -0.001)
(-1.19765e-11 2.00829e-10 -0.001)
(-4.86874e-11 2.18204e-10 -0.001)
(-6.88424e-11 2.30528e-10 -0.001)
(-5.54926e-11 2.27583e-10 -0.001)
(-3.63219e-11 2.24582e-10 -0.001)
(-1.34725e-11 2.21603e-10 -0.001)
(-1.3843e-10 1.01097e-10 -0.001)
(-1.52998e-10 9.84159e-11 -0.001)
(-1.40335e-10 9.92111e-11 -0.001)
(-8.57555e-11 1.01945e-10 -0.001)
(-3.13063e-11 1.01425e-10 -0.001)
(-1.35166e-10 2.68787e-10 -0.001)
(-1.55162e-10 2.72209e-10 -0.001)
(-1.36929e-10 2.78052e-10 -0.001)
(-8.33935e-11 2.83103e-10 -0.001)
(-3.16551e-11 2.83738e-10 -0.001)
(-1.32631e-10 4.13282e-10 -0.001)
(-1.43999e-10 4.18268e-10 -0.001)
(-1.29601e-10 4.26798e-10 -0.001)
(-7.95956e-11 4.29667e-10 -0.001)
(-3.0142e-11 4.31817e-10 -0.001)
(-1.25262e-10 5.63568e-10 -0.001)
(-1.4171e-10 5.45873e-10 -0.001)
(-1.25491e-10 5.45293e-10 -0.001)
(-7.75258e-11 5.40468e-10 -0.001)
(-2.86948e-11 5.40519e-10 -0.001)
(-1.14794e-10 5.87931e-10 -0.001)
(-1.62293e-10 6.1072e-10 -0.001)
(-1.34934e-10 6.05696e-10 -0.001)
(-8.33376e-11 5.98907e-10 -0.001)
(-2.91543e-11 5.93948e-10 -0.001)
(-2.46029e-10 1.68187e-10 -0.001)
(-2.52769e-10 1.69239e-10 -0.001)
(-2.21933e-10 1.71422e-10 -0.001)
(-1.37291e-10 1.75722e-10 -0.001)
(-4.97379e-11 1.75228e-10 -0.001)
(-2.42332e-10 4.75965e-10 -0.001)
(-2.49793e-10 4.83145e-10 -0.001)
(-2.15715e-10 4.88753e-10 -0.001)
(-1.33321e-10 4.94806e-10 -0.001)
(-4.99727e-11 4.94936e-10 -0.001)
(-2.43944e-10 7.39228e-10 -0.001)
(-2.40318e-10 7.48398e-10 -0.001)
(-2.10578e-10 7.50724e-10 -0.001)
(-1.30319e-10 7.53381e-10 -0.001)
(-4.86906e-11 7.55201e-10 -0.001)
(-2.40671e-10 9.84016e-10 -0.001)
(-2.38316e-10 9.63643e-10 -0.001)
(-2.10659e-10 9.53598e-10 -0.001)
(-1.27359e-10 9.49804e-10 -0.001)
(-4.67328e-11 9.51277e-10 -0.001)
(-2.36635e-10 1.07432e-09 -0.001)
(-2.70668e-10 1.06139e-09 -0.001)
(-2.24283e-10 1.0553e-09 -0.001)
(-1.30775e-10 1.04576e-09 -0.001)
(-4.54883e-11 1.04242e-09 -0.001)
(-3.98749e-10 2.62011e-10 -0.001)
(-3.793e-10 2.61404e-10 -0.001)
(-3.1745e-10 2.63922e-10 -0.001)
(-1.98884e-10 2.68138e-10 -0.001)
(-7.03725e-11 2.66308e-10 -0.001)
(-4.00304e-10 7.52135e-10 -0.001)
(-3.77941e-10 7.52804e-10 -0.001)
(-3.11243e-10 7.55227e-10 -0.001)
(-1.96311e-10 7.59094e-10 -0.001)
(-7.18287e-11 7.54936e-10 -0.001)
(-4.1272e-10 1.16592e-09 -0.001)
(-3.76842e-10 1.16789e-09 -0.001)
(-3.11694e-10 1.15961e-09 -0.001)
(-1.98044e-10 1.15845e-09 -0.001)
(-7.3197e-11 1.15523e-09 -0.001)
(-4.27944e-10 1.50733e-09 -0.001)
(-3.84331e-10 1.49135e-09 -0.001)
(-3.20593e-10 1.46648e-09 -0.001)
(-1.98446e-10 1.46237e-09 -0.001)
(-7.28897e-11 1.46e-09 -0.001)
(-4.61871e-10 1.71668e-09 -0.001)
(-4.17695e-10 1.63405e-09 -0.001)
(-3.40488e-10 1.61326e-09 -0.001)
(-2.01707e-10 1.59938e-09 -0.001)
(-7.293e-11 1.59631e-09 -0.001)
(-6.22358e-10 3.8361e-10 -0.001)
(-5.65734e-10 3.82607e-10 -0.001)
(-4.53155e-10 3.84432e-10 -0.001)
(-2.90152e-10 3.85617e-10 -0.001)
(-1.03184e-10 3.80572e-10 -0.001)
(-6.2675e-10 1.10531e-09 -0.001)
(-5.65965e-10 1.10258e-09 -0.001)
(-4.51007e-10 1.09818e-09 -0.001)
(-2.93873e-10 1.09479e-09 -0.001)
(-1.07745e-10 1.08424e-09 -0.001)
(-6.45967e-10 1.71785e-09 -0.001)
(-5.73988e-10 1.70977e-09 -0.001)
(-4.61785e-10 1.68919e-09 -0.001)
(-3.02621e-10 1.67772e-09 -0.001)
(-1.11955e-10 1.66732e-09 -0.001)
(-6.78249e-10 2.1791e-09 -0.001)
(-5.94738e-10 2.1577e-09 -0.001)
(-4.82915e-10 2.12604e-09 -0.001)
(-3.12557e-10 2.11718e-09 -0.001)
(-1.15124e-10 2.10688e-09 -0.001)
(-7.7166e-10 2.52562e-09 -0.001)
(-6.2703e-10 2.3834e-09 -0.001)
(-5.01998e-10 2.33965e-09 -0.001)
(-3.17676e-10 2.3163e-09 -0.001)
(-1.18421e-10 2.30916e-09 -0.001)
(-9.30546e-10 5.39405e-10 -0.001)
(-8.32601e-10 5.40099e-10 -0.001)
(-6.57319e-10 5.40154e-10 -0.001)
(-4.31149e-10 5.36476e-10 -0.001)
(-1.54974e-10 5.28623e-10 -0.001)
(-9.32002e-10 1.5635e-09 -0.001)
(-8.33396e-10 1.55828e-09 -0.001)
(-6.62092e-10 1.54629e-09 -0.001)
(-4.42522e-10 1.53234e-09 -0.001)
(-1.62181e-10 1.51726e-09 -0.001)
(-9.49521e-10 2.43707e-09 -0.001)
(-8.51468e-10 2.41776e-09 -0.001)
(-6.84376e-10 2.38455e-09 -0.001)
(-4.58128e-10 2.36105e-09 -0.001)
(-1.67597e-10 2.34613e-09 -0.001)
(-9.904e-10 3.06907e-09 -0.001)
(-8.86068e-10 3.03334e-09 -0.001)
(-7.18587e-10 2.99286e-09 -0.001)
(-4.76474e-10 2.97364e-09 -0.001)
(-1.72908e-10 2.95846e-09 -0.001)
(-1.114e-09 3.50962e-09 -0.001)
(-9.2767e-10 3.36315e-09 -0.001)
(-7.43665e-10 3.30305e-09 -0.001)
(-4.86941e-10 3.27187e-09 -0.001)
(-1.77607e-10 3.259e-09 -0.001)
(-1.34652e-09 7.48818e-10 -0.00100001)
(-1.2048e-09 7.4833e-10 -0.00100001)
(-9.59033e-10 7.44396e-10 -0.00100001)
(-6.36382e-10 7.36768e-10 -0.00100001)
(-2.28287e-10 7.28487e-10 -0.00100001)
(-1.34723e-09 2.17609e-09 -0.001)
(-1.21135e-09 2.16219e-09 -0.00100001)
(-9.72192e-10 2.14203e-09 -0.00100001)
(-6.52126e-10 2.12121e-09 -0.00100001)
(-2.35713e-10 2.10534e-09 -0.00100001)
(-1.36106e-09 3.39394e-09 -0.001)
(-1.24119e-09 3.35266e-09 -0.001)
(-1.00157e-09 3.31218e-09 -0.001)
(-6.70328e-10 3.28376e-09 -0.001)
(-2.40854e-10 3.26826e-09 -0.00100001)
(-1.40187e-09 4.29281e-09 -0.001)
(-1.2933e-09 4.21528e-09 -0.001)
(-1.04081e-09 4.15847e-09 -0.001)
(-6.8999e-10 4.13033e-09 -0.001)
(-2.4554e-10 4.11345e-09 -0.001)
(-1.48124e-09 4.74277e-09 -0.001)
(-1.37546e-09 4.65346e-09 -0.001)
(-1.08595e-09 4.59612e-09 -0.001)
(-7.076e-10 4.56591e-09 -0.001)
(-2.5057e-10 4.5503e-09 -0.001)
(-1.91926e-09 1.03444e-09 -0.00100001)
(-1.73036e-09 1.02807e-09 -0.00100001)
(-1.38927e-09 1.01957e-09 -0.00100001)
(-9.18003e-10 1.01098e-09 -0.00100001)
(-3.25519e-10 1.00438e-09 -0.00100001)
(-1.92686e-09 2.99552e-09 -0.00100001)
(-1.74825e-09 2.971e-09 -0.00100001)
(-1.4087e-09 2.94617e-09 -0.00100001)
(-9.33029e-10 2.92593e-09 -0.00100001)
(-3.30962e-10 2.91256e-09 -0.00100001)
(-1.94457e-09 4.65623e-09 -0.00100001)
(-1.78299e-09 4.60154e-09 -0.00100001)
(-1.43661e-09 4.56415e-09 -0.00100001)
(-9.47904e-10 4.54102e-09 -0.00100001)
(-3.34382e-10 4.52775e-09 -0.00100001)
(-1.97881e-09 5.9112e-09 -0.001)
(-1.84059e-09 5.80265e-09 -0.001)
(-1.46882e-09 5.73931e-09 -0.001)
(-9.61059e-10 5.71146e-09 -0.00100001)
(-3.36392e-10 5.69397e-09 -0.00100001)
(-1.98663e-09 6.42054e-09 -0.001)
(-1.95475e-09 6.38477e-09 -0.001)
(-1.52702e-09 6.34825e-09 -0.001)
(-9.8241e-10 6.32681e-09 -0.001)
(-3.41793e-10 6.31092e-09 -0.001)
(-2.70885e-09 1.41689e-09 -0.00100001)
(-2.46087e-09 1.4044e-09 -0.00100001)
(-1.97319e-09 1.39402e-09 -0.00100001)
(-1.28951e-09 1.38743e-09 -0.00100001)
(-4.51382e-10 1.38302e-09 -0.00100001)
(-2.72635e-09 4.08601e-09 -0.00100001)
(-2.48812e-09 4.05928e-09 -0.00100001)
(-1.99358e-09 4.0374e-09 -0.00100001)
(-1.30031e-09 4.02441e-09 -0.00100001)
(-4.54205e-10 4.01475e-09 -0.00100001)
(-2.75212e-09 6.3275e-09 -0.00100001)
(-2.5142e-09 6.28552e-09 -0.00100001)
(-2.01137e-09 6.26303e-09 -0.00100001)
(-1.30709e-09 6.25325e-09 -0.00100001)
(-4.54862e-10 6.24276e-09 -0.00100001)
(-2.77263e-09 7.9935e-09 -0.001)
(-2.55296e-09 7.92041e-09 -0.00100001)
(-2.02532e-09 7.88189e-09 -0.00100001)
(-1.30895e-09 7.86814e-09 -0.00100001)
(-4.53767e-10 7.85004e-09 -0.00100001)
(-2.76548e-09 8.76456e-09 -0.001)
(-2.62594e-09 8.74227e-09 -0.001)
(-2.06259e-09 8.73203e-09 -0.001)
(-1.32387e-09 8.72123e-09 -0.001)
(-4.58857e-10 8.70498e-09 -0.001)
(-3.76985e-09 1.92636e-09 -0.00100001)
(-3.43199e-09 1.91144e-09 -0.00100001)
(-2.73606e-09 1.90367e-09 -0.00100002)
(-1.77157e-09 1.90084e-09 -0.00100002)
(-6.14809e-10 1.89834e-09 -0.00100002)
(-3.79307e-09 5.55447e-09 -0.00100001)
(-3.46089e-09 5.53278e-09 -0.00100001)
(-2.75138e-09 5.52144e-09 -0.00100001)
(-1.77652e-09 5.51797e-09 -0.00100001)
(-6.15099e-10 5.51056e-09 -0.00100002)
(-3.82192e-09 8.58788e-09 -0.00100001)
(-3.47164e-09 8.57602e-09 -0.00100001)
(-2.75546e-09 8.57633e-09 -0.00100001)
(-1.77543e-09 8.57992e-09 -0.00100001)
(-6.13691e-10 8.5682e-09 -0.00100001)
(-3.82801e-09 1.07767e-08 -0.00100001)
(-3.47294e-09 1.07903e-08 -0.00100001)
(-2.74676e-09 1.07961e-08 -0.00100001)
(-1.76856e-09 1.08011e-08 -0.00100001)
(-6.11653e-10 1.07795e-08 -0.00100001)
(-3.85015e-09 1.19911e-08 -0.001)
(-3.4522e-09 1.19691e-08 -0.001)
(-2.74324e-09 1.19794e-08 -0.001)
(-1.77136e-09 1.19747e-08 -0.00100001)
(-6.15911e-10 1.19549e-08 -0.00100001)
(-5.16989e-09 2.61436e-09 -0.00100002)
(-4.68948e-09 2.60135e-09 -0.00100002)
(-3.72553e-09 2.59861e-09 -0.00100002)
(-2.40127e-09 2.59904e-09 -0.00100002)
(-8.29865e-10 2.59641e-09 -0.00100002)
(-5.19372e-09 7.56334e-09 -0.00100002)
(-4.71366e-09 7.54447e-09 -0.00100002)
(-3.73408e-09 7.54366e-09 -0.00100002)
(-2.40277e-09 7.54523e-09 -0.00100002)
(-8.29419e-10 7.53424e-09 -0.00100002)
(-5.2198e-09 1.17093e-08 -0.00100001)
(-4.71819e-09 1.17138e-08 -0.00100001)
(-3.73089e-09 1.17286e-08 -0.00100002)
(-2.40094e-09 1.17342e-08 -0.00100002)
(-8.29109e-10 1.17135e-08 -0.00100002)
(-5.21578e-09 1.46787e-08 -0.00100001)
(-4.69505e-09 1.47378e-08 -0.00100001)
(-3.71269e-09 1.47696e-08 -0.00100001)
(-2.39576e-09 1.47773e-08 -0.00100001)
(-8.29236e-10 1.47458e-08 -0.00100001)
(-5.24695e-09 1.63787e-08 -0.001)
(-4.62724e-09 1.638e-08 -0.00100001)
(-3.68936e-09 1.63959e-08 -0.00100001)
(-2.39661e-09 1.63889e-08 -0.00100001)
(-8.34363e-10 1.63591e-08 -0.00100001)
(-7.0275e-09 3.55687e-09 -0.00100002)
(-6.34049e-09 3.54683e-09 -0.00100003)
(-5.03818e-09 3.54635e-09 -0.00100003)
(-3.24559e-09 3.54661e-09 -0.00100003)
(-1.12088e-09 3.54054e-09 -0.00100003)
(-7.05333e-09 1.03192e-08 -0.00100002)
(-6.36223e-09 1.02968e-08 -0.00100002)
(-5.04669e-09 1.02956e-08 -0.00100003)
(-3.25039e-09 1.02926e-08 -0.00100003)
(-1.12273e-09 1.02721e-08 -0.00100003)
(-7.07875e-09 1.6015e-08 -0.00100002)
(-6.3762e-09 1.60041e-08 -0.00100002)
(-5.05055e-09 1.60099e-08 -0.00100002)
(-3.25574e-09 1.60039e-08 -0.00100002)
(-1.12529e-09 1.59709e-08 -0.00100002)
(-7.07796e-09 2.01351e-08 -0.00100001)
(-6.36832e-09 2.01548e-08 -0.00100001)
(-5.04552e-09 2.01665e-08 -0.00100002)
(-3.2593e-09 2.01576e-08 -0.00100002)
(-1.1274e-09 2.01126e-08 -0.00100002)
(-7.07864e-09 2.23516e-08 -0.001)
(-6.34478e-09 2.23774e-08 -0.00100001)
(-5.04505e-09 2.23819e-08 -0.00100001)
(-3.27121e-09 2.23666e-08 -0.00100001)
(-1.13451e-09 2.23221e-08 -0.00100001)
(-9.53883e-09 4.84822e-09 -0.00100003)
(-8.58313e-09 4.8385e-09 -0.00100004)
(-6.82916e-09 4.83482e-09 -0.00100004)
(-4.40367e-09 4.83107e-09 -0.00100004)
(-1.52203e-09 4.82063e-09 -0.00100004)
(-9.57301e-09 1.4072e-08 -0.00100003)
(-8.61154e-09 1.40428e-08 -0.00100003)
(-6.84784e-09 1.40299e-08 -0.00100003)
(-4.41656e-09 1.40173e-08 -0.00100004)
(-1.52673e-09 1.39886e-08 -0.00100004)
(-9.60451e-09 2.18659e-08 -0.00100002)
(-8.64153e-09 2.18295e-08 -0.00100003)
(-6.86576e-09 2.18123e-08 -0.00100003)
(-4.42681e-09 2.17949e-08 -0.00100003)
(-1.52881e-09 2.17541e-08 -0.00100003)
(-9.6192e-09 2.75479e-08 -0.00100002)
(-8.66645e-09 2.7505e-08 -0.00100002)
(-6.88061e-09 2.74772e-08 -0.00100002)
(-4.43378e-09 2.74532e-08 -0.00100002)
(-1.52893e-09 2.73999e-08 -0.00100002)
(-9.61212e-09 3.05021e-08 -0.00100001)
(-8.71206e-09 3.05038e-08 -0.00100001)
(-6.91385e-09 3.049e-08 -0.00100001)
(-4.45177e-09 3.04687e-08 -0.00100001)
(-1.53338e-09 3.04105e-08 -0.00100001)
(-1.29736e-08 6.60227e-09 -0.00100004)
(-1.16824e-08 6.5908e-09 -0.00100005)
(-9.29328e-09 6.58267e-09 -0.00100005)
(-5.99368e-09 6.5761e-09 -0.00100005)
(-2.072e-09 6.56445e-09 -0.00100006)
(-1.30181e-08 1.91495e-08 -0.00100004)
(-1.17224e-08 1.91186e-08 -0.00100004)
(-9.32353e-09 1.90972e-08 -0.00100005)
(-6.0103e-09 1.90829e-08 -0.00100005)
(-2.07587e-09 1.90522e-08 -0.00100005)
(-1.30525e-08 2.97628e-08 -0.00100003)
(-1.1757e-08 2.97198e-08 -0.00100004)
(-9.34428e-09 2.96917e-08 -0.00100004)
(-6.01402e-09 2.96769e-08 -0.00100004)
(-2.07299e-09 2.96312e-08 -0.00100004)
(-1.30811e-08 3.75163e-08 -0.00100002)
(-1.17952e-08 3.74463e-08 -0.00100003)
(-9.36396e-09 3.74038e-08 -0.00100003)
(-6.01502e-09 3.73838e-08 -0.00100003)
(-2.0691e-09 3.7325e-08 -0.00100003)
(-1.31035e-08 4.15665e-08 -0.00100001)
(-1.18694e-08 4.15255e-08 -0.00100001)
(-9.40178e-09 4.14983e-08 -0.00100002)
(-6.02144e-09 4.1478e-08 -0.00100002)
(-2.0654e-09 4.1407e-08 -0.00100002)
(-1.76582e-08 8.97206e-09 -0.00100006)
(-1.59271e-08 8.96351e-09 -0.00100007)
(-1.26483e-08 8.95706e-09 -0.00100007)
(-8.1491e-09 8.95377e-09 -0.00100007)
(-2.81499e-09 8.94245e-09 -0.00100007)
(-1.77054e-08 2.60217e-08 -0.00100005)
(-1.59704e-08 2.60022e-08 -0.00100006)
(-1.26795e-08 2.59886e-08 -0.00100006)
(-8.16159e-09 2.59845e-08 -0.00100007)
(-2.81572e-09 2.59493e-08 -0.00100007)
(-1.77295e-08 4.04641e-08 -0.00100004)
(-1.5991e-08 4.04343e-08 -0.00100005)
(-1.26871e-08 4.04163e-08 -0.00100005)
(-8.15485e-09 4.04116e-08 -0.00100006)
(-2.8096e-09 4.03507e-08 -0.00100006)
(-1.77552e-08 5.10184e-08 -0.00100003)
(-1.60206e-08 5.09492e-08 -0.00100003)
(-1.26988e-08 5.09169e-08 -0.00100004)
(-8.15109e-09 5.0908e-08 -0.00100004)
(-2.80512e-09 5.08315e-08 -0.00100004)
(-1.78018e-08 5.65443e-08 -0.00100001)
(-1.60924e-08 5.64962e-08 -0.00100002)
(-1.27215e-08 5.64675e-08 -0.00100002)
(-8.1428e-09 5.64507e-08 -0.00100002)
(-2.79545e-09 5.63586e-08 -0.00100003)
(-2.39985e-08 1.21832e-08 -0.00100008)
(-2.16524e-08 1.21855e-08 -0.00100009)
(-1.71685e-08 1.21876e-08 -0.00100009)
(-1.10499e-08 1.21905e-08 -0.0010001)
(-3.81446e-09 1.21741e-08 -0.0010001)
(-2.40399e-08 3.53592e-08 -0.00100007)
(-2.16869e-08 3.53614e-08 -0.00100008)
(-1.71928e-08 3.53662e-08 -0.00100009)
(-1.10604e-08 3.53712e-08 -0.00100009)
(-3.81635e-09 3.53175e-08 -0.00100009)
(-2.40453e-08 5.50212e-08 -0.00100006)
(-2.16875e-08 5.50063e-08 -0.00100007)
(-1.71875e-08 5.50035e-08 -0.00100007)
(-1.10529e-08 5.49996e-08 -0.00100008)
(-3.81293e-09 5.49067e-08 -0.00100008)
(-2.40546e-08 6.93862e-08 -0.00100004)
(-2.17078e-08 6.93203e-08 -0.00100005)
(-1.71949e-08 6.92972e-08 -0.00100005)
(-1.10535e-08 6.9284e-08 -0.00100006)
(-3.81161e-09 6.91677e-08 -0.00100006)
(-2.40813e-08 7.68517e-08 -0.00100002)
(-2.17763e-08 7.68345e-08 -0.00100002)
(-1.72147e-08 7.6813e-08 -0.00100003)
(-1.10496e-08 7.67924e-08 -0.00100003)
(-3.80549e-09 7.66606e-08 -0.00100004)
(-3.25641e-08 1.65544e-08 -0.00100011)
(-2.93505e-08 1.65693e-08 -0.00100012)
(-2.32626e-08 1.65797e-08 -0.00100013)
(-1.4969e-08 1.65846e-08 -0.00100014)
(-5.16777e-09 1.65564e-08 -0.00100014)
(-3.26021e-08 4.80693e-08 -0.0010001)
(-2.93781e-08 4.80923e-08 -0.00100011)
(-2.32872e-08 4.81099e-08 -0.00100012)
(-1.49883e-08 4.81128e-08 -0.00100012)
(-5.17634e-09 4.80288e-08 -0.00100013)
(-3.25921e-08 7.48167e-08 -0.00100008)
(-2.93673e-08 7.4811e-08 -0.00100009)
(-2.32813e-08 7.48127e-08 -0.0010001)
(-1.49878e-08 7.47979e-08 -0.0010001)
(-5.17648e-09 7.46641e-08 -0.00100011)
(-3.25876e-08 9.43397e-08 -0.00100005)
(-2.93866e-08 9.42805e-08 -0.00100006)
(-2.3294e-08 9.42512e-08 -0.00100007)
(-1.49957e-08 9.42156e-08 -0.00100008)
(-5.17722e-09 9.40417e-08 -0.00100008)
(-3.25672e-08 1.04456e-07 -0.00100002)
(-2.94555e-08 1.04466e-07 -0.00100003)
(-2.33336e-08 1.04444e-07 -0.00100004)
(-1.50165e-08 1.04406e-07 -0.00100005)
(-5.18181e-09 1.04214e-07 -0.00100005)
(-4.41855e-08 2.25086e-08 -0.00100015)
(-3.97774e-08 2.25317e-08 -0.00100016)
(-3.15324e-08 2.2546e-08 -0.00100018)
(-2.02946e-08 2.25496e-08 -0.00100018)
(-7.00855e-09 2.25093e-08 -0.00100019)
(-4.42293e-08 6.53577e-08 -0.00100014)
(-3.98119e-08 6.53953e-08 -0.00100015)
(-3.15688e-08 6.54179e-08 -0.00100016)
(-2.03258e-08 6.5417e-08 -0.00100017)
(-7.022e-09 6.5304e-08 -0.00100017)
(-4.4207e-08 1.01707e-07 -0.00100011)
(-3.97952e-08 1.01711e-07 -0.00100012)
(-3.15642e-08 1.01712e-07 -0.00100013)
(-2.03237e-08 1.01692e-07 -0.00100014)
(-7.01897e-09 1.01516e-07 -0.00100015)
(-4.41987e-08 1.28213e-07 -0.00100007)
(-3.98125e-08 1.28163e-07 -0.00100009)
(-3.15792e-08 1.28122e-07 -0.0010001)
(-2.03294e-08 1.28067e-07 -0.00100011)
(-7.01667e-09 1.2783e-07 -0.00100011)
(-4.4171e-08 1.42027e-07 -0.00100003)
(-3.98858e-08 1.42013e-07 -0.00100004)
(-3.16428e-08 1.41969e-07 -0.00100005)
(-2.03691e-08 1.41909e-07 -0.00100006)
(-7.0263e-09 1.41644e-07 -0.00100007)
(-6.00135e-08 3.06061e-08 -0.00100021)
(-5.39848e-08 3.06371e-08 -0.00100022)
(-4.27905e-08 3.06579e-08 -0.00100024)
(-2.75362e-08 3.06656e-08 -0.00100025)
(-9.50853e-09 3.06179e-08 -0.00100026)
(-6.00647e-08 8.88506e-08 -0.00100019)
(-5.40309e-08 8.89085e-08 -0.0010002)
(-4.28357e-08 8.89484e-08 -0.00100022)
(-2.75684e-08 8.89614e-08 -0.00100023)
(-9.5196e-09 8.88249e-08 -0.00100024)
(-6.00159e-08 1.3823e-07 -0.00100015)
(-5.39932e-08 1.38258e-07 -0.00100017)
(-4.28101e-08 1.3828e-07 -0.00100018)
(-2.75439e-08 1.38278e-07 -0.00100019)
(-9.50531e-09 1.38058e-07 -0.0010002)
(-5.99968e-08 1.74218e-07 -0.0010001)
(-5.3989e-08 1.74178e-07 -0.00100012)
(-4.28035e-08 1.74147e-07 -0.00100013)
(-2.75282e-08 1.74103e-07 -0.00100014)
(-9.49322e-09 1.73804e-07 -0.00100015)
(-6.00111e-08 1.93107e-07 -0.00100004)
(-5.40631e-08 1.93038e-07 -0.00100006)
(-4.28621e-08 1.92965e-07 -0.00100007)
(-2.75515e-08 1.92894e-07 -0.00100009)
(-9.49134e-09 1.92548e-07 -0.00100009)
(-8.15849e-08 4.16085e-08 -0.00100028)
(-7.33443e-08 4.16613e-08 -0.0010003)
(-5.80949e-08 4.17034e-08 -0.00100032)
(-3.73602e-08 4.1728e-08 -0.00100034)
(-1.2895e-08 4.16743e-08 -0.00100035)
(-8.16254e-08 1.20767e-07 -0.00100025)
(-7.33824e-08 1.20881e-07 -0.00100028)
(-5.81281e-08 1.20978e-07 -0.0010003)
(-3.73785e-08 1.21036e-07 -0.00100031)
(-1.28988e-08 1.20874e-07 -0.00100032)
(-8.15028e-08 1.8785e-07 -0.0010002)
(-7.32774e-08 1.87944e-07 -0.00100023)
(-5.8039e-08 1.88036e-07 -0.00100025)
(-3.73069e-08 1.88087e-07 -0.00100026)
(-1.28668e-08 1.87813e-07 -0.00100027)
(-8.14242e-08 2.36731e-07 -0.00100014)
(-7.32078e-08 2.36729e-07 -0.00100016)
(-5.79697e-08 2.36753e-07 -0.00100018)
(-3.72439e-08 2.36755e-07 -0.0010002)
(-1.28361e-08 2.36383e-07 -0.0010002)
(-8.14493e-08 2.62462e-07 -0.00100006)
(-7.32545e-08 2.62384e-07 -0.00100008)
(-5.79808e-08 2.62304e-07 -0.0010001)
(-3.72192e-08 2.62237e-07 -0.00100012)
(-1.2813e-08 2.61787e-07 -0.00100012)
(-1.10961e-07 5.6562e-08 -0.00100038)
(-9.96615e-08 5.66692e-08 -0.00100041)
(-7.88534e-08 5.67586e-08 -0.00100044)
(-5.0665e-08 5.68177e-08 -0.00100046)
(-1.74777e-08 5.67559e-08 -0.00100047)
(-1.10943e-07 1.64146e-07 -0.00100034)
(-9.96454e-08 1.64397e-07 -0.00100038)
(-7.88405e-08 1.64614e-07 -0.00100041)
(-5.06526e-08 1.64757e-07 -0.00100043)
(-1.74713e-08 1.64564e-07 -0.00100044)
(-1.10657e-07 2.55297e-07 -0.00100028)
(-9.93897e-08 2.55543e-07 -0.00100031)
(-7.86275e-08 2.55775e-07 -0.00100034)
(-5.04999e-08 2.55921e-07 -0.00100036)
(-1.7411e-08 2.55586e-07 -0.00100037)
(-1.10423e-07 3.21712e-07 -0.00100018)
(-9.91819e-08 3.21812e-07 -0.00100022)
(-7.84402e-08 3.21939e-07 -0.00100025)
(-5.03552e-08 3.22014e-07 -0.00100027)
(-1.73491e-08 3.21533e-07 -0.00100028)
(-1.10357e-07 3.56659e-07 -0.00100008)
(-9.91615e-08 3.56633e-07 -0.00100011)
(-7.8383e-08 3.5658e-07 -0.00100014)
(-5.02823e-08 3.5652e-07 -0.00100016)
(-1.731e-08 3.55911e-07 -0.00100017)
(-1.5096e-07 7.69068e-08 -0.00100052)
(-1.35396e-07 7.71224e-08 -0.00100056)
(-1.06983e-07 7.73012e-08 -0.0010006)
(-6.86687e-08 7.74235e-08 -0.00100063)
(-2.36735e-08 7.73557e-08 -0.00100064)
(-1.50797e-07 2.23153e-07 -0.00100047)
(-1.35245e-07 2.23678e-07 -0.00100051)
(-1.06865e-07 2.2412e-07 -0.00100055)
(-6.85926e-08 2.24417e-07 -0.00100058)
(-2.36481e-08 2.24202e-07 -0.00100059)
(-1.50191e-07 3.47006e-07 -0.00100038)
(-1.34695e-07 3.47565e-07 -0.00100042)
(-1.06425e-07 3.48055e-07 -0.00100046)
(-6.82931e-08 3.48375e-07 -0.00100049)
(-2.35355e-08 3.47978e-07 -0.0010005)
(-1.4965e-07 4.37235e-07 -0.00100025)
(-1.34217e-07 4.37554e-07 -0.0010003)
(-1.06025e-07 4.37857e-07 -0.00100033)
(-6.80063e-08 4.38039e-07 -0.00100036)
(-2.3421e-08 4.37419e-07 -0.00100037)
(-1.49397e-07 4.8471e-07 -0.0010001)
(-1.34072e-07 4.8474e-07 -0.00100015)
(-1.05881e-07 4.84728e-07 -0.00100019)
(-6.7881e-08 4.84667e-07 -0.00100021)
(-2.33631e-08 4.83835e-07 -0.00100023)
(-2.05489e-07 1.04615e-07 -0.0010007)
(-1.8394e-07 1.05037e-07 -0.00100077)
(-1.45099e-07 1.05386e-07 -0.00100082)
(-9.30157e-08 1.05628e-07 -0.00100085)
(-3.20371e-08 1.05569e-07 -0.00100087)
(-2.05e-07 3.03477e-07 -0.00100064)
(-1.83498e-07 3.04528e-07 -0.0010007)
(-1.44755e-07 3.05398e-07 -0.00100075)
(-9.2801e-08 3.05995e-07 -0.00100079)
(-3.19682e-08 3.05794e-07 -0.00100081)
(-2.03766e-07 4.71736e-07 -0.00100051)
(-1.82379e-07 4.7291e-07 -0.00100057)
(-1.43877e-07 4.73893e-07 -0.00100062)
(-9.22168e-08 4.74557e-07 -0.00100066)
(-3.17547e-08 4.74129e-07 -0.00100068)
(-2.02644e-07 5.94218e-07 -0.00100034)
(-1.81368e-07 5.94978e-07 -0.0010004)
(-1.43067e-07 5.9563e-07 -0.00100045)
(-9.16607e-08 5.96039e-07 -0.00100049)
(-3.15448e-08 5.95274e-07 -0.00100051)
(-2.02111e-07 6.58773e-07 -0.00100014)
(-1.80966e-07 6.58842e-07 -0.0010002)
(-1.42736e-07 6.58884e-07 -0.00100025)
(-9.14127e-08 6.5884e-07 -0.00100029)
(-3.14391e-08 6.5772e-07 -0.00100031)
(-2.79966e-07 1.42395e-07 -0.00100096)
(-2.49958e-07 1.43224e-07 -0.00100104)
(-1.96764e-07 1.43901e-07 -0.00100111)
(-1.25929e-07 1.4438e-07 -0.00100116)
(-4.32946e-08 1.44369e-07 -0.00100119)
(-2.78774e-07 4.12909e-07 -0.00100087)
(-2.48893e-07 4.14991e-07 -0.00100095)
(-1.95938e-07 4.16689e-07 -0.00100102)
(-1.25413e-07 4.17892e-07 -0.00100107)
(-4.31298e-08 4.17798e-07 -0.0010011)
(-2.7629e-07 6.41423e-07 -0.0010007)
(-2.46663e-07 6.43802e-07 -0.00100078)
(-1.94192e-07 6.4575e-07 -0.00100085)
(-1.24266e-07 6.47119e-07 -0.0010009)
(-4.27279e-08 6.46744e-07 -0.00100092)
(-2.7401e-07 8.0748e-07 -0.00100047)
(-2.44602e-07 8.09123e-07 -0.00100055)
(-1.92564e-07 8.10482e-07 -0.00100061)
(-1.23185e-07 8.11398e-07 -0.00100066)
(-4.23444e-08 8.10509e-07 -0.00100069)
(-2.72938e-07 8.95102e-07 -0.00100019)
(-2.43659e-07 8.95328e-07 -0.00100027)
(-1.91807e-07 8.955e-07 -0.00100034)
(-1.22657e-07 8.95545e-07 -0.00100039)
(-4.21433e-08 8.94046e-07 -0.00100041)
(-3.81953e-07 1.94009e-07 -0.0010013)
(-3.39876e-07 1.95659e-07 -0.00100142)
(-2.6686e-07 1.96955e-07 -0.00100152)
(-1.70427e-07 1.97931e-07 -0.00100159)
(-5.83367e-08 1.98036e-07 -0.00100162)
(-3.79292e-07 5.62204e-07 -0.00100118)
(-3.37511e-07 5.66358e-07 -0.00100129)
(-2.65021e-07 5.69637e-07 -0.00100139)
(-1.69269e-07 5.72102e-07 -0.00100146)
(-5.7987e-08 5.72275e-07 -0.00100149)
(-3.74327e-07 8.72372e-07 -0.00100095)
(-3.33088e-07 8.77165e-07 -0.00100106)
(-2.61551e-07 8.80966e-07 -0.00100115)
(-1.67024e-07 8.83793e-07 -0.00100122)
(-5.72582e-08 8.83616e-07 -0.00100125)
(-3.69732e-07 1.0971e-06 -0.00100063)
(-3.28968e-07 1.10054e-06 -0.00100074)
(-2.58316e-07 1.10325e-06 -0.00100083)
(-1.64934e-07 1.10524e-06 -0.00100089)
(-5.6579e-08 1.10426e-06 -0.00100093)
(-3.67483e-07 1.21555e-06 -0.00100027)
(-3.26926e-07 1.21629e-06 -0.00100037)
(-2.56694e-07 1.21676e-06 -0.00100046)
(-1.63859e-07 1.21706e-06 -0.00100052)
(-5.62272e-08 1.21502e-06 -0.00100055)
(-5.22115e-07 2.6473e-07 -0.00100178)
(-4.62623e-07 2.68114e-07 -0.00100194)
(-3.62123e-07 2.70521e-07 -0.00100207)
(-2.30697e-07 2.72598e-07 -0.00100217)
(-7.80112e-08 2.72885e-07 -0.00100221)
(-5.1645e-07 7.66331e-07 -0.00100161)
(-4.57582e-07 7.74848e-07 -0.00100177)
(-3.58196e-07 7.80984e-07 -0.00100189)
(-2.28206e-07 7.86204e-07 -0.00100198)
(-7.73811e-08 7.86802e-07 -0.00100203)
(-5.06583e-07 1.18692e-06 -0.00100129)
(-4.48816e-07 1.19676e-06 -0.00100144)
(-3.51333e-07 1.2039e-06 -0.00100156)
(-2.23813e-07 1.20986e-06 -0.00100165)
(-7.61648e-08 1.21e-06 -0.00100169)
(-4.9744e-07 1.49015e-06 -0.00100086)
(-4.40676e-07 1.49736e-06 -0.00100101)
(-3.44992e-07 1.50249e-06 -0.00100112)
(-2.19797e-07 1.5068e-06 -0.00100121)
(-7.50672e-08 1.50567e-06 -0.00100125)
(-4.92849e-07 1.64947e-06 -0.00100037)
(-4.36473e-07 1.65145e-06 -0.0010005)
(-3.41688e-07 1.65239e-06 -0.00100062)
(-2.17685e-07 1.65337e-06 -0.0010007)
(-7.45411e-08 1.6504e-06 -0.00100074)
(-7.15775e-07 3.61961e-07 -0.00100242)
(-6.30692e-07 3.69358e-07 -0.00100267)
(-4.91967e-07 3.73403e-07 -0.00100282)
(-3.13032e-07 3.78199e-07 -0.00100297)
(-1.01927e-07 3.78481e-07 -0.00100301)
(-7.04021e-07 1.04625e-06 -0.00100218)
(-6.20189e-07 1.06475e-06 -0.00100242)
(-4.83819e-07 1.07515e-06 -0.00100257)
(-3.07731e-07 1.08712e-06 -0.00100271)
(-1.01149e-07 1.08769e-06 -0.00100275)
(-6.84426e-07 1.61563e-06 -0.00100175)
(-6.02876e-07 1.63682e-06 -0.00100196)
(-4.7031e-07 1.64895e-06 -0.00100211)
(-2.98992e-07 1.66245e-06 -0.00100224)
(-9.96099e-08 1.66226e-06 -0.00100228)
(-6.66389e-07 2.02283e-06 -0.00100117)
(-5.86961e-07 2.03856e-06 -0.00100136)
(-4.58039e-07 2.04719e-06 -0.00100151)
(-2.91255e-07 2.05714e-06 -0.00100162)
(-9.83458e-08 2.05508e-06 -0.00100167)
(-6.57369e-07 2.23532e-06 -0.0010005)
(-5.78507e-07 2.24057e-06 -0.00100068)
(-4.51443e-07 2.24159e-06 -0.00100082)
(-2.87054e-07 2.24459e-06 -0.00100093)
(-9.78772e-08 2.23957e-06 -0.00100098)
(-9.85707e-07 4.9562e-07 -0.00100327)
(-8.61885e-07 5.13813e-07 -0.0010037)
(-6.69224e-07 5.18454e-07 -0.00100383)
(-4.29234e-07 5.30986e-07 -0.00100411)
(-1.23309e-07 5.29753e-07 -0.00100412)
(-9.61707e-07 1.43045e-06 -0.00100295)
(-8.40152e-07 1.47542e-06 -0.00100333)
(-6.52857e-07 1.48763e-06 -0.00100347)
(-4.1752e-07 1.51898e-06 -0.00100372)
(-1.23786e-07 1.5155e-06 -0.00100374)
(-9.22562e-07 2.19892e-06 -0.00100236)
(-8.0604e-07 2.24964e-06 -0.00100268)
(-6.26521e-07 2.2639e-06 -0.00100283)
(-3.99169e-07 2.299e-06 -0.00100303)
(-1.24227e-07 2.29321e-06 -0.00100307)
(-8.86864e-07 2.74189e-06 -0.00100158)
(-7.75291e-07 2.77994e-06 -0.00100185)
(-6.03288e-07 2.78952e-06 -0.00100201)
(-3.83806e-07 2.81595e-06 -0.00100217)
(-1.25319e-07 2.80839e-06 -0.00100222)
(-8.69513e-07 3.02123e-06 -0.00100068)
(-7.58397e-07 3.03688e-06 -0.00100091)
(-5.90137e-07 3.03408e-06 -0.00100108)
(-3.74717e-07 3.04416e-06 -0.00100122)
(-1.26476e-07 3.03291e-06 -0.00100128)
(-1.3663e-06 6.77068e-07 -0.00100436)
(-1.18493e-06 7.27262e-07 -0.00100522)
(-9.07336e-07 7.24243e-07 -0.00100515)
(-6.08355e-07 7.59233e-07 -0.00100576)
(-1.14628e-07 7.50841e-07 -0.00100563)
(-1.31833e-06 1.95381e-06 -0.00100393)
(-1.13887e-06 2.07784e-06 -0.00100467)
(-8.76179e-07 2.06953e-06 -0.00100464)
(-5.80934e-07 2.15947e-06 -0.00100517)
(-1.21736e-07 2.13592e-06 -0.00100507)
(-1.23954e-06 2.98379e-06 -0.00100312)
(-1.07073e-06 3.12337e-06 -0.00100369)
(-8.26633e-07 3.11118e-06 -0.00100373)
(-5.38593e-07 3.21374e-06 -0.00100413)
(-1.34083e-07 3.18015e-06 -0.00100408)
(-1.16793e-06 3.70092e-06 -0.00100211)
(-1.01163e-06 3.80844e-06 -0.00100251)
(-7.85505e-07 3.79458e-06 -0.00100264)
(-5.05634e-07 3.8754e-06 -0.00100291)
(-1.48861e-07 3.84311e-06 -0.00100293)
(-1.1351e-06 4.05972e-06 -0.00100092)
(-9.77048e-07 4.1141e-06 -0.00100119)
(-7.59152e-07 4.08594e-06 -0.00100138)
(-4.82208e-07 4.12283e-06 -0.00100155)
(-1.58609e-07 4.0898e-06 -0.00100161)
(-1.90302e-06 9.17541e-07 -0.00100566)
(-1.65857e-06 1.05479e-06 -0.00100755)
(-1.21228e-06 1.0201e-06 -0.00100688)
(-9.17775e-07 1.11218e-06 -0.00100823)
(-4.0862e-09 1.08238e-06 -0.00100774)
(-1.81151e-06 2.65897e-06 -0.00100511)
(-1.55667e-06 3.0032e-06 -0.00100669)
(-1.15542e-06 2.90323e-06 -0.00100613)
(-8.53764e-07 3.15094e-06 -0.0010073)
(-3.14284e-08 3.06388e-06 -0.00100688)
(-1.6542e-06 4.0151e-06 -0.00100399)
(-1.41571e-06 4.41234e-06 -0.00100512)
(-1.0653e-06 4.27158e-06 -0.00100479)
(-7.51424e-07 4.56399e-06 -0.00100561)
(-8.36417e-08 4.43751e-06 -0.00100534)
(-1.50883e-06 4.94389e-06 -0.00100275)
(-1.30035e-06 5.27307e-06 -0.00100345)
(-1.00332e-06 5.13789e-06 -0.00100339)
(-6.78108e-07 5.38866e-06 -0.00100391)
(-1.46816e-07 5.27262e-06 -0.00100383)
(-1.44859e-06 5.38262e-06 -0.0010012)
(-1.22169e-06 5.58286e-06 -0.0010015)
(-9.4899e-07 5.43975e-06 -0.00100166)
(-6.05108e-07 5.57063e-06 -0.00100186)
(-1.87203e-07 5.46418e-06 -0.0010019)
(-2.64482e-06 1.22341e-06 -0.00100716)
(-2.39864e-06 1.57084e-06 -0.00101115)
(-1.58775e-06 1.45545e-06 -0.00100912)
(-1.48267e-06 1.67473e-06 -0.001012)
(3.55684e-07 1.5937e-06 -0.00101069)
(-2.48142e-06 3.6167e-06 -0.00100651)
(-2.1654e-06 4.49341e-06 -0.00100979)
(-1.4834e-06 4.14541e-06 -0.00100801)
(-1.34068e-06 4.76951e-06 -0.0010105)
(2.79763e-07 4.52118e-06 -0.00100934)
(-2.17304e-06 5.34251e-06 -0.00100485)
(-1.87027e-06 6.36657e-06 -0.0010071)
(-1.31162e-06 5.85719e-06 -0.00100588)
(-1.09621e-06 6.60349e-06 -0.00100753)
(1.22797e-07 6.22648e-06 -0.00100675)
(-1.87223e-06 6.49605e-06 -0.0010035)
(-1.65085e-06 7.4294e-06 -0.00100483)
(-1.24577e-06 6.92257e-06 -0.00100428)
(-9.54914e-07 7.62573e-06 -0.00100534)
(-7.54682e-08 7.28308e-06 -0.00100504)
(-1.76774e-06 6.9456e-06 -0.00100141)
(-1.4437e-06 7.60785e-06 -0.00100168)
(-1.11428e-06 7.07807e-06 -0.0010017)
(-7.17251e-07 7.47868e-06 -0.00100187)
(-1.97133e-07 7.16102e-06 -0.00100186)
(-3.63261e-06 1.55642e-06 -0.00100875)