/*--------------------------------*- C++ -*----------------------------------*\
  =========                 |
  \\      /  F ield         | OpenFOAM: The Open Source CFD Toolbox
   \\    /   O peration     | Website:  https://openfoam.org
    \\  /    A nd           | Version:  9
     \\/     M anipulation  |
\*---------------------------------------------------------------------------*/
FoamFile
{
    format      ascii;
    class       volScalarField;
    location    "100";
    object      p;
}
// * * * * * * * * * * * * * * * * * * * * * * * * * * * * * * * * * * * * * //

dimensions      [0 2 -2 0 0 0 0];

internalField   nonuniform List<scalar> 
360
(
-0.241589
-0.359678
-0.41515
-0.28521
-0.758319
-0.963667
-0.947246
-0.616427
-1.23771
-1.61445
-1.49723
-1.62832
-1.79363
-2.36907
-2.19622
-2.8531
-2.36344
-3.04976
-2.85229
-3.15045
-2.9404
-3.7429
-3.51161
-3.37152
-3.57483
-4.34004
-4.35127
-4.07634
-4.38066
-4.96324
-5.24328
-5.15572
-5.30026
-5.64667
-5.93977
-6.13103
-6.2534
-6.37941
-6.74658
-6.9997
-7.31153
-7.19971
-7.77376
-7.95212
-8.71579
-8.21758
-8.93594
-9.06672
-10.6408
-9.54782
-10.3322
-10.3471
-12.9709
-11.2473
-11.9977
-11.8765
-15.4402
-13.3102
-13.9326
-13.66
-17.7233
-15.6504
-16.2278
-15.7248
-19.6761
-18.0702
-18.9939
-18.0582
-21.3337
-20.4507
-22.2555
-20.6296
-22.3284
-22.8464
-25.7449
-23.4384
-22.5315
-25.3088
-28.7829
-26.5999
-22.4848
-27.8863
-31.2083
-30.1823
-22.2378
-30.5639
-33.1738
-34.193
-22.1836
-33.2496
-34.2117
-38.5258
-22.6547
-36.6946
-34.0018
-42.8929
-23.858
-41.1482
-35.6714
-46.4451
-26.3458
-45.8673
-39.5088
-48.5806
-30.6649
-50.2637
-43.7941
-49.2933
-36.3879
-52.9718
-48.206
-49.0729
-42.8355
-54.0237
-51.6883
-48.6828
-48.8142
-54.732
-54.187
-48.7089
-54.466
-55.5529
-55.887
-49.2898
-59.9151
-56.3866
-57.4529
-50.173
-64.2872
-58.0654
-59.6108
-51.5285
-67.3374
-59.8598
-62.3807
-54.5581
-69.5098
-61.1767
-65.4279
-58.7745
-70.6087
-61.6634
-68.5583
-61.3751
-71.6788
-61.0999
-71.7151
-60.4842
-72.8113
-60.9097
-75.6302
-59.3982
-73.9093
-61.304
-80.7038
-63.0242
-75.9786
-62.173
-85.4244
-70.75
-78.5865
-64.4807
-86.5252
-78.4594
-80.6532
-68.7272
-84.2568
-84.5688
-82.2896
-74.2049
-79.6779
-88.0093
-83.5446
-81.427
-73.8052
-89.4551
-84.2836
-90.1347
-68.438
-90.2186
-84.9688
-98.9806
-64.0919
-90.4271
-86.7314
-106.806
-61.7347
-90.0865
-91.3164
-112.247
-63.1895
-90.7226
-99.4455
-118.827
-69.4276
-94.6072
-109.347
-130.368
-82.3973
-102.147
-119.543
-147.01
-102.794
-113.412
-132.667
-165.631
-125.137
-131.424
-151.927
-183.322
-147.192
-149.326
-174.15
-198.424
-167.973
-164.229
-191.843
-208.132
-186.444
-173.755
-205.457
-212.746
-197.358
-178.328
-215.325
-216.488
-206.28
-183.185
-226.669
-225.8
-215.646
-188.231
-242.71
-241.025
-223.799
-196.077
-246.001
-257.268
-233.376
-215.556
-247.096
-269.998
-246.285
-237.94
-253.549
-278.879
-262.431
-268.528
-263.283
-286.04
-282.373
-320.306
-281.725
-292.11
-309.409
-378.572
-287.748
-293.501
-341.426
-390.637
-288.63
-278.921
-375.347
-364.363
-286.473
-244.907
-383.51
-304.041
-273.326
-205.878
-375.147
-243.799
-256.336
-182.45
-351.391
-196.291
-239.733
-184.875
-319.931
-161.445
-228.267
-208.932
-290.69
-153.665
-220.002
-231.603
-266.997
-169.467
-212.247
-235.616
-252.316
-190.035
-205.977
-238.154
-244.365
-210.959
-201.104
-231.884
-240.772
-233.289
-198.566
-231.424
-237.211
-248.495
-199.011
-240.628
-231.083
-266.429
-201.021
-243.551
-224.917
-278.713
-203.745
-238.563
-218.048
-271.717
-206.121
-229.791
-215.609
-264.804
-208.589
-221.119
-217.682
-261.324
-209.995
-213.395
-220
-257.035
-207.914
-207.276
-222.771
-250.321
-207.033
-202.963
-224.111
-244.211
-206.971
-200.754
-223.648
-238.463
-206.956
-200.498
-223.26
-233.001
-208.555
-201.33
-223.968
-228.514
-211.295
-202.703
-224.683
-224.935
-214.124
-205.661
-225.457
-222.251
-215.635
-208.382
-226.053
-221.009
)
;

boundaryField
{
    inlet
    {
        type            zeroGradient;
    }
    outlet
    {
        type            fixedValue;
        value           uniform 0;
    }
    repeat_boundary
    {
        type            zeroGradient;
    }
}


// ************************************************************************* //
