# Probe 0 (0 0 5000)
# Probe 1 (0 0 -4000)
#       Probe             0             1
#        Time
         1000             (8.18994e-09 -2.97839e-08 -0.000999994)             (3.55804e-10 1.30204e-09 -0.000999926)
         2000             (1.5752e-07 7.35446e-09 -0.00100002)             (-7.946e-09 -5.847e-09 -0.00100057)
         3000             (1.09274e-06 7.13326e-08 -0.00100103)             (8.46777e-07 8.41876e-07 -0.0010871)
         4000             (3.92473 -2.03471 18.2603)             (-0.0164633 -0.00602587 12.5973)
         5000             (7.55542 -2.67749 30.5633)             (-0.0307573 0.013553 24.2302)
         6000             (11.4721 -10.5526 52.5152)             (-0.132844 -0.0783268 43.3958)
         7000             (22.9001 -17.4035 58.6192)             (-0.144892 -0.0746207 63.6078)
         8000             (-23.1976 -16.285 96.659)             (0.0490277 -0.074355 107.218)
         9000             (-31.4529 -11.8139 123.949)             (-0.0784824 -0.0302707 123.496)
        10000             (-29.1648 -6.77391 111.056)             (-0.049705 -0.0846609 118.755)
