/*--------------------------------*- C++ -*----------------------------------*\
| =========                 |                                                 |
| \\      /  F ield         | OpenFOAM: The Open Source CFD Toolbox           |
|  \\    /   O peration     | Version:  5.x                                   |
|   \\  /    A nd           | Web:      www.OpenFOAM.org                      |
|    \\/     M anipulation  |                                                 |
\*---------------------------------------------------------------------------*/
FoamFile
{
    version     2.0;
    format      ascii;
    class       volVectorField;
    location    "0.001";
    object      stored_U;
}
// * * * * * * * * * * * * * * * * * * * * * * * * * * * * * * * * * * * * * //

dimensions      [0 1 -1 0 0 0 0];

internalField   nonuniform List<vector> 
180
(
(5.69299e-10 -6.38113e-10 -0.00100002)
(1.30439e-09 -1.55193e-09 -0.00100002)
(2.17709e-09 -2.60163e-09 -0.00100002)
(3.10516e-09 -3.71326e-09 -0.00100003)
(4.09868e-09 -4.90316e-09 -0.00100003)
(5.17452e-09 -6.19277e-09 -0.00100003)
(6.35281e-09 -7.60693e-09 -0.00100003)
(7.65445e-09 -9.17161e-09 -0.00100003)
(9.10142e-09 -1.09144e-08 -0.00100004)
(1.0717e-08 -1.28651e-08 -0.00100004)
(1.25262e-08 -1.50555e-08 -0.00100004)
(1.45559e-08 -1.75205e-08 -0.00100005)
(1.6835e-08 -2.02982e-08 -0.00100005)
(1.93952e-08 -2.34304e-08 -0.00100006)
(2.22711e-08 -2.69633e-08 -0.00100007)
(2.55007e-08 -3.09481e-08 -0.00100008)
(2.91258e-08 -3.54418e-08 -0.00100008)
(3.31929e-08 -4.05077e-08 -0.00100009)
(3.77531e-08 -4.62167e-08 -0.00100011)
(4.28638e-08 -5.26481e-08 -0.00100012)
(4.85886e-08 -5.98911e-08 -0.00100013)
(5.49987e-08 -6.80456e-08 -0.00100015)
(6.21738e-08 -7.72244e-08 -0.00100017)
(7.02032e-08 -8.75544e-08 -0.00100019)
(7.91873e-08 -9.91787e-08 -0.00100022)
(8.92386e-08 -1.12259e-07 -0.00100024)
(1.00484e-07 -1.26977e-07 -0.00100027)
(1.13065e-07 -1.4354e-07 -0.00100031)
(1.27143e-07 -1.6218e-07 -0.00100034)
(1.42898e-07 -1.8316e-07 -0.00100039)
(1.60531e-07 -2.06777e-07 -0.00100043)
(1.80271e-07 -2.33365e-07 -0.00100049)
(2.02371e-07 -2.63302e-07 -0.00100055)
(2.27119e-07 -2.97016e-07 -0.00100061)
(2.54836e-07 -3.34985e-07 -0.00100069)
(2.85882e-07 -3.77752e-07 -0.00100077)
(3.20658e-07 -4.25925e-07 -0.00100087)
(3.59615e-07 -4.80192e-07 -0.00100098)
(4.03258e-07 -5.41324e-07 -0.00100109)
(4.52148e-07 -6.10191e-07 -0.00100123)
(5.06916e-07 -6.87768e-07 -0.00100138)
(5.68263e-07 -7.75156e-07 -0.00100155)
(6.36973e-07 -8.73588e-07 -0.00100174)
(7.13923e-07 -9.84455e-07 -0.00100195)
(8.00088e-07 -1.10932e-06 -0.00100219)
(8.96559e-07 -1.24993e-06 -0.00100246)
(1.00455e-06 -1.40827e-06 -0.00100276)
(1.12543e-06 -1.58655e-06 -0.0010031)
(1.26071e-06 -1.78726e-06 -0.00100348)
(1.41207e-06 -2.01322e-06 -0.00100391)
(1.58141e-06 -2.26757e-06 -0.00100439)
(1.77082e-06 -2.55386e-06 -0.00100493)
(1.98266e-06 -2.87606e-06 -0.00100553)
(2.21954e-06 -3.23866e-06 -0.0010062)
(2.48438e-06 -3.64667e-06 -0.00100696)
(2.7804e-06 -4.10573e-06 -0.00100781)
(3.11123e-06 -4.62219e-06 -0.00100876)
(3.48086e-06 -5.20315e-06 -0.00100983)
(3.89375e-06 -5.85657e-06 -0.00101102)
(4.35483e-06 -6.5914e-06 -0.00101236)
(4.86957e-06 -7.41765e-06 -0.00101386)
(5.44403e-06 -8.34653e-06 -0.00101553)
(6.08488e-06 -9.39058e-06 -0.00101741)
(6.79952e-06 -1.05638e-05 -0.00101951)
(7.59606e-06 -1.1882e-05 -0.00102186)
(8.48343e-06 -1.33625e-05 -0.00102449)
(9.47144e-06 -1.5025e-05 -0.00102742)
(1.05708e-05 -1.68911e-05 -0.0010307)
(1.17932e-05 -1.89852e-05 -0.00103437)
(1.31514e-05 -2.13343e-05 -0.00103846)
(1.46592e-05 -2.39682e-05 -0.00104302)
(1.63314e-05 -2.69201e-05 -0.00104811)
(1.8184e-05 -3.0227e-05 -0.00105377)
(2.02342e-05 -3.39295e-05 -0.00106007)
(2.25005e-05 -3.80733e-05 -0.00106715)
(2.50059e-05 -4.2714e-05 -0.00107561)
(2.7737e-05 -4.78711e-05 -0.00108532)
(3.07348e-05 -5.3709e-05 -0.00108433)
(3.32793e-05 -6.01186e-05 -0.00102698)
(3.00301e-05 -6.35081e-05 -0.000808195)
(-6.36548e-06 -2.35314e-05 -0.0033559)
(-3.09827e-06 1.43888e-05 -6.67422e-05)
(-6.95852e-06 -6.50636e-05 -0.00402982)
(-1.8756e-05 1.08798e-05 -0.000973374)
(2.13288e-05 -0.000100436 -0.00362465)
(4.69257e-06 -0.000199518 -0.00391669)
(1.9325e-05 -8.65803e-05 -0.00152606)
(0.000134437 -0.000295908 -0.00413794)
(-0.000106853 7.68421e-05 -0.00173063)
(-0.000266138 0.000718107 -0.00280572)
(-0.000272484 0.000807795 -0.00294707)
(-0.000239583 0.000325696 -0.00128942)
(-0.000697173 0.00106982 -0.00259524)
(-0.000330656 0.000554736 -0.00288139)
(-5.70196e-05 0.000155256 -0.000295607)
(6.81038e-05 7.108e-05 -0.00475928)
(4.98125e-05 1.47082e-05 -0.00110838)
(0.000633321 -0.000438364 -0.00254713)
(0.000657843 -0.000392878 -0.00202051)
(2.26535e-05 -0.000218613 -0.00164714)
(-0.000181751 -0.00017362 -0.00222667)
(-7.19379e-05 2.95081e-05 -0.00198714)
(5.88493e-06 0.00015666 -0.0018486)
(1.3986e-05 0.000129859 -0.00156426)
(1.96472e-05 3.26436e-05 -0.00121404)
(1.24879e-05 -3.34423e-05 -0.00101818)
(1.01574e-05 -3.6688e-05 -0.00092228)
(9.54446e-06 -3.42139e-05 -0.000931458)
(9.26646e-06 -3.15868e-05 -0.000941499)
(8.94514e-06 -2.90756e-05 -0.00094692)
(8.54379e-06 -2.6693e-05 -0.000951401)
(8.09132e-06 -2.44501e-05 -0.000955659)
(7.6104e-06 -2.23509e-05 -0.00095964)
(7.11669e-06 -2.0395e-05 -0.00096332)
(6.62201e-06 -1.85797e-05 -0.00096671)
(6.13526e-06 -1.69006e-05 -0.000969826)
(5.66297e-06 -1.53522e-05 -0.000972682)
(5.20978e-06 -1.39281e-05 -0.000975294)
(4.77887e-06 -1.26215e-05 -0.000977679)
(4.37219e-06 -1.14253e-05 -0.000979853)
(3.99081e-06 -1.03322e-05 -0.000981831)
(3.63508e-06 -9.33512e-06 -0.000983627)
(3.30483e-06 -8.42701e-06 -0.000985257)
(2.99946e-06 -7.60117e-06 -0.000986734)
(2.71811e-06 -6.85117e-06 -0.000988071)
(2.45969e-06 -6.17089e-06 -0.00098928)
(2.22299e-06 -5.55456e-06 -0.000990371)
(2.00671e-06 -4.99676e-06 -0.000991356)
(1.80954e-06 -4.49244e-06 -0.000992244)
(1.63014e-06 -4.03689e-06 -0.000993044)
(1.4672e-06 -3.62573e-06 -0.000993765)
(1.31946e-06 -3.25494e-06 -0.000994413)
(1.18571e-06 -2.92079e-06 -0.000994995)
(1.06477e-06 -2.61987e-06 -0.000995518)
(9.55564e-07 -2.34904e-06 -0.000995988)
(8.57058e-07 -2.10544e-06 -0.00099641)
(7.68295e-07 -1.88645e-06 -0.000996788)
(6.88368e-07 -1.68967e-06 -0.000997127)
(6.16441e-07 -1.51293e-06 -0.000997431)
(5.51755e-07 -1.35425e-06 -0.000997703)
(4.93615e-07 -1.21183e-06 -0.000997947)
(4.4139e-07 -1.08406e-06 -0.000998166)
(3.94503e-07 -9.69476e-07 -0.000998361)
(3.52433e-07 -8.66746e-07 -0.000998536)
(3.14702e-07 -7.74676e-07 -0.000998693)
(2.80882e-07 -6.92187e-07 -0.000998833)
(2.50581e-07 -6.18304e-07 -0.000998958)
(2.23448e-07 -5.5215e-07 -0.00099907)
(1.99163e-07 -4.92937e-07 -0.00099917)
(1.77439e-07 -4.39952e-07 -0.00099926)
(1.58016e-07 -3.92557e-07 -0.00099934)
(1.4066e-07 -3.50175e-07 -0.000999411)
(1.2516e-07 -3.12291e-07 -0.000999475)
(1.11324e-07 -2.78438e-07 -0.000999532)
(9.89828e-08 -2.482e-07 -0.000999583)
(8.79802e-08 -2.21202e-07 -0.000999629)
(7.81777e-08 -1.97106e-07 -0.00099967)
(6.94501e-08 -1.7561e-07 -0.000999706)
(6.16849e-08 -1.56444e-07 -0.000999739)
(5.4781e-08 -1.39365e-07 -0.000999768)
(4.86475e-08 -1.24154e-07 -0.000999794)
(4.32031e-08 -1.10618e-07 -0.000999817)
(3.83746e-08 -9.85807e-08 -0.000999838)
(3.4097e-08 -8.78878e-08 -0.000999857)
(3.03119e-08 -7.84001e-08 -0.000999873)
(2.69674e-08 -6.9994e-08 -0.000999889)
(2.40174e-08 -6.25594e-08 -0.000999902)
(2.1421e-08 -5.59988e-08 -0.000999914)
(1.91421e-08 -5.0226e-08 -0.000999925)
(1.71491e-08 -4.51647e-08 -0.000999935)
(1.5414e-08 -4.07483e-08 -0.000999944)
(1.39127e-08 -3.69181e-08 -0.000999952)
(1.26243e-08 -3.36235e-08 -0.000999959)
(1.15307e-08 -3.08206e-08 -0.000999965)
(1.06167e-08 -2.84722e-08 -0.000999971)
(9.86965e-09 -2.6547e-08 -0.000999977)
(9.27979e-09 -2.50197e-08 -0.000999982)
(8.83589e-09 -2.38661e-08 -0.000999987)
(8.48455e-09 -2.30207e-08 -0.000999992)
(8.06778e-09 -2.23085e-08 -0.000999996)
)
;

boundaryField
{
    inlet
    {
        type            calculated;
        value           uniform (8.06778e-09 -2.23085e-08 -0.000999996);
    }
    outlet
    {
        type            calculated;
        value           uniform (5.69299e-10 -6.38113e-10 -0.00100002);
    }
    repeat_boundary
    {
        type            calculated;
        value           nonuniform List<vector> 
360
(
(5.69299e-10 0 -0.00100002)
(1.30439e-09 0 -0.00100002)
(2.17709e-09 0 -0.00100002)
(3.10516e-09 0 -0.00100003)
(4.09868e-09 0 -0.00100003)
(5.17452e-09 0 -0.00100003)
(6.35281e-09 0 -0.00100003)
(7.65445e-09 0 -0.00100003)
(9.10142e-09 0 -0.00100004)
(1.0717e-08 0 -0.00100004)
(1.25262e-08 0 -0.00100004)
(1.45559e-08 0 -0.00100005)
(1.6835e-08 0 -0.00100005)
(1.93952e-08 0 -0.00100006)
(2.22711e-08 0 -0.00100007)
(2.55007e-08 0 -0.00100008)
(2.91258e-08 0 -0.00100008)
(3.31929e-08 0 -0.00100009)
(3.77531e-08 0 -0.00100011)
(4.28638e-08 0 -0.00100012)
(4.85886e-08 0 -0.00100013)
(5.49987e-08 0 -0.00100015)
(6.21738e-08 0 -0.00100017)
(7.02032e-08 0 -0.00100019)
(7.91873e-08 0 -0.00100022)
(8.92386e-08 0 -0.00100024)
(1.00484e-07 0 -0.00100027)
(1.13065e-07 0 -0.00100031)
(1.27143e-07 0 -0.00100034)
(1.42898e-07 0 -0.00100039)
(1.60531e-07 0 -0.00100043)
(1.80271e-07 0 -0.00100049)
(2.02371e-07 0 -0.00100055)
(2.27119e-07 0 -0.00100061)
(2.54836e-07 0 -0.00100069)
(2.85882e-07 0 -0.00100077)
(3.20658e-07 0 -0.00100087)
(3.59615e-07 0 -0.00100098)
(4.03258e-07 0 -0.00100109)
(4.52148e-07 0 -0.00100123)
(5.06916e-07 0 -0.00100138)
(5.68263e-07 0 -0.00100155)
(6.36973e-07 0 -0.00100174)
(7.13923e-07 0 -0.00100195)
(8.00088e-07 0 -0.00100219)
(8.96559e-07 0 -0.00100246)
(1.00455e-06 0 -0.00100276)
(1.12543e-06 0 -0.0010031)
(1.26071e-06 0 -0.00100348)
(1.41207e-06 0 -0.00100391)
(1.58141e-06 0 -0.00100439)
(1.77082e-06 0 -0.00100493)
(1.98266e-06 0 -0.00100553)
(2.21954e-06 0 -0.0010062)
(2.48438e-06 0 -0.00100696)
(2.7804e-06 0 -0.00100781)
(3.11123e-06 0 -0.00100876)
(3.48086e-06 0 -0.00100983)
(3.89375e-06 0 -0.00101102)
(4.35483e-06 0 -0.00101236)
(4.86957e-06 0 -0.00101386)
(5.44403e-06 0 -0.00101553)
(6.08488e-06 0 -0.00101741)
(6.79952e-06 0 -0.00101951)
(7.59606e-06 0 -0.00102186)
(8.48343e-06 0 -0.00102449)
(9.47144e-06 0 -0.00102742)
(1.05708e-05 0 -0.0010307)
(1.17932e-05 0 -0.00103437)
(1.31514e-05 0 -0.00103846)
(1.46592e-05 0 -0.00104302)
(1.63314e-05 0 -0.00104811)
(1.8184e-05 0 -0.00105377)
(2.02342e-05 0 -0.00106007)
(2.25005e-05 0 -0.00106715)
(2.50059e-05 0 -0.00107561)
(2.7737e-05 0 -0.00108532)
(3.07348e-05 0 -0.00108433)
(3.32793e-05 0 -0.00102698)
(3.00301e-05 0 -0.000808195)
(-6.36548e-06 0 -0.0033559)
(-3.09827e-06 0 -6.67422e-05)
(-6.95852e-06 0 -0.00402982)
(-1.8756e-05 0 -0.000973374)
(2.13288e-05 0 -0.00362465)
(4.69257e-06 0 -0.00391669)
(1.9325e-05 0 -0.00152606)
(0.000134437 0 -0.00413794)
(-0.000106853 0 -0.00173063)
(-0.000266138 0 -0.00280572)
(-0.000272484 0 -0.00294707)
(-0.000239583 0 -0.00128942)
(-0.000697173 0 -0.00259524)
(-0.000330656 0 -0.00288139)
(-5.70196e-05 0 -0.000295607)
(6.81038e-05 0 -0.00475928)
(4.98125e-05 0 -0.00110838)
(0.000633321 0 -0.00254713)
(0.000657843 0 -0.00202051)
(2.26535e-05 0 -0.00164714)
(-0.000181751 0 -0.00222667)
(-7.19379e-05 0 -0.00198714)
(5.88493e-06 0 -0.0018486)
(1.3986e-05 0 -0.00156426)
(1.96472e-05 0 -0.00121404)
(1.24879e-05 0 -0.00101818)
(1.01574e-05 0 -0.00092228)
(9.54446e-06 0 -0.000931458)
(9.26646e-06 0 -0.000941499)
(8.94514e-06 0 -0.00094692)
(8.54379e-06 0 -0.000951401)
(8.09132e-06 0 -0.000955659)
(7.6104e-06 0 -0.00095964)
(7.11669e-06 0 -0.00096332)
(6.62201e-06 0 -0.00096671)
(6.13526e-06 0 -0.000969826)
(5.66297e-06 0 -0.000972682)
(5.20978e-06 0 -0.000975294)
(4.77887e-06 0 -0.000977679)
(4.37219e-06 0 -0.000979853)
(3.99081e-06 0 -0.000981831)
(3.63508e-06 0 -0.000983627)
(3.30483e-06 0 -0.000985257)
(2.99946e-06 0 -0.000986734)
(2.71811e-06 0 -0.000988071)
(2.45969e-06 0 -0.00098928)
(2.22299e-06 0 -0.000990371)
(2.00671e-06 0 -0.000991356)
(1.80954e-06 0 -0.000992244)
(1.63014e-06 0 -0.000993044)
(1.4672e-06 0 -0.000993765)
(1.31946e-06 0 -0.000994413)
(1.18571e-06 0 -0.000994995)
(1.06477e-06 0 -0.000995518)
(9.55564e-07 0 -0.000995988)
(8.57058e-07 0 -0.00099641)
(7.68295e-07 0 -0.000996788)
(6.88368e-07 0 -0.000997127)
(6.16441e-07 0 -0.000997431)
(5.51755e-07 0 -0.000997703)
(4.93615e-07 0 -0.000997947)
(4.4139e-07 0 -0.000998166)
(3.94503e-07 0 -0.000998361)
(3.52433e-07 0 -0.000998536)
(3.14702e-07 0 -0.000998693)
(2.80882e-07 0 -0.000998833)
(2.50581e-07 0 -0.000998958)
(2.23448e-07 0 -0.00099907)
(1.99163e-07 0 -0.00099917)
(1.77439e-07 0 -0.00099926)
(1.58016e-07 0 -0.00099934)
(1.4066e-07 0 -0.000999411)
(1.2516e-07 0 -0.000999475)
(1.11324e-07 0 -0.000999532)
(9.89828e-08 0 -0.000999583)
(8.79802e-08 0 -0.000999629)
(7.81777e-08 0 -0.00099967)
(6.94501e-08 0 -0.000999706)
(6.16849e-08 0 -0.000999739)
(5.4781e-08 0 -0.000999768)
(4.86475e-08 0 -0.000999794)
(4.32031e-08 0 -0.000999817)
(3.83746e-08 0 -0.000999838)
(3.4097e-08 0 -0.000999857)
(3.03119e-08 0 -0.000999873)
(2.69674e-08 0 -0.000999889)
(2.40174e-08 0 -0.000999902)
(2.1421e-08 0 -0.000999914)
(1.91421e-08 0 -0.000999925)
(1.71491e-08 0 -0.000999935)
(1.5414e-08 0 -0.000999944)
(1.39127e-08 0 -0.000999952)
(1.26243e-08 0 -0.000999959)
(1.15307e-08 0 -0.000999965)
(1.06167e-08 0 -0.000999971)
(9.86965e-09 0 -0.000999977)
(9.27979e-09 0 -0.000999982)
(8.83589e-09 0 -0.000999987)
(8.48455e-09 0 -0.000999992)
(8.06778e-09 0 -0.000999996)
(0 -6.38113e-10 -0.00100002)
(0 -1.55193e-09 -0.00100002)
(0 -2.60163e-09 -0.00100002)
(0 -3.71326e-09 -0.00100003)
(0 -4.90316e-09 -0.00100003)
(0 -6.19277e-09 -0.00100003)
(0 -7.60693e-09 -0.00100003)
(0 -9.17161e-09 -0.00100003)
(0 -1.09144e-08 -0.00100004)
(0 -1.28651e-08 -0.00100004)
(0 -1.50555e-08 -0.00100004)
(0 -1.75205e-08 -0.00100005)
(0 -2.02982e-08 -0.00100005)
(0 -2.34304e-08 -0.00100006)
(0 -2.69633e-08 -0.00100007)
(0 -3.09481e-08 -0.00100008)
(0 -3.54418e-08 -0.00100008)
(0 -4.05077e-08 -0.00100009)
(0 -4.62167e-08 -0.00100011)
(0 -5.26481e-08 -0.00100012)
(0 -5.98911e-08 -0.00100013)
(0 -6.80456e-08 -0.00100015)
(0 -7.72244e-08 -0.00100017)
(0 -8.75544e-08 -0.00100019)
(0 -9.91787e-08 -0.00100022)
(0 -1.12259e-07 -0.00100024)
(0 -1.26977e-07 -0.00100027)
(0 -1.4354e-07 -0.00100031)
(0 -1.6218e-07 -0.00100034)
(0 -1.8316e-07 -0.00100039)
(0 -2.06777e-07 -0.00100043)
(0 -2.33365e-07 -0.00100049)
(0 -2.63302e-07 -0.00100055)
(0 -2.97016e-07 -0.00100061)
(0 -3.34985e-07 -0.00100069)
(0 -3.77752e-07 -0.00100077)
(0 -4.25925e-07 -0.00100087)
(0 -4.80192e-07 -0.00100098)
(0 -5.41324e-07 -0.00100109)
(0 -6.10191e-07 -0.00100123)
(0 -6.87768e-07 -0.00100138)
(0 -7.75156e-07 -0.00100155)
(0 -8.73588e-07 -0.00100174)
(0 -9.84455e-07 -0.00100195)
(0 -1.10932e-06 -0.00100219)
(0 -1.24993e-06 -0.00100246)
(0 -1.40827e-06 -0.00100276)
(0 -1.58655e-06 -0.0010031)
(0 -1.78726e-06 -0.00100348)
(0 -2.01322e-06 -0.00100391)
(0 -2.26757e-06 -0.00100439)
(0 -2.55386e-06 -0.00100493)
(0 -2.87606e-06 -0.00100553)
(0 -3.23866e-06 -0.0010062)
(0 -3.64667e-06 -0.00100696)
(0 -4.10573e-06 -0.00100781)
(0 -4.62219e-06 -0.00100876)
(0 -5.20315e-06 -0.00100983)
(0 -5.85657e-06 -0.00101102)
(0 -6.5914e-06 -0.00101236)
(0 -7.41765e-06 -0.00101386)
(0 -8.34653e-06 -0.00101553)
(0 -9.39058e-06 -0.00101741)
(0 -1.05638e-05 -0.00101951)
(0 -1.1882e-05 -0.00102186)
(0 -1.33625e-05 -0.00102449)
(0 -1.5025e-05 -0.00102742)
(0 -1.68911e-05 -0.0010307)
(0 -1.89852e-05 -0.00103437)
(0 -2.13343e-05 -0.00103846)
(0 -2.39682e-05 -0.00104302)
(0 -2.69201e-05 -0.00104811)
(0 -3.0227e-05 -0.00105377)
(0 -3.39295e-05 -0.00106007)
(0 -3.80733e-05 -0.00106715)
(0 -4.2714e-05 -0.00107561)
(0 -4.78711e-05 -0.00108532)
(0 -5.3709e-05 -0.00108433)
(0 -6.01186e-05 -0.00102698)
(0 -6.35081e-05 -0.000808195)
(0 -2.35314e-05 -0.0033559)
(0 1.43888e-05 -6.67422e-05)
(0 -6.50636e-05 -0.00402982)
(0 1.08798e-05 -0.000973374)
(0 -0.000100436 -0.00362465)
(0 -0.000199518 -0.00391669)
(0 -8.65803e-05 -0.00152606)
(0 -0.000295908 -0.00413794)
(0 7.68421e-05 -0.00173063)
(0 0.000718107 -0.00280572)
(0 0.000807795 -0.00294707)
(0 0.000325696 -0.00128942)
(0 0.00106982 -0.00259524)
(0 0.000554736 -0.00288139)
(0 0.000155256 -0.000295607)
(0 7.108e-05 -0.00475928)
(0 1.47082e-05 -0.00110838)
(0 -0.000438364 -0.00254713)
(0 -0.000392878 -0.00202051)
(0 -0.000218613 -0.00164714)
(0 -0.00017362 -0.00222667)
(0 2.95081e-05 -0.00198714)
(0 0.00015666 -0.0018486)
(0 0.000129859 -0.00156426)
(0 3.26436e-05 -0.00121404)
(0 -3.34423e-05 -0.00101818)
(0 -3.6688e-05 -0.00092228)
(0 -3.42139e-05 -0.000931458)
(0 -3.15868e-05 -0.000941499)
(0 -2.90756e-05 -0.00094692)
(0 -2.6693e-05 -0.000951401)
(0 -2.44501e-05 -0.000955659)
(0 -2.23509e-05 -0.00095964)
(0 -2.0395e-05 -0.00096332)
(0 -1.85797e-05 -0.00096671)
(0 -1.69006e-05 -0.000969826)
(0 -1.53522e-05 -0.000972682)
(0 -1.39281e-05 -0.000975294)
(0 -1.26215e-05 -0.000977679)
(0 -1.14253e-05 -0.000979853)
(0 -1.03322e-05 -0.000981831)
(0 -9.33512e-06 -0.000983627)
(0 -8.42701e-06 -0.000985257)
(0 -7.60117e-06 -0.000986734)
(0 -6.85117e-06 -0.000988071)
(0 -6.17089e-06 -0.00098928)
(0 -5.55456e-06 -0.000990371)
(0 -4.99676e-06 -0.000991356)
(0 -4.49244e-06 -0.000992244)
(0 -4.03689e-06 -0.000993044)
(0 -3.62573e-06 -0.000993765)
(0 -3.25494e-06 -0.000994413)
(0 -2.92079e-06 -0.000994995)
(0 -2.61987e-06 -0.000995518)
(0 -2.34904e-06 -0.000995988)
(0 -2.10544e-06 -0.00099641)
(0 -1.88645e-06 -0.000996788)
(0 -1.68967e-06 -0.000997127)
(0 -1.51293e-06 -0.000997431)
(0 -1.35425e-06 -0.000997703)
(0 -1.21183e-06 -0.000997947)
(0 -1.08406e-06 -0.000998166)
(0 -9.69476e-07 -0.000998361)
(0 -8.66746e-07 -0.000998536)
(0 -7.74676e-07 -0.000998693)
(0 -6.92187e-07 -0.000998833)
(0 -6.18304e-07 -0.000998958)
(0 -5.5215e-07 -0.00099907)
(0 -4.92937e-07 -0.00099917)
(0 -4.39952e-07 -0.00099926)
(0 -3.92557e-07 -0.00099934)
(0 -3.50175e-07 -0.000999411)
(0 -3.12291e-07 -0.000999475)
(0 -2.78438e-07 -0.000999532)
(0 -2.482e-07 -0.000999583)
(0 -2.21202e-07 -0.000999629)
(0 -1.97106e-07 -0.00099967)
(0 -1.7561e-07 -0.000999706)
(0 -1.56444e-07 -0.000999739)
(0 -1.39365e-07 -0.000999768)
(0 -1.24154e-07 -0.000999794)
(0 -1.10618e-07 -0.000999817)
(0 -9.85807e-08 -0.000999838)
(0 -8.78878e-08 -0.000999857)
(0 -7.84001e-08 -0.000999873)
(0 -6.9994e-08 -0.000999889)
(0 -6.25594e-08 -0.000999902)
(0 -5.59988e-08 -0.000999914)
(0 -5.0226e-08 -0.000999925)
(0 -4.51647e-08 -0.000999935)
(0 -4.07483e-08 -0.000999944)
(0 -3.69181e-08 -0.000999952)
(0 -3.36235e-08 -0.000999959)
(0 -3.08206e-08 -0.000999965)
(0 -2.84722e-08 -0.000999971)
(0 -2.6547e-08 -0.000999977)
(0 -2.50197e-08 -0.000999982)
(0 -2.38661e-08 -0.000999987)
(0 -2.30207e-08 -0.000999992)
(0 -2.23085e-08 -0.000999996)
)
;
    }
    procBoundary2to0
    {
        type            processor;
        value           nonuniform List<vector> 
180
(
(6.93554e-10 -6.38113e-10 -0.001)
(1.60831e-09 -1.55193e-09 -0.001)
(2.66798e-09 -2.60163e-09 -0.001)
(3.77886e-09 -3.71326e-09 -0.001)
(4.93892e-09 -4.90315e-09 -0.001)
(6.16233e-09 -6.19277e-09 -0.001)
(7.46378e-09 -7.60693e-09 -0.001)
(8.85957e-09 -9.17161e-09 -0.001)
(1.03675e-08 -1.09144e-08 -0.000999999)
(1.20074e-08 -1.28651e-08 -0.000999998)
(1.38009e-08 -1.50555e-08 -0.000999997)
(1.57723e-08 -1.75205e-08 -0.000999996)
(1.79486e-08 -2.02982e-08 -0.000999995)
(2.03597e-08 -2.34304e-08 -0.000999993)
(2.30393e-08 -2.69633e-08 -0.000999992)
(2.60246e-08 -3.09481e-08 -0.00099999)
(2.93574e-08 -3.54418e-08 -0.000999989)
(3.30841e-08 -4.05077e-08 -0.000999987)
(3.72565e-08 -4.62167e-08 -0.000999985)
(4.19324e-08 -5.26481e-08 -0.000999983)
(4.7176e-08 -5.9891e-08 -0.000999981)
(5.30586e-08 -6.80456e-08 -0.000999978)
(5.96597e-08 -7.72244e-08 -0.000999975)
(6.70675e-08 -8.75543e-08 -0.000999972)
(7.53798e-08 -9.91786e-08 -0.000999968)
(8.47051e-08 -1.12259e-07 -0.000999964)
(9.51638e-08 -1.26977e-07 -0.000999959)
(1.06889e-07 -1.4354e-07 -0.000999953)
(1.2003e-07 -1.6218e-07 -0.000999947)
(1.3475e-07 -1.8316e-07 -0.000999939)
(1.51231e-07 -2.06777e-07 -0.000999931)
(1.69676e-07 -2.33365e-07 -0.000999921)
(1.90308e-07 -2.63302e-07 -0.000999909)
(2.13379e-07 -2.97016e-07 -0.000999896)
(2.39164e-07 -3.34985e-07 -0.00099988)
(2.67972e-07 -3.77752e-07 -0.000999863)
(3.00147e-07 -4.25925e-07 -0.000999842)
(3.36072e-07 -4.80192e-07 -0.000999819)
(3.76174e-07 -5.41324e-07 -0.000999793)
(4.20926e-07 -6.1019e-07 -0.000999763)
(4.70861e-07 -6.87768e-07 -0.000999728)
(5.26569e-07 -7.75155e-07 -0.000999689)
(5.88709e-07 -8.73587e-07 -0.000999644)
(6.58018e-07 -9.84454e-07 -0.000999593)
(7.35315e-07 -1.10932e-06 -0.000999534)
(8.21515e-07 -1.24993e-06 -0.000999468)
(9.17638e-07 -1.40826e-06 -0.000999393)
(1.02482e-06 -1.58654e-06 -0.000999308)
(1.14433e-06 -1.78726e-06 -0.00099921)
(1.27757e-06 -2.01322e-06 -0.0009991)
(1.42613e-06 -2.26757e-06 -0.000998974)
(1.59174e-06 -2.55385e-06 -0.000998831)
(1.77636e-06 -2.87605e-06 -0.000998669)
(1.98217e-06 -3.23864e-06 -0.000998484)
(2.21159e-06 -3.64665e-06 -0.000998275)
(2.46733e-06 -4.10571e-06 -0.000998037)
(2.7524e-06 -4.62216e-06 -0.000997767)
(3.07018e-06 -5.20311e-06 -0.00099746)
(3.42443e-06 -5.85652e-06 -0.000997113)
(3.81936e-06 -6.59134e-06 -0.000996719)
(4.2597e-06 -7.41757e-06 -0.000996272)
(4.75073e-06 -8.34643e-06 -0.000995767)
(5.29839e-06 -9.39045e-06 -0.000995195)
(5.90934e-06 -1.05637e-05 -0.000994549)
(6.59108e-06 -1.18818e-05 -0.000993819)
(7.35207e-06 -1.33622e-05 -0.000992995)
(8.20184e-06 -1.50246e-05 -0.000992066)
(9.15115e-06 -1.68907e-05 -0.00099102)
(1.02122e-05 -1.89847e-05 -0.000989845)
(1.13989e-05 -2.13335e-05 -0.000988524)
(1.27268e-05 -2.39672e-05 -0.000987043)
(1.4214e-05 -2.69189e-05 -0.000985385)
(1.58809e-05 -3.02254e-05 -0.000983527)
(1.77507e-05 -3.39274e-05 -0.000981446)
(1.98501e-05 -3.80694e-05 -0.000979217)
(2.22109e-05 -4.26992e-05 -0.00097729)
(2.4877e-05 -4.78724e-05 -0.000975164)
(2.78734e-05 -5.36408e-05 -0.000960784)
(3.07981e-05 -5.95294e-05 -0.000899878)
(3.14488e-05 -6.01856e-05 -0.000744586)
(1.892e-05 -1.70508e-05 -0.00279419)
(2.99902e-06 7.33273e-07 -3.6005e-05)
(0.000191432 -5.62689e-05 -0.00354316)
(-7.826e-06 -7.82158e-06 -0.000227261)
(-0.000446725 -0.0001868 -0.00291907)
(-0.000537649 -0.00026222 -0.00249907)
(-0.000130374 -5.41081e-05 -0.00115782)
(-0.00017394 -0.000109539 -0.0046048)
(-3.5205e-05 6.21065e-05 -0.000884231)
(0.000257463 0.000343652 -0.00404093)
(0.000274465 0.00060787 -0.00221321)
(6.90253e-05 0.000831772 -0.00284309)
(-9.45739e-06 0.000335152 -0.000941309)
(-8.12446e-05 0.0012275 -0.0030402)
(-0.000118164 0.000493519 -0.00281161)
(-2.2326e-05 0.000113341 -0.00153819)
(-0.000308538 -0.000750656 -0.00350382)
(-6.82496e-05 -0.000164408 -0.00165338)
(-0.000103056 -0.000231718 -0.00310806)
(-0.000108829 -0.000105251 -0.00236032)
(-0.000214304 -1.82321e-05 -0.00288909)
(-0.000163151 0.000101466 -0.002765)
(-4.5719e-05 0.000167489 -0.00179853)
(5.73024e-06 9.03462e-05 -0.00183046)
(1.73554e-05 2.51504e-06 -0.00104819)
(6.2779e-05 -3.59612e-05 -0.00104845)
(5.82218e-05 -3.68654e-05 -0.000983751)
(5.1041e-05 -3.42221e-05 -0.000987615)
(4.44967e-05 -3.15856e-05 -0.000993329)
(3.87727e-05 -2.90743e-05 -0.00099602)
(3.3798e-05 -2.66918e-05 -0.000997792)
(2.9477e-05 -2.44491e-05 -0.000999204)
(2.57216e-05 -2.23501e-05 -0.0010003)
(2.24559e-05 -2.03943e-05 -0.00100114)
(1.96146e-05 -1.85792e-05 -0.00100175)
(1.7141e-05 -1.69002e-05 -0.00100219)
(1.49865e-05 -1.53518e-05 -0.00100248)
(1.3109e-05 -1.39278e-05 -0.00100267)
(1.14718e-05 -1.26213e-05 -0.00100277)
(1.00437e-05 -1.14251e-05 -0.0010028)
(8.79729e-06 -1.03321e-05 -0.00100278)
(7.70903e-06 -9.33498e-06 -0.00100273)
(6.7584e-06 -8.4269e-06 -0.00100264)
(5.9276e-06 -7.60108e-06 -0.00100253)
(5.20117e-06 -6.85109e-06 -0.00100241)
(4.56568e-06 -6.17083e-06 -0.00100228)
(4.00946e-06 -5.55451e-06 -0.00100214)
(3.52239e-06 -4.99672e-06 -0.001002)
(3.09566e-06 -4.49241e-06 -0.00100187)
(2.72161e-06 -4.03686e-06 -0.00100173)
(2.39358e-06 -3.62571e-06 -0.0010016)
(2.10577e-06 -3.25492e-06 -0.00100148)
(1.85315e-06 -2.92077e-06 -0.00100136)
(1.6313e-06 -2.61986e-06 -0.00100125)
(1.43641e-06 -2.34903e-06 -0.00100114)
(1.26514e-06 -2.10544e-06 -0.00100105)
(1.11456e-06 -1.88645e-06 -0.00100096)
(9.82122e-07 -1.68967e-06 -0.00100087)
(8.65612e-07 -1.51293e-06 -0.00100079)
(7.63079e-07 -1.35424e-06 -0.00100072)
(6.7282e-07 -1.21183e-06 -0.00100065)
(5.93344e-07 -1.08406e-06 -0.00100059)
(5.23345e-07 -9.69474e-07 -0.00100054)
(4.61678e-07 -8.66745e-07 -0.00100049)
(4.0734e-07 -7.74675e-07 -0.00100044)
(3.59447e-07 -6.92186e-07 -0.0010004)
(3.17227e-07 -6.18303e-07 -0.00100036)
(2.8e-07 -5.5215e-07 -0.00100033)
(2.47167e-07 -4.92937e-07 -0.00100029)
(2.18205e-07 -4.39952e-07 -0.00100027)
(1.92651e-07 -3.92557e-07 -0.00100024)
(1.70101e-07 -3.50175e-07 -0.00100022)
(1.50196e-07 -3.12291e-07 -0.00100019)
(1.32624e-07 -2.78438e-07 -0.00100017)
(1.17109e-07 -2.482e-07 -0.00100016)
(1.03409e-07 -2.21202e-07 -0.00100014)
(9.13105e-08 -1.97106e-07 -0.00100013)
(8.06267e-08 -1.7561e-07 -0.00100011)
(7.1193e-08 -1.56444e-07 -0.0010001)
(6.28646e-08 -1.39365e-07 -0.00100009)
(5.55144e-08 -1.24154e-07 -0.00100008)
(4.90304e-08 -1.10618e-07 -0.00100007)
(4.33141e-08 -9.85807e-08 -0.00100007)
(3.82789e-08 -8.78878e-08 -0.00100006)
(3.38484e-08 -7.84001e-08 -0.00100005)
(2.99553e-08 -6.9994e-08 -0.00100005)
(2.65404e-08 -6.25594e-08 -0.00100004)
(2.35513e-08 -5.59988e-08 -0.00100004)
(2.09422e-08 -5.0226e-08 -0.00100003)
(1.86724e-08 -4.51647e-08 -0.00100003)
(1.67065e-08 -4.07483e-08 -0.00100003)
(1.50133e-08 -3.69181e-08 -0.00100002)
(1.35657e-08 -3.36235e-08 -0.00100002)
(1.23402e-08 -3.08206e-08 -0.00100002)
(1.13168e-08 -2.84722e-08 -0.00100001)
(1.04786e-08 -2.6547e-08 -0.00100001)
(9.8106e-09 -2.50197e-08 -0.00100001)
(9.30375e-09 -2.38661e-08 -0.00100001)
(8.99424e-09 -2.30207e-08 -0.001)
(9.02053e-09 -2.23085e-08 -0.001)
)
;
    }
    procBoundary2to3
    {
        type            processor;
        value           nonuniform List<vector> 
180
(
(5.693e-10 -7.62368e-10 -0.00100001)
(1.30439e-09 -1.85584e-09 -0.00100001)
(2.17709e-09 -3.09252e-09 -0.00100001)
(3.10516e-09 -4.38696e-09 -0.00100001)
(4.09868e-09 -5.7434e-09 -0.00100001)
(5.17452e-09 -7.18058e-09 -0.00100001)
(6.35281e-09 -8.7179e-09 -0.00100001)
(7.65445e-09 -1.03767e-08 -0.00100001)
(9.10142e-09 -1.21806e-08 -0.00100001)
(1.0717e-08 -1.41554e-08 -0.00100001)
(1.25262e-08 -1.63301e-08 -0.00100001)
(1.45559e-08 -1.87369e-08 -0.00100001)
(1.6835e-08 -2.14118e-08 -0.00100001)
(1.93952e-08 -2.43949e-08 -0.00100001)
(2.22711e-08 -2.77315e-08 -0.00100001)
(2.55007e-08 -3.14721e-08 -0.00100001)
(2.91258e-08 -3.56733e-08 -0.00100001)
(3.31929e-08 -4.03989e-08 -0.00100001)
(3.77531e-08 -4.572e-08 -0.00100001)
(4.28638e-08 -5.17167e-08 -0.00100001)
(4.85886e-08 -5.84784e-08 -0.00100001)
(5.49987e-08 -6.61055e-08 -0.00100002)
(6.21738e-08 -7.47104e-08 -0.00100002)
(7.02032e-08 -8.44187e-08 -0.00100002)
(7.91873e-08 -9.53711e-08 -0.00100002)
(8.92386e-08 -1.07725e-07 -0.00100003)
(1.00484e-07 -1.21657e-07 -0.00100003)
(1.13065e-07 -1.37364e-07 -0.00100004)
(1.27143e-07 -1.55067e-07 -0.00100004)
(1.42898e-07 -1.75012e-07 -0.00100005)
(1.60531e-07 -1.97477e-07 -0.00100006)
(1.8027e-07 -2.2277e-07 -0.00100007)
(2.02371e-07 -2.5124e-07 -0.00100008)
(2.27119e-07 -2.83275e-07 -0.00100009)
(2.54836e-07 -3.19312e-07 -0.0010001)
(2.85881e-07 -3.59842e-07 -0.00100011)
(3.20657e-07 -4.05415e-07 -0.00100013)
(3.59615e-07 -4.56649e-07 -0.00100015)
(4.03257e-07 -5.1424e-07 -0.00100017)
(4.52148e-07 -5.78969e-07 -0.00100019)
(5.06916e-07 -6.51713e-07 -0.00100022)
(5.68262e-07 -7.33461e-07 -0.00100025)
(6.36973e-07 -8.25324e-07 -0.00100028)
(7.13922e-07 -9.2855e-07 -0.00100032)
(8.00086e-07 -1.04454e-06 -0.00100036)
(8.96558e-07 -1.17489e-06 -0.00100041)
(1.00455e-06 -1.32135e-06 -0.00100047)
(1.12543e-06 -1.48594e-06 -0.00100054)
(1.2607e-06 -1.67089e-06 -0.00100061)
(1.41206e-06 -1.87873e-06 -0.0010007)
(1.5814e-06 -2.11229e-06 -0.00100079)
(1.77081e-06 -2.37478e-06 -0.0010009)
(1.98265e-06 -2.66976e-06 -0.00100103)
(2.21953e-06 -3.00128e-06 -0.00100117)
(2.48436e-06 -3.37388e-06 -0.00100134)
(2.78038e-06 -3.79266e-06 -0.00100152)
(3.1112e-06 -4.26336e-06 -0.00100174)
(3.48083e-06 -4.79246e-06 -0.00100198)
(3.89371e-06 -5.38725e-06 -0.00100225)
(4.35478e-06 -6.05593e-06 -0.00100257)
(4.86951e-06 -6.80777e-06 -0.00100293)
(5.44395e-06 -7.65322e-06 -0.00100334)
(6.08478e-06 -8.60406e-06 -0.00100381)
(6.79939e-06 -9.67363e-06 -0.00100435)
(7.59589e-06 -1.0877e-05 -0.00100496)
(8.48322e-06 -1.22311e-05 -0.00100567)
(9.47117e-06 -1.37553e-05 -0.00100648)
(1.05705e-05 -1.54714e-05 -0.0010074)
(1.17928e-05 -1.74042e-05 -0.00100847)
(1.31508e-05 -1.95816e-05 -0.00100969)
(1.46584e-05 -2.20357e-05 -0.0010111)
(1.63304e-05 -2.48026e-05 -0.00101272)
(1.81828e-05 -2.79237e-05 -0.00101459)
(2.02325e-05 -3.14458e-05 -0.00101674)
(2.24972e-05 -3.54224e-05 -0.00101931)
(2.49939e-05 -3.99159e-05 -0.00102281)
(2.77396e-05 -4.50024e-05 -0.00102675)
(3.06937e-05 -5.07392e-05 -0.00101911)
(3.2972e-05 -5.66863e-05 -0.00096375)
(2.90167e-05 -5.90964e-05 -0.000828149)
(3.71965e-06 -2.97382e-05 -0.00308351)
(2.20776e-05 2.8151e-05 -4.47405e-05)
(-3.52809e-06 -0.000232725 -0.00402063)
(-8.03244e-06 5.63686e-05 -0.000112564)
(4.89462e-05 0.000288536 -0.00461667)
(-3.30048e-05 0.000119788 -0.000494905)
(0.000143763 0.000283933 -0.004603)
(2.90239e-05 0.000121338 -0.00124845)
(-0.000100944 -4.39834e-05 -0.003721)
(-0.000132964 -2.77123e-05 -0.0017444)
(-0.000247005 0.0002092 -0.00475007)
(-2.83832e-05 8.17426e-05 -0.000227179)
(-0.000903274 0.000670657 -0.00410305)
(-0.000121942 0.000232197 -0.000909231)
(-0.000113623 0.00043828 -0.0034913)
(0.00018447 0.000224832 -0.00149389)
(0.000608932 0.000357829 -0.0026122)
(0.000583277 0.000379092 -0.00261244)
(0.000249847 0.000248623 -0.00352844)
(-2.25911e-06 0.000118296 -0.00149036)
(-0.000158638 -1.63982e-05 -0.00237982)
(-0.000270596 -0.000135665 -0.00132263)
(-0.000201459 -0.000199402 -0.00125965)
(-7.27088e-05 -0.000152105 -0.00104115)
(-6.92123e-06 -0.000119602 -0.00100827)
(9.25018e-06 -9.84766e-05 -0.000928336)