/*--------------------------------*- C++ -*----------------------------------*\
| =========                 |                                                 |
| \\      /  F ield         | OpenFOAM: The Open Source CFD Toolbox           |
|  \\    /   O peration     | Version:  5.x                                   |
|   \\  /    A nd           | Web:      www.OpenFOAM.org                      |
|    \\/     M anipulation  |                                                 |
\*---------------------------------------------------------------------------*/
FoamFile
{
    version     2.0;
    format      ascii;
    class       surfaceScalarField;
    location    "0.07";
    object      phi;
}
// * * * * * * * * * * * * * * * * * * * * * * * * * * * * * * * * * * * * * //

dimensions      [0 3 -1 0 0 0 0];

internalField   nonuniform List<scalar> 
5825
(
-7.63294e-17
-6.32615e-17
-9.99998e-10
-1.02257e-16
-4.50359e-17
-9.99998e-10
-1.41984e-16
-4.23056e-17
-9.99998e-10
-1.7294e-16
-4.33503e-17
-9.99998e-10
-4.11043e-17
-9.99999e-10
-5.81018e-17
-7.67116e-17
-9.99998e-10
-9.95702e-17
-7.11997e-17
-9.99998e-10
-1.43284e-16
-7.46174e-17
-9.99998e-10
-1.70912e-16
-7.9789e-17
-9.99998e-10
-8.90748e-17
-9.99999e-10
-5.25679e-17
-1.03809e-16
-9.99998e-10
-1.03147e-16
-1.08312e-16
-9.99998e-10
-1.48294e-16
-1.15657e-16
-9.99998e-10
-1.79844e-16
-1.26495e-16
-9.99998e-10
-1.43273e-16
-9.99999e-10
-5.69614e-17
-1.3297e-16
-9.99998e-10
-1.10985e-16
-1.35905e-16
-9.99998e-10
-1.59191e-16
-1.33389e-16
-9.99998e-10
-1.96337e-16
-1.42459e-16
-9.99999e-10
-1.56156e-16
-9.99999e-10
-5.81141e-17
-9.99998e-10
-1.07008e-16
-9.99998e-10
-1.68011e-16
-9.99999e-10
-2.10893e-16
-9.99999e-10
-9.99999e-10
-1.79071e-16
-1.42488e-16
-9.99997e-10
-2.99718e-16
-1.24927e-16
-9.99997e-10
-4.10308e-16
-1.10785e-16
-9.99998e-10
-4.91861e-16
-1.13598e-16
-9.99998e-10
-1.32269e-16
-9.99998e-10
-1.61581e-16
-2.22077e-16
-9.99997e-10
-2.8588e-16
-2.10427e-16
-9.99998e-10
-4.13916e-16
-2.2065e-16
-9.99998e-10
-5.0982e-16
-2.4042e-16
-9.99998e-10
-2.75776e-16
-9.99999e-10
-1.49854e-16
-3.07623e-16
-9.99998e-10
-2.96755e-16
-3.05583e-16
-9.99998e-10
-4.3332e-16
-3.25247e-16
-9.99998e-10
-5.42772e-16
-3.58035e-16
-9.99998e-10
-3.98823e-16
-9.99999e-10
-1.47947e-16
-3.67968e-16
-9.99998e-10
-3.17686e-16
-3.88469e-16
-9.99998e-10
-4.66156e-16
-3.93671e-16
-9.99998e-10
-5.78774e-16
-4.12706e-16
-9.99999e-10
-4.2136e-16
-9.99999e-10
-1.65811e-16
-9.99998e-10
-3.22056e-16
-9.99998e-10
-4.90004e-16
-9.99999e-10
-5.86555e-16
-9.99999e-10
-1e-09
-2.88566e-16
-2.24193e-16
-9.99997e-10
-5.33549e-16
-2.03148e-16
-9.99997e-10
-7.48689e-16
-2.02015e-16
-9.99997e-10
-9.15775e-16
-2.23381e-16
-9.99998e-10
-2.69748e-16
-9.99998e-10
-2.67723e-16
-4.11241e-16
-9.99997e-10
-5.34165e-16
-4.14106e-16
-9.99997e-10
-7.72593e-16
-4.30662e-16
-9.99997e-10
-9.63485e-16
-4.75091e-16
-9.99998e-10
-5.29938e-16
-9.99998e-10
-2.70013e-16
-5.84122e-16
-9.99997e-10
-5.51439e-16
-5.98978e-16
-9.99997e-10
-8.16758e-16
-6.29733e-16
-9.99998e-10
-1.01378e-15
-6.627e-16
-9.99998e-10
-7.13177e-16
-9.99999e-10
-2.83844e-16
-7.10775e-16
-9.99998e-10
-5.82864e-16
-7.3406e-16
-9.99998e-10
-8.50014e-16
-7.51884e-16
-9.99998e-10
-1.05918e-15
-7.79124e-16
-9.99998e-10
-8.21754e-16
-9.99999e-10
-3.05453e-16
-9.99998e-10
-6.01367e-16
-9.99998e-10
-8.81001e-16
-9.99998e-10
-1.1003e-15
-9.99999e-10
-9.99999e-10
-4.23399e-16
-3.35694e-16
-9.99996e-10
-8.44386e-16
-3.42944e-16
-9.99996e-10
-1.19106e-15
-3.51748e-16
-9.99997e-10
-1.4384e-15
-3.73595e-16
-9.99997e-10
-4.29692e-16
-9.99998e-10
-4.30794e-16
-6.79701e-16
-9.99996e-10
-8.57434e-16
-6.92044e-16
-9.99996e-10
-1.2179e-15
-7.1148e-16
-9.99997e-10
-1.50001e-15
-7.61122e-16
-9.99997e-10
-8.1385e-16
-9.99998e-10
-4.39889e-16
-9.72712e-16
-9.99996e-10
-8.77226e-16
-9.91964e-16
-9.99997e-10
-1.26725e-15
-1.00253e-15
-9.99997e-10
-1.55022e-15
-1.02251e-15
-9.99998e-10
-1.06043e-15
-9.99998e-10
-4.55266e-16
-1.1762e-15
-9.99997e-10
-8.88134e-16
-1.19694e-15
-9.99997e-10
-1.28732e-15
-1.18382e-15
-9.99998e-10
-1.58644e-15
-1.18241e-15
-9.99998e-10
-1.26676e-15
-9.99999e-10
-4.71385e-16
-9.99998e-10
-8.74935e-16
-9.99998e-10
-1.28604e-15
-9.99998e-10
-1.6717e-15
-9.99999e-10
-9.99999e-10
-6.30541e-16
-5.10459e-16
-9.99995e-10
-1.23592e-15
-5.22085e-16
-9.99995e-10
-1.74473e-15
-5.37187e-16
-9.99996e-10
-2.07128e-15
-5.58633e-16
-9.99996e-10
-6.12813e-16
-9.99997e-10
-6.42281e-16
-1.02736e-15
-9.99995e-10
-1.25725e-15
-1.04363e-15
-9.99995e-10
-1.77332e-15
-1.06193e-15
-9.99996e-10
-2.1354e-15
-1.09669e-15
-9.99997e-10
-1.12831e-15
-9.99997e-10
-6.52795e-16
-1.47075e-15
-9.99995e-10
-1.27561e-15
-1.47549e-15
-9.99996e-10
-1.80757e-15
-1.45589e-15
-9.99996e-10
-2.16812e-15
-1.44902e-15
-9.99997e-10
-1.45416e-15
-9.99998e-10
-6.51832e-16
-1.76162e-15
-9.99996e-10
-1.25623e-15
-1.74461e-15
-9.99996e-10
-1.80079e-15
-1.67462e-15
-9.99997e-10
-2.17726e-15
-1.63108e-15
-9.99997e-10
-1.68515e-15
-9.99998e-10
-6.29429e-16
-9.99997e-10
-1.18654e-15
-9.99997e-10
-1.75443e-15
-9.99997e-10
-2.23e-15
-9.99998e-10
-9.99999e-10
-9.01452e-16
-7.43322e-16
-9.99993e-10
-1.76006e-15
-7.58657e-16
-9.99994e-10
-2.44564e-15
-7.6362e-16
-9.99994e-10
-2.87381e-15
-7.78873e-16
-9.99995e-10
-8.22395e-16
-9.99996e-10
-9.171e-16
-1.47341e-15
-9.99993e-10
-1.77185e-15
-1.47851e-15
-9.99994e-10
-2.46856e-15
-1.48206e-15
-9.99995e-10
-2.92868e-15
-1.49461e-15
-9.99995e-10
-1.51091e-15
-9.99997e-10
-9.15936e-16
-2.06713e-15
-9.99994e-10
-1.7754e-15
-2.05688e-15
-9.99994e-10
-2.48051e-15
-2.01323e-15
-9.99995e-10
-2.94653e-15
-2.00045e-15
-9.99996e-10
-2.00193e-15
-9.99997e-10
-8.99463e-16
-2.4449e-15
-9.99995e-10
-1.73212e-15
-2.40261e-15
-9.99995e-10
-2.46777e-15
-2.3143e-15
-9.99996e-10
-2.95013e-15
-2.27765e-15
-9.99997e-10
-2.27573e-15
-9.99998e-10
-8.49516e-16
-9.99996e-10
-1.6457e-15
-9.99996e-10
-2.43068e-15
-9.99997e-10
-2.94612e-15
-9.99998e-10
-9.99999e-10
-1.28936e-15
-1.06822e-15
-9.99991e-10
-2.4475e-15
-1.06236e-15
-9.99991e-10
-3.36378e-15
-1.05354e-15
-9.99992e-10
-3.94157e-15
-1.059e-15
-9.99994e-10
-1.07335e-15
-9.99995e-10
-1.28408e-15
-2.03164e-15
-9.99991e-10
-2.44579e-15
-2.02373e-15
-9.99992e-10
-3.37761e-15
-2.01185e-15
-9.99993e-10
-3.96834e-15
-2.00141e-15
-9.99994e-10
-2.01154e-15
-9.99995e-10
-1.27e-15
-2.80906e-15
-9.99992e-10
-2.43414e-15
-2.7896e-15
-9.99993e-10
-3.36688e-15
-2.74616e-15
-9.99993e-10
-3.97802e-15
-2.74275e-15
-9.99995e-10
-2.76325e-15
-9.99996e-10
-1.24364e-15
-3.29525e-15
-9.99993e-10
-2.3914e-15
-3.25985e-15
-9.99994e-10
-3.36325e-15
-3.21237e-15
-9.99994e-10
-3.99672e-15
-3.21604e-15
-9.99996e-10
-3.21516e-15
-9.99997e-10
-1.19818e-15
-9.99994e-10
-2.3459e-15
-9.99995e-10
-3.37239e-15
-9.99996e-10
-3.99454e-15
-9.99997e-10
-9.99998e-10
-1.80629e-15
-1.48859e-15
-9.99988e-10
-3.37479e-15
-1.47024e-15
-9.99988e-10
-4.61684e-15
-1.44931e-15
-9.9999e-10
-5.41537e-15
-1.43483e-15
-9.99991e-10
-1.41927e-15
-9.99993e-10
-1.78848e-15
-2.77149e-15
-9.99988e-10
-3.36249e-15
-2.7542e-15
-9.99989e-10
-4.61337e-15
-2.72843e-15
-9.9999e-10
-5.41448e-15
-2.69886e-15
-9.99992e-10
-2.69171e-15
-9.99994e-10
-1.76399e-15
-3.80279e-15
-9.99989e-10
-3.33716e-15
-3.7814e-15
-9.9999e-10
-4.58448e-15
-3.75024e-15
-9.99991e-10
-5.40572e-15
-3.73501e-15
-9.99993e-10
-3.73792e-15
-9.99995e-10
-1.73381e-15
-4.45407e-15
-9.99991e-10
-3.30591e-15
-4.44224e-15
-9.99991e-10
-4.56965e-15
-4.43536e-15
-9.99993e-10
-5.39649e-15
-4.43812e-15
-9.99994e-10
-4.45263e-15
-9.99996e-10
-1.70948e-15
-9.99992e-10
-3.30019e-15
-9.99993e-10
-4.58501e-15
-9.99994e-10
-5.41143e-15
-9.99996e-10
-9.99998e-10
-2.49972e-15
-2.04807e-15
-9.99983e-10
-4.63107e-15
-2.01802e-15
-9.99984e-10
-6.34535e-15
-1.98886e-15
-9.99986e-10
-7.48673e-15
-1.95986e-15
-9.99988e-10
-1.93459e-15
-9.99991e-10
-2.47019e-15
-3.77906e-15
-9.99984e-10
-4.61352e-15
-3.75388e-15
-9.99985e-10
-6.33109e-15
-3.72266e-15
-9.99986e-10
-7.48051e-15
-3.69157e-15
-9.99989e-10
-3.64604e-15
-9.99992e-10
-2.43529e-15
-5.17199e-15
-9.99985e-10
-4.58272e-15
-5.16251e-15
-9.99986e-10
-6.30097e-15
-5.14587e-15
-9.99988e-10
-7.43488e-15
-5.09812e-15
-9.9999e-10
-5.01853e-15
-9.99993e-10
-2.41364e-15
-6.08083e-15
-9.99987e-10
-4.56552e-15
-6.09606e-15
-9.99988e-10
-6.25423e-15
-6.09661e-15
-9.9999e-10
-7.34418e-15
-6.02749e-15
-9.99992e-10
-5.96884e-15
-9.99995e-10
-2.41252e-15
-9.99989e-10
-4.56488e-15
-9.9999e-10
-6.19599e-15
-9.99992e-10
-7.2817e-15
-9.99995e-10
-9.99997e-10
-3.40354e-15
-2.77791e-15
-9.99977e-10
-6.33181e-15
-2.73411e-15
-9.99978e-10
-8.72662e-15
-2.71712e-15
-9.9998e-10
-1.03409e-14
-2.69459e-15
-9.99984e-10
-2.66511e-15
-9.99988e-10
-3.36056e-15
-5.14838e-15
-9.99978e-10
-6.33021e-15
-5.13776e-15
-9.99979e-10
-8.72417e-15
-5.11578e-15
-9.99981e-10
-1.03368e-14
-5.09251e-15
-9.99985e-10
-5.01397e-15
-9.99989e-10
-3.33684e-15
-7.07486e-15
-9.9998e-10
-6.30872e-15
-7.09028e-15
-9.99981e-10
-8.70202e-15
-7.07984e-15
-9.99983e-10
-1.02609e-14
-7.01055e-15
-9.99987e-10
-6.87782e-15
-9.99991e-10
-3.33555e-15
-8.34298e-15
-9.99982e-10
-6.29816e-15
-8.37137e-15
-9.99984e-10
-8.63395e-15
-8.35956e-15
-9.99986e-10
-1.01235e-14
-8.23388e-15
-9.99989e-10
-8.08121e-15
-9.99993e-10
-3.34128e-15
-9.99986e-10
-6.2819e-15
-9.99987e-10
-8.51313e-15
-9.99989e-10
-9.96622e-15
-9.99993e-10
-9.99997e-10
-4.59441e-15
-3.74122e-15
-9.99968e-10
-8.67292e-15
-3.71629e-15
-9.9997e-10
-1.19827e-14
-3.71891e-15
-9.99973e-10
-1.41542e-14
-3.70422e-15
-9.99978e-10
-3.6772e-15
-9.99983e-10
-4.5708e-15
-7.04441e-15
-9.9997e-10
-8.69622e-15
-7.06508e-15
-9.99971e-10
-1.19959e-14
-7.04859e-15
-9.99975e-10
-1.41604e-14
-7.02793e-15
-9.99979e-10
-6.96428e-15
-9.99984e-10
-4.57404e-15
-9.7143e-15
-9.99972e-10
-8.68049e-15
-9.73986e-15
-9.99974e-10
-1.19767e-14
-9.71975e-15
-9.99977e-10
-1.41005e-14
-9.66365e-15
-9.99982e-10
-9.57888e-15
-9.99987e-10
-4.57694e-15
-1.14251e-14
-9.99976e-10
-8.66068e-15
-1.1447e-14
-9.99978e-10
-1.19213e-14
-1.14307e-14
-9.99981e-10
-1.40209e-14
-1.13447e-14
-9.99986e-10
-1.12381e-14
-9.99991e-10
-4.56873e-15
-9.9998e-10
-8.63855e-15
-9.99982e-10
-1.18302e-14
-9.99985e-10
-1.39146e-14
-9.9999e-10
-9.99995e-10
-6.2454e-15
-5.0843e-15
-9.99957e-10
-1.18984e-14
-5.10021e-15
-9.99959e-10
-1.6399e-14
-5.09896e-15
-9.99964e-10
-1.92798e-14
-5.08148e-15
-9.9997e-10
-5.07746e-15
-9.99977e-10
-6.26358e-15
-9.67849e-15
-9.99959e-10
-1.19251e-14
-9.70835e-15
-9.99961e-10
-1.64202e-14
-9.68287e-15
-9.99966e-10
-1.93197e-14
-9.65702e-15
-9.99972e-10
-9.6248e-15
-9.99979e-10
-6.27051e-15
-1.33236e-14
-9.99962e-10
-1.19003e-14
-1.3335e-14
-9.99965e-10
-1.63969e-14
-1.32993e-14
-9.99969e-10
-1.92902e-14
-1.32584e-14
-9.99975e-10
-1.32354e-14
-9.99983e-10
-6.25079e-15
-1.56167e-14
-9.99967e-10
-1.18637e-14
-1.56365e-14
-9.9997e-10
-1.63566e-14
-1.56135e-14
-9.99974e-10
-1.92679e-14
-1.55811e-14
-9.9998e-10
-1.55309e-14
-9.99987e-10
-6.23204e-15
-9.99973e-10
-1.1836e-14
-9.99976e-10
-1.63229e-14
-9.9998e-10
-1.92206e-14
-9.99986e-10
-9.99993e-10
-8.5564e-15
-6.97528e-15
-9.99941e-10
-1.62897e-14
-7.00753e-15
-9.99944e-10
-2.23885e-14
-6.97908e-15
-9.99951e-10
-2.62995e-14
-6.95368e-15
-9.99959e-10
-6.95017e-15
-9.99969e-10
-8.59227e-15
-1.32709e-14
-9.99944e-10
-1.62988e-14
-1.32786e-14
-9.99947e-10
-2.24158e-14
-1.32374e-14
-9.99953e-10
-2.63559e-14
-1.3197e-14
-9.99962e-10
-1.31449e-14
-9.99971e-10
-8.56932e-15
-1.82173e-14
-9.99949e-10
-1.62578e-14
-1.82145e-14
-9.99952e-10
-2.23792e-14
-1.81631e-14
-9.99958e-10
-2.63062e-14
-1.80989e-14
-9.99966e-10
-1.80592e-14
-9.99976e-10
-8.52378e-15
-2.13702e-14
-9.99956e-10
-1.62035e-14
-2.13893e-14
-9.99959e-10
-2.23152e-14
-2.132e-14
-9.99965e-10
-2.62602e-14
-2.12735e-14
-9.99973e-10
-2.12257e-14
-9.99983e-10
-8.4922e-15
-9.99964e-10
-1.61316e-14
-9.99967e-10
-2.22758e-14
-9.99973e-10
-2.62148e-14
-9.99981e-10
-9.99991e-10
-1.1718e-14
-9.56126e-15
-9.9992e-10
-2.22308e-14
-9.57414e-15
-9.99924e-10
-3.0536e-14
-9.52582e-15
-9.99933e-10
-3.58928e-14
-9.48499e-15
-9.99944e-10
-9.44034e-15
-9.99957e-10
-1.17358e-14
-1.81159e-14
-9.99924e-10
-2.2233e-14
-1.81013e-14
-9.99928e-10
-3.05656e-14
-1.8043e-14
-9.99936e-10
-3.59304e-14
-1.79865e-14
-9.99948e-10
-1.78892e-14
-9.99961e-10
-1.16799e-14
-2.48591e-14
-9.9993e-10
-2.21744e-14
-2.48561e-14
-9.99935e-10
-3.05133e-14
-2.47893e-14
-9.99943e-10
-3.58371e-14
-2.46858e-14
-9.99954e-10
-2.46151e-14
-9.99968e-10
-1.16188e-14
-2.9228e-14
-9.9994e-10
-2.21034e-14
-2.92248e-14
-9.99944e-10
-3.04096e-14
-2.90989e-14
-9.99952e-10
-3.57579e-14
-2.90297e-14
-9.99964e-10
-2.8997e-14
-9.99977e-10
-1.15479e-14
-9.99951e-10
-2.19751e-14
-9.99955e-10
-3.03508e-14
-9.99963e-10
-3.57281e-14
-9.99975e-10
-9.99988e-10
-1.59833e-14
-1.30407e-14
-9.99891e-10
-3.0296e-14
-1.30343e-14
-9.99897e-10
-4.16421e-14
-1.29911e-14
-9.99908e-10
-4.89415e-14
-1.29277e-14
-9.99924e-10
-1.28506e-14
-9.99942e-10
-1.59833e-14
-2.46808e-14
-9.99896e-10
-3.03205e-14
-2.46708e-14
-9.99902e-10
-4.16727e-14
-2.45909e-14
-9.99913e-10
-4.89754e-14
-2.4522e-14
-9.99929e-10
-2.4401e-14
-9.99947e-10
-1.59178e-14
-3.39029e-14
-9.99905e-10
-3.02403e-14
-3.39058e-14
-9.99911e-10
-4.16081e-14
-3.38267e-14
-9.99922e-10
-4.88599e-14
-3.3697e-14
-9.99938e-10
-3.36102e-14
-9.99956e-10
-1.58424e-14
-3.98594e-14
-9.99918e-10
-3.01564e-14
-3.98451e-14
-9.99924e-10
-4.14784e-14
-3.97116e-14
-9.99935e-10
-4.87704e-14
-3.96396e-14
-9.99951e-10
-3.96235e-14
-9.99969e-10
-1.57377e-14
-9.99933e-10
-3.00196e-14
-9.99939e-10
-4.14108e-14
-9.9995e-10
-4.87557e-14
-9.99965e-10
-9.99983e-10
-2.17648e-14
-1.77619e-14
-9.99851e-10
-4.12956e-14
-1.77627e-14
-9.9986e-10
-5.67914e-14
-1.77256e-14
-9.99875e-10
-6.67269e-14
-1.76301e-14
-9.99896e-10
-1.75289e-14
-9.99921e-10
-2.17741e-14
-3.36515e-14
-9.99858e-10
-4.13494e-14
-3.36617e-14
-9.99867e-10
-5.68229e-14
-3.35449e-14
-9.99882e-10
-6.67751e-14
-3.34342e-14
-9.99903e-10
-3.32702e-14
-9.99928e-10
-2.171e-14
-4.62488e-14
-9.99871e-10
-4.12326e-14
-4.62532e-14
-9.99879e-10
-5.6718e-14
-4.61454e-14
-9.99894e-10
-6.6617e-14
-4.59613e-14
-9.99915e-10
-4.57955e-14
-9.9994e-10
-2.16093e-14
-5.42934e-14
-9.99888e-10
-4.11185e-14
-5.43167e-14
-9.99896e-10
-5.65338e-14
-5.41849e-14
-9.99912e-10
-6.64478e-14
-5.40305e-14
-9.99932e-10
-5.38756e-14
-9.99957e-10
-2.15114e-14
-9.99909e-10
-4.09824e-14
-9.99917e-10
-5.63839e-14
-9.99932e-10
-6.62934e-14
-9.99953e-10
-9.99977e-10
-2.9656e-14
-2.42354e-14
-9.99798e-10
-5.62986e-14
-2.42489e-14
-9.99809e-10
-7.74269e-14
-2.4178e-14
-9.9983e-10
-9.09642e-14
-2.40301e-14
-9.99859e-10
-2.38779e-14
-9.99892e-10
-2.96811e-14
-4.59414e-14
-9.99807e-10
-5.63503e-14
-4.59558e-14
-9.99818e-10
-7.74515e-14
-4.57743e-14
-9.99839e-10
-9.10147e-14
-4.55599e-14
-9.99868e-10
-4.52845e-14
-9.99901e-10
-2.95957e-14
-6.31281e-14
-9.99824e-10
-5.61691e-14
-6.31246e-14
-9.99835e-10
-7.72452e-14
-6.29346e-14
-9.99856e-10
-9.07463e-14
-6.26181e-14
-9.99885e-10
-6.22639e-14
-9.99918e-10
-2.94502e-14
-7.40564e-14
-9.99848e-10
-5.59702e-14
-7.41236e-14
-9.99859e-10
-7.69283e-14
-7.39051e-14
-9.9988e-10
-9.03853e-14
-7.35439e-14
-9.99908e-10
-7.31275e-14
-9.99941e-10
-2.93535e-14
-9.99876e-10
-5.57461e-14
-9.99887e-10
-7.65749e-14
-9.99907e-10
-8.99691e-14
-9.99935e-10
-9.99968e-10
-4.04262e-14
-3.31105e-14
-9.99724e-10
-7.67277e-14
-3.3111e-14
-9.99739e-10
-1.05517e-13
-3.29609e-14
-9.99768e-10
-1.23985e-13
-3.27459e-14
-9.99807e-10
-3.25135e-14
-9.99853e-10
-4.04425e-14
-6.2754e-14
-9.99737e-10
-7.67439e-14
-6.27443e-14
-9.99752e-10
-1.05536e-13
-6.24699e-14
-9.99781e-10
-1.24028e-13
-6.20957e-14
-9.9982e-10
-6.16415e-14
-9.99866e-10
-4.02973e-14
-8.62147e-14
-9.9976e-10
-7.64699e-14
-8.6196e-14
-9.99776e-10
-1.05173e-13
-8.5854e-14
-9.99804e-10
-1.23584e-13
-8.5329e-14
-9.99843e-10
-8.47074e-14
-9.99889e-10
-4.00858e-14
-1.01172e-13
-9.99793e-10
-7.61158e-14
-1.01223e-13
-9.99808e-10
-1.04648e-13
-1.00812e-13
-9.99836e-10
-1.22954e-13
-1.00175e-13
-9.99875e-10
-9.94558e-14
-9.9992e-10
-3.99138e-14
-9.99831e-10
-7.56963e-14
-9.99846e-10
-1.0402e-13
-9.99874e-10
-1.22235e-13
-9.99912e-10
-9.99957e-10
-5.51002e-14
-4.52364e-14
-9.99624e-10
-1.04567e-13
-4.52062e-14
-9.99645e-10
-1.4382e-13
-4.49586e-14
-9.99684e-10
-1.69036e-13
-4.46577e-14
-9.99737e-10
-4.42928e-14
-9.998e-10
-5.50916e-14
-8.57362e-14
-9.99641e-10
-1.04545e-13
-8.56848e-14
-9.99662e-10
-1.43837e-13
-8.5282e-14
-9.99701e-10
-1.69044e-13
-8.46951e-14
-9.99754e-10
-8.40112e-14
-9.99817e-10
-5.48561e-14
-1.17788e-13
-9.99673e-10
-1.04143e-13
-1.17742e-13
-9.99694e-10
-1.43266e-13
-1.17175e-13
-9.99733e-10
-1.68376e-13
-1.16375e-13
-9.99786e-10
-1.15428e-13
-9.99849e-10
-5.4549e-14
-1.38275e-13
-9.99718e-10
-1.03561e-13
-1.38236e-13
-9.99738e-10
-1.42466e-13
-1.37565e-13
-9.99777e-10
-1.67421e-13
-1.36615e-13
-9.9983e-10
-1.3552e-13
-9.99892e-10
-5.42052e-14
-9.9977e-10
-1.02877e-13
-9.9979e-10
-1.41524e-13
-9.99828e-10
-1.66327e-13
-9.99881e-10
-9.99942e-10
-7.51221e-14
-6.18108e-14
-9.99487e-10
-1.4259e-13
-6.17543e-14
-9.99515e-10
-1.96139e-13
-6.13922e-14
-9.99568e-10
-2.30536e-13
-6.09425e-14
-9.99642e-10
-6.03782e-14
-9.99728e-10
-7.50949e-14
-1.17174e-13
-9.99511e-10
-1.42534e-13
-1.17066e-13
-9.99539e-10
-1.96121e-13
-1.16461e-13
-9.99592e-10
-2.30477e-13
-1.15577e-13
-9.99665e-10
-1.14573e-13
-9.99751e-10
-7.4737e-14
-1.60963e-13
-9.99555e-10
-1.4193e-13
-1.60853e-13
-9.99583e-10
-1.95259e-13
-1.59966e-13
-9.99636e-10
-2.29495e-13
-1.58769e-13
-9.99709e-10
-1.57349e-13
-9.99794e-10
-7.42728e-14
-1.88941e-13
-9.99616e-10
-1.41024e-13
-1.88761e-13
-9.99644e-10
-1.94062e-13
-1.87737e-13
-9.99696e-10
-2.28066e-13
-1.86344e-13
-9.99768e-10
-1.84671e-13
-9.99852e-10
-7.36788e-14
-9.99687e-10
-1.39981e-13
-9.99715e-10
-1.92679e-13
-9.99766e-10
-2.26395e-13
-9.99837e-10
-9.99921e-10
-1.02502e-13
-8.45205e-14
-9.99299e-10
-1.94577e-13
-8.44282e-14
-9.99339e-10
-2.67637e-13
-8.38998e-14
-9.99411e-10
-3.14539e-13
-8.31932e-14
-9.99512e-10
-8.23374e-14
-9.99629e-10
-1.02449e-13
-1.60215e-13
-9.99332e-10
-1.94465e-13
-1.60019e-13
-9.99371e-10
-2.67516e-13
-1.59076e-13
-9.99444e-10
-3.1437e-13
-1.57742e-13
-9.99544e-10
-1.56199e-13
-9.99661e-10
-1.01914e-13
-2.20027e-13
-9.99393e-10
-1.93525e-13
-2.19777e-13
-9.99432e-10
-2.66212e-13
-2.18421e-13
-9.99504e-10
-3.12859e-13
-2.16593e-13
-9.99603e-10
-2.14403e-13
-9.99719e-10
-1.01185e-13
-2.58154e-13
-9.99476e-10
-1.92144e-13
-2.57789e-13
-9.99515e-10
-2.64384e-13
-2.56208e-13
-9.99586e-10
-3.1066e-13
-2.54067e-13
-9.99684e-10
-2.51424e-13
-9.99799e-10
-1.00258e-13
-9.99574e-10
-1.90535e-13
-9.99612e-10
-2.62254e-13
-9.99682e-10
-3.08019e-13
-9.99779e-10
-9.99893e-10
-1.39962e-13
-1.15674e-13
-9.99044e-10
-2.65656e-13
-1.15502e-13
-9.99097e-10
-3.65345e-13
-1.14712e-13
-9.99197e-10
-4.29319e-13
-1.13605e-13
-9.99334e-10
-1.12305e-13
-9.99495e-10
-1.39843e-13
-2.1919e-13
-9.99089e-10
-2.65431e-13
-2.18843e-13
-9.99142e-10
-3.65033e-13
-2.17357e-13
-9.99242e-10
-4.28952e-13
-2.15324e-13
-9.99378e-10
-2.12943e-13
-9.99538e-10
-1.39038e-13
-3.00894e-13
-9.99172e-10
-2.63949e-13
-3.0039e-13
-9.99225e-10
-3.63042e-13
-2.98329e-13
-9.99324e-10
-4.26618e-13
-2.9553e-13
-9.99459e-10
-2.92219e-13
-9.99618e-10
-1.37886e-13
-3.52813e-13
-9.99286e-10
-2.61857e-13
-3.52183e-13
-9.99339e-10
-3.60245e-13
-3.49738e-13
-9.99436e-10
-4.23304e-13
-3.46417e-13
-9.9957e-10
-3.42364e-13
-9.99727e-10
-1.36493e-13
-9.9942e-10
-2.59373e-13
-9.99472e-10
-3.56932e-13
-9.99567e-10
-4.19255e-13
-9.99699e-10
-9.99854e-10
-1.91212e-13
-1.58444e-13
-9.98694e-10
-3.62852e-13
-1.58122e-13
-9.98768e-10
-4.98904e-13
-1.56916e-13
-9.98904e-10
-5.86169e-13
-1.5523e-13
-9.99091e-10
-1.53312e-13
-9.99311e-10
-1.90963e-13
-3.00105e-13
-9.98756e-10
-3.62415e-13
-2.9949e-13
-9.9883e-10
-4.98295e-13
-2.97177e-13
-9.98965e-10
-5.85516e-13
-2.94076e-13
-9.99152e-10
-2.90482e-13
-9.99371e-10
-1.89725e-13
-4.11753e-13
-9.98871e-10
-3.60111e-13
-4.10847e-13
-9.98943e-10
-4.95249e-13
-4.07696e-13
-9.99078e-10
-5.81986e-13
-4.03408e-13
-9.99263e-10
-3.98447e-13
-9.9948e-10
-1.87942e-13
-4.82458e-13
-9.99028e-10
-3.56922e-13
-4.81402e-13
-9.99099e-10
-4.90968e-13
-4.7761e-13
-9.99232e-10
-5.77031e-13
-4.7247e-13
-9.99414e-10
-4.66468e-13
-9.99629e-10
-1.85856e-13
-9.99211e-10
-3.53081e-13
-9.99281e-10
-4.85834e-13
-9.99412e-10
-5.71032e-13
-9.99591e-10
-9.99802e-10
-2.61384e-13
-2.17255e-13
-9.98216e-10
-4.95878e-13
-2.16687e-13
-9.98316e-10
-6.81602e-13
-2.14834e-13
-9.98503e-10
-8.00649e-13
-2.12313e-13
-9.9876e-10
-2.09461e-13
-9.99061e-10
-2.60918e-13
-4.11338e-13
-9.98301e-10
-4.9507e-13
-4.10262e-13
-9.98402e-10
-6.80541e-13
-4.06734e-13
-9.98588e-10
-7.99508e-13
-4.01992e-13
-9.98843e-10
-3.96569e-13
-9.99142e-10
-2.59001e-13
-5.64004e-13
-9.98459e-10
-4.91559e-13
-5.62468e-13
-9.98559e-10
-6.75877e-13
-5.57596e-13
-9.98743e-10
-7.94171e-13
-5.50997e-13
-9.98995e-10
-5.43448e-13
-9.99292e-10
-2.56284e-13
-6.60328e-13
-9.98675e-10
-4.86643e-13
-6.58475e-13
-9.98773e-10
-6.69293e-13
-6.52563e-13
-9.98954e-10
-7.86636e-13
-6.44601e-13
-9.99203e-10
-6.3549e-13
-9.99496e-10
-2.53046e-13
-9.98927e-10
-4.80673e-13
-9.99023e-10
-6.61338e-13
-9.99201e-10
-7.7753e-13
-9.99445e-10
-9.99733e-10
-3.57649e-13
-2.98318e-13
-9.9756e-10
-6.78198e-13
-2.97361e-13
-9.97699e-10
-9.31743e-13
-2.94515e-13
-9.97955e-10
-1.09402e-12
-2.90717e-13
-9.98307e-10
-2.86399e-13
-9.98719e-10
-3.56835e-13
-5.64602e-13
-9.97678e-10
-6.76771e-13
-5.6276e-13
-9.97817e-10
-9.29925e-13
-5.57381e-13
-9.98072e-10
-1.09201e-12
-5.50175e-13
-9.98421e-10
-5.42039e-13
-9.98831e-10
-3.53867e-13
-7.73478e-13
-9.97897e-10
-6.71427e-13
-7.70882e-13
-9.98033e-10
-9.2283e-13
-7.6335e-13
-9.98285e-10
-1.08398e-12
-7.53286e-13
-9.98631e-10
-7.41876e-13
-9.99036e-10
-3.49687e-13
-9.04592e-13
-9.98195e-10
-6.63852e-13
-9.01372e-13
-9.98328e-10
-9.12799e-13
-8.92247e-13
-9.98576e-10
-1.07259e-12
-8.80024e-13
-9.98917e-10
-8.6614e-13
-9.99316e-10
-3.44613e-13
-9.98541e-10
-6.54668e-13
-9.98672e-10
-9.00598e-13
-9.98914e-10
-1.05872e-12
-9.99248e-10
-9.99641e-10
-4.90101e-13
-4.10385e-13
-9.96659e-10
-9.28509e-13
-4.08772e-13
-9.96852e-10
-1.27449e-12
-4.04388e-13
-9.97205e-10
-1.49538e-12
-3.98637e-13
-9.97687e-10
-3.92174e-13
-9.9825e-10
-4.887e-13
-7.76319e-13
-9.96824e-10
-9.26058e-13
-7.73175e-13
-9.97015e-10
-1.27143e-12
-7.64909e-13
-9.97366e-10
-1.49203e-12
-7.54067e-13
-9.97845e-10
-7.41967e-13
-9.98405e-10
-4.84063e-13
-1.06222e-12
-9.97127e-10
-9.17863e-13
-1.0578e-12
-9.97315e-10
-1.26075e-12
-1.04619e-12
-9.97661e-10
-1.48005e-12
-1.03096e-12
-9.98135e-10
-1.01403e-12
-9.98689e-10
-4.77539e-13
-1.24047e-12
-9.97539e-10
-9.06235e-13
-1.23505e-12
-9.97723e-10
-1.24559e-12
-1.22091e-12
-9.98062e-10
-1.46311e-12
-1.20231e-12
-9.98528e-10
-1.1817e-12
-9.99074e-10
-4.69655e-13
-9.98016e-10
-8.92068e-13
-9.98195e-10
-1.22707e-12
-9.98526e-10
-1.44252e-12
-9.98982e-10
-9.99518e-10
-6.73147e-13
-5.6578e-13
-9.9542e-10
-1.27292e-12
-5.62952e-13
-9.95689e-10
-1.74463e-12
-5.56213e-13
-9.96177e-10
-2.0445e-12
-5.47558e-13
-9.9684e-10
-5.38038e-13
-9.9761e-10
-6.7066e-13
-1.06973e-12
-9.9565e-10
-1.26882e-12
-1.06431e-12
-9.95916e-10
-1.73962e-12
-1.05154e-12
-9.964e-10
-2.03915e-12
-1.03527e-12
-9.97058e-10
-1.01752e-12
-9.97824e-10
-6.63302e-13
-1.46125e-12
-9.96072e-10
-1.2562e-12
-1.45363e-12
-9.96333e-10
-1.7236e-12
-1.43563e-12
-9.9681e-10
-2.02152e-12
-1.41264e-12
-9.9746e-10
-1.38778e-12
-9.98217e-10
-6.52948e-13
-1.7035e-12
-9.96644e-10
-1.23824e-12
-1.69415e-12
-9.96897e-10
-1.70074e-12
-1.67201e-12
-9.97363e-10
-1.99661e-12
-1.64377e-12
-9.98001e-10
-1.61319e-12
-9.98747e-10
-6.40395e-13
-9.97305e-10
-1.21616e-12
-9.97549e-10
-1.67271e-12
-9.98002e-10
-1.96608e-12
-9.98624e-10
-9.99356e-10
-9.27895e-13
-7.81835e-13
-9.93711e-10
-1.74833e-12
-7.76636e-13
-9.94093e-10
-2.39045e-12
-7.66312e-13
-9.94769e-10
-2.79532e-12
-7.5327e-13
-9.95682e-10
-7.39665e-13
-9.96733e-10
-9.23328e-13
-1.47832e-12
-9.9403e-10
-1.74159e-12
-1.46866e-12
-9.94406e-10
-2.38237e-12
-1.44885e-12
-9.95077e-10
-2.78724e-12
-1.42441e-12
-9.95983e-10
-1.39896e-12
-9.97029e-10
-9.11323e-13
-2.01443e-12
-9.94625e-10
-1.72205e-12
-2.00084e-12
-9.94991e-10
-2.35836e-12
-1.97272e-12
-9.9565e-10
-2.76185e-12
-1.93812e-12
-9.96543e-10
-1.90214e-12
-9.97578e-10
-8.94352e-13
-2.34368e-12
-9.95421e-10
-1.6941e-12
-2.32713e-12
-9.95771e-10
-2.32403e-12
-2.29228e-12
-9.96414e-10
-2.72569e-12
-2.2494e-12
-9.97288e-10
-2.2043e-12
-9.98309e-10
-8.73762e-13
-9.9634e-10
-1.65951e-12
-9.96674e-10
-2.2816e-12
-9.97295e-10
-2.68078e-12
-9.98146e-10
-9.99147e-10
-1.28688e-12
-1.08277e-12
-9.91341e-10
-2.40728e-12
-1.07241e-12
-9.919e-10
-3.27947e-12
-1.0568e-12
-9.9284e-10
-3.82119e-12
-1.03676e-12
-9.94104e-10
-1.01804e-12
-9.95538e-10
-1.27796e-12
-2.05169e-12
-9.91784e-10
-2.39644e-12
-2.03344e-12
-9.92327e-10
-3.26631e-12
-2.00259e-12
-9.93262e-10
-3.80965e-12
-1.96586e-12
-9.94511e-10
-1.9303e-12
-9.9594e-10
-1.25741e-12
-2.78368e-12
-9.92636e-10
-2.366e-12
-2.75816e-12
-9.93157e-10
-3.23042e-12
-2.71412e-12
-9.94075e-10
-3.77394e-12
-2.66183e-12
-9.95304e-10
-2.61132e-12
-9.9672e-10
-1.22829e-12
-3.23296e-12
-9.93743e-10
-2.32236e-12
-3.2027e-12
-9.94233e-10
-3.17875e-12
-3.1468e-12
-9.95125e-10
-3.72287e-12
-3.08186e-12
-9.96324e-10
-3.01726e-12
-9.97724e-10
-1.19327e-12
-9.9504e-10
-2.26705e-12
-9.95494e-10
-3.1148e-12
-9.96346e-10
-3.65897e-12
-9.97512e-10
-9.98887e-10
-1.80392e-12
-1.50075e-12
-9.88037e-10
-3.3243e-12
-1.47702e-12
-9.88903e-10
-4.50764e-12
-1.45553e-12
-9.90202e-10
-5.22147e-12
-1.42243e-12
-9.91968e-10
-1.39834e-12
-9.93927e-10
-1.78452e-12
-2.86743e-12
-9.88633e-10
-3.30853e-12
-2.8304e-12
-9.8945e-10
-4.48475e-12
-2.78277e-12
-9.90759e-10
-5.20623e-12
-2.72691e-12
-9.92485e-10
-2.6789e-12
-9.94448e-10
-1.74747e-12
-3.85506e-12
-9.89901e-10
-3.26088e-12
-3.80318e-12
-9.90671e-10
-4.43118e-12
-3.73533e-12
-9.91952e-10
-5.15761e-12
-3.65478e-12
-9.9365e-10
-3.58782e-12
-9.9559e-10
-1.69396e-12
-4.48045e-12
-9.91424e-10
-3.19334e-12
-4.42108e-12
-9.92116e-10
-4.35223e-12
-4.32807e-12
-9.93374e-10
-5.08887e-12
-4.23036e-12
-9.95012e-10
-4.14008e-12
-9.96948e-10
-1.62953e-12
-9.93318e-10
-3.10076e-12
-9.93921e-10
-4.25647e-12
-9.95089e-10
-5.00151e-12
-9.96681e-10
-9.9858e-10
-2.57636e-12
-2.06969e-12
-9.83391e-10
-4.59922e-12
-2.00509e-12
-9.84875e-10
-6.21611e-12
-1.98786e-12
-9.86597e-10
-7.13063e-12
-1.9222e-12
-9.89132e-10
-1.89852e-12
-9.91829e-10
-2.5281e-12
-4.06003e-12
-9.84114e-10
-4.58719e-12
-3.97908e-12
-9.85417e-10
-6.16818e-12
-3.90784e-12
-9.87258e-10
-7.11613e-12
-3.82061e-12
-9.89639e-10
-3.75579e-12
-9.92402e-10
-2.45929e-12
-5.33554e-12
-9.86166e-10
-4.51134e-12
-5.21678e-12
-9.87382e-10
-6.08948e-12
-5.12438e-12
-9.89157e-10
-7.04978e-12
-4.99131e-12
-9.91519e-10
-4.91569e-12
-9.94187e-10
-2.35093e-12
-6.26996e-12
-9.88139e-10
-4.41581e-12
-6.14159e-12
-9.89126e-10
-5.96189e-12
-5.97522e-12
-9.90977e-10
-6.96784e-12
-5.8302e-12
-9.93168e-10
-5.70251e-12
-9.95918e-10
-2.21558e-12
-9.91167e-10
-4.24356e-12
-9.91898e-10
-5.81921e-12
-9.93479e-10
-6.85248e-12
-9.9562e-10
-9.98266e-10
-3.79734e-12
-2.81185e-12
-9.76782e-10
-6.33536e-12
-2.62382e-12
-9.79713e-10
-8.63214e-12
-2.66746e-12
-9.81633e-10
-9.73723e-12
-2.5067e-12
-9.8552e-10
-2.5096e-12
-9.89352e-10
-3.65858e-12
-5.8933e-12
-9.77374e-10
-6.39336e-12
-5.70279e-12
-9.79603e-10
-8.49185e-12
-5.60748e-12
-9.82219e-10
-9.75426e-12
-5.46273e-12
-9.85421e-10
-5.35287e-12
-9.89672e-10
-3.53939e-12
-7.31703e-12
-9.81203e-10
-6.25426e-12
-7.0068e-12
-9.83363e-10
-8.39414e-12
-6.9405e-12
-9.85684e-10
-9.63398e-12
-6.67904e-12
-9.89063e-10
-6.64579e-12
-9.92713e-10
-3.29178e-12
-8.96066e-12
-9.83203e-10
-6.18651e-12
-8.65783e-12
-9.8458e-10
-8.13949e-12
-8.31862e-12
-9.87646e-10
-9.58565e-12
-8.11641e-12
-9.90284e-10
-7.90049e-12
-9.94571e-10
-2.94768e-12
-9.8895e-10
-5.78287e-12
-9.89569e-10
-7.93455e-12
-9.91618e-10
-9.4206e-12
-9.94341e-10
-9.98062e-10
-5.86877e-12
-3.78145e-12
-9.67132e-10
-8.67463e-12
-3.2412e-12
-9.73666e-10
-1.2178e-11
-3.57607e-12
-9.74553e-10
-1.33279e-11
-3.11067e-12
-9.81259e-10
-3.21459e-12
-9.86977e-10
-5.44865e-12
-8.87118e-12
-9.66836e-10
-8.98421e-12
-8.36722e-12
-9.70941e-10
-1.16328e-11
-8.33327e-12
-9.74814e-10
-1.35015e-11
-8.03762e-12
-9.78625e-10
-7.74445e-12
-9.86354e-10
-5.29859e-12
-9.97864e-12
-9.74797e-10
-8.58418e-12
-9.11276e-12
-9.79331e-10
-1.16743e-11
-9.2591e-12
-9.81668e-10
-1.31111e-11
-8.63153e-12
-9.87032e-10
-8.78628e-12
-9.91731e-10
-4.63315e-12
-1.31985e-11
-9.7535e-10
-8.94429e-12
-1.24826e-11
-9.76899e-10
-1.09574e-11
-1.17376e-11
-9.83154e-10
-1.33658e-11
-1.15587e-11
-9.84948e-10
-1.09862e-11
-9.93138e-10
-3.69551e-12
-9.87785e-10
-7.72783e-12
-9.87457e-10
-1.06681e-11
-9.90001e-10
-1.29919e-11
-9.92981e-10
-9.98218e-10
-9.59635e-12
-5.17205e-12
-9.52363e-10
-1.18825e-11
-3.64377e-12
-9.67736e-10
-1.76125e-11
-5.03655e-12
-9.63787e-10
-1.82009e-11
-3.55146e-12
-9.77119e-10
-3.98008e-12
-9.85737e-10
-8.4402e-12
-1.37332e-11
-9.49834e-10
-1.29226e-11
-1.22894e-11
-9.57813e-10
-1.58004e-11
-1.2815e-11
-9.64157e-10
-1.88566e-11
-1.20433e-11
-9.67077e-10
-1.1195e-11
-9.82936e-10
-8.41822e-12
-1.40875e-11
-9.66024e-10
-1.15933e-11
-1.15328e-11
-9.76912e-10
-1.66655e-11
-1.26071e-11
-9.76804e-10
-1.74504e-11
-1.07509e-11
-9.8754e-10
-1.14881e-11
-9.91685e-10
-6.58049e-12
-1.97813e-11
-9.63075e-10
-1.35373e-11
-1.81067e-11
-9.63368e-10
-1.47225e-11
-1.65506e-11
-9.78025e-10
-1.90144e-11
-1.69227e-11
-9.74485e-10
-1.49887e-11
-9.92788e-10
-4.15438e-12
-9.89785e-10
-9.86928e-12
-9.86215e-10
-1.39394e-11
-9.894e-10
-1.78827e-11
-9.91524e-10
-9.98916e-10
-1.66637e-11
-7.34483e-12
-9.28354e-10
-1.62515e-11
-3.26455e-12
-9.64884e-10
-2.63155e-11
-7.8487e-12
-9.45874e-10
-2.42966e-11
-3.35501e-12
-9.75783e-10
-4.60663e-12
-9.87668e-10
-1.37475e-11
-2.16639e-11
-9.21768e-10
-1.94883e-11
-1.76056e-11
-9.37731e-10
-2.1838e-11
-2.02671e-11
-9.49389e-10
-2.627e-11
-1.82041e-11
-9.47795e-10
-1.59327e-11
-9.80459e-10
-1.43872e-11
-2.13292e-11
-9.51972e-10
-1.58365e-11
-1.38954e-11
-9.79174e-10
-2.46239e-11
-1.83213e-11
-9.69962e-10
-2.17143e-11
-1.24823e-11
-9.96171e-10
-1.51661e-11
-9.91441e-10
-9.82282e-12
-2.99288e-11
-9.44653e-10
-2.12134e-11
-2.58594e-11
-9.40013e-10