/*--------------------------------*- C++ -*----------------------------------*\
| =========                 |                                                 |
| \\      /  F ield         | OpenFOAM: The Open Source CFD Toolbox           |
|  \\    /   O peration     | Version:  5.x                                   |
|   \\  /    A nd           | Web:      www.OpenFOAM.org                      |
|    \\/     M anipulation  |                                                 |
\*---------------------------------------------------------------------------*/
FoamFile
{
    version     2.0;
    format      ascii;
    class       volVectorField;
    location    "0.07";
    object      U;
}
// * * * * * * * * * * * * * * * * * * * * * * * * * * * * * * * * * * * * * //

dimensions      [0 1 -1 0 0 0 0];

internalField   nonuniform List<vector> 
2250
(
(-3.90483e-11 -3.24135e-11 -0.000999998)
(-9.10267e-11 -2.30584e-11 -0.000999998)
(-1.23921e-10 -2.15942e-11 -0.000999998)
(-1.59699e-10 -2.20088e-11 -0.000999998)
(-2.0075e-10 -2.08503e-11 -0.000999999)
(-2.97056e-11 -7.15229e-11 -0.000999998)
(-8.03017e-11 -5.94194e-11 -0.000999998)
(-1.23119e-10 -5.96666e-11 -0.000999998)
(-1.59284e-10 -6.26603e-11 -0.000999998)
(-1.98277e-10 -6.60651e-11 -0.000999999)
(-2.69006e-11 -9.19787e-11 -0.000999998)
(-7.92085e-11 -9.14936e-11 -0.000999998)
(-1.27428e-10 -9.70313e-11 -0.000999998)
(-1.66452e-10 -1.0526e-10 -0.000999999)
(-2.09086e-10 -1.19052e-10 -0.000999999)
(-2.90373e-11 -1.22126e-10 -0.000999998)
(-8.51588e-11 -1.24825e-10 -0.000999998)
(-1.36887e-10 -1.2634e-10 -0.000999998)
(-1.81327e-10 -1.37316e-10 -0.000999999)
(-2.20479e-10 -1.59039e-10 -0.000999999)
(-2.93967e-11 -1.62268e-10 -0.000999998)
(-8.31948e-11 -1.56656e-10 -0.000999998)
(-1.39896e-10 -1.56454e-10 -0.000999999)
(-1.99121e-10 -1.64479e-10 -0.000999999)
(-2.46002e-10 -1.85857e-10 -0.000999999)
(-9.21624e-11 -7.35114e-11 -0.000999998)
(-2.44763e-10 -6.38622e-11 -0.000999998)
(-3.60671e-10 -5.64914e-11 -0.000999998)
(-4.57498e-10 -5.76653e-11 -0.000999998)
(-5.5714e-10 -6.70279e-11 -0.000999999)
(-8.25478e-11 -1.87007e-10 -0.000999998)
(-2.28008e-10 -1.71473e-10 -0.000999998)
(-3.55126e-10 -1.69207e-10 -0.000999998)
(-4.68979e-10 -1.80219e-10 -0.000999998)
(-5.67491e-10 -2.07134e-10 -0.000999999)
(-7.65015e-11 -2.70303e-10 -0.000999998)
(-2.27074e-10 -2.63411e-10 -0.000999998)
(-3.70121e-10 -2.78733e-10 -0.000999998)
(-4.96394e-10 -3.05642e-10 -0.000999998)
(-5.91289e-10 -3.46954e-10 -0.000999999)
(-7.52024e-11 -3.47769e-10 -0.000999998)
(-2.35934e-10 -3.55328e-10 -0.000999998)
(-3.97362e-10 -3.67114e-10 -0.000999998)
(-5.37252e-10 -3.99008e-10 -0.000999999)
(-6.02252e-10 -4.46513e-10 -0.000999999)
(-8.35054e-11 -4.36661e-10 -0.000999998)
(-2.45801e-10 -4.32168e-10 -0.000999998)
(-4.13762e-10 -4.32317e-10 -0.000999999)
(-5.75826e-10 -4.33162e-10 -0.000999999)
(-6.19763e-10 -4.41033e-10 -0.001)
(-1.46316e-10 -1.13941e-10 -0.000999997)
(-4.18408e-10 -1.02885e-10 -0.000999997)
(-6.51983e-10 -1.02004e-10 -0.000999997)
(-8.45186e-10 -1.12767e-10 -0.000999998)
(-9.95431e-10 -1.36547e-10 -0.000999998)
(-1.35318e-10 -3.24618e-10 -0.000999997)
(-4.06987e-10 -3.14616e-10 -0.000999997)
(-6.63141e-10 -3.22123e-10 -0.000999998)
(-8.81602e-10 -3.55073e-10 -0.000999998)
(-1.0238e-09 -4.06579e-10 -0.000999998)
(-1.36022e-10 -5.08291e-10 -0.000999997)
(-4.16078e-10 -5.16559e-10 -0.000999998)
(-6.93737e-10 -5.40556e-10 -0.000999998)
(-9.31491e-10 -5.79945e-10 -0.000999998)
(-1.04553e-09 -6.37472e-10 -0.000999999)
(-1.42659e-10 -6.61365e-10 -0.000999998)
(-4.38285e-10 -6.79985e-10 -0.000999998)
(-7.26532e-10 -7.04832e-10 -0.000999998)
(-9.78617e-10 -7.41591e-10 -0.000999999)
(-1.02631e-09 -8.08764e-10 -0.000999999)
(-1.5337e-10 -7.87137e-10 -0.000999998)
(-4.58214e-10 -7.89293e-10 -0.000999998)
(-7.55248e-10 -7.81411e-10 -0.000999999)
(-1.03542e-09 -7.43855e-10 -0.000999999)
(-9.60019e-10 -6.62904e-10 -0.001)
(-2.12e-10 -1.68122e-10 -0.000999996)
(-6.42737e-10 -1.72088e-10 -0.000999997)
(-1.0348e-09 -1.76609e-10 -0.000999997)
(-1.33635e-09 -1.88332e-10 -0.000999997)
(-1.5249e-09 -2.18285e-10 -0.000999998)
(-2.1606e-10 -5.16332e-10 -0.000999997)
(-6.52191e-10 -5.25618e-10 -0.000999997)
(-1.05315e-09 -5.39921e-10 -0.000999997)
(-1.38097e-09 -5.76494e-10 -0.000999998)
(-1.5677e-09 -6.33421e-10 -0.000999998)
(-2.20691e-10 -8.4293e-10 -0.000999997)
(-6.66608e-10 -8.57447e-10 -0.000999997)
(-1.08778e-09 -8.72665e-10 -0.000999997)
(-1.43276e-09 -9.08204e-10 -0.000999998)
(-1.59547e-09 -9.6015e-10 -0.000999998)
(-2.28923e-10 -1.09413e-09 -0.000999997)
(-6.80257e-10 -1.11332e-09 -0.000999997)
(-1.1039e-09 -1.11239e-09 -0.000999998)
(-1.4686e-09 -1.12863e-09 -0.000999998)
(-1.57441e-09 -1.19185e-09 -0.000999999)
(-2.37628e-10 -1.23819e-09 -0.000999998)
(-6.82566e-10 -1.24434e-09 -0.000999998)
(-1.10293e-09 -1.23223e-09 -0.000999998)
(-1.51217e-09 -1.17518e-09 -0.000999999)
(-1.49787e-09 -1.07178e-09 -0.000999999)
(-3.15709e-10 -2.55611e-10 -0.000999995)
(-9.45848e-10 -2.62783e-10 -0.000999996)
(-1.51478e-09 -2.70816e-10 -0.000999996)
(-1.94104e-09 -2.82839e-10 -0.000999997)
(-2.1756e-09 -3.1188e-10 -0.000999997)
(-3.22997e-10 -7.80985e-10 -0.000999996)
(-9.62472e-10 -7.95104e-10 -0.000999996)
(-1.53787e-09 -8.1222e-10 -0.000999996)
(-1.98611e-09 -8.41663e-10 -0.000999997)
(-2.21964e-09 -8.8718e-10 -0.000999998)
(-3.28856e-10 -1.27254e-09 -0.000999996)
(-9.7741e-10 -1.28125e-09 -0.000999996)
(-1.56435e-09 -1.28068e-09 -0.000999997)
(-2.02e-09 -1.29535e-09 -0.000999997)
(-2.25542e-09 -1.32035e-09 -0.000999998)
(-3.29219e-10 -1.64381e-09 -0.000999997)
(-9.68112e-10 -1.6369e-09 -0.000999997)
(-1.55199e-09 -1.59292e-09 -0.000999997)
(-2.02594e-09 -1.57275e-09 -0.000999998)
(-2.27047e-09 -1.60155e-09 -0.000999998)
(-3.18691e-10 -1.80562e-09 -0.000999997)
(-9.23143e-10 -1.79967e-09 -0.000999997)
(-1.50002e-09 -1.77491e-09 -0.000999998)
(-2.02861e-09 -1.73922e-09 -0.000999998)
(-2.29893e-09 -1.72854e-09 -0.000999999)
(-4.54658e-10 -3.75445e-10 -0.000999994)
(-1.35084e-09 -3.84256e-10 -0.000999994)
(-2.13646e-09 -3.87208e-10 -0.000999995)
(-2.70571e-09 -3.95713e-10 -0.000999996)
(-3.01545e-09 -4.18005e-10 -0.000999997)
(-4.63619e-10 -1.12726e-09 -0.000999994)
(-1.36451e-09 -1.13746e-09 -0.000999995)
(-2.15197e-09 -1.14202e-09 -0.000999995)
(-2.74168e-09 -1.15666e-09 -0.000999996)
(-3.04418e-09 -1.1872e-09 -0.000999997)
(-4.6354e-10 -1.80166e-09 -0.000999995)
(-1.36604e-09 -1.79722e-09 -0.000999995)
(-2.15976e-09 -1.77706e-09 -0.000999996)
(-2.75621e-09 -1.77705e-09 -0.000999996)
(-3.07103e-09 -1.79195e-09 -0.000999997)
(-4.55812e-10 -2.29566e-09 -0.000999995)
(-1.33648e-09 -2.26785e-09 -0.000999996)
(-2.13181e-09 -2.2029e-09 -0.000999996)
(-2.75686e-09 -2.18433e-09 -0.000999997)
(-3.09243e-09 -2.17139e-09 -0.000999998)
(-4.31466e-10 -2.50672e-09 -0.000999996)
(-1.26875e-09 -2.47924e-09 -0.000999997)
(-2.07596e-09 -2.44281e-09 -0.000999997)
(-2.72473e-09 -2.42038e-09 -0.000999998)
(-3.19498e-09 -2.48877e-09 -0.000999999)
(-6.5361e-10 -5.42599e-10 -0.000999992)
(-1.89875e-09 -5.39696e-10 -0.000999993)
(-2.95159e-09 -5.35422e-10 -0.000999993)
(-3.71408e-09 -5.38295e-10 -0.000999994)
(-4.14621e-09 -5.44971e-10 -0.000999996)
(-6.50915e-10 -1.57823e-09 -0.000999992)
(-1.89404e-09 -1.57028e-09 -0.000999993)
(-2.95553e-09 -1.55986e-09 -0.000999994)
(-3.7304e-09 -1.55717e-09 -0.000999995)
(-4.15344e-09 -1.56823e-09 -0.000999996)
(-6.44012e-10 -2.46256e-09 -0.000999993)
(-1.88099e-09 -2.44708e-09 -0.000999994)
(-2.94396e-09 -2.41915e-09 -0.000999994)
(-3.72955e-09 -2.41139e-09 -0.000999995)
(-4.15895e-09 -2.43159e-09 -0.000999997)
(-6.31032e-10 -3.10785e-09 -0.000999994)
(-1.84608e-09 -3.07756e-09 -0.000999994)
(-2.91986e-09 -3.03229e-09 -0.000999995)
(-3.74319e-09 -3.04093e-09 -0.000999996)
(-4.13823e-09 -3.05123e-09 -0.000999998)
(-6.08217e-10 -3.4169e-09 -0.000999995)
(-1.79954e-09 -3.38642e-09 -0.000999995)
(-2.90703e-09 -3.35081e-09 -0.000999996)
(-3.7485e-09 -3.3119e-09 -0.000999997)
(-4.14796e-09 -3.30984e-09 -0.000999999)
(-9.16535e-10 -7.56926e-10 -0.000999989)
(-2.63272e-09 -7.46861e-10 -0.00099999)
(-4.05858e-09 -7.36363e-10 -0.000999991)
(-5.09797e-09 -7.29042e-10 -0.000999993)
(-5.69186e-09 -7.20514e-10 -0.000999994)
(-9.06769e-10 -2.1694e-09 -0.00099999)
(-2.61545e-09 -2.1496e-09 -0.00099999)
(-4.04797e-09 -2.12599e-09 -0.000999992)
(-5.09126e-09 -2.1036e-09 -0.000999993)
(-5.69284e-09 -2.09065e-09 -0.000999995)
(-8.94597e-10 -3.34494e-09 -0.000999991)
(-2.5902e-09 -3.32363e-09 -0.000999991)
(-4.02005e-09 -3.2947e-09 -0.000999992)
(-5.0723e-09 -3.27102e-09 -0.000999994)
(-5.68359e-09 -3.2697e-09 -0.000999996)
(-8.7961e-10 -4.2053e-09 -0.000999992)
(-2.55914e-09 -4.18477e-09 -0.000999993)
(-3.99538e-09 -4.16575e-09 -0.000999994)
(-5.06677e-09 -4.16606e-09 -0.000999995)
(-5.63255e-09 -4.18998e-09 -0.000999997)
(-8.66743e-10 -4.65189e-09 -0.000999993)
(-2.54277e-09 -4.6414e-09 -0.000999994)
(-4.00086e-09 -4.62427e-09 -0.000999995)
(-5.09654e-09 -4.58199e-09 -0.000999997)
(-5.53349e-09 -4.48819e-09 -0.000999998)
(-1.26765e-09 -1.04053e-09 -0.000999985)
(-3.6225e-09 -1.02458e-09 -0.000999986)
(-5.57433e-09 -1.00997e-09 -0.000999988)
(-7.02658e-09 -9.95342e-10 -0.00099999)
(-7.82751e-09 -9.82014e-10 -0.000999992)
(-1.25213e-09 -2.96677e-09 -0.000999986)
(-3.59646e-09 -2.93691e-09 -0.000999987)
(-5.55494e-09 -2.90639e-09 -0.000999988)
(-7.01117e-09 -2.87591e-09 -0.000999991)
(-7.83513e-09 -2.83928e-09 -0.000999993)
(-1.23493e-09 -4.55554e-09 -0.000999987)
(-3.56338e-09 -4.53555e-09 -0.000999988)
(-5.52355e-09 -4.51107e-09 -0.00099999)
(-6.97277e-09 -4.47068e-09 -0.000999992)
(-7.81261e-09 -4.40754e-09 -0.000999994)
(-1.2242e-09 -5.73184e-09 -0.000999989)
(-3.54376e-09 -5.72994e-09 -0.00099999)
(-5.4901e-09 -5.72134e-09 -0.000999991)
(-6.90834e-09 -5.66665e-09 -0.000999993)
(-7.76312e-09 -5.61879e-09 -0.000999996)
(-1.22301e-09 -6.35493e-09 -0.000999991)
(-3.54218e-09 -6.36791e-09 -0.000999992)
(-5.4596e-09 -6.36723e-09 -0.000999993)
(-6.87022e-09 -6.34107e-09 -0.000999995)
(-7.6798e-09 -6.26468e-09 -0.000999998)
(-1.7257e-09 -1.41095e-09 -0.00099998)
(-4.94575e-09 -1.38843e-09 -0.000999981)
(-7.64815e-09 -1.37971e-09 -0.000999983)
(-9.68423e-09 -1.36828e-09 -0.000999986)
(-1.07617e-08 -1.35309e-09 -0.000999989)
(-1.70378e-09 -4.03575e-09 -0.000999981)
(-4.92071e-09 -4.00608e-09 -0.000999982)
(-7.64151e-09 -3.98603e-09 -0.000999984)
(-9.67487e-09 -3.96266e-09 -0.000999987)
(-1.0764e-08 -3.9081e-09 -0.00099999)
(-1.69215e-09 -6.22222e-09 -0.000999983)
(-4.89779e-09 -6.22089e-09 -0.000999984)
(-7.61871e-09 -6.20431e-09 -0.000999986)
(-9.62456e-09 -6.15764e-09 -0.000999989)
(-1.0724e-08 -6.05193e-09 -0.000999992)
(-1.69162e-09 -7.85334e-09 -0.000999985)
(-4.89161e-09 -7.86907e-09 -0.000999986)
(-7.57829e-09 -7.85615e-09 -0.000999988)
(-9.52345e-09 -7.75995e-09 -0.000999991)
(-1.06841e-08 -7.64427e-09 -0.000999994)
(-1.69412e-09 -8.71213e-09 -0.000999988)
(-4.88596e-09 -8.72705e-09 -0.000999989)
(-7.50868e-09 -8.7195e-09 -0.000999991)
(-9.41267e-09 -8.69582e-09 -0.000999994)
(-1.06939e-08 -8.70264e-09 -0.000999997)
(-2.33017e-09 -1.90109e-09 -0.000999973)
(-6.74112e-09 -1.88783e-09 -0.000999974)
(-1.0492e-08 -1.88879e-09 -0.000999977)
(-1.3274e-08 -1.88118e-09 -0.000999981)
(-1.47282e-08 -1.86762e-09 -0.000999985)
(-2.31773e-09 -5.49277e-09 -0.000999974)
(-6.73734e-09 -5.48737e-09 -0.000999975)
(-1.05038e-08 -5.47974e-09 -0.000999978)
(-1.32766e-08 -5.46153e-09 -0.000999982)
(-1.47228e-08 -5.41632e-09 -0.000999987)
(-2.31945e-09 -8.53151e-09 -0.000999976)
(-6.73052e-09 -8.54953e-09 -0.000999978)
(-1.04852e-08 -8.53097e-09 -0.000999981)
(-1.32356e-08 -8.49255e-09 -0.000999984)
(-1.46836e-08 -8.42111e-09 -0.000999989)
(-2.32094e-09 -1.07663e-08 -0.000999979)
(-6.72151e-09 -1.07823e-08 -0.000999981)
(-1.04469e-08 -1.07617e-08 -0.000999984)
(-1.3168e-08 -1.06904e-08 -0.000999988)
(-1.46452e-08 -1.06042e-08 -0.000999992)
(-2.31659e-09 -1.19407e-08 -0.000999983)
(-6.70584e-09 -1.19398e-08 -0.000999985)
(-1.03921e-08 -1.19186e-08 -0.000999987)
(-1.30781e-08 -1.18761e-08 -0.000999991)
(-1.47022e-08 -1.19178e-08 -0.000999996)
(-3.16825e-09 -2.58469e-09 -0.000999963)
(-9.21952e-09 -2.59135e-09 -0.000999965)
(-1.43739e-08 -2.59038e-09 -0.000999969)
(-1.81215e-08 -2.58143e-09 -0.000999974)
(-2.00886e-08 -2.57988e-09 -0.00099998)
(-3.17603e-09 -7.5189e-09 -0.000999964)
(-9.2369e-09 -7.53721e-09 -0.000999966)
(-1.43894e-08 -7.52319e-09 -0.00099997)
(-1.81435e-08 -7.50119e-09 -0.000999976)
(-2.00999e-08 -7.48386e-09 -0.000999982)
(-3.17928e-09 -1.17097e-08 -0.000999968)
(-9.22714e-09 -1.17232e-08 -0.00099997)
(-1.43641e-08 -1.16922e-08 -0.000999974)
(-1.81165e-08 -1.16585e-08 -0.000999979)
(-2.00744e-08 -1.16317e-08 -0.000999985)
(-3.16931e-09 -1.47364e-08 -0.000999972)
(-9.19839e-09 -1.47428e-08 -0.000999974)
(-1.43247e-08 -1.47116e-08 -0.000999978)
(-1.80848e-08 -1.46743e-08 -0.000999983)
(-2.00235e-08 -1.46522e-08 -0.000999989)
(-3.15985e-09 -1.63357e-08 -0.000999977)
(-9.17489e-09 -1.63303e-08 -0.000999979)
(-1.4294e-08 -1.62998e-08 -0.000999983)
(-1.80571e-08 -1.62321e-08 -0.000999988)
(-2.00156e-08 -1.6201e-08 -0.000999994)
(-4.34089e-09 -3.5466e-09 -0.000999949)
(-1.26253e-08 -3.56088e-09 -0.000999952)
(-1.96472e-08 -3.54636e-09 -0.000999957)
(-2.47322e-08 -3.53365e-09 -0.000999965)
(-2.73951e-08 -3.53238e-09 -0.000999973)
(-4.35671e-09 -1.03116e-08 -0.000999952)
(-1.26411e-08 -1.03253e-08 -0.000999954)
(-1.96547e-08 -1.02899e-08 -0.00099996)
(-2.47625e-08 -1.02569e-08 -0.000999967)
(-2.74255e-08 -1.02297e-08 -0.000999975)
(-4.34472e-09 -1.60299e-08 -0.000999956)
(-1.26082e-08 -1.60226e-08 -0.000999959)
(-1.96146e-08 -1.59753e-08 -0.000999964)
(-2.47187e-08 -1.59217e-08 -0.000999971)
(-2.73858e-08 -1.58729e-08 -0.00099998)
(-4.32183e-09 -2.01551e-08 -0.000999962)
(-1.25578e-08 -2.01519e-08 -0.000999965)
(-1.95538e-08 -2.00905e-08 -0.00099997)
(-2.46625e-08 -2.00345e-08 -0.000999977)
(-2.73039e-08 -2.00127e-08 -0.000999985)
(-4.30623e-09 -2.23351e-08 -0.000999969)
(-1.2506e-08 -2.23349e-08 -0.000999972)
(-1.94949e-08 -2.2276e-08 -0.000999977)
(-2.46408e-08 -2.21762e-08 -0.000999984)
(-2.71974e-08 -2.20481e-08 -0.000999992)
(-5.94543e-09 -4.86214e-09 -0.000999931)
(-1.72518e-08 -4.86611e-09 -0.000999935)
(-2.68049e-08 -4.84159e-09 -0.000999942)
(-3.37468e-08 -4.82104e-09 -0.000999952)
(-3.73627e-08 -4.79847e-09 -0.000999963)
(-5.9515e-09 -1.40967e-08 -0.000999934)
(-1.7253e-08 -1.40875e-08 -0.000999938)
(-2.6807e-08 -1.40333e-08 -0.000999945)
(-3.37638e-08 -1.3984e-08 -0.000999955)
(-3.73908e-08 -1.39123e-08 -0.000999966)
(-5.92286e-09 -2.18789e-08 -0.00099994)
(-1.71947e-08 -2.18571e-08 -0.000999944)
(-2.67502e-08 -2.17929e-08 -0.000999951)
(-3.36893e-08 -2.17106e-08 -0.000999961)
(-3.73111e-08 -2.16206e-08 -0.000999972)
(-5.89214e-09 -2.75367e-08 -0.000999948)
(-1.7128e-08 -2.75187e-08 -0.000999952)
(-2.66607e-08 -2.74212e-08 -0.000999959)
(-3.35947e-08 -2.73326e-08 -0.000999969)
(-3.72033e-08 -2.73059e-08 -0.00099998)
(-5.85691e-09 -3.05146e-08 -0.000999958)
(-1.70281e-08 -3.05057e-08 -0.000999961)
(-2.65609e-08 -3.04006e-08 -0.000999968)
(-3.3574e-08 -3.02765e-08 -0.000999978)
(-3.70379e-08 -3.00982e-08 -0.000999989)
(-8.11146e-09 -6.63332e-09 -0.000999906)
(-2.35203e-08 -6.6266e-09 -0.000999912)
(-3.65453e-08 -6.60427e-09 -0.000999921)
(-4.60194e-08 -6.57167e-09 -0.000999935)
(-5.09463e-08 -6.53184e-09 -0.00099995)
(-8.1076e-09 -1.92145e-08 -0.000999911)
(-2.35207e-08 -1.91951e-08 -0.000999916)
(-3.65544e-08 -1.9132e-08 -0.000999925)
(-4.60284e-08 -1.90638e-08 -0.000999939)
(-5.09686e-08 -1.89623e-08 -0.000999954)
(-8.07393e-09 -2.98277e-08 -0.000999919)
(-2.34463e-08 -2.98066e-08 -0.000999924)
(-3.64802e-08 -2.97249e-08 -0.000999933)
(-4.59357e-08 -2.96227e-08 -0.000999947)
(-5.08504e-08 -2.9514e-08 -0.000999962)
(-8.03564e-09 -3.75563e-08 -0.000999929)
(-2.3365e-08 -3.75304e-08 -0.000999934)
(-3.63707e-08 -3.74223e-08 -0.000999944)
(-4.5822e-08 -3.73179e-08 -0.000999957)
(-5.07064e-08 -3.72739e-08 -0.000999973)
(-7.98291e-09 -4.16269e-08 -0.000999942)
(-2.32429e-08 -4.16038e-08 -0.000999947)
(-3.62636e-08 -4.14663e-08 -0.000999957)
(-4.57873e-08 -4.13106e-08 -0.00099997)
(-5.04849e-08 -4.10854e-08 -0.000999986)
(-1.10484e-08 -9.03753e-09 -0.000999873)
(-3.20519e-08 -9.03273e-09 -0.000999879)
(-4.98303e-08 -9.01277e-09 -0.000999893)
(-6.2753e-08 -8.9633e-09 -0.000999911)
(-6.94756e-08 -8.91075e-09 -0.000999932)
(-1.10475e-08 -2.61921e-08 -0.000999878)
(-3.20671e-08 -2.61824e-08 -0.000999885)
(-4.98478e-08 -2.61029e-08 -0.000999898)
(-6.27616e-08 -2.59965e-08 -0.000999917)
(-6.94956e-08 -2.58598e-08 -0.000999938)
(-1.10141e-08 -4.06836e-08 -0.000999889)
(-3.19743e-08 -4.06673e-08 -0.000999896)
(-4.97343e-08 -4.0552e-08 -0.000999909)
(-6.26269e-08 -4.04005e-08 -0.000999927)
(-6.93232e-08 -4.02302e-08 -0.000999948)
(-1.09623e-08 -5.1196e-08 -0.000999904)
(-3.18638e-08 -5.11819e-08 -0.000999911)
(-4.95812e-08 -5.10595e-08 -0.000999924)
(-6.24459e-08 -5.08863e-08 -0.000999942)
(-6.90745e-08 -5.07291e-08 -0.000999963)
(-1.09118e-08 -5.67524e-08 -0.000999921)
(-3.17436e-08 -5.67322e-08 -0.000999928)
(-4.9433e-08 -5.65617e-08 -0.000999941)
(-6.22965e-08 -5.63114e-08 -0.000999959)
(-6.86974e-08 -5.59335e-08 -0.00099998)
(-1.50569e-08 -1.23342e-08 -0.000999826)
(-4.3691e-08 -1.23334e-08 -0.000999836)
(-6.79367e-08 -1.22958e-08 -0.000999854)
(-8.55547e-08 -1.22195e-08 -0.000999878)
(-9.47402e-08 -1.21406e-08 -0.000999908)
(-1.50614e-08 -3.57548e-08 -0.000999834)
(-4.37069e-08 -3.5748e-08 -0.000999844)
(-6.79407e-08 -3.56181e-08 -0.000999861)
(-8.55497e-08 -3.54321e-08 -0.000999886)
(-9.47523e-08 -3.52122e-08 -0.000999915)
(-1.50167e-08 -5.55388e-08 -0.000999849)
(-4.357e-08 -5.55124e-08 -0.000999858)
(-6.7743e-08 -5.53223e-08 -0.000999876)
(-8.53076e-08 -5.50502e-08 -0.000999901)
(-9.44819e-08 -5.4727e-08 -0.00099993)
(-1.49414e-08 -6.98586e-08 -0.000999869)
(-4.3393e-08 -6.98516e-08 -0.000999879)
(-6.74788e-08 -6.96433e-08 -0.000999896)
(-8.49627e-08 -6.92987e-08 -0.000999921)
(-9.40585e-08 -6.89181e-08 -0.00099995)
(-1.48901e-08 -7.74296e-08 -0.000999893)
(-4.32268e-08 -7.74177e-08 -0.000999903)
(-6.71822e-08 -7.71633e-08 -0.00099992)
(-8.45824e-08 -7.6749e-08 -0.000999944)
(-9.34736e-08 -7.61565e-08 -0.000999973)
(-2.05272e-08 -1.68535e-08 -0.000999763)
(-5.95527e-08 -1.68435e-08 -0.000999776)
(-9.25891e-08 -1.67657e-08 -0.000999801)
(-1.16611e-07 -1.66549e-08 -0.000999834)
(-1.29177e-07 -1.65341e-08 -0.000999874)
(-2.05242e-08 -4.88472e-08 -0.000999774)
(-5.95382e-08 -4.88142e-08 -0.000999787)
(-9.25603e-08 -4.85968e-08 -0.000999811)
(-1.16583e-07 -4.82948e-08 -0.000999845)
(-1.29166e-07 -4.7942e-08 -0.000999885)
(-2.04488e-08 -7.58596e-08 -0.000999794)
(-5.93234e-08 -7.58017e-08 -0.000999807)
(-9.22355e-08 -7.54866e-08 -0.000999831)
(-1.16171e-07 -7.50268e-08 -0.000999865)
(-1.28732e-07 -7.44764e-08 -0.000999904)
(-2.03392e-08 -9.54277e-08 -0.000999822)
(-5.9033e-08 -9.53901e-08 -0.000999835)
(-9.1786e-08 -9.50062e-08 -0.000999859)
(-1.15584e-07 -9.4415e-08 -0.000999892)
(-1.28098e-07 -9.37447e-08 -0.000999931)
(-2.02488e-08 -1.05729e-07 -0.000999855)
(-5.87282e-08 -1.05692e-07 -0.000999867)
(-9.12497e-08 -1.0527e-07 -0.000999891)
(-1.1491e-07 -1.04649e-07 -0.000999924)
(-1.27337e-07 -1.03867e-07 -0.000999963)
(-2.79802e-08 -2.30286e-08 -0.000999677)
(-8.11679e-08 -2.29998e-08 -0.000999695)
(-1.26198e-07 -2.28722e-08 -0.000999728)
(-1.5897e-07 -2.27166e-08 -0.000999774)
(-1.76154e-07 -2.25273e-08 -0.000999828)
(-2.79609e-08 -6.67426e-08 -0.000999692)
(-8.11108e-08 -6.6663e-08 -0.000999709)
(-1.26131e-07 -6.633e-08 -0.000999743)
(-1.58902e-07 -6.58747e-08 -0.000999789)
(-1.76078e-07 -6.53365e-08 -0.000999843)
(-2.78391e-08 -1.03646e-07 -0.000999719)
(-8.07838e-08 -1.03538e-07 -0.000999737)
(-1.25634e-07 -1.03042e-07 -0.00099977)
(-1.58269e-07 -1.02334e-07 -0.000999816)
(-1.75388e-07 -1.01501e-07 -0.00099987)
(-2.76798e-08 -1.30408e-07 -0.000999758)
(-8.03271e-08 -1.3029e-07 -0.000999775)
(-1.24928e-07 -1.29659e-07 -0.000999808)
(-1.57376e-07 -1.28768e-07 -0.000999853)
(-1.74462e-07 -1.27739e-07 -0.000999907)
(-2.75012e-08 -1.44411e-07 -0.000999802)
(-7.97994e-08 -1.44286e-07 -0.000999819)
(-1.24097e-07 -1.43596e-07 -0.000999852)
(-1.56349e-07 -1.42668e-07 -0.000999897)
(-1.73421e-07 -1.41597e-07 -0.00099995)
(-3.81499e-08 -3.14704e-08 -0.00099956)
(-1.10681e-07 -3.14235e-08 -0.000999584)
(-1.72103e-07 -3.12368e-08 -0.000999629)
(-2.16811e-07 -3.1004e-08 -0.000999692)
(-2.40279e-07 -3.07123e-08 -0.000999766)
(-3.81159e-08 -9.12186e-08 -0.00099958)
(-1.10581e-07 -9.10828e-08 -0.000999604)
(-1.71977e-07 -9.05871e-08 -0.000999649)
(-2.1666e-07 -8.9903e-08 -0.000999712)
(-2.40099e-07 -8.9099e-08 -0.000999786)
(-3.79306e-08 -1.41653e-07 -0.000999618)
(-1.10088e-07 -1.41461e-07 -0.000999641)
(-1.71228e-07 -1.40699e-07 -0.000999687)
(-2.15719e-07 -1.39636e-07 -0.000999749)
(-2.39036e-07 -1.38398e-07 -0.000999823)
(-3.76897e-08 -1.7821e-07 -0.00099967)
(-1.09384e-07 -1.7796e-07 -0.000999693)
(-1.70153e-07 -1.76985e-07 -0.000999738)
(-2.1438e-07 -1.75664e-07 -0.0009998)
(-2.37636e-07 -1.741e-07 -0.000999873)
(-3.73827e-08 -1.97239e-07 -0.000999731)
(-1.08543e-07 -1.96957e-07 -0.000999754)
(-1.68911e-07 -1.9588e-07 -0.000999799)
(-2.12834e-07 -1.94448e-07 -0.00099986)
(-2.36031e-07 -1.92825e-07 -0.000999932)
(-5.20566e-08 -4.30386e-08 -0.000999399)
(-1.51035e-07 -4.29665e-08 -0.000999432)
(-2.3485e-07 -4.26939e-08 -0.000999495)
(-2.95833e-07 -4.2329e-08 -0.000999581)
(-3.27849e-07 -4.18877e-08 -0.000999682)
(-5.2002e-08 -1.24742e-07 -0.000999427)
(-1.50872e-07 -1.24524e-07 -0.000999459)
(-2.3461e-07 -1.2377e-07 -0.000999522)
(-2.95534e-07 -1.22724e-07 -0.000999608)
(-3.27521e-07 -1.21495e-07 -0.000999708)
(-5.17251e-08 -1.93672e-07 -0.000999479)
(-1.50114e-07 -1.93334e-07 -0.000999511)
(-2.33463e-07 -1.92161e-07 -0.000999573)
(-2.94095e-07 -1.90547e-07 -0.000999658)
(-3.25909e-07 -1.88638e-07 -0.000999759)
(-5.13476e-08 -2.4356e-07 -0.00099955)
(-1.49032e-07 -2.43108e-07 -0.000999582)
(-2.31824e-07 -2.41608e-07 -0.000999644)
(-2.92039e-07 -2.39582e-07 -0.000999728)
(-3.23743e-07 -2.37132e-07 -0.000999827)
(-5.08693e-08 -2.69407e-07 -0.000999633)
(-1.4773e-07 -2.68888e-07 -0.000999666)
(-2.2991e-07 -2.67233e-07 -0.000999726)
(-2.8962e-07 -2.65e-07 -0.00099981)
(-3.21242e-07 -2.62503e-07 -0.000999907)
(-7.10836e-08 -5.89107e-08 -0.00099918)
(-2.06222e-07 -5.87883e-08 -0.000999225)
(-3.20618e-07 -5.83813e-08 -0.000999311)
(-4.03816e-07 -5.78113e-08 -0.000999428)
(-4.47481e-07 -5.71421e-08 -0.000999566)
(-7.09848e-08 -1.70703e-07 -0.000999218)
(-2.05938e-07 -1.70341e-07 -0.000999263)
(-3.20179e-07 -1.69176e-07 -0.000999348)
(-4.03263e-07 -1.67568e-07 -0.000999465)
(-4.46899e-07 -1.65684e-07 -0.000999603)
(-7.05681e-08 -2.64927e-07 -0.000999289)
(-2.04764e-07 -2.64344e-07 -0.000999334)
(-3.18404e-07 -2.62536e-07 -0.000999418)
(-4.01052e-07 -2.6007e-07 -0.000999535)
(-4.44464e-07 -2.57163e-07 -0.000999671)
(-6.99733e-08 -3.32991e-07 -0.000999387)
(-2.03099e-07 -3.32225e-07 -0.000999431)
(-3.15907e-07 -3.29924e-07 -0.000999515)
(-3.97929e-07 -3.26798e-07 -0.00099963)
(-4.41093e-07 -3.23053e-07 -0.000999765)
(-6.92551e-08 -3.68096e-07 -0.000999501)
(-2.01109e-07 -3.67207e-07 -0.000999545)
(-3.12941e-07 -3.64638e-07 -0.000999627)
(-3.94182e-07 -3.61121e-07 -0.000999741)
(-4.37168e-07 -3.57191e-07 -0.000999874)
(-9.7116e-08 -8.07064e-08 -0.000998881)
(-2.81702e-07 -8.04954e-08 -0.000998943)
(-4.37876e-07 -7.98757e-08 -0.000999059)
(-5.51398e-07 -7.90084e-08 -0.00099922)
(-6.11003e-07 -7.802e-08 -0.000999409)
(-9.69369e-08 -2.33793e-07 -0.000998933)
(-2.81205e-07 -2.33181e-07 -0.000998994)
(-4.37117e-07 -2.31382e-07 -0.00099911)
(-5.5047e-07 -2.28932e-07 -0.000999271)
(-6.09999e-07 -2.26109e-07 -0.000999459)
(-9.62974e-08 -3.62667e-07 -0.00099903)
(-2.79387e-07 -3.61687e-07 -0.000999091)
(-4.34384e-07 -3.58902e-07 -0.000999207)
(-5.4711e-07 -3.55134e-07 -0.000999366)
(-6.06342e-07 -3.50767e-07 -0.000999552)
(-9.53774e-08 -4.55548e-07 -0.000999165)
(-2.76834e-07 -4.54288e-07 -0.000999225)
(-4.30566e-07 -4.50744e-07 -0.000999339)
(-5.42388e-07 -4.45933e-07 -0.000999496)
(-6.01168e-07 -4.40339e-07 -0.00099968)
(-9.42988e-08 -5.03221e-07 -0.000999321)
(-2.73789e-07 -5.01768e-07 -0.000999381)
(-4.25979e-07 -4.97757e-07 -0.000999493)
(-5.36705e-07 -4.9227e-07 -0.000999648)
(-5.95044e-07 -4.86052e-07 -0.00099983)
(-1.32766e-07 -1.10687e-07 -0.000998472)
(-3.85033e-07 -1.10334e-07 -0.000998556)
(-5.98315e-07 -1.09383e-07 -0.000998716)
(-7.53234e-07 -1.08087e-07 -0.000998936)
(-8.34627e-07 -1.06616e-07 -0.000999194)
(-1.32456e-07 -3.20556e-07 -0.000998543)
(-3.84179e-07 -3.19535e-07 -0.000998627)
(-5.97051e-07 -3.16785e-07 -0.000998786)
(-7.5172e-07 -3.13068e-07 -0.000999005)
(-8.32945e-07 -3.0883e-07 -0.000999263)
(-1.31466e-07 -4.96987e-07 -0.000998677)
(-3.8139e-07 -4.95374e-07 -0.000998761)
(-5.92872e-07 -4.91093e-07 -0.000998919)
(-7.46612e-07 -4.85314e-07 -0.000999136)
(-8.2743e-07 -4.78701e-07 -0.000999391)
(-1.30061e-07 -6.23797e-07 -0.000998862)
(-3.77466e-07 -6.21715e-07 -0.000998944)
(-5.86994e-07 -6.16216e-07 -0.0009991)
(-7.394e-07 -6.0879e-07 -0.000999314)
(-8.19625e-07 -6.00283e-07 -0.000999566)
(-1.28386e-07 -6.88456e-07 -0.000999077)
(-3.72735e-07 -6.8608e-07 -0.000999158)
(-5.79879e-07 -6.79836e-07 -0.000999311)
(-7.30678e-07 -6.71422e-07 -0.000999522)
(-8.10316e-07 -6.61855e-07 -0.000999769)
(-1.81686e-07 -1.52028e-07 -0.000997911)
(-5.26722e-07 -1.51454e-07 -0.000998027)
(-8.18082e-07 -1.49993e-07 -0.000998246)
(-1.02942e-06 -1.48041e-07 -0.000998548)
(-1.14041e-06 -1.45819e-07 -0.000998901)
(-1.81169e-07 -4.40165e-07 -0.000998009)
(-5.25294e-07 -4.38487e-07 -0.000998124)
(-8.15998e-07 -4.34283e-07 -0.000998343)
(-1.02694e-06 -4.28656e-07 -0.000998643)
(-1.13769e-06 -4.2228e-07 -0.000998995)
(-1.79631e-07 -6.81958e-07 -0.000998195)
(-5.21013e-07 -6.7931e-07 -0.000998309)
(-8.09635e-07 -6.72734e-07 -0.000998525)
(-1.01922e-06 -6.63937e-07 -0.000998823)
(-1.12937e-06 -6.53979e-07 -0.000999171)
(-1.77464e-07 -8.55097e-07 -0.000998449)
(-5.14961e-07 -8.51649e-07 -0.000998562)
(-8.0063e-07 -8.43163e-07 -0.000998775)
(-1.00828e-06 -8.31804e-07 -0.000999067)
(-1.11765e-06 -8.18896e-07 -0.000999411)
(-1.74839e-07 -9.4261e-07 -0.000998745)
(-5.07628e-07 -9.38669e-07 -0.000998855)
(-7.89697e-07 -9.2897e-07 -0.000999064)
(-9.94954e-07 -9.16056e-07 -0.000999351)
(-1.1036e-06 -9.01506e-07 -0.000999689)
(-2.49031e-07 -2.09205e-07 -0.000997142)
(-7.21452e-07 -2.08263e-07 -0.000997302)
(-1.11948e-06 -2.06015e-07 -0.000997604)
(-1.40751e-06 -2.03062e-07 -0.000998017)
(-1.55844e-06 -1.99741e-07 -0.0009985)
(-2.48167e-07 -6.05512e-07 -0.000997277)
(-7.1908e-07 -6.02741e-07 -0.000997437)
(-1.11607e-06 -5.96279e-07 -0.000997737)
(-1.40353e-06 -5.87799e-07 -0.000998148)
(-1.55422e-06 -5.78301e-07 -0.000998629)
(-2.45751e-07 -9.37255e-07 -0.000997535)
(-7.12451e-07 -9.32869e-07 -0.000997692)
(-1.10641e-06 -9.22754e-07 -0.000997989)
(-1.39197e-06 -9.09482e-07 -0.000998396)
(-1.54182e-06 -8.94689e-07 -0.000998872)
(-2.42357e-07 -1.17359e-06 -0.000997886)
(-7.03081e-07 -1.16791e-06 -0.00099804)
(-1.09269e-06 -1.15481e-06 -0.000998332)
(-1.3756e-06 -1.13758e-06 -0.000998732)
(-1.5244e-06 -1.11845e-06 -0.000999201)
(-2.38267e-07 -1.29178e-06 -0.000998293)
(-6.91712e-07 -1.28521e-06 -0.000998444)
(-1.07596e-06 -1.27008e-06 -0.000998729)
(-1.35562e-06 -1.25022e-06 -0.000999121)
(-1.50335e-06 -1.22819e-06 -0.000999582)
(-3.422e-07 -2.88519e-07 -0.000996085)
(-9.89938e-07 -2.8691e-07 -0.000996307)
(-1.53349e-06 -2.83458e-07 -0.000996724)
(-1.92536e-06 -2.79017e-07 -0.000997291)
(-2.12967e-06 -2.74124e-07 -0.000997951)
(-3.40698e-07 -8.3484e-07 -0.000996273)
(-9.85981e-07 -8.30154e-07 -0.000996494)
(-1.52802e-06 -8.202e-07 -0.000996908)
(-1.91912e-06 -8.07463e-07 -0.000997473)
(-2.12324e-06 -7.93513e-07 -0.00099813)
(-3.36832e-07 -1.29067e-06 -0.000996632)
(-9.75611e-07 -1.28329e-06 -0.000996849)
(-1.51333e-06 -1.26764e-06 -0.000997257)
(-1.90197e-06 -1.24766e-06 -0.000997815)
(-2.10517e-06 -1.22596e-06 -0.000998466)
(-3.31407e-07 -1.61328e-06 -0.000997118)
(-9.60929e-07 -1.60373e-06 -0.00099733)
(-1.49239e-06 -1.58331e-06 -0.00099773)
(-1.87762e-06 -1.55727e-06 -0.000998278)
(-2.0797e-06 -1.52907e-06 -0.000998919)
(-3.24859e-07 -1.77227e-06 -0.00099768)
(-9.43005e-07 -1.76121e-06 -0.000997887)
(-1.46669e-06 -1.73747e-06 -0.000998276)
(-1.84773e-06 -1.70706e-06 -0.000998812)
(-2.04872e-06 -1.67396e-06 -0.00099944)
(-4.72163e-07 -3.98805e-07 -0.000994628)
(-1.36197e-06 -3.95915e-07 -0.000994942)
(-2.10347e-06 -3.90639e-07 -0.000995518)
(-2.63487e-06 -3.83942e-07 -0.000996298)
(-2.90923e-06 -3.76944e-07 -0.0009972)
(-4.69423e-07 -1.15426e-06 -0.000994891)
(-1.3553e-06 -1.14601e-06 -0.000995201)
(-2.09476e-06 -1.13065e-06 -0.000995774)
(-2.62534e-06 -1.11151e-06 -0.000996549)
(-2.89969e-06 -1.09152e-06 -0.000997448)
(-4.6302e-07 -1.78189e-06 -0.000995393)
(-1.33879e-06 -1.76903e-06 -0.000995696)
(-2.07237e-06 -1.74465e-06 -0.00099626)
(-2.60019e-06 -1.71462e-06 -0.000997025)
(-2.87402e-06 -1.68335e-06 -0.000997915)
(-4.54014e-07 -2.22224e-06 -0.000996068)
(-1.31534e-06 -2.20562e-06 -0.000996362)
(-2.04036e-06 -2.1736e-06 -0.000996912)
(-2.56429e-06 -2.13425e-06 -0.000997663)
(-2.83752e-06 -2.09313e-06 -0.000998539)
(-4.43177e-07 -2.43448e-06 -0.000996849)
(-1.28661e-06 -2.41563e-06 -0.000997131)
(-2.00076e-06 -2.37822e-06 -0.000997665)
(-2.51973e-06 -2.33171e-06 -0.000998397)
(-2.79309e-06 -2.28244e-06 -0.000999256)
(-6.56242e-07 -5.52276e-07 -0.000992614)
(-1.88161e-06 -5.46622e-07 -0.000993067)
(-2.89055e-06 -5.38696e-07 -0.000993867)
(-3.60764e-06 -5.28374e-07 -0.000994944)
(-3.97013e-06 -5.18733e-07 -0.000996175)
(-6.50809e-07 -1.6018e-06 -0.000992979)
(-1.87005e-06 -1.58627e-06 -0.000993422)
(-2.8767e-06 -1.56263e-06 -0.000994218)
(-3.59329e-06 -1.53363e-06 -0.000995286)
(-3.95668e-06 -1.50584e-06 -0.000996514)
(-6.39562e-07 -2.46827e-06 -0.000993693)
(-1.84305e-06 -2.44456e-06 -0.000994121)
(-2.84251e-06 -2.40648e-06 -0.000994903)
(-3.55686e-06 -2.36121e-06 -0.000995956)
(-3.9219e-06 -2.31742e-06 -0.000997172)
(-6.23751e-07 -3.06916e-06 -0.000994632)