/*--------------------------------*- C++ -*----------------------------------*\
| =========                 |                                                 |
| \\      /  F ield         | OpenFOAM: The Open Source CFD Toolbox           |
|  \\    /   O peration     | Version:  5.x                                   |
|   \\  /    A nd           | Web:      www.OpenFOAM.org                      |
|    \\/     M anipulation  |                                                 |
\*---------------------------------------------------------------------------*/
FoamFile
{
    version     2.0;
    format      ascii;
    class       volVectorField;
    location    "0.006";
    object      stored_U;
}
// * * * * * * * * * * * * * * * * * * * * * * * * * * * * * * * * * * * * * //

dimensions      [0 1 -1 0 0 0 0];

internalField   nonuniform List<vector> 
180
(
(6.48536e-10 -8.13116e-09 -0.00100009)
(4.03617e-10 -1.06261e-08 -0.00100009)
(1.97019e-10 -1.48468e-08 -0.0010001)
(8.51415e-11 -2.00354e-08 -0.0010001)
(5.04669e-11 -2.57815e-08 -0.0010001)
(6.55221e-11 -3.19325e-08 -0.0010001)
(1.16385e-10 -3.84731e-08 -0.00100011)
(1.98745e-10 -4.54454e-08 -0.00100011)
(3.13205e-10 -5.29142e-08 -0.00100012)
(4.62029e-10 -6.09543e-08 -0.00100013)
(6.47776e-10 -6.9647e-08 -0.00100013)
(8.72851e-10 -7.90794e-08 -0.00100014)
(1.13939e-09 -8.93451e-08 -0.00100015)
(1.4493e-09 -1.00545e-07 -0.00100016)
(1.80428e-09 -1.12789e-07 -0.00100017)
(2.20596e-09 -1.26194e-07 -0.00100019)
(2.65596e-09 -1.40891e-07 -0.0010002)
(3.15601e-09 -1.57021e-07 -0.00100022)
(3.70812e-09 -1.74737e-07 -0.00100024)
(4.31466e-09 -1.9421e-07 -0.00100026)
(4.97856e-09 -2.15626e-07 -0.00100028)
(5.70344e-09 -2.39188e-07 -0.0010003)
(6.49374e-09 -2.65123e-07 -0.00100033)
(7.35493e-09 -2.93676e-07 -0.00100036)
(8.29356e-09 -3.25122e-07 -0.0010004)
(9.31747e-09 -3.5976e-07 -0.00100043)
(1.04358e-08 -3.97922e-07 -0.00100047)
(1.16592e-08 -4.3997e-07 -0.00100052)
(1.29996e-08 -4.86308e-07 -0.00100057)
(1.44704e-08 -5.37376e-07 -0.00100062)
(1.60865e-08 -5.93661e-07 -0.00100068)
(1.7864e-08 -6.55698e-07 -0.00100075)
(1.982e-08 -7.24077e-07 -0.00100082)
(2.19727e-08 -7.99443e-07 -0.0010009)
(2.43409e-08 -8.8251e-07 -0.00100099)
(2.69436e-08 -9.74059e-07 -0.00100109)
(2.97996e-08 -1.07495e-06 -0.0010012)
(3.29271e-08 -1.18612e-06 -0.00100132)
(3.63426e-08 -1.30862e-06 -0.00100145)
(4.00607e-08 -1.44357e-06 -0.0010016)
(4.40929e-08 -1.59222e-06 -0.00100176)
(4.84463e-08 -1.75594e-06 -0.00100194)
(5.31228e-08 -1.93623e-06 -0.00100213)
(5.81168e-08 -2.13472e-06 -0.00100235)
(6.34145e-08 -2.35322e-06 -0.00100258)
(6.89909e-08 -2.59369e-06 -0.00100284)
(7.48082e-08 -2.8583e-06 -0.00100313)
(8.08121e-08 -3.14939e-06 -0.00100344)
(8.69292e-08 -3.46957e-06 -0.00100379)
(9.30688e-08 -3.82167e-06 -0.00100417)
(9.91284e-08 -4.20879e-06 -0.00100459)
(1.04979e-07 -4.63434e-06 -0.00100505)
(1.10459e-07 -5.10208e-06 -0.00100555)
(1.15368e-07 -5.61607e-06 -0.00100611)
(1.19462e-07 -6.18083e-06 -0.00100672)
(1.2244e-07 -6.80125e-06 -0.00100739)
(1.23933e-07 -7.48275e-06 -0.00100813)
(1.23476e-07 -8.23123e-06 -0.00100894)
(1.20667e-07 -9.05327e-06 -0.00100983)
(1.1512e-07 -9.95615e-06 -0.00101081)
(1.06429e-07 -1.09479e-05 -0.00101189)
(9.41876e-08 -1.20375e-05 -0.00101309)
(7.80135e-08 -1.32349e-05 -0.0010144)
(5.75877e-08 -1.45512e-05 -0.00101586)
(3.28602e-08 -1.5999e-05 -0.00101748)
(4.3024e-09 -1.75925e-05 -0.00101927)
(-2.74467e-08 -1.9348e-05 -0.00102127)
(-6.14096e-08 -2.12838e-05 -0.00102349)
(-9.60845e-08 -2.34209e-05 -0.00102598)
(-1.29315e-07 -2.57834e-05 -0.00102876)
(-1.58402e-07 -2.83986e-05 -0.00103189)
(-1.80805e-07 -3.12962e-05 -0.00103542)
(-1.97444e-07 -3.4503e-05 -0.00103934)
(-2.22318e-07 -3.80203e-05 -0.00104359)
(-3.04392e-07 -4.17552e-05 -0.00104844)
(-5.50067e-07 -4.53527e-05 -0.00105577)
(-1.03436e-06 -4.7881e-05 -0.00106764)
(-1.51227e-06 -4.77408e-05 -0.00107014)
(-5.89017e-07 -4.26452e-05 -0.00102221)
(5.2274e-06 -3.1795e-05 -0.000780868)
(1.32396e-05 -5.70978e-06 -0.00346799)
(9.00038e-06 5.08666e-05 7.41836e-05)
(-8.9904e-05 4.81967e-05 -0.00410119)
(7.15002e-06 3.95795e-05 -0.000392014)
(7.79477e-05 -0.000128372 -0.00392228)
(2.24884e-05 -0.000222664 -0.0043254)
(1.00107e-05 -3.81238e-05 -0.000522771)
(0.000312146 -0.000344157 -0.00461476)
(-8.53725e-05 -1.36648e-06 -0.00124216)
(-0.00033653 0.000756769 -0.00290795)
(-0.00040769 0.000961371 -0.00318318)
(-0.000172762 0.000158802 -0.000664144)
(-0.00105613 0.00133182 -0.00289026)
(-0.000322808 0.000392333 -0.00250458)
(-6.1813e-06 -9.77157e-05 -8.45391e-05)
(8.70998e-05 -5.93597e-05 -0.00468532)
(2.60182e-05 -0.000128664 -0.000677306)
(0.000619869 -0.000608001 -0.0024523)
(0.000546006 -0.000492024 -0.00185984)
(-2.51367e-05 -0.000307915 -0.00139017)
(-0.000267404 -0.000365579 -0.00229191)
(-0.000146056 -0.000114769 -0.00180518)
(-7.6198e-05 6.70048e-06 -0.00179983)
(-3.57562e-05 1.0103e-05 -0.00151758)
(9.0339e-06 -5.64819e-06 -0.00116289)
(7.21113e-05 -1.03206e-06 -0.00100205)
(8.78453e-05 4.30451e-06 -0.00088043)
(8.79708e-05 5.68466e-06 -0.000892632)
(8.25778e-05 4.92106e-06 -0.00091261)
(7.57722e-05 3.90447e-06 -0.000922902)
(6.89802e-05 3.14564e-06 -0.000929482)
(6.26407e-05 2.60672e-06 -0.000935587)
(5.68442e-05 2.19295e-06 -0.000941454)
(5.15717e-05 1.85292e-06 -0.000946855)
(4.67803e-05 1.56433e-06 -0.000951751)
(4.24268e-05 1.31657e-06 -0.000956193)
(3.84721e-05 1.10326e-06 -0.00096023)
(3.48805e-05 9.19734e-07 -0.0009639)
(3.16193e-05 7.62151e-07 -0.000967236)
(2.86588e-05 6.27173e-07 -0.000970266)
(2.59718e-05 5.11868e-07 -0.000973019)
(2.35335e-05 4.13658e-07 -0.00097552)
(2.13213e-05 3.30267e-07 -0.000977792)
(1.93145e-05 2.59697e-07 -0.000979855)
(1.74944e-05 2.00197e-07 -0.000981729)
(1.58439e-05 1.50222e-07 -0.00098343)
(1.43473e-05 1.08432e-07 -0.000984975)
(1.29904e-05 7.36464e-08 -0.000986377)
(1.17605e-05 4.48362e-08 -0.00098765)
(1.06456e-05 2.11017e-08 -0.000988806)
(9.63553e-06 1.65541e-09 -0.000989855)
(8.72052e-06 -1.41977e-08 -0.000990807)
(7.89186e-06 -2.70702e-08 -0.000991671)
(7.14152e-06 -3.74367e-08 -0.000992454)
(6.46218e-06 -4.56315e-08 -0.000993164)
(5.84718e-06 -5.19555e-08 -0.000993807)
(5.29046e-06 -5.66809e-08 -0.000994389)
(4.78655e-06 -6.00521e-08 -0.000994917)
(4.33047e-06 -6.22868e-08 -0.000995396)
(3.91771e-06 -6.35788e-08 -0.00099583)
(3.54419e-06 -6.4101e-08 -0.000996223)
(3.20621e-06 -6.40055e-08 -0.000996579)
(2.90038e-06 -6.33553e-08 -0.000996901)
(2.62362e-06 -6.21885e-08 -0.000997192)
(2.37317e-06 -6.05796e-08 -0.000997456)
(2.14653e-06 -5.86118e-08 -0.000997694)
(1.94146e-06 -5.63676e-08 -0.000997911)
(1.75591e-06 -5.39214e-08 -0.000998107)
(1.58805e-06 -5.13388e-08 -0.000998285)
(1.43619e-06 -4.86762e-08 -0.000998446)
(1.29883e-06 -4.59808e-08 -0.000998593)
(1.1746e-06 -4.32915e-08 -0.000998725)
(1.06226e-06 -4.064e-08 -0.000998846)
(9.60691e-07 -3.80516e-08 -0.000998955)
(8.68874e-07 -3.55462e-08 -0.000999053)
(7.85891e-07 -3.31391e-08 -0.000999143)
(7.10911e-07 -3.08416e-08 -0.000999225)
(6.43182e-07 -2.86617e-08 -0.000999298)
(5.82024e-07 -2.66045e-08 -0.000999365)
(5.26821e-07 -2.46729e-08 -0.000999426)
(4.77017e-07 -2.28674e-08 -0.000999481)
(4.3211e-07 -2.11872e-08 -0.000999532)
(3.91643e-07 -1.96297e-08 -0.000999577)
(3.55208e-07 -1.81912e-08 -0.000999619)
(3.22432e-07 -1.68667e-08 -0.000999656)
(2.92981e-07 -1.56506e-08 -0.000999691)
(2.66554e-07 -1.45363e-08 -0.000999722)
(2.42878e-07 -1.3517e-08 -0.00099975)
(2.21708e-07 -1.25852e-08 -0.000999777)
(2.02826e-07 -1.17334e-08 -0.0009998)
(1.86033e-07 -1.09539e-08 -0.000999822)
(1.71154e-07 -1.0239e-08 -0.000999842)
(1.58033e-07 -9.58108e-09 -0.000999861)
(1.46529e-07 -8.97214e-09 -0.000999878)
(1.36518e-07 -8.40385e-09 -0.000999894)
(1.27891e-07 -7.86745e-09 -0.000999909)
(1.20555e-07 -7.35659e-09 -0.000999923)
(1.14472e-07 -6.86963e-09 -0.000999936)
(1.09832e-07 -6.46919e-09 -0.00099995)
(1.07392e-07 -6.40287e-09 -0.000999961)
)
;

boundaryField
{
    inlet
    {
        type            calculated;
        value           uniform (1.07392e-07 -6.40287e-09 -0.000999961);
    }
    outlet
    {
        type            calculated;
        value           uniform (6.48536e-10 -8.13116e-09 -0.00100009);
    }
    repeat_boundary
    {
        type            calculated;
        value           nonuniform List<vector> 
360
(
(6.48536e-10 0 -0.00100009)
(4.03617e-10 0 -0.00100009)
(1.97019e-10 0 -0.0010001)
(8.51415e-11 0 -0.0010001)
(5.04669e-11 0 -0.0010001)
(6.55221e-11 0 -0.0010001)
(1.16385e-10 0 -0.00100011)
(1.98745e-10 0 -0.00100011)
(3.13205e-10 0 -0.00100012)
(4.62029e-10 0 -0.00100013)
(6.47776e-10 0 -0.00100013)
(8.72851e-10 0 -0.00100014)
(1.13939e-09 0 -0.00100015)
(1.4493e-09 0 -0.00100016)
(1.80428e-09 0 -0.00100017)
(2.20596e-09 0 -0.00100019)
(2.65596e-09 0 -0.0010002)
(3.15601e-09 0 -0.00100022)
(3.70812e-09 0 -0.00100024)
(4.31466e-09 0 -0.00100026)
(4.97856e-09 0 -0.00100028)
(5.70344e-09 0 -0.0010003)
(6.49374e-09 0 -0.00100033)
(7.35493e-09 0 -0.00100036)
(8.29356e-09 0 -0.0010004)
(9.31747e-09 0 -0.00100043)
(1.04358e-08 0 -0.00100047)
(1.16592e-08 0 -0.00100052)
(1.29996e-08 0 -0.00100057)
(1.44704e-08 0 -0.00100062)
(1.60865e-08 0 -0.00100068)
(1.7864e-08 0 -0.00100075)
(1.982e-08 0 -0.00100082)
(2.19727e-08 0 -0.0010009)
(2.43409e-08 0 -0.00100099)
(2.69436e-08 0 -0.00100109)
(2.97996e-08 0 -0.0010012)
(3.29271e-08 0 -0.00100132)
(3.63426e-08 0 -0.00100145)
(4.00607e-08 0 -0.0010016)
(4.40929e-08 0 -0.00100176)
(4.84463e-08 0 -0.00100194)
(5.31228e-08 0 -0.00100213)
(5.81168e-08 0 -0.00100235)
(6.34145e-08 0 -0.00100258)
(6.89909e-08 0 -0.00100284)
(7.48082e-08 0 -0.00100313)
(8.08121e-08 0 -0.00100344)
(8.69292e-08 0 -0.00100379)
(9.30688e-08 0 -0.00100417)
(9.91284e-08 0 -0.00100459)
(1.04979e-07 0 -0.00100505)
(1.10459e-07 0 -0.00100555)
(1.15368e-07 0 -0.00100611)
(1.19462e-07 0 -0.00100672)
(1.2244e-07 0 -0.00100739)
(1.23933e-07 0 -0.00100813)
(1.23476e-07 0 -0.00100894)
(1.20667e-07 0 -0.00100983)
(1.1512e-07 0 -0.00101081)
(1.06429e-07 0 -0.00101189)
(9.41876e-08 0 -0.00101309)
(7.80135e-08 0 -0.0010144)
(5.75877e-08 0 -0.00101586)
(3.28602e-08 0 -0.00101748)
(4.3024e-09 0 -0.00101927)
(-2.74467e-08 0 -0.00102127)
(-6.14096e-08 0 -0.00102349)
(-9.60845e-08 0 -0.00102598)
(-1.29315e-07 0 -0.00102876)
(-1.58402e-07 0 -0.00103189)
(-1.80805e-07 0 -0.00103542)
(-1.97444e-07 0 -0.00103934)
(-2.22318e-07 0 -0.00104359)
(-3.04392e-07 0 -0.00104844)
(-5.50067e-07 0 -0.00105577)
(-1.03436e-06 0 -0.00106764)
(-1.51227e-06 0 -0.00107014)
(-5.89017e-07 0 -0.00102221)
(5.2274e-06 0 -0.000780868)
(1.32396e-05 0 -0.00346799)
(9.00038e-06 0 7.41836e-05)
(-8.9904e-05 0 -0.00410119)
(7.15002e-06 0 -0.000392014)
(7.79477e-05 0 -0.00392228)
(2.24884e-05 0 -0.0043254)
(1.00107e-05 0 -0.000522771)
(0.000312146 0 -0.00461476)
(-8.53725e-05 0 -0.00124216)
(-0.00033653 0 -0.00290795)
(-0.00040769 0 -0.00318318)
(-0.000172762 0 -0.000664144)
(-0.00105613 0 -0.00289026)
(-0.000322808 0 -0.00250458)
(-6.1813e-06 0 -8.45391e-05)
(8.70998e-05 0 -0.00468532)
(2.60182e-05 0 -0.000677306)
(0.000619869 0 -0.0024523)
(0.000546006 0 -0.00185984)
(-2.51367e-05 0 -0.00139017)
(-0.000267404 0 -0.00229191)
(-0.000146056 0 -0.00180518)
(-7.6198e-05 0 -0.00179983)
(-3.57562e-05 0 -0.00151758)
(9.0339e-06 0 -0.00116289)
(7.21113e-05 0 -0.00100205)
(8.78453e-05 0 -0.00088043)
(8.79708e-05 0 -0.000892632)
(8.25778e-05 0 -0.00091261)
(7.57722e-05 0 -0.000922902)
(6.89802e-05 0 -0.000929482)
(6.26407e-05 0 -0.000935587)
(5.68442e-05 0 -0.000941454)
(5.15717e-05 0 -0.000946855)
(4.67803e-05 0 -0.000951751)
(4.24268e-05 0 -0.000956193)
(3.84721e-05 0 -0.00096023)
(3.48805e-05 0 -0.0009639)
(3.16193e-05 0 -0.000967236)
(2.86588e-05 0 -0.000970266)
(2.59718e-05 0 -0.000973019)
(2.35335e-05 0 -0.00097552)
(2.13213e-05 0 -0.000977792)
(1.93145e-05 0 -0.000979855)
(1.74944e-05 0 -0.000981729)
(1.58439e-05 0 -0.00098343)
(1.43473e-05 0 -0.000984975)
(1.29904e-05 0 -0.000986377)
(1.17605e-05 0 -0.00098765)
(1.06456e-05 0 -0.000988806)
(9.63553e-06 0 -0.000989855)
(8.72052e-06 0 -0.000990807)
(7.89186e-06 0 -0.000991671)
(7.14152e-06 0 -0.000992454)
(6.46218e-06 0 -0.000993164)
(5.84718e-06 0 -0.000993807)
(5.29046e-06 0 -0.000994389)
(4.78655e-06 0 -0.000994917)
(4.33047e-06 0 -0.000995396)
(3.91771e-06 0 -0.00099583)
(3.54419e-06 0 -0.000996223)
(3.20621e-06 0 -0.000996579)
(2.90038e-06 0 -0.000996901)
(2.62362e-06 0 -0.000997192)
(2.37317e-06 0 -0.000997456)
(2.14653e-06 0 -0.000997694)
(1.94146e-06 0 -0.000997911)
(1.75591e-06 0 -0.000998107)
(1.58805e-06 0 -0.000998285)
(1.43619e-06 0 -0.000998446)
(1.29883e-06 0 -0.000998593)
(1.1746e-06 0 -0.000998725)
(1.06226e-06 0 -0.000998846)
(9.60691e-07 0 -0.000998955)
(8.68874e-07 0 -0.000999053)
(7.85891e-07 0 -0.000999143)
(7.10911e-07 0 -0.000999225)
(6.43182e-07 0 -0.000999298)
(5.82024e-07 0 -0.000999365)
(5.26821e-07 0 -0.000999426)
(4.77017e-07 0 -0.000999481)
(4.3211e-07 0 -0.000999532)
(3.91643e-07 0 -0.000999577)
(3.55208e-07 0 -0.000999619)
(3.22432e-07 0 -0.000999656)
(2.92981e-07 0 -0.000999691)
(2.66554e-07 0 -0.000999722)
(2.42878e-07 0 -0.00099975)
(2.21708e-07 0 -0.000999777)
(2.02826e-07 0 -0.0009998)
(1.86033e-07 0 -0.000999822)
(1.71154e-07 0 -0.000999842)
(1.58033e-07 0 -0.000999861)
(1.46529e-07 0 -0.000999878)
(1.36518e-07 0 -0.000999894)
(1.27891e-07 0 -0.000999909)
(1.20555e-07 0 -0.000999923)
(1.14472e-07 0 -0.000999936)
(1.09832e-07 0 -0.00099995)
(1.07392e-07 0 -0.000999961)
(0 -8.13116e-09 -0.00100009)
(0 -1.06261e-08 -0.00100009)
(0 -1.48468e-08 -0.0010001)
(0 -2.00354e-08 -0.0010001)
(0 -2.57815e-08 -0.0010001)
(0 -3.19325e-08 -0.0010001)
(0 -3.84731e-08 -0.00100011)
(0 -4.54454e-08 -0.00100011)
(0 -5.29142e-08 -0.00100012)
(0 -6.09543e-08 -0.00100013)
(0 -6.9647e-08 -0.00100013)
(0 -7.90794e-08 -0.00100014)
(0 -8.93451e-08 -0.00100015)
(0 -1.00545e-07 -0.00100016)
(0 -1.12789e-07 -0.00100017)
(0 -1.26194e-07 -0.00100019)
(0 -1.40891e-07 -0.0010002)
(0 -1.57021e-07 -0.00100022)
(0 -1.74737e-07 -0.00100024)
(0 -1.9421e-07 -0.00100026)
(0 -2.15626e-07 -0.00100028)
(0 -2.39188e-07 -0.0010003)
(0 -2.65123e-07 -0.00100033)
(0 -2.93676e-07 -0.00100036)
(0 -3.25122e-07 -0.0010004)
(0 -3.5976e-07 -0.00100043)
(0 -3.97922e-07 -0.00100047)
(0 -4.3997e-07 -0.00100052)
(0 -4.86308e-07 -0.00100057)
(0 -5.37376e-07 -0.00100062)
(0 -5.93661e-07 -0.00100068)
(0 -6.55698e-07 -0.00100075)
(0 -7.24077e-07 -0.00100082)
(0 -7.99443e-07 -0.0010009)
(0 -8.8251e-07 -0.00100099)
(0 -9.74059e-07 -0.00100109)
(0 -1.07495e-06 -0.0010012)
(0 -1.18612e-06 -0.00100132)
(0 -1.30862e-06 -0.00100145)
(0 -1.44357e-06 -0.0010016)
(0 -1.59222e-06 -0.00100176)
(0 -1.75594e-06 -0.00100194)
(0 -1.93623e-06 -0.00100213)
(0 -2.13472e-06 -0.00100235)
(0 -2.35322e-06 -0.00100258)
(0 -2.59369e-06 -0.00100284)
(0 -2.8583e-06 -0.00100313)
(0 -3.14939e-06 -0.00100344)
(0 -3.46957e-06 -0.00100379)
(0 -3.82167e-06 -0.00100417)
(0 -4.20879e-06 -0.00100459)
(0 -4.63434e-06 -0.00100505)
(0 -5.10208e-06 -0.00100555)
(0 -5.61607e-06 -0.00100611)
(0 -6.18083e-06 -0.00100672)
(0 -6.80125e-06 -0.00100739)
(0 -7.48275e-06 -0.00100813)
(0 -8.23123e-06 -0.00100894)
(0 -9.05327e-06 -0.00100983)
(0 -9.95615e-06 -0.00101081)
(0 -1.09479e-05 -0.00101189)
(0 -1.20375e-05 -0.00101309)
(0 -1.32349e-05 -0.0010144)
(0 -1.45512e-05 -0.00101586)
(0 -1.5999e-05 -0.00101748)
(0 -1.75925e-05 -0.00101927)
(0 -1.9348e-05 -0.00102127)
(0 -2.12838e-05 -0.00102349)
(0 -2.34209e-05 -0.00102598)
(0 -2.57834e-05 -0.00102876)
(0 -2.83986e-05 -0.00103189)
(0 -3.12962e-05 -0.00103542)
(0 -3.4503e-05 -0.00103934)
(0 -3.80203e-05 -0.00104359)
(0 -4.17552e-05 -0.00104844)
(0 -4.53527e-05 -0.00105577)
(0 -4.7881e-05 -0.00106764)
(0 -4.77408e-05 -0.00107014)
(0 -4.26452e-05 -0.00102221)
(0 -3.1795e-05 -0.000780868)
(0 -5.70978e-06 -0.00346799)
(0 5.08666e-05 7.41836e-05)
(0 4.81967e-05 -0.00410119)
(0 3.95795e-05 -0.000392014)
(0 -0.000128372 -0.00392228)
(0 -0.000222664 -0.0043254)
(0 -3.81238e-05 -0.000522771)
(0 -0.000344157 -0.00461476)
(0 -1.36648e-06 -0.00124216)
(0 0.000756769 -0.00290795)
(0 0.000961371 -0.00318318)
(0 0.000158802 -0.000664144)
(0 0.00133182 -0.00289026)
(0 0.000392333 -0.00250458)
(0 -9.77157e-05 -8.45391e-05)
(0 -5.93597e-05 -0.00468532)
(0 -0.000128664 -0.000677306)
(0 -0.000608001 -0.0024523)
(0 -0.000492024 -0.00185984)
(0 -0.000307915 -0.00139017)
(0 -0.000365579 -0.00229191)
(0 -0.000114769 -0.00180518)
(0 6.70048e-06 -0.00179983)
(0 1.0103e-05 -0.00151758)
(0 -5.64819e-06 -0.00116289)
(0 -1.03206e-06 -0.00100205)
(0 4.30451e-06 -0.00088043)
(0 5.68466e-06 -0.000892632)
(0 4.92106e-06 -0.00091261)
(0 3.90447e-06 -0.000922902)
(0 3.14564e-06 -0.000929482)
(0 2.60672e-06 -0.000935587)
(0 2.19295e-06 -0.000941454)
(0 1.85292e-06 -0.000946855)
(0 1.56433e-06 -0.000951751)
(0 1.31657e-06 -0.000956193)
(0 1.10326e-06 -0.00096023)
(0 9.19734e-07 -0.0009639)
(0 7.62151e-07 -0.000967236)
(0 6.27173e-07 -0.000970266)
(0 5.11868e-07 -0.000973019)
(0 4.13658e-07 -0.00097552)
(0 3.30267e-07 -0.000977792)
(0 2.59697e-07 -0.000979855)
(0 2.00197e-07 -0.000981729)
(0 1.50222e-07 -0.00098343)
(0 1.08432e-07 -0.000984975)
(0 7.36464e-08 -0.000986377)
(0 4.48362e-08 -0.00098765)
(0 2.11017e-08 -0.000988806)
(0 1.65541e-09 -0.000989855)
(0 -1.41977e-08 -0.000990807)
(0 -2.70702e-08 -0.000991671)
(0 -3.74367e-08 -0.000992454)
(0 -4.56315e-08 -0.000993164)
(0 -5.19555e-08 -0.000993807)
(0 -5.66809e-08 -0.000994389)
(0 -6.00521e-08 -0.000994917)
(0 -6.22868e-08 -0.000995396)
(0 -6.35788e-08 -0.00099583)
(0 -6.4101e-08 -0.000996223)
(0 -6.40055e-08 -0.000996579)
(0 -6.33553e-08 -0.000996901)
(0 -6.21885e-08 -0.000997192)
(0 -6.05796e-08 -0.000997456)
(0 -5.86118e-08 -0.000997694)
(0 -5.63676e-08 -0.000997911)
(0 -5.39214e-08 -0.000998107)
(0 -5.13388e-08 -0.000998285)
(0 -4.86762e-08 -0.000998446)
(0 -4.59808e-08 -0.000998593)
(0 -4.32915e-08 -0.000998725)
(0 -4.064e-08 -0.000998846)
(0 -3.80516e-08 -0.000998955)
(0 -3.55462e-08 -0.000999053)
(0 -3.31391e-08 -0.000999143)
(0 -3.08416e-08 -0.000999225)
(0 -2.86617e-08 -0.000999298)
(0 -2.66045e-08 -0.000999365)
(0 -2.46729e-08 -0.000999426)
(0 -2.28674e-08 -0.000999481)
(0 -2.11872e-08 -0.000999532)
(0 -1.96297e-08 -0.000999577)
(0 -1.81912e-08 -0.000999619)
(0 -1.68667e-08 -0.000999656)
(0 -1.56506e-08 -0.000999691)
(0 -1.45363e-08 -0.000999722)
(0 -1.3517e-08 -0.00099975)
(0 -1.25852e-08 -0.000999777)
(0 -1.17334e-08 -0.0009998)
(0 -1.09539e-08 -0.000999822)
(0 -1.0239e-08 -0.000999842)
(0 -9.58108e-09 -0.000999861)
(0 -8.97214e-09 -0.000999878)
(0 -8.40385e-09 -0.000999894)
(0 -7.86745e-09 -0.000999909)
(0 -7.35659e-09 -0.000999923)
(0 -6.86963e-09 -0.000999936)
(0 -6.46919e-09 -0.00099995)
(0 -6.40287e-09 -0.000999961)
)
;
    }
    procBoundary2to0
    {
        type            processor;
        value           nonuniform List<vector> 
180
(
(8.80038e-10 -8.13114e-09 -0.000999984)
(1.06095e-09 -1.06261e-08 -0.000999983)
(1.29278e-09 -1.48467e-08 -0.000999981)
(1.6007e-09 -2.00354e-08 -0.000999979)
(1.96193e-09 -2.57814e-08 -0.000999977)
(2.34881e-09 -3.19324e-08 -0.000999974)
(2.74345e-09 -3.8473e-08 -0.00099997)
(3.13892e-09 -4.54453e-08 -0.000999966)
(3.53415e-09 -5.29141e-08 -0.000999961)
(3.93107e-09 -6.09542e-08 -0.000999955)
(4.33328e-09 -6.96469e-08 -0.000999948)
(4.74577e-09 -7.90793e-08 -0.000999941)
(5.17486e-09 -8.9345e-08 -0.000999932)
(5.62827e-09 -1.00545e-07 -0.000999923)
(6.1152e-09 -1.12788e-07 -0.000999912)
(6.64649e-09 -1.26194e-07 -0.0009999)
(7.23473e-09 -1.40891e-07 -0.000999887)
(7.8944e-09 -1.5702e-07 -0.000999873)
(8.64205e-09 -1.74737e-07 -0.000999857)
(9.49648e-09 -1.9421e-07 -0.000999839)
(1.0479e-08 -2.15625e-07 -0.00099982)
(1.16136e-08 -2.39187e-07 -0.000999798)
(1.29272e-08 -2.65122e-07 -0.000999774)
(1.44503e-08 -2.93675e-07 -0.000999748)
(1.62169e-08 -3.2512e-07 -0.000999719)
(1.82652e-08 -3.59758e-07 -0.000999687)
(2.06384e-08 -3.97919e-07 -0.000999652)
(2.33848e-08 -4.39967e-07 -0.000999613)
(2.6559e-08 -4.86304e-07 -0.00099957)
(3.02223e-08 -5.37371e-07 -0.000999522)
(3.4444e-08 -5.93655e-07 -0.00099947)
(3.93024e-08 -6.55691e-07 -0.000999413)
(4.4886e-08 -7.24068e-07 -0.00099935)
(5.12949e-08 -7.99432e-07 -0.00099928)
(5.86427e-08 -8.82496e-07 -0.000999204)
(6.70586e-08 -9.74042e-07 -0.000999119)
(7.66893e-08 -1.07493e-06 -0.000999027)
(8.77019e-08 -1.1861e-06 -0.000998925)
(1.00287e-07 -1.30859e-06 -0.000998813)
(1.1466e-07 -1.44353e-06 -0.00099869)
(1.31068e-07 -1.59217e-06 -0.000998555)
(1.49792e-07 -1.75588e-06 -0.000998407)
(1.71153e-07 -1.93616e-06 -0.000998244)
(1.95515e-07 -2.13463e-06 -0.000998066)
(2.23295e-07 -2.35311e-06 -0.000997871)
(2.54965e-07 -2.59356e-06 -0.000997656)
(2.91066e-07 -2.85814e-06 -0.000997421)
(3.32206e-07 -3.1492e-06 -0.000997164)
(3.79081e-07 -3.46934e-06 -0.000996882)
(4.32474e-07 -3.82138e-06 -0.000996573)
(4.93272e-07 -4.20844e-06 -0.000996235)
(5.62475e-07 -4.63392e-06 -0.000995865)
(6.4121e-07 -5.10155e-06 -0.000995459)
(7.30745e-07 -5.61543e-06 -0.000995015)
(8.32506e-07 -6.18004e-06 -0.000994529)
(9.4809e-07 -6.80029e-06 -0.000993997)
(1.07928e-06 -7.48158e-06 -0.000993414)
(1.22807e-06 -8.22979e-06 -0.000992775)
(1.39667e-06 -9.05151e-06 -0.000992075)
(1.58751e-06 -9.954e-06 -0.000991307)
(1.8033e-06 -1.09453e-05 -0.000990463)
(2.04698e-06 -1.20343e-05 -0.000989536)
(2.32175e-06 -1.3231e-05 -0.000988516)
(2.63109e-06 -1.45465e-05 -0.000987392)
(2.97871e-06 -1.59931e-05 -0.00098615)
(3.36842e-06 -1.75854e-05 -0.000984774)
(3.80415e-06 -1.93393e-05 -0.000983245)
(4.28981e-06 -2.12732e-05 -0.00098154)
(4.82917e-06 -2.34079e-05 -0.000979633)
(5.4257e-06 -2.57674e-05 -0.000977492)
(6.0822e-06 -2.83786e-05 -0.000975084)
(6.80009e-06 -3.127e-05 -0.00097236)
(7.57749e-06 -3.44654e-05 -0.000969219)
(8.40467e-06 -3.79589e-05 -0.000965519)
(9.2564e-06 -4.16416e-05 -0.000961518)
(1.00851e-05 -4.51291e-05 -0.000958845)
(1.07921e-05 -4.74623e-05 -0.000958543)
(1.11746e-05 -4.698e-05 -0.000945137)
(1.03346e-05 -4.14302e-05 -0.000881029)
(5.8157e-06 -3.02291e-05 -0.000682266)
(1.59178e-07 -7.19076e-06 -0.003139)
(3.95879e-05 7.75264e-06 6.98361e-05)
(0.000188671 3.79583e-05 -0.00385898)
(3.99675e-05 8.41941e-06 -0.000129837)
(-0.000431267 -0.00025376 -0.00298958)
(-0.000541892 -0.000307036 -0.0026131)
(-9.4745e-05 -8.51329e-05 -0.000861102)
(-0.000115612 -0.000157639 -0.00471678)
(-1.17555e-05 -1.4253e-05 -0.000700226)
(0.000283114 0.000243484 -0.00389932)
(0.000333326 0.000543032 -0.00223504)
(0.000124866 0.000879461 -0.00306909)
(1.69189e-05 0.000127501 -0.00046114)
(-0.000183099 0.00129157 -0.00306344)
(-0.000177891 0.000417255 -0.00310098)
(-7.08916e-05 1.19108e-05 -0.00110796)
(-0.000479016 -0.001051 -0.00370231)
(-7.28033e-05 -6.37472e-05 -0.000715911)
(-0.000182366 -0.000393728 -0.00376586)
(-9.6308e-05 -0.000151404 -0.00172032)
(-0.000238871 -0.000183072 -0.00300889)
(-0.000124748 -8.42201e-05 -0.00246661)
(-2.27396e-05 -3.50085e-05 -0.00165715)
(-1.34897e-06 1.4683e-05 -0.00175197)
(-2.53867e-06 -2.6316e-05 -0.000810064)
(5.64651e-05 -5.58267e-06 -0.000974803)
(8.40392e-05 1.31731e-06 -0.000883981)
(9.38618e-05 4.10208e-06 -0.00088449)
(9.26951e-05 4.25624e-06 -0.00089939)
(8.66552e-05 3.66905e-06 -0.000911035)
(7.92079e-05 3.07438e-06 -0.000919673)
(7.18008e-05 2.58897e-06 -0.00092724)
(6.49073e-05 2.19029e-06 -0.00093422)
(5.86284e-05 1.85381e-06 -0.000940587)
(5.29465e-05 1.56574e-06 -0.000946342)
(4.7814e-05 1.31784e-06 -0.000951538)
(4.31797e-05 1.1043e-06 -0.000956234)
(3.89955e-05 9.20571e-07 -0.000960477)
(3.52175e-05 7.6282e-07 -0.000964311)
(3.18062e-05 6.27708e-07 -0.000967774)
(2.87258e-05 5.12298e-07 -0.000970903)
(2.59443e-05 4.14003e-07 -0.000973729)
(2.34324e-05 3.30546e-07 -0.000976282)
(2.11641e-05 2.59922e-07 -0.000978587)
(1.91156e-05 2.0038e-07 -0.000980668)
(1.72657e-05 1.5037e-07 -0.000982548)
(1.55951e-05 1.08552e-07 -0.000984244)
(1.40864e-05 7.37441e-08 -0.000985776)
(1.27239e-05 4.49158e-08 -0.000987159)
(1.14934e-05 2.11666e-08 -0.000988407)
(1.0382e-05 1.70834e-09 -0.000989534)
(9.378e-06 -1.41545e-08 -0.00099055)
(8.47089e-06 -2.70349e-08 -0.000991468)
(7.6513e-06 -3.74079e-08 -0.000992296)
(6.91078e-06 -4.56079e-08 -0.000993045)
(6.24171e-06 -5.19362e-08 -0.000993721)
(5.63722e-06 -5.66652e-08 -0.000994331)
(5.09108e-06 -6.00392e-08 -0.000994883)
(4.59768e-06 -6.22763e-08 -0.000995381)
(4.15193e-06 -6.35702e-08 -0.00099583)
(3.74924e-06 -6.4094e-08 -0.000996236)
(3.38546e-06 -6.39998e-08 -0.000996602)
(3.05687e-06 -6.33506e-08 -0.000996934)
(2.76011e-06 -6.21847e-08 -0.000997233)
(2.49214e-06 -6.05764e-08 -0.000997504)
(2.25017e-06 -5.86092e-08 -0.000997748)
(2.03171e-06 -5.63655e-08 -0.000997968)
(1.83447e-06 -5.39197e-08 -0.000998167)
(1.65641e-06 -5.13374e-08 -0.000998346)
(1.49567e-06 -4.86751e-08 -0.000998508)
(1.35057e-06 -4.59799e-08 -0.000998654)
(1.21961e-06 -4.32907e-08 -0.000998785)
(1.10141e-06 -4.06394e-08 -0.000998904)
(9.94741e-07 -3.80511e-08 -0.000999011)
(8.98484e-07 -3.55458e-08 -0.000999108)
(8.11633e-07 -3.31388e-08 -0.000999195)
(7.33279e-07 -3.08414e-08 -0.000999274)
(6.62602e-07 -2.86615e-08 -0.000999345)
(5.98863e-07 -2.66043e-08 -0.000999409)
(5.41393e-07 -2.46727e-08 -0.000999467)
(4.89591e-07 -2.28673e-08 -0.000999519)
(4.42915e-07 -2.11871e-08 -0.000999567)
(4.00876e-07 -1.96297e-08 -0.000999609)
(3.63036e-07 -1.81911e-08 -0.000999648)
(3.28998e-07 -1.68667e-08 -0.000999684)
(2.98409e-07 -1.56505e-08 -0.000999716)
(2.7095e-07 -1.45363e-08 -0.000999745)
(2.46336e-07 -1.35169e-08 -0.000999771)
(2.24312e-07 -1.25851e-08 -0.000999796)
(2.04649e-07 -1.17334e-08 -0.000999818)
(1.87144e-07 -1.09539e-08 -0.000999838)
(1.71618e-07 -1.0239e-08 -0.000999857)
(1.57909e-07 -9.58107e-09 -0.000999874)
(1.45879e-07 -8.97213e-09 -0.000999891)
(1.35405e-07 -8.40384e-09 -0.000999906)
(1.26386e-07 -7.86745e-09 -0.00099992)
(1.18749e-07 -7.35658e-09 -0.000999933)
(1.12497e-07 -6.86963e-09 -0.000999946)
(1.07787e-07 -6.46919e-09 -0.000999959)
(1.05021e-07 -6.40287e-09 -0.00099997)
)
;
    }
    procBoundary2to3
    {
        type            processor;
        value           nonuniform List<vector> 
180
(
(6.48535e-10 -8.36267e-09 -0.00100009)
(4.03616e-10 -1.12834e-08 -0.00100009)
(1.97017e-10 -1.59425e-08 -0.0010001)
(8.51401e-11 -2.1551e-08 -0.0010001)
(5.04654e-11 -2.7693e-08 -0.0010001)
(6.55203e-11 -3.42158e-08 -0.0010001)
(1.16383e-10 -4.11002e-08 -0.00100011)
(1.98742e-10 -4.83856e-08 -0.00100011)
(3.13203e-10 -5.61351e-08 -0.00100012)
(4.62025e-10 -6.44234e-08 -0.00100012)
(6.47772e-10 -7.33325e-08 -0.00100013)
(8.72846e-10 -8.29524e-08 -0.00100014)
(1.13939e-09 -9.33806e-08 -0.00100015)
(1.44929e-09 -1.04724e-07 -0.00100015)
(1.80427e-09 -1.17099e-07 -0.00100017)
(2.20595e-09 -1.30635e-07 -0.00100018)
(2.65595e-09 -1.4547e-07 -0.00100019)
(3.156e-09 -1.61759e-07 -0.00100021)
(3.7081e-09 -1.79671e-07 -0.00100022)
(4.31464e-09 -1.99392e-07 -0.00100024)
(4.97853e-09 -2.21126e-07 -0.00100026)
(5.7034e-09 -2.45099e-07 -0.00100029)
(6.4937e-09 -2.71556e-07 -0.00100031)
(7.35488e-09 -3.00772e-07 -0.00100034)
(8.2935e-09 -3.33045e-07 -0.00100037)
(9.31739e-09 -3.68708e-07 -0.00100041)
(1.04357e-08 -4.08124e-07 -0.00100045)
(1.16591e-08 -4.51696e-07 -0.00100049)
(1.29994e-08 -4.99867e-07 -0.00100054)
(1.44702e-08 -5.53128e-07 -0.00100059)
(1.60863e-08 -6.12019e-07 -0.00100064)
(1.78637e-08 -6.77137e-07 -0.00100071)
(1.98197e-08 -7.49143e-07 -0.00100078)
(2.19723e-08 -8.28765e-07 -0.00100085)
(2.43404e-08 -9.16812e-07 -0.00100094)
(2.6943e-08 -1.01417e-06 -0.00100103)
(2.97989e-08 -1.12184e-06 -0.00100113)
(3.29261e-08 -1.2409e-06 -0.00100125)
(3.63414e-08 -1.37256e-06 -0.00100137)
(4.00592e-08 -1.51817e-06 -0.00100151)
(4.4091e-08 -1.6792e-06 -0.00100167)
(4.8444e-08 -1.85729e-06 -0.00100183)
(5.31199e-08 -2.05426e-06 -0.00100202)
(5.81133e-08 -2.27212e-06 -0.00100223)
(6.34101e-08 -2.5131e-06 -0.00100246)
(6.89854e-08 -2.77967e-06 -0.00100271)
(7.48015e-08 -3.07456e-06 -0.00100299)
(8.08037e-08 -3.4008e-06 -0.0010033)
(8.69188e-08 -3.76174e-06 -0.00100364)
(9.30558e-08 -4.16109e-06 -0.00100402)
(9.91122e-08 -4.60295e-06 -0.00100444)
(1.04959e-07 -5.09187e-06 -0.0010049)
(1.10433e-07 -5.63286e-06 -0.00100541)
(1.15336e-07 -6.23149e-06 -0.00100598)
(1.19423e-07 -6.89393e-06 -0.00100661)
(1.22391e-07 -7.62698e-06 -0.0010073)
(1.23872e-07 -8.4382e-06 -0.00100807)
(1.23399e-07 -9.33596e-06 -0.00100892)
(1.20571e-07 -1.03294e-05 -0.00100985)
(1.15e-07 -1.14288e-05 -0.00101089)
(1.06278e-07 -1.26451e-05 -0.00101203)
(9.39983e-08 -1.39907e-05 -0.0010133)
(7.77756e-08 -1.54791e-05 -0.00101469)
(5.72882e-08 -1.71254e-05 -0.00101622)
(3.24828e-08 -1.89456e-05 -0.00101791)
(3.82627e-09 -2.09577e-05 -0.00101977)
(-2.80486e-08 -2.31809e-05 -0.00102181)
(-6.21731e-08 -2.56367e-05 -0.00102406)
(-9.70598e-08 -2.83484e-05 -0.00102653)
(-1.3058e-07 -3.13412e-05 -0.00102924)
(-1.60091e-07 -3.46424e-05 -0.00103221)
(-1.83148e-07 -3.82799e-05 -0.00103548)
(-2.0073e-07 -4.22766e-05 -0.00103898)
(-2.26278e-07 -4.6631e-05 -0.00104264)
(-3.05315e-07 -5.12616e-05 -0.0010468)
(-5.32177e-07 -5.58785e-05 -0.00105341)
(-9.51374e-07 -5.96345e-05 -0.00106383)
(-1.22755e-06 -6.08769e-05 -0.00106161)
(3.52649e-07 -5.56794e-05 -0.00100252)
(8.21278e-06 -3.68872e-05 -0.00078889)
(2.28847e-05 -1.29368e-06 -0.0034645)
(2.68763e-05 -7.85586e-06 6.14204e-05)
(-5.93688e-05 -0.000224904 -0.00444801)
(1.02671e-05 1.80692e-05 -8.48167e-05)
(0.000122597 0.000278087 -0.00513156)
(-4.00626e-06 8.712e-05 -0.000328804)
(0.000314944 0.000316642 -0.00517773)
(1.53165e-05 4.93224e-05 -0.000481296)
(-0.000113563 -0.000165128 -0.0048223)
(-9.48028e-05 -8.46095e-05 -0.00125053)
(-0.000353698 -1.56805e-06 -0.00568758)
(1.0437e-05 -4.93178e-05 0.000159437)
(-0.00139242 0.000775347 -0.00447658)
(-9.02311e-05 2.39351e-05 -0.000432918)
(-0.000302552 0.000368947 -0.00432381)
(8.46871e-05 0.000115338 -0.00126894)
(0.000629002 0.000329348 -0.0034659)
(0.000520914 0.000282544 -0.00260021)
(0.000338243 0.000192432 -0.00523412)
(-4.18027e-05 -2.4829e-05 -0.000799218)
(-0.000261819 -9.75904e-05 -0.00321925)
(-0.000244367 -6.94407e-05 -0.00125396)
(-0.00032779 -0.00011375 -0.00171646)
(-0.000124097 -5.64481e-05 -0.00122335)