/*--------------------------------*- C++ -*----------------------------------*\
| =========                 |                                                 |
| \\      /  F ield         | OpenFOAM: The Open Source CFD Toolbox           |
|  \\    /   O peration     | Version:  5.x                                   |
|   \\  /    A nd           | Web:      www.OpenFOAM.org                      |
|    \\/     M anipulation  |                                                 |
\*---------------------------------------------------------------------------*/
FoamFile
{
    version     2.0;
    format      ascii;
    class       volVectorField;
    location    "0.006";
    object      U;
}
// * * * * * * * * * * * * * * * * * * * * * * * * * * * * * * * * * * * * * //

dimensions      [0 1 -1 0 0 0 0];

internalField   nonuniform List<vector> 
180
(
(7.23405e-10 -8.36434e-09 -0.00100005)
(6.32312e-10 -1.10776e-08 -0.00100005)
(5.63367e-10 -1.5512e-08 -0.00100005)
(5.72761e-10 -2.09161e-08 -0.00100005)
(6.41847e-10 -2.68756e-08 -0.00100006)
(7.3883e-10 -3.32308e-08 -0.00100006)
(8.45491e-10 -3.99612e-08 -0.00100006)
(9.53645e-10 -4.71063e-08 -0.00100007)
(1.06055e-09 -5.47297e-08 -0.00100007)
(1.16567e-09 -6.29062e-08 -0.00100008)
(1.26922e-09 -7.1718e-08 -0.00100008)
(1.3716e-09 -8.12539e-08 -0.00100009)
(1.47322e-09 -9.161e-08 -0.0010001)
(1.57434e-09 -1.02891e-07 -0.00100011)
(1.67499e-09 -1.15209e-07 -0.00100012)
(1.77497e-09 -1.28687e-07 -0.00100013)
(1.87372e-09 -1.43461e-07 -0.00100015)
(1.97036e-09 -1.59676e-07 -0.00100016)
(2.06348e-09 -1.77493e-07 -0.00100018)
(2.15106e-09 -1.97089e-07 -0.0010002)
(2.23034e-09 -2.18656e-07 -0.00100022)
(2.29779e-09 -2.42407e-07 -0.00100024)
(2.34894e-09 -2.68574e-07 -0.00100027)
(2.37831e-09 -2.97415e-07 -0.0010003)
(2.3792e-09 -3.29211e-07 -0.00100033)
(2.34344e-09 -3.64275e-07 -0.00100037)
(2.26109e-09 -4.02949e-07 -0.00100041)
(2.12002e-09 -4.45612e-07 -0.00100045)
(1.90536e-09 -4.9268e-07 -0.0010005)
(1.59879e-09 -5.44611e-07 -0.00100055)
(1.17778e-09 -6.01911e-07 -0.00100061)
(6.14503e-10 -6.65138e-07 -0.00100067)
(-1.25349e-10 -7.34903e-07 -0.00100075)
(-1.08406e-09 -8.1188e-07 -0.00100083)
(-2.31359e-09 -8.96811e-07 -0.00100091)
(-3.87757e-09 -9.90511e-07 -0.00100101)
(-5.85369e-09 -1.09388e-06 -0.00100111)
(-8.3364e-09 -1.20789e-06 -0.00100123)
(-1.144e-08 -1.33363e-06 -0.00100136)
(-1.53024e-08 -1.47229e-06 -0.0010015)
(-2.0089e-08 -1.62517e-06 -0.00100165)
(-2.59977e-08 -1.79369e-06 -0.00100182)
(-3.32646e-08 -1.97944e-06 -0.001002)
(-4.217e-08 -2.18413e-06 -0.00100221)
(-5.30462e-08 -2.40964e-06 -0.00100243)
(-6.62859e-08 -2.65807e-06 -0.00100268)
(-8.23525e-08 -2.93167e-06 -0.00100294)
(-1.01792e-07 -3.23294e-06 -0.00100324)
(-1.25247e-07 -3.56462e-06 -0.00100356)
(-1.53469e-07 -3.92971e-06 -0.00100391)
(-1.87336e-07 -4.3315e-06 -0.0010043)
(-2.27879e-07 -4.77359e-06 -0.00100472)
(-2.76303e-07 -5.25994e-06 -0.00100518)
(-3.34023e-07 -5.79487e-06 -0.00100568)
(-4.02691e-07 -6.38313e-06 -0.00100623)
(-4.84246e-07 -7.02991e-06 -0.00100682)
(-5.80954e-07 -7.7409e-06 -0.00100748)
(-6.95467e-07 -8.52231e-06 -0.00100818)
(-8.30848e-07 -9.38099e-06 -0.00100896)
(-9.90651e-07 -1.03244e-05 -0.0010098)
(-1.17902e-06 -1.13609e-05 -0.00101071)
(-1.40078e-06 -1.24993e-05 -0.0010117)
(-1.66156e-06 -1.37497e-05 -0.00101278)
(-1.9679e-06 -1.51228e-05 -0.00101394)
(-2.32738e-06 -1.66308e-05 -0.00101521)
(-2.74885e-06 -1.82867e-05 -0.00101658)
(-3.24256e-06 -2.01054e-05 -0.00101807)
(-3.82041e-06 -2.21029e-05 -0.00101968)
(-4.49603e-06 -2.42974e-05 -0.00102142)
(-5.28518e-06 -2.67088e-05 -0.00102331)
(-6.20669e-06 -2.93587e-05 -0.00102535)
(-7.28398e-06 -3.22692e-05 -0.00102757)
(-8.54946e-06 -3.54558e-05 -0.0010299)
(-1.00553e-05 -3.89038e-05 -0.00103221)
(-1.18961e-05 -4.24957e-05 -0.00103472)
(-1.42299e-05 -4.58418e-05 -0.00103919)
(-1.71838e-05 -4.79697e-05 -0.0010476)
(-2.05609e-05 -4.72536e-05 -0.00104599)
(-2.30313e-05 -4.14156e-05 -0.000991035)
(-2.14342e-05 -2.96748e-05 -0.000690172)
(-1.87264e-05 -1.33967e-05 -0.00322688)
(-7.54141e-06 -7.39615e-05 -0.000135706)
(-0.000145021 4.19418e-05 -0.00378064)
(-1.92662e-05 -8.53785e-05 -0.000360558)
(6.67272e-05 -0.000189434 -0.00363442)
(3.83859e-05 -0.000256176 -0.00403829)
(3.45799e-05 -0.000122092 -0.000460513)
(0.000350031 -0.00035478 -0.0043501)
(-1.18095e-05 -2.19389e-05 -0.00116931)
(-0.000307288 0.000787299 -0.00281493)
(-0.000375677 0.000999468 -0.00308844)
(-0.000100821 0.000193032 -0.000634337)
(-0.00102201 0.00141907 -0.00277299)
(-0.000269994 0.000494127 -0.00265419)
(4.70642e-05 5.53729e-05 3.65894e-05)
(0.000187878 -2.18225e-05 -0.00511673)
(0.000114191 -7.56425e-06 -0.000613153)
(0.000741277 -0.000636991 -0.00259773)
(0.000652958 -0.000516081 -0.00187652)
(-1.70474e-05 -0.000313006 -0.00139116)
(-0.000279837 -0.000397103 -0.00232161)
(-0.000173573 -0.000147425 -0.00180048)
(-7.65695e-05 -1.26463e-05 -0.00177861)
(-2.80152e-05 1.71576e-05 -0.00152747)
(1.49969e-05 -6.1038e-07 -0.00116853)
(7.36866e-05 2.3342e-06 -0.0010014)
(8.97181e-05 6.9775e-06 -0.000878275)
(9.0012e-05 7.87734e-06 -0.000890307)
(8.46225e-05 6.72604e-06 -0.000910285)
(7.77174e-05 5.37023e-06 -0.000920635)
(7.07841e-05 4.3233e-06 -0.000927307)
(6.42938e-05 3.54828e-06 -0.000933525)
(5.83501e-05 2.94417e-06 -0.000939518)
(5.29382e-05 2.45137e-06 -0.000945054)
(4.80165e-05 2.04028e-06 -0.000950086)
(4.35423e-05 1.69438e-06 -0.000954664)
(3.94762e-05 1.40256e-06 -0.000958833)
(3.57825e-05 1.15637e-06 -0.000962629)
(3.2428e-05 9.48861e-07 -0.000966083)
(2.93827e-05 7.74202e-07 -0.000969225)
(2.66188e-05 6.2743e-07 -0.000972082)
(2.41109e-05 5.04322e-07 -0.00097468)
(2.18361e-05 4.01274e-07 -0.000977039)
(1.9773e-05 3.15221e-07 -0.000979183)
(1.79024e-05 2.43553e-07 -0.00098113)
(1.62067e-05 1.84036e-07 -0.000982897)
(1.46697e-05 1.34784e-07 -0.000984501)
(1.3277e-05 9.418e-08 -0.000985957)
(1.2015e-05 6.08526e-08 -0.000987278)
(1.08719e-05 3.36333e-08 -0.000988476)
(9.83657e-06 1.15273e-08 -0.000989563)
(8.89917e-06 -6.3171e-09 -0.000990548)
(8.05058e-06 -2.0625e-08 -0.000991442)
(7.28246e-06 -3.19682e-08 -0.000992252)
(6.58727e-06 -4.08121e-08 -0.000992985)
(5.95814e-06 -4.75529e-08 -0.00099365)
(5.38882e-06 -5.25304e-08 -0.000994252)
(4.87368e-06 -5.60355e-08 -0.000994797)
(4.40759e-06 -5.83179e-08 -0.00099529)
(3.98592e-06 -5.95923e-08 -0.000995737)
(3.60445e-06 -6.00441e-08 -0.000996142)
(3.25938e-06 -5.98316e-08 -0.000996508)
(2.94725e-06 -5.90658e-08 -0.00099684)
(2.66492e-06 -5.78477e-08 -0.00099714)
(2.40957e-06 -5.62679e-08 -0.000997412)
(2.17863e-06 -5.4401e-08 -0.000997657)
(1.96976e-06 -5.23113e-08 -0.00099788)
(1.78088e-06 -5.00549e-08 -0.000998081)
(1.61007e-06 -4.7682e-08 -0.000998263)
(1.45562e-06 -4.52369e-08 -0.000998428)
(1.31598e-06 -4.27576e-08 -0.000998578)
(1.18973e-06 -4.02767e-08 -0.000998713)
(1.07561e-06 -3.78211e-08 -0.000998835)
(9.72456e-07 -3.54132e-08 -0.000998946)
(8.79237e-07 -3.30707e-08 -0.000999047)
(7.95007e-07 -3.0808e-08 -0.000999138)
(7.18916e-07 -2.86361e-08 -0.000999221)
(6.50196e-07 -2.65633e-08 -0.000999295)
(5.88152e-07 -2.45958e-08 -0.000999363)
(5.32155e-07 -2.27376e-08 -0.000999425)
(4.81639e-07 -2.09913e-08 -0.000999481)
(4.36093e-07 -1.93577e-08 -0.000999532)
(3.95054e-07 -1.78366e-08 -0.000999578)
(3.58105e-07 -1.64264e-08 -0.00099962)
(3.2487e-07 -1.51244e-08 -0.000999658)
(2.95009e-07 -1.39268e-08 -0.000999692)
(2.68217e-07 -1.2829e-08 -0.000999724)
(2.44217e-07 -1.18253e-08 -0.000999753)
(2.22761e-07 -1.09095e-08 -0.000999779)
(2.03626e-07 -1.00746e-08 -0.000999803)
(1.86611e-07 -9.31326e-09 -0.000999825)
(1.71538e-07 -8.61749e-09 -0.000999845)
(1.58246e-07 -7.97906e-09 -0.000999863)
(1.46591e-07 -7.38926e-09 -0.00099988)
(1.36448e-07 -6.83867e-09 -0.000999896)
(1.27702e-07 -6.3175e-09 -0.00099991)
(1.2026e-07 -5.81826e-09 -0.000999924)
(1.14086e-07 -5.34108e-09 -0.000999937)
(1.09385e-07 -4.95578e-09 -0.00099995)
(1.06903e-07 -4.88708e-09 -0.00099996)
)
;

boundaryField
{
    inlet
    {
        type            zeroGradient;
    }
    outlet
    {
        type            zeroGradient;
    }
    repeat_boundary
    {
        type            slip;
    }
    procBoundary2to0
    {
        type            processor;
        value           nonuniform List<vector> 
180
(
(7.47525e-10 -8.36432e-09 -0.000999934)
(6.84087e-10 -1.10776e-08 -0.000999933)
(6.79228e-10 -1.55119e-08 -0.000999932)
(7.5729e-10 -2.09161e-08 -0.00099993)
(8.98548e-10 -2.68756e-08 -0.000999927)
(1.07914e-09 -3.32307e-08 -0.000999924)
(1.28314e-09 -3.99611e-08 -0.00099992)
(1.5045e-09 -4.71062e-08 -0.000999915)
(1.74232e-09 -5.47296e-08 -0.000999909)
(1.99786e-09 -6.29061e-08 -0.000999903)
(2.27322e-09 -7.17179e-08 -0.000999895)
(2.57105e-09 -8.12538e-08 -0.000999887)
(2.89441e-09 -9.16099e-08 -0.000999877)
(3.24696e-09 -1.0289e-07 -0.000999867)
(3.63306e-09 -1.15208e-07 -0.000999855)
(4.05787e-09 -1.28687e-07 -0.000999842)
(4.52755e-09 -1.4346e-07 -0.000999828)
(5.04936e-09 -1.59675e-07 -0.000999812)
(5.63182e-09 -1.77493e-07 -0.000999795)
(6.28479e-09 -1.97088e-07 -0.000999776)
(7.01958e-09 -2.18655e-07 -0.000999754)
(7.84905e-09 -2.42406e-07 -0.000999731)
(8.78765e-09 -2.68573e-07 -0.000999705)
(9.85156e-09 -2.97413e-07 -0.000999677)
(1.10588e-08 -3.29209e-07 -0.000999645)
(1.24291e-08 -3.64273e-07 -0.000999611)
(1.39847e-08 -4.02947e-07 -0.000999572)
(1.57497e-08 -4.45609e-07 -0.00099953)
(1.77509e-08 -4.92676e-07 -0.000999484)
(2.0018e-08 -5.44606e-07 -0.000999432)
(2.25839e-08 -6.01905e-07 -0.000999375)
(2.54853e-08 -6.6513e-07 -0.000999312)
(2.87633e-08 -7.34894e-07 -0.000999243)
(3.24641e-08 -8.11869e-07 -0.000999166)
(3.66401e-08 -8.96797e-07 -0.000999081)
(4.13504e-08 -9.90494e-07 -0.000998988)
(4.66628e-08 -1.09385e-06 -0.000998885)
(5.2654e-08 -1.20786e-06 -0.000998771)
(5.9412e-08 -1.3336e-06 -0.000998645)
(6.70366e-08 -1.47225e-06 -0.000998506)
(7.56421e-08 -1.62512e-06 -0.000998353)
(8.53582e-08 -1.79363e-06 -0.000998185)
(9.63327e-08 -1.97937e-06 -0.000997999)
(1.08733e-07 -2.18404e-06 -0.000997793)
(1.22751e-07 -2.40954e-06 -0.000997567)
(1.38601e-07 -2.65794e-06 -0.000997318)
(1.56529e-07 -2.93151e-06 -0.000997043)
(1.76809e-07 -3.23275e-06 -0.00099674)
(1.99751e-07 -3.56439e-06 -0.000996405)
(2.25706e-07 -3.92942e-06 -0.000996036)
(2.55064e-07 -4.33114e-06 -0.000995629)
(2.88267e-07 -4.77315e-06 -0.00099518)
(3.25808e-07 -5.2594e-06 -0.000994684)
(3.68241e-07 -5.79422e-06 -0.000994138)
(4.16189e-07 -6.38233e-06 -0.000993534)
(4.70348e-07 -7.02893e-06 -0.000992868)
(5.31497e-07 -7.7397e-06 -0.000992132)
(6.00507e-07 -8.52084e-06 -0.00099132)
(6.78346e-07 -9.3792e-06 -0.000990423)
(7.66089e-07 -1.03222e-05 -0.000989431)
(8.64923e-07 -1.13582e-05 -0.000988334)
(9.76156e-07 -1.2496e-05 -0.000987121)
(1.10123e-06 -1.37457e-05 -0.000985778)
(1.24171e-06 -1.51179e-05 -0.000984291)
(1.39931e-06 -1.66248e-05 -0.000982642)
(1.57579e-06 -1.82795e-05 -0.000980811)
(1.77302e-06 -2.00965e-05 -0.000978776)
(1.99289e-06 -2.20921e-05 -0.000976511)
(2.23737e-06 -2.42842e-05 -0.000973988)
(2.50837e-06 -2.66925e-05 -0.000971174)
(2.80764e-06 -2.93383e-05 -0.000968038)
(3.13623e-06 -3.22424e-05 -0.000964532)
(3.49283e-06 -3.54174e-05 -0.000960564)
(3.86967e-06 -3.88407e-05 -0.000956001)
(4.24548e-06 -4.23793e-05 -0.000951122)
(4.57914e-06 -4.56129e-05 -0.000947589)
(4.78502e-06 -4.75468e-05 -0.000946522)
(4.66904e-06 -4.64881e-05 -0.000932911)
(3.36273e-06 -4.02037e-05 -0.000868979)
(-1.34155e-06 -2.80374e-05 -0.000619178)
(-7.33552e-06 -9.04281e-06 -0.00290841)
(1.69874e-06 -3.46884e-05 -8.48657e-05)
(0.000169376 3.47092e-05 -0.00349485)
(-1.00392e-05 -7.67148e-05 -0.000151708)
(-0.000466957 -0.000287333 -0.0027073)
(-0.00054709 -0.000329692 -0.00246309)
(-8.55042e-05 -0.000138999 -0.000769602)
(-0.000132704 -0.000195888 -0.00459111)
(7.24174e-06 -1.43496e-05 -0.000632624)
(0.000274482 0.000276502 -0.00395795)
(0.000294496 0.000585509 -0.00208949)
(0.000122376 0.000933053 -0.00311513)
(-2.3162e-05 0.000156067 -0.000427699)
(-0.000146066 0.00138208 -0.00319235)
(-0.00018552 0.000453571 -0.00306611)
(-0.000104566 -6.3758e-05 -0.00103798)
(-0.000496932 -0.00109778 -0.00385522)
(-9.72599e-05 -0.000130359 -0.000708269)
(-0.000173335 -0.000390394 -0.00379151)
(-0.000108874 -0.000144153 -0.00169346)
(-0.000250471 -0.000159839 -0.00294979)
(-0.000152761 -4.77089e-05 -0.00236258)
(-6.37027e-05 3.68142e-05 -0.00152346)
(-4.31683e-06 3.79329e-05 -0.00177424)
(5.6313e-06 -9.50729e-06 -0.000790688)
(6.64023e-05 -2.27982e-06 -0.000957527)
(9.28155e-05 3.99497e-06 -0.00086956)
(0.000101505 6.2816e-06 -0.000872338)
(9.9388e-05 6.04569e-06 -0.000889095)
(9.24812e-05 5.12563e-06 -0.000902304)
(8.42427e-05 4.24801e-06 -0.000912263)
(7.61326e-05 3.52909e-06 -0.000920948)
(6.86274e-05 2.94107e-06 -0.000928872)
(6.18221e-05 2.45215e-06 -0.000936039)
(5.56892e-05 2.04167e-06 -0.000942471)
(5.01709e-05 1.69565e-06 -0.000948241)
(4.52064e-05 1.40361e-06 -0.000953422)
(4.07397e-05 1.15721e-06 -0.000958077)
(3.67197e-05 9.49532e-07 -0.000962261)
(3.31011e-05 7.74739e-07 -0.000966021)
(2.98429e-05 6.27861e-07 -0.000969402)
(2.69088e-05 5.04668e-07 -0.000972442)
(2.42658e-05 4.01554e-07 -0.000975177)
(2.18848e-05 3.15447e-07 -0.000977637)
(1.97394e-05 2.43735e-07 -0.000979851)
(1.7806e-05 1.84184e-07 -0.000981844)
(1.60633e-05 1.34904e-07 -0.000983637)
(1.44925e-05 9.42778e-08 -0.000985252)
(1.30762e-05 6.09323e-08 -0.000986706)
(1.17993e-05 3.36983e-08 -0.000988016)
(1.06476e-05 1.15803e-08 -0.000989195)
(9.60881e-06 -6.27388e-09 -0.000990257)
(8.67162e-06 -2.05897e-08 -0.000991215)
(7.82605e-06 -3.19394e-08 -0.000992077)
(7.06309e-06 -4.07885e-08 -0.000992855)
(6.37464e-06 -4.75337e-08 -0.000993557)
(5.75338e-06 -5.25146e-08 -0.00099419)
(5.19275e-06 -5.60226e-08 -0.00099476)
(4.68681e-06 -5.83074e-08 -0.000995275)
(4.23021e-06 -5.95837e-08 -0.000995739)
(3.81812e-06 -6.00371e-08 -0.000996157)
(3.4462e-06 -5.98259e-08 -0.000996534)
(3.11054e-06 -5.90611e-08 -0.000996875)
(2.80761e-06 -5.78439e-08 -0.000997182)
(2.53421e-06 -5.62648e-08 -0.000997459)
(2.28748e-06 -5.43984e-08 -0.000997709)
(2.06482e-06 -5.23092e-08 -0.000997934)
(1.86388e-06 -5.00532e-08 -0.000998137)
(1.68256e-06 -4.76806e-08 -0.00099832)
(1.51895e-06 -4.52357e-08 -0.000998486)
(1.37133e-06 -4.27567e-08 -0.000998635)
(1.23813e-06 -4.02759e-08 -0.000998769)
(1.11796e-06 -3.78205e-08 -0.00099889)
(1.00955e-06 -3.54127e-08 -0.000999)
(9.11767e-07 -3.30703e-08 -0.000999098)
(8.23568e-07 -3.08077e-08 -0.000999187)
(7.44028e-07 -2.86358e-08 -0.000999267)
(6.72308e-07 -2.65631e-08 -0.00099934)
(6.07652e-07 -2.45956e-08 -0.000999405)
(5.49377e-07 -2.27374e-08 -0.000999464)
(4.96867e-07 -2.09911e-08 -0.000999518)
(4.49568e-07 -1.93576e-08 -0.000999566)
(4.06982e-07 -1.78366e-08 -0.000999609)
(3.68658e-07 -1.64264e-08 -0.000999649)
(3.34193e-07 -1.51244e-08 -0.000999685)
(3.03224e-07 -1.39268e-08 -0.000999717)
(2.75427e-07 -1.28289e-08 -0.000999747)
(2.50509e-07 -1.18253e-08 -0.000999773)
(2.2821e-07 -1.09095e-08 -0.000999798)
(2.08299e-07 -1.00746e-08 -0.00099982)
(1.9057e-07 -9.31325e-09 -0.00099984)
(1.74838e-07 -8.61748e-09 -0.000999859)
(1.60943e-07 -7.97905e-09 -0.000999876)
(1.48742e-07 -7.38925e-09 -0.000999892)
(1.38114e-07 -6.83867e-09 -0.000999907)
(1.28958e-07 -6.3175e-09 -0.000999921)
(1.21201e-07 -5.81826e-09 -0.000999934)
(1.14848e-07 -5.34108e-09 -0.000999946)
(1.10054e-07 -4.95578e-09 -0.000999959)
(1.07253e-07 -4.88708e-09 -0.000999969)
)
;
    }
    procBoundary2to3
    {
        type            processor;
        value           nonuniform List<vector> 
180
(
(7.23405e-10 -8.38846e-09 -0.00100005)
(6.32311e-10 -1.11294e-08 -0.00100005)
(5.63366e-10 -1.56278e-08 -0.00100005)
(5.7276e-10 -2.11006e-08 -0.00100005)
(6.41846e-10 -2.71323e-08 -0.00100005)
(7.38829e-10 -3.35711e-08 -0.00100006)
(8.45489e-10 -4.03988e-08 -0.00100006)
(9.53643e-10 -4.76571e-08 -0.00100006)
(1.06055e-09 -5.54114e-08 -0.00100007)
(1.16567e-09 -6.37384e-08 -0.00100007)
(1.26921e-09 -7.2722e-08 -0.00100008)
(1.3716e-09 -8.24533e-08 -0.00100009)
(1.47322e-09 -9.30312e-08 -0.0010001)
(1.57433e-09 -1.04563e-07 -0.00100011)
(1.67498e-09 -1.17167e-07 -0.00100012)
(1.77496e-09 -1.3097e-07 -0.00100013)
(1.87371e-09 -1.46114e-07 -0.00100014)
(1.97034e-09 -1.62755e-07 -0.00100016)
(2.06346e-09 -1.81062e-07 -0.00100017)
(2.15103e-09 -2.01223e-07 -0.00100019)
(2.23031e-09 -2.23445e-07 -0.00100022)
(2.29775e-09 -2.47958e-07 -0.00100024)
(2.3489e-09 -2.75013e-07 -0.00100027)
(2.37826e-09 -3.04888e-07 -0.0010003)
(2.37914e-09 -3.37891e-07 -0.00100033)
(2.34336e-09 -3.74361e-07 -0.00100036)
(2.26099e-09 -4.14673e-07 -0.0010004)
(2.11991e-09 -4.59242e-07 -0.00100045)
(1.90521e-09 -5.08525e-07 -0.0010005)
(1.59861e-09 -5.6303e-07 -0.00100055)
(1.17755e-09 -6.23318e-07 -0.00100062)
(6.14228e-10 -6.90009e-07 -0.00100068)
(-1.25688e-10 -7.63791e-07 -0.00100076)
(-1.08448e-09 -8.45428e-07 -0.00100084)
(-2.3141e-09 -9.35765e-07 -0.00100093)
(-3.87821e-09 -1.03574e-06 -0.00100104)
(-5.85448e-09 -1.14639e-06 -0.00100115)
(-8.33738e-09 -1.26888e-06 -0.00100128)
(-1.14412e-08 -1.40448e-06 -0.00100142)
(-1.53039e-08 -1.55463e-06 -0.00100157)
(-2.00908e-08 -1.7209e-06 -0.00100175)
(-2.6e-08 -1.90505e-06 -0.00100194)
(-3.32674e-08 -2.10904e-06 -0.00100215)
(-4.21735e-08 -2.33503e-06 -0.00100239)
(-5.30506e-08 -2.58544e-06 -0.00100266)
(-6.62913e-08 -2.86296e-06 -0.00100295)
(-8.23592e-08 -3.17056e-06 -0.00100328)
(-1.01801e-07 -3.51155e-06 -0.00100365)
(-1.25257e-07 -3.88963e-06 -0.00100405)
(-1.53482e-07 -4.3089e-06 -0.00100451)
(-1.87353e-07 -4.77392e-06 -0.00100501)
(-2.27899e-07 -5.28976e-06 -0.00100558)
(-2.76329e-07 -5.86209e-06 -0.00100621)
(-3.34054e-07 -6.49718e-06 -0.00100691)
(-4.0273e-07 -7.20207e-06 -0.00100769)
(-4.84294e-07 -7.98458e-06 -0.00100856)
(-5.81015e-07 -8.85345e-06 -0.00100954)
(-6.95544e-07 -9.81842e-06 -0.00101063)
(-8.30944e-07 -1.08904e-05 -0.00101185)
(-9.90771e-07 -1.20814e-05 -0.00101322)
(-1.17917e-06 -1.34051e-05 -0.00101474)
(-1.40097e-06 -1.48766e-05 -0.00101645)
(-1.6618e-06 -1.65129e-05 -0.00101837)
(-1.9682e-06 -1.8333e-05 -0.00102051)
(-2.32776e-06 -2.03583e-05 -0.00102292)
(-2.74933e-06 -2.26124e-05 -0.00102563)
(-3.24316e-06 -2.51223e-05 -0.00102867)
(-3.82118e-06 -2.7918e-05 -0.00103209)
(-4.49701e-06 -3.1033e-05 -0.00103594)
(-5.28645e-06 -3.45051e-05 -0.00104027)
(-6.20839e-06 -3.83763e-05 -0.00104515)
(-7.28633e-06 -4.26922e-05 -0.00105065)
(-8.55273e-06 -4.74965e-05 -0.00105681)
(-1.00592e-05 -5.28118e-05 -0.0010636)
(-1.18965e-05 -5.85826e-05 -0.00107146)
(-1.42111e-05 -6.45481e-05 -0.00108246)
(-1.70912e-05 -6.98817e-05 -0.0010981)
(-2.02609e-05 -7.298e-05 -0.00110214)
(-2.20289e-05 -6.99326e-05 -0.00104968)
(-1.82362e-05 -5.38186e-05 -0.000807119)
(-6.5602e-06 -1.80286e-05 -0.00340253)
(1.42561e-05 -8.0299e-06 -0.000117726)
(-0.000112653 -0.000256241 -0.00412837)
(-5.32103e-06 -2.30956e-05 -0.00017507)
(0.000114232 0.000294891 -0.00445477)
(-2.1264e-05 -9.9443e-06 -0.000314194)
(0.000334047 0.000349148 -0.0047043)
(9.87786e-06 -7.39245e-06 -0.000443212)
(-5.97051e-05 -0.000129064 -0.00481923)
(-5.37697e-05 -7.85207e-05 -0.00127248)
(-0.000346271 4.39824e-05 -0.00567584)
(-4.35082e-06 -9.33278e-06 -0.000120161)
(-0.0013894 0.00084931 -0.00468111)
(-9.61319e-05 7.60908e-05 -0.000484331)
(-0.000267535 0.000417004 -0.00466499)
(0.000136009 0.000200952 -0.00127902)
(0.0007223 0.00040012 -0.00350778)
(0.000636944 0.000346493 -0.00266891)
(0.000395985 0.000194914 -0.00529314)
(-2.8847e-06 -6.73068e-05 -0.000786636)
(-0.000258488 -0.000144327 -0.00336868)
(-0.000282205 -0.00010124 -0.00128594)
(-0.000338536 -0.000129489 -0.00173201)
(-0.000131223 -6.7337e-05 -0.00121664)
(-7.18524e-06 -4.44913e-05 -0.00125702)
(6.06939e-05 -2.6177e-05 -0.0011138)
(8.34382e-05 -1.86131e-05 -0.00108391)
(8.71704e-05 -1.52198e-05 -0.00108301)
(8.34455e-05 -1.29826e-05 -0.00107961)
(7.72591e-05 -1.11856e-05 -0.00107308)
(7.06036e-05 -9.6905e-06 -0.00106644)
(6.42117e-05 -8.43108e-06 -0.0010605)
(5.83023e-05 -7.35397e-06 -0.00105515)
(5.29042e-05 -6.42457e-06 -0.00105025)
(4.79898e-05 -5.62023e-06 -0.00104575)
(4.35205e-05 -4.92332e-06 -0.00104163)
(3.94584e-05 -4.31884e-06 -0.00103786)
(3.57677e-05 -3.79388e-06 -0.00103442)
(3.24159e-05 -3.33739e-06 -0.00103127)
(2.93727e-05 -2.93991e-06 -0.00102841)
(2.66105e-05 -2.59338e-06 -0.00102579)
(2.41042e-05 -2.29087e-06 -0.00102341)
(2.18305e-05 -2.02645e-06 -0.00102124)
(1.97684e-05 -1.79502e-06 -0.00101927)
(1.78986e-05 -1.59223e-06 -0.00101747)
(1.62036e-05 -1.41431e-06 -0.00101584)
(1.46672e-05 -1.25807e-06 -0.00101436)
(1.32749e-05 -1.12072e-06 -0.00101301)
(1.20133e-05 -9.99894e-07 -0.00101179)
(1.08705e-05 -8.93424e-07 -0.00101068)
(9.83543e-06 -7.99253e-07 -0.00100967)
(8.89824e-06 -7.15729e-07 -0.00100875)
(8.04981e-06 -6.41496e-07 -0.00100792)
(7.28184e-06 -5.75419e-07 -0.00100717)
(6.58676e-06 -5.16523e-07 -0.00100648)
(5.95772e-06 -4.6397e-07 -0.00100586)
(5.38848e-06 -4.17027e-07 -0.0010053)
(4.8734e-06 -3.75056e-07 -0.0010048)
(4.40736e-06 -3.37495e-07 -0.00100434)
(3.98573e-06 -3.03853e-07 -0.00100392)
(3.60429e-06 -2.73694e-07 -0.00100355)
(3.25925e-06 -2.46638e-07 -0.00100321)
(2.94715e-06 -2.22346e-07 -0.0010029)
(2.66484e-06 -2.0052e-07 -0.00100262)
(2.4095e-06 -1.80899e-07 -0.00100237)
(2.17857e-06 -1.63248e-07 -0.00100214)
(1.96972e-06 -1.47362e-07 -0.00100193)
(1.78084e-06 -1.33058e-07 -0.00100175)
(1.61004e-06 -1.20173e-07 -0.00100158)
(1.4556e-06 -1.08565e-07 -0.00100142)
(1.31596e-06 -9.81032e-08 -0.00100129)
(1.18972e-06 -8.86737e-08 -0.00100116)
(1.07559e-06 -8.01734e-08 -0.00100105)
(9.72446e-07 -7.25099e-08 -0.00100095)
(8.79228e-07 -6.56e-08 -0.00100085)
(7.95e-07 -5.93684e-08 -0.00100077)
(7.18911e-07 -5.37474e-08 -0.0010007)
(6.50191e-07 -4.86752e-08 -0.00100063)
(5.88148e-07 -4.4096e-08 -0.00100057)
(5.32152e-07 -3.99592e-08 -0.00100051)
(4.81637e-07 -3.62187e-08 -0.00100046)
(4.36091e-07 -3.2833e-08 -0.00100041)
(3.95052e-07 -2.97645e-08 -0.00100037)
(3.58104e-07 -2.69795e-08 -0.00100033)
(3.24869e-07 -2.44476e-08 -0.0010003)
(2.95008e-07 -2.2142e-08 -0.00100027)
(2.68216e-07 -2.00388e-08 -0.00100024)
(2.44216e-07 -1.81172e-08 -0.00100022)
(2.2276e-07 -1.63589e-08 -0.00100019)
(2.03626e-07 -1.47482e-08 -0.00100017)
(1.86611e-07 -1.32715e-08 -0.00100015)
(1.71538e-07 -1.19173e-08 -0.00100013)
(1.58245e-07 -1.06759e-08 -0.00100012)
(1.46591e-07 -9.54001e-09 -0.0010001)
(1.36448e-07 -8.50522e-09 -0.00100009)
(1.27702e-07 -7.57351e-09 -0.00100007)
(1.2026e-07 -6.75948e-09 -0.00100006)
(1.14086e-07 -6.103e-09 -0.00100005)
(1.09385e-07 -5.62391e-09 -0.00100004)
(1.06903e-07 -5.23697e-09 -0.00100003)
)
;
    }
}


// ************************************************************************* //
