/*--------------------------------*- C++ -*----------------------------------*\
| =========                 |                                                 |
| \\      /  F ield         | OpenFOAM: The Open Source CFD Toolbox           |
|  \\    /   O peration     | Version:  5.x                                   |
|   \\  /    A nd           | Web:      www.OpenFOAM.org                      |
|    \\/     M anipulation  |                                                 |
\*---------------------------------------------------------------------------*/
FoamFile
{
    version     2.0;
    format      ascii;
    class       volScalarField;
    location    "600";
    object      p;
}
// * * * * * * * * * * * * * * * * * * * * * * * * * * * * * * * * * * * * * //

dimensions      [0 2 -2 0 0 0 0];

internalField   nonuniform List<scalar> 
90
(
0.0366471
0.0670165
0.095995
0.120631
0.146081
0.170275
0.193882
0.216306
0.237542
0.257331
0.275541
0.291998
0.306559
0.319079
0.329424
0.337465
0.343083
0.346164
0.346605
0.344311
0.339198
0.331194
0.320241
0.306292
0.289315
0.269291
0.246211
0.22008
0.190968
0.159019
0.124198
0.0859123
0.0435733
-0.00281939
-0.0531117
-0.107161
-0.164823
-0.225951
-0.290391
-0.35798
-0.428548
-0.501921
-0.577917
-0.656356
-0.737057
-0.819841
-0.90454
-0.990992
-1.07905
-1.16858
-1.25946
-1.3516
-1.44491
-1.53932
-1.63479
-1.7313
-1.82882
-1.92737
-2.02696
-2.12762
-2.22939
-2.33232
-2.43646
-2.54189
-2.64866
-2.75687
-2.86657
-2.9779
-3.09101
-3.20603
-3.32305
-3.44215
-3.56337
-3.68676
-3.81234
-3.94014
-4.07017
-4.20245
-4.33697
-4.47377
-4.61287
-4.75429
-4.89787
-5.04315
-5.19031
-5.34172
-5.50115
-5.66471
-5.80441
-5.85452
)
;

boundaryField
{
    inlet
    {
        type            zeroGradient;
    }
    outlet
    {
        type            fixedValue;
        value           uniform 0;
    }
    repeat_boundary
    {
        type            zeroGradient;
    }
    procBoundary1to0
    {
        type            processor;
        value           nonuniform List<scalar> 
90
(
0.00226545
0.0150825
0.0469369
0.0753747
0.1036
0.130293
0.155631
0.179375
0.201518
0.221889
0.240459
0.257136
0.271876
0.284619
0.295319
0.303929
0.310405
0.314703
0.316784
0.316606
0.31413
0.309314
0.302117
0.292498
0.280414
0.26582
0.248665
0.228894
0.206446
0.181255
0.153237
0.122291
0.0883176
0.0512378
0.0109918
-0.0324644
-0.0791575
-0.129096
-0.182271
-0.238651
-0.298185
-0.3608
-0.426404
-0.494884
-0.566113
-0.639951
-0.716247
-0.794844
-0.875584
-0.958315
-1.04289
-1.12918
-1.21706
-1.30643
-1.39721
-1.48933
-1.58274
-1.67742
-1.77335
-1.87054
-1.96902
-2.06881
-2.16995
-2.2725
-2.37651
-2.48204
-2.58916
-2.69793
-2.80841
-2.92068
-3.03483
-3.15094
-3.26909
-3.38935
-3.5118
-3.63649
-3.76351
-3.89292
-4.02477
-4.15913
-4.29611
-4.43587
-4.57834
-4.72293
-4.86931
-5.02054
-5.18322
-5.35248
-5.48487
-5.50273
)
;
    }
    procBoundary1to3
    {
        type            processor;
        value           nonuniform List<scalar> 
90
(
0.00991125
0.0362834
0.074627
0.109903
0.144903
0.177995
0.209761
0.239763
0.268069
0.2945
0.318982
0.341391
0.361614
0.379511
0.39494
0.407738
0.417735
0.424747
0.428582
0.429041
0.425925
0.419033
0.408172
0.393158
0.373816
0.349993
0.321572
0.288484
0.250632
0.207869
0.160232
0.10836
0.0529641
-0.00580652
-0.0679369
-0.133358
-0.201958
-0.273591
-0.348093
-0.425289
-0.504995
-0.587025
-0.671193
-0.757312
-0.845179
-0.934582
-1.02533
-1.11726
-1.21021
-1.30404
-1.39864
-1.49389
-1.58971
-1.68605
-1.78287
-1.88016
-1.97791
-2.07615
-2.17491
-2.27424
-2.37417
-2.47476
-2.57604
-2.67806
-2.78083
-2.8842
-2.98796
-3.0924
-3.19914
-3.30901
-3.42167
-3.53695
-3.65466
-3.77469
-3.8969
-4.02122
-4.14756
-4.27584
-4.40601
-4.538
-4.67178
-4.80735
-4.94467
-5.08347
-5.22332
-5.36497
-5.51204
-5.66783
-5.81859
-5.90099
)
;
    }
}


// ************************************************************************* //
