/*--------------------------------*- C++ -*----------------------------------*\
| =========                 |                                                 |
| \\      /  F ield         | OpenFOAM: The Open Source CFD Toolbox           |
|  \\    /   O peration     | Version:  5.x                                   |
|   \\  /    A nd           | Web:      www.OpenFOAM.org                      |
|    \\/     M anipulation  |                                                 |
\*---------------------------------------------------------------------------*/
FoamFile
{
    version     2.0;
    format      ascii;
    class       surfaceScalarField;
    location    "600";
    object      phi;
}
// * * * * * * * * * * * * * * * * * * * * * * * * * * * * * * * * * * * * * //

dimensions      [0 3 -1 0 0 0 0];

internalField   nonuniform List<scalar> 
89
(
-111.577
-110.869
-110.142
-109.392
-108.624
-107.838
-107.036
-106.219
-105.388
-104.545
-103.69
-102.825
-101.952
-101.071
-100.184
-99.2928
-98.3997
-97.5065
-96.6153
-95.7285
-94.8482
-93.977
-93.1171
-92.2707
-91.44
-90.6268
-89.8328
-89.0594
-88.3073
-87.5773
-86.8693
-86.1822
-85.5148
-84.8655
-84.2333
-83.6172
-83.0168
-82.4313
-81.8605
-81.3039
-80.7611
-80.2316
-79.715
-79.2106
-78.7176
-78.2352
-77.7624
-77.2982
-76.8414
-76.3908
-75.9454
-75.5038
-75.065
-74.6279
-74.1915
-73.7549
-73.3173
-72.8781
-72.4368
-71.9928
-71.546
-71.0962
-70.6434
-70.1874
-69.7285
-69.2668
-68.8027
-68.3365
-67.8692
-67.4017
-66.9347
-66.4688
-66.0045
-65.5421
-65.0821
-64.6247
-64.1704
-63.7195
-63.2723
-62.8294
-62.391
-61.9576
-61.5297
-61.1078
-60.6921
-60.2808
-59.8756
-59.4786
-59.1067
)
;

boundaryField
{
    inlet
    {
        type            calculated;
        value           uniform -58.7508;
    }
    outlet
    {
        type            calculated;
        value           uniform 112.257;
    }
    repeat_boundary
    {
        type            calculated;
        value           uniform 0;
    }
    procBoundary1to0
    {
        type            processor;
        value           nonuniform List<scalar> 
90
(
-0.239764
-0.247921
-0.263127
-0.277553
-0.292298
-0.307454
-0.323013
-0.339124
-0.355827
-0.373143
-0.391075
-0.409588
-0.428629
-0.44812
-0.467965
-0.488049
-0.508247
-0.528424
-0.548441
-0.568156
-0.587432
-0.606135
-0.624142
-0.641341
-0.657636
-0.672948
-0.687216
-0.700403
-0.712482
-0.723458
-0.733404
-0.742492
-0.750766
-0.758114
-0.764392
-0.769487
-0.773322
-0.775863
-0.777113
-0.77711
-0.775922
-0.773643
-0.770385
-0.766278
-0.761458
-0.756067
-0.750247
-0.744133
-0.737854
-0.731525
-0.725248
-0.719109
-0.713179
-0.707512
-0.70215
-0.697119
-0.692435
-0.688104
-0.684127
-0.680496
-0.677205
-0.674242
-0.671599
-0.669267
-0.667238
-0.665502
-0.664052
-0.662888
-0.662003
-0.66137
-0.660955
-0.660718
-0.660615
-0.660606
-0.660652
-0.660716
-0.660768
-0.66078
-0.660735
-0.660618
-0.660417
-0.66012
-0.65974
-0.659325
-0.659019
-0.659368
-0.658892
-0.658497
-0.644517
-0.63321
)
;
    }
    procBoundary1to3
    {
        type            processor;
        value           nonuniform List<scalar> 
90
(
-0.440433
-0.459619
-0.464537
-0.472131
-0.476047
-0.478585
-0.479122
-0.477898
-0.474886
-0.470118
-0.463565
-0.455207
-0.445003
-0.432905
-0.41887
-0.402853
-0.384829
-0.364784
-0.342733
-0.318715
-0.292805
-0.265114
-0.235793
-0.205038
-0.173085
-0.140213
-0.106752
-0.0730643
-0.0395338
-0.00656689
0.0253942
0.0554282
0.0832805
0.108824
0.132172
0.153468
0.172847
0.190422
0.206282
0.220498
0.233125
0.244205
0.253772
0.261856
0.26848
0.273668
0.277457
0.279897
0.281047
0.280982
0.279783
0.277549
0.274384
0.270407
0.26574
0.260512
0.254854
0.248896
0.242761
0.236568
0.230427
0.224441
0.218706
0.21331
0.208334
0.203838
0.199896
0.196717
0.194677
0.19388
0.19398
0.194834
0.196282
0.198231
0.200605
0.203356
0.206449
0.209867
0.213601
0.217651
0.222025
0.226744
0.231867
0.237433
0.243252
0.248126
0.253641
0.261553
0.272579
0.277331
)
;
    }
}


// ************************************************************************* //
