/*--------------------------------*- C++ -*----------------------------------*\
| =========                 |                                                 |
| \\      /  F ield         | OpenFOAM: The Open Source CFD Toolbox           |
|  \\    /   O peration     | Version:  5.x                                   |
|   \\  /    A nd           | Web:      www.OpenFOAM.org                      |
|    \\/     M anipulation  |                                                 |
\*---------------------------------------------------------------------------*/
FoamFile
{
    version     2.0;
    format      ascii;
    class       volVectorField;
    location    "600";
    object      stored_U;
}
// * * * * * * * * * * * * * * * * * * * * * * * * * * * * * * * * * * * * * //

dimensions      [0 1 -1 0 0 0 0];

internalField   nonuniform List<vector> 
90
(
(0.0459211 -0.112938 -4.4948)
(0.0477181 -0.11781 -4.45865)
(0.0505578 -0.118335 -4.43213)
(0.0532985 -0.119936 -4.40113)
(0.0561005 -0.120473 -4.37123)
(0.0589308 -0.120694 -4.3397)
(0.0618438 -0.120365 -4.30784)
(0.064855 -0.119598 -4.27514)
(0.0679896 -0.118361 -4.24192)
(0.0712581 -0.116678 -4.20809)
(0.0746723 -0.114547 -4.17376)
(0.0782345 -0.111971 -4.13893)
(0.0819452 -0.10895 -4.10367)
(0.0857994 -0.105484 -4.06802)
(0.089789 -0.101575 -4.03203)
(0.0939022 -0.0972223 -3.99576)
(0.0981251 -0.0924322 -3.95927)
(0.102441 -0.0872119 -3.92264)
(0.106833 -0.081574 -3.88595)
(0.111281 -0.075536 -3.84929)
(0.115767 -0.0691218 -3.81274)
(0.120272 -0.0623619 -3.77641)
(0.124776 -0.0552945 -3.74038)
(0.129263 -0.0479656 -3.70477)
(0.133718 -0.0404289 -3.66967)
(0.138127 -0.0327465 -3.63518)
(0.142478 -0.0249886 -3.60137)
(0.146764 -0.0172335 -3.56834)
(0.15098 -0.00956616 -3.53614)
(0.155123 -0.00207681 -3.50482)
(0.159198 0.00513583 -3.47439)
(0.163217 0.0119613 -3.44486)
(0.167199 0.0182851 -3.41635)
(0.171117 0.0240391 -3.38868)
(0.174923 0.0292229 -3.36177)
(0.178571 0.0338678 -3.3356)
(0.182027 0.0380067 -3.31011)
(0.185262 0.0416683 -3.28528)
(0.18826 0.0448767 -3.26109)
(0.191009 0.0476522 -3.23751)
(0.193508 0.0500117 -3.21453)
(0.195757 0.0519704 -3.19212)
(0.197766 0.0535415 -3.17028)
(0.199546 0.0547369 -3.14898)
(0.201112 0.0555674 -3.12821)
(0.202484 0.0560437 -3.10792)
(0.20368 0.0561766 -3.08809)
(0.204723 0.0559791 -3.06867)
(0.205632 0.0554657 -3.04963)
(0.20643 0.0546519 -3.03092)
(0.207136 0.053555 -3.01249)
(0.207769 0.0521937 -2.99429)
(0.208347 0.0505882 -2.97626)
(0.208884 0.0487604 -2.95837)
(0.209394 0.0467333 -2.94056)
(0.20989 0.0445306 -2.92278)
(0.210381 0.0421766 -2.90501)
(0.210876 0.0396954 -2.88719)
(0.211382 0.0371106 -2.86931)
(0.211904 0.0344446 -2.85133)
(0.212447 0.0317191 -2.83324)
(0.213014 0.0289543 -2.81503)
(0.213606 0.02617 -2.79668)
(0.214226 0.0233849 -2.7782)
(0.214873 0.0206173 -2.75959)
(0.215549 0.0178867 -2.74085)
(0.21625 0.0152204 -2.72199)
(0.216977 0.01266 -2.70303)
(0.217724 0.0102398 -2.684)
(0.21848 0.00792104 -2.66495)
(0.219234 0.00563638 -2.64591)
(0.219973 0.0033464 -2.62691)
(0.220684 0.00101279 -2.60797)
(0.221353 -0.00139367 -2.58911)
(0.22197 -0.00389832 -2.57035)
(0.222522 -0.00652289 -2.5517)
(0.222999 -0.00928673 -2.53318)
(0.223393 -0.0122075 -2.5148)
(0.223695 -0.0153022 -2.49658)
(0.223898 -0.018587 -2.47853)
(0.223998 -0.0220778 -2.46068)
(0.223991 -0.025791 -2.44306)
(0.22388 -0.0297423 -2.42567)
(0.223664 -0.0339541 -2.40835)
(0.223358 -0.0384743 -2.39115)
(0.223196 -0.0436115 -2.37454)
(0.222868 -0.0490067 -2.35963)
(0.222527 -0.0545792 -2.34712)
(0.222122 -0.0604695 -2.32997)
(0.221447 -0.0652472 -2.30101)
)
;

boundaryField
{
    inlet
    {
        type            calculated;
        value           uniform (0.221447 -0.0652472 -2.30101);
    }
    outlet
    {
        type            calculated;
        value           uniform (0.0459211 -0.112938 -4.4948);
    }
    repeat_boundary
    {
        type            calculated;
        value           nonuniform List<vector> 
180
(
(0.0459211 0 -4.4948)
(0.0477181 0 -4.45865)
(0.0505578 0 -4.43213)
(0.0532985 0 -4.40113)
(0.0561005 0 -4.37123)
(0.0589308 0 -4.3397)
(0.0618438 0 -4.30784)
(0.064855 0 -4.27514)
(0.0679896 0 -4.24192)
(0.0712581 0 -4.20809)
(0.0746723 0 -4.17376)
(0.0782345 0 -4.13893)
(0.0819452 0 -4.10367)
(0.0857994 0 -4.06802)
(0.089789 0 -4.03203)
(0.0939022 0 -3.99576)
(0.0981251 0 -3.95927)
(0.102441 0 -3.92264)
(0.106833 0 -3.88595)
(0.111281 0 -3.84929)
(0.115767 0 -3.81274)
(0.120272 0 -3.77641)
(0.124776 0 -3.74038)
(0.129263 0 -3.70477)
(0.133718 0 -3.66967)
(0.138127 0 -3.63518)
(0.142478 0 -3.60137)
(0.146764 0 -3.56834)
(0.15098 0 -3.53614)
(0.155123 0 -3.50482)
(0.159198 0 -3.47439)
(0.163217 0 -3.44486)
(0.167199 0 -3.41635)
(0.171117 0 -3.38868)
(0.174923 0 -3.36177)
(0.178571 0 -3.3356)
(0.182027 0 -3.31011)
(0.185262 0 -3.28528)
(0.18826 0 -3.26109)
(0.191009 0 -3.23751)
(0.193508 0 -3.21453)
(0.195757 0 -3.19212)
(0.197766 0 -3.17028)
(0.199546 0 -3.14898)
(0.201112 0 -3.12821)
(0.202484 0 -3.10792)
(0.20368 0 -3.08809)
(0.204723 0 -3.06867)
(0.205632 0 -3.04963)
(0.20643 0 -3.03092)
(0.207136 0 -3.01249)
(0.207769 0 -2.99429)
(0.208347 0 -2.97626)
(0.208884 0 -2.95837)
(0.209394 0 -2.94056)
(0.20989 0 -2.92278)
(0.210381 0 -2.90501)
(0.210876 0 -2.88719)
(0.211382 0 -2.86931)
(0.211904 0 -2.85133)
(0.212447 0 -2.83324)
(0.213014 0 -2.81503)
(0.213606 0 -2.79668)
(0.214226 0 -2.7782)
(0.214873 0 -2.75959)
(0.215549 0 -2.74085)
(0.21625 0 -2.72199)
(0.216977 0 -2.70303)
(0.217724 0 -2.684)
(0.21848 0 -2.66495)
(0.219234 0 -2.64591)
(0.219973 0 -2.62691)
(0.220684 0 -2.60797)
(0.221353 0 -2.58911)
(0.22197 0 -2.57035)
(0.222522 0 -2.5517)
(0.222999 0 -2.53318)
(0.223393 0 -2.5148)
(0.223695 0 -2.49658)
(0.223898 0 -2.47853)
(0.223998 0 -2.46068)
(0.223991 0 -2.44306)
(0.22388 0 -2.42567)
(0.223664 0 -2.40835)
(0.223358 0 -2.39115)
(0.223196 0 -2.37454)
(0.222868 0 -2.35963)
(0.222527 0 -2.34712)
(0.222122 0 -2.32997)
(0.221447 0 -2.30101)
(0 -0.112938 -4.4948)
(0 -0.11781 -4.45865)
(0 -0.118335 -4.43213)
(0 -0.119936 -4.40113)
(0 -0.120473 -4.37123)
(0 -0.120694 -4.3397)
(0 -0.120365 -4.30784)
(0 -0.119598 -4.27514)
(0 -0.118361 -4.24192)
(0 -0.116678 -4.20809)
(0 -0.114547 -4.17376)
(0 -0.111971 -4.13893)
(0 -0.10895 -4.10367)
(0 -0.105484 -4.06802)
(0 -0.101575 -4.03203)
(0 -0.0972223 -3.99576)
(0 -0.0924322 -3.95927)
(0 -0.0872119 -3.92264)
(0 -0.081574 -3.88595)
(0 -0.075536 -3.84929)
(0 -0.0691218 -3.81274)
(0 -0.0623619 -3.77641)
(0 -0.0552945 -3.74038)
(0 -0.0479656 -3.70477)
(0 -0.0404289 -3.66967)
(0 -0.0327465 -3.63518)
(0 -0.0249886 -3.60137)
(0 -0.0172335 -3.56834)
(0 -0.00956616 -3.53614)
(0 -0.00207681 -3.50482)
(0 0.00513583 -3.47439)
(0 0.0119613 -3.44486)
(0 0.0182851 -3.41635)
(0 0.0240391 -3.38868)
(0 0.0292229 -3.36177)
(0 0.0338678 -3.3356)
(0 0.0380067 -3.31011)
(0 0.0416683 -3.28528)
(0 0.0448767 -3.26109)
(0 0.0476522 -3.23751)
(0 0.0500117 -3.21453)
(0 0.0519704 -3.19212)
(0 0.0535415 -3.17028)
(0 0.0547369 -3.14898)
(0 0.0555674 -3.12821)
(0 0.0560437 -3.10792)
(0 0.0561766 -3.08809)
(0 0.0559791 -3.06867)
(0 0.0554657 -3.04963)
(0 0.0546519 -3.03092)
(0 0.053555 -3.01249)
(0 0.0521937 -2.99429)
(0 0.0505882 -2.97626)
(0 0.0487604 -2.95837)
(0 0.0467333 -2.94056)
(0 0.0445306 -2.92278)
(0 0.0421766 -2.90501)
(0 0.0396954 -2.88719)
(0 0.0371106 -2.86931)
(0 0.0344446 -2.85133)
(0 0.0317191 -2.83324)
(0 0.0289543 -2.81503)
(0 0.02617 -2.79668)
(0 0.0233849 -2.7782)
(0 0.0206173 -2.75959)
(0 0.0178867 -2.74085)
(0 0.0152204 -2.72199)
(0 0.01266 -2.70303)
(0 0.0102398 -2.684)
(0 0.00792104 -2.66495)
(0 0.00563638 -2.64591)
(0 0.0033464 -2.62691)
(0 0.00101279 -2.60797)
(0 -0.00139367 -2.58911)
(0 -0.00389832 -2.57035)
(0 -0.00652289 -2.5517)
(0 -0.00928673 -2.53318)
(0 -0.0122075 -2.5148)
(0 -0.0153022 -2.49658)
(0 -0.018587 -2.47853)
(0 -0.0220778 -2.46068)
(0 -0.025791 -2.44306)
(0 -0.0297423 -2.42567)
(0 -0.0339541 -2.40835)
(0 -0.0384743 -2.39115)
(0 -0.0436115 -2.37454)
(0 -0.0490067 -2.35963)
(0 -0.0545792 -2.34712)
(0 -0.0604695 -2.32997)
(0 -0.0652472 -2.30101)
)
;
    }
    procBoundary1to0
    {
        type            processor;
        value           nonuniform List<vector> 
90
(
(0.0483465 -0.129185 -4.91714)
(0.0496362 -0.134938 -4.90761)
(0.0520617 -0.13983 -4.90017)
(0.0547012 -0.142544 -4.89442)
(0.0573749 -0.145265 -4.8882)
(0.0601506 -0.147316 -4.88207)
(0.0630458 -0.149009 -4.87654)
(0.0660871 -0.150213 -4.87134)
(0.0692889 -0.151017 -4.86675)
(0.0726553 -0.15139 -4.86271)
(0.0761874 -0.151363 -4.85935)
(0.0798741 -0.150935 -4.85668)
(0.0837006 -0.150122 -4.85478)
(0.0876432 -0.148932 -4.85366)
(0.0916734 -0.147383 -4.85336)
(0.0957566 -0.145488 -4.85391)
(0.0998543 -0.143269 -4.85532)
(0.103924 -0.140746 -4.85759)
(0.107922 -0.137947 -4.86072)
(0.111801 -0.1349 -4.86471)
(0.115518 -0.131638 -4.86952)
(0.119026 -0.128196 -4.87513)
(0.122284 -0.124614 -4.8815)
(0.125253 -0.120933 -4.88858)
(0.127898 -0.117197 -4.89631)
(0.130188 -0.113451 -4.90463)
(0.132101 -0.109739 -4.91347)
(0.133618 -0.106109 -4.92275)
(0.134728 -0.102602 -4.93238)
(0.135428 -0.0992608 -4.94229)
(0.135722 -0.0961236 -4.95239)
(0.13563 -0.0932238 -4.96258)
(0.135182 -0.0905865 -4.97278)
(0.134399 -0.0882274 -4.98293)
(0.133285 -0.0861515 -4.99293)
(0.131831 -0.0843541 -5.00272)
(0.130031 -0.082823 -5.01223)
(0.127884 -0.0815401 -5.02137)
(0.125401 -0.0804831 -5.03009)
(0.122597 -0.0796265 -5.03833)
(0.119497 -0.0789437 -5.04603)
(0.116134 -0.0784079 -5.05317)
(0.112544 -0.0779934 -5.05971)
(0.108768 -0.0776773 -5.06563)
(0.10485 -0.0774397 -5.07092)
(0.100834 -0.077265 -5.07559)
(0.096763 -0.0771424 -5.07964)
(0.0926795 -0.0770667 -5.08308)
(0.0886219 -0.0770377 -5.08592)
(0.0846247 -0.0770588 -5.08818)
(0.0807176 -0.0771362 -5.08988)
(0.0769253 -0.0772779 -5.09103)
(0.073267 -0.0774931 -5.09165)
(0.0697564 -0.0777909 -5.09174)
(0.0664024 -0.0781798 -5.09133)
(0.0632089 -0.0786669 -5.0904)
(0.0601763 -0.0792572 -5.08898)
(0.0573012 -0.0799535 -5.08705)
(0.0545783 -0.0807558 -5.08461)
(0.0520005 -0.0816617 -5.08166)
(0.04956 -0.0826661 -5.0782)
(0.047249 -0.083762 -5.07422)
(0.0450601 -0.0849409 -5.06972)
(0.0429869 -0.0861931 -5.06468)
(0.0410238 -0.0875077 -5.05912)
(0.0391666 -0.0888734 -5.05302)
(0.037412 -0.0902831 -5.0464)
(0.0357571 -0.0917414 -5.03924)
(0.0341987 -0.0932465 -5.03157)
(0.0327323 -0.0947438 -5.02336)
(0.0313553 -0.0961928 -5.01464)
(0.0300631 -0.0975775 -5.0054)
(0.0288522 -0.098873 -4.99566)
(0.0277199 -0.100069 -4.98544)
(0.0266638 -0.101149 -4.97474)
(0.0256831 -0.102099 -4.96358)
(0.0247778 -0.102903 -4.95198)
(0.0239491 -0.10354 -4.93994)
(0.0231992 -0.103983 -4.92748)
(0.022531 -0.104204 -4.91461)
(0.0219483 -0.104161 -4.90137)
(0.0214561 -0.103803 -4.88778)
(0.0210617 -0.103057 -4.87388)
(0.0207713 -0.101845 -4.85959)
(0.0205935 -0.100113 -4.84482)
(0.0205611 -0.0978848 -4.83013)
(0.0205556 -0.094683 -4.81663)
(0.0207274 -0.0895156 -4.80448)
(0.0211551 -0.0825634 -4.7867)
(0.0212036 -0.0798092 -4.7641)
)
;
    }
    procBoundary1to3
    {
        type            processor;
        value           nonuniform List<vector> 
90
(
(0.0912105 -0.0692674 -5.3407)
(0.0952702 -0.0717892 -5.33634)
(0.0998804 -0.0739703 -5.33446)
(0.103919 -0.0756869 -5.3313)
(0.108106 -0.0771124 -5.32789)
(0.112145 -0.0782162 -5.32341)
(0.116308 -0.0791121 -5.31834)
(0.120449 -0.0797504 -5.3124)
(0.124716 -0.0801542 -5.30555)
(0.129059 -0.080319 -5.2977)
(0.133538 -0.0802353 -5.28876)
(0.138148 -0.0798904 -5.27861)
(0.14291 -0.0792656 -5.26719)
(0.147825 -0.078338 -5.25436)
(0.152897 -0.0770825 -5.24005)
(0.15812 -0.0754729 -5.22415)
(0.163486 -0.073484 -5.20657)
(0.16898 -0.0710926 -5.18722)
(0.174585 -0.06828 -5.16602)
(0.180277 -0.0650328 -5.14291)
(0.186029 -0.0613447 -5.11785)
(0.191812 -0.0572181 -5.09079)
(0.197594 -0.052665 -5.06173)
(0.203342 -0.047708 -5.03066)
(0.20902 -0.0423809 -4.99763)
(0.214594 -0.0367291 -4.96268)
(0.220028 -0.0308097 -4.92589)
(0.225285 -0.0246913 -4.88737)
(0.23033 -0.0184523 -4.84722)
(0.235127 -0.0121793 -4.80562)
(0.239643 -0.00596898 -4.76276)
(0.243839 6.8105e-05 -4.71883)
(0.247677 0.00581478 -4.67395)
(0.251156 0.0111817 -4.62848)
(0.254298 0.0161401 -4.58269)
(0.257132 0.0207031 -4.5368)
(0.259685 0.0248979 -4.49104)
(0.261978 0.0287534 -4.44561)
(0.264024 0.0322957 -4.40069)
(0.265836 0.0355455 -4.35645)
(0.26742 0.0385187 -4.31302)
(0.268781 0.0412262 -4.27053)
(0.269924 0.0436754 -4.2291)
(0.270853 0.0458707 -4.18882)
(0.271574 0.0478147 -4.14979)
(0.272094 0.0495094 -4.11209)
(0.272422 0.0509572 -4.07577)
(0.272571 0.0521628 -4.04091)
(0.272562 0.0531347 -4.00756)
(0.272415 0.0538846 -3.97575)
(0.272154 0.0544276 -3.94551)
(0.271806 0.0547822 -3.91686)
(0.271397 0.054971 -3.88981)
(0.270959 0.0550195 -3.86434)
(0.270521 0.0549566 -3.84045)
(0.270115 0.0548136 -3.8181)
(0.269772 0.0546237 -3.79726)
(0.269525 0.054421 -3.77788)
(0.269402 0.05424 -3.75991)
(0.269434 0.0541146 -3.74329)
(0.269648 0.0540777 -3.72796)
(0.270068 0.0541611 -3.71385)
(0.270721 0.0543951 -3.70089)
(0.271627 0.0548081 -3.68902)
(0.272809 0.0554274 -3.67817)
(0.274286 0.0562801 -3.66824)
(0.276087 0.0573978 -3.6591)
(0.278269 0.0588223 -3.65071)
(0.280869 0.0605861 -3.64337)
(0.28391 0.0627237 -3.63627)
(0.287255 0.0651742 -3.62972)
(0.290867 0.0679273 -3.62351)
(0.294691 0.0709677 -3.61765)
(0.298701 0.0742925 -3.61207)
(0.302872 0.0779036 -3.60676)
(0.307186 0.0818082 -3.60167)
(0.311628 0.086018 -3.5968)
(0.316182 0.0905483 -3.59213)
(0.320832 0.0954182 -3.58764)
(0.325557 0.10065 -3.58331)
(0.33033 0.10627 -3.57915)
(0.335111 0.112309 -3.57515)
(0.339837 0.118799 -3.57133)
(0.344434 0.125773 -3.56762)
(0.348847 0.133252 -3.56394)
(0.3531 0.141134 -3.56039)
(0.356731 0.149743 -3.55761)
(0.35869 0.159235 -3.55685)
(0.358886 0.169375 -3.55616)
(0.3602 0.175573 -3.54733)
)
;
    }
}


// ************************************************************************* //
