/*--------------------------------*- C++ -*----------------------------------*\
| =========                 |                                                 |
| \\      /  F ield         | OpenFOAM: The Open Source CFD Toolbox           |
|  \\    /   O peration     | Version:  5.x                                   |
|   \\  /    A nd           | Web:      www.OpenFOAM.org                      |
|    \\/     M anipulation  |                                                 |
\*---------------------------------------------------------------------------*/
FoamFile
{
    version     2.0;
    format      ascii;
    class       volScalarField;
    location    "100";
    object      p;
}
// * * * * * * * * * * * * * * * * * * * * * * * * * * * * * * * * * * * * * //

dimensions      [0 2 -2 0 0 0 0];

internalField   nonuniform List<scalar> 
90
(
7.24372e-11
2.46502e-10
4.88966e-10
8.28928e-10
1.30733e-09
1.96581e-09
2.84554e-09
3.98511e-09
5.41783e-09
7.16883e-09
9.25218e-09
1.16686e-08
1.44043e-08
1.74318e-08
2.07128e-08
2.42033e-08
2.78615e-08
3.16565e-08
3.55786e-08
3.96481e-08
4.39226e-08
4.85008e-08
5.35213e-08
5.91563e-08
6.56011e-08
7.30582e-08
8.17212e-08
9.17602e-08
1.03306e-07
1.16382e-07
1.30847e-07
1.46448e-07
1.62733e-07
1.78894e-07
1.92456e-07
1.94477e-07
1.84107e-07
6.52026e-07
5.22478e-06
-1.69696e-05
2.01163e-05
0.000700635
0.00141341
0.00213239
0.00294722
0.00379281
0.00456505
0.00529135
0.00614025
0.00700847
0.00769181
0.00829996
0.00846003
0.00846981
0.00846816
0.0084677
0.00846752
0.0084674
0.00846732
0.00846727
0.00846724
0.00846721
0.00846719
0.00846719
0.00846718
0.00846718
0.00846718
0.00846719
0.00846719
0.00846719
0.00846719
0.0084672
0.0084672
0.0084672
0.0084672
0.0084672
0.0084672
0.0084672
0.0084672
0.0084672
0.0084672
0.0084672
0.0084672
0.0084672
0.0084672
0.0084672
0.0084672
0.0084672
0.0084672
0.0084672
)
;

boundaryField
{
    inlet
    {
        type            zeroGradient;
    }
    outlet
    {
        type            fixedValue;
        value           uniform 0;
    }
    repeat_boundary
    {
        type            zeroGradient;
    }
    procBoundary2to0
    {
        type            processor;
        value           nonuniform List<scalar> 
90
(
7.11449e-11
2.37505e-10
4.63658e-10
7.78875e-10
1.21326e-09
1.79483e-09
2.54888e-09
3.49684e-09
4.65493e-09
6.03213e-09
7.62767e-09
9.42817e-09
1.14048e-08
1.3511e-08
1.56813e-08
1.78316e-08
1.98618e-08
2.16596e-08
2.31055e-08
2.40782e-08
2.44572e-08
2.41226e-08
2.2948e-08
2.0785e-08
1.74391e-08
1.26329e-08
5.95973e-09
-3.18239e-09
-1.57025e-08
-3.27533e-08
-5.62173e-08
-8.78323e-08
-1.29983e-07
-1.85766e-07
-2.59682e-07
-3.59666e-07
-4.73308e-07
-3.18261e-07
1.64063e-06
-1.20514e-05
7.10839e-06
0.000445713
0.00122875
0.00193639
0.00268861
0.00367582
0.00470496
0.00565981
0.00641944
0.00698668
0.00774915
0.00837347
0.00846061
0.00846459
0.00846474
0.00846527
0.00846575
0.00846611
0.00846638
0.00846658
0.00846673
0.00846684
0.00846693
0.00846699
0.00846704
0.00846708
0.00846711
0.00846713
0.00846715
0.00846716
0.00846717
0.00846718
0.00846718
0.00846719
0.00846719
0.00846719
0.00846719
0.00846719
0.00846719
0.00846719
0.00846719
0.0084672
0.0084672
0.0084672
0.0084672
0.0084672
0.0084672
0.0084672
0.0084672
0.0084672
)
;
    }
    procBoundary2to3
    {
        type            processor;
        value           nonuniform List<scalar> 
90
(
6.35214e-11
2.1418e-10
4.23384e-10
7.19555e-10
1.1319e-09
1.6874e-09
2.41013e-09
3.32021e-09
4.43233e-09
5.75365e-09
7.28137e-09
8.99986e-09
1.08779e-08
1.28664e-08
1.48977e-08
1.68858e-08
1.87297e-08
2.03178e-08
2.15342e-08
2.22656e-08
2.24064e-08
2.18611e-08
2.05416e-08
1.83571e-08
1.51941e-08
1.08806e-08
5.12059e-09
-2.36887e-09
-1.05814e-08
-1.90752e-08
-2.96987e-08
-4.26064e-08
-5.77267e-08
-7.46995e-08
-9.33244e-08
-1.16182e-07
-1.26071e-07
2.30968e-07
3.33163e-06
-1.23787e-05
1.14753e-05
0.000543856
0.00124134
0.00209512
0.00313663
0.00395872
0.00467967
0.005408
0.00621011
0.00714995
0.00787285
0.00837187
0.00847061
0.00847093
0.00846962
0.00846902
0.00846863
0.00846833
0.00846808
0.00846789
0.00846774
0.00846762
0.00846753
0.00846746
0.00846741
0.00846736
0.00846733
0.0084673
0.00846727
0.00846726
0.00846724
0.00846723
0.00846722
0.00846722
0.00846721
0.00846721
0.0084672
0.0084672
0.0084672
0.0084672
0.0084672
0.0084672
0.0084672
0.0084672
0.0084672
0.0084672
0.0084672
0.0084672
0.0084672
0.0084672
)
;
    }
}


// ************************************************************************* //
