/*--------------------------------*- C++ -*----------------------------------*\
| =========                 |                                                 |
| \\      /  F ield         | OpenFOAM: The Open Source CFD Toolbox           |
|  \\    /   O peration     | Version:  5.x                                   |
|   \\  /    A nd           | Web:      www.OpenFOAM.org                      |
|    \\/     M anipulation  |                                                 |
\*---------------------------------------------------------------------------*/
FoamFile
{
    version     2.0;
    format      ascii;
    class       volVectorField;
    location    "100";
    object      stored_U;
}
// * * * * * * * * * * * * * * * * * * * * * * * * * * * * * * * * * * * * * //

dimensions      [0 1 -1 0 0 0 0];

internalField   nonuniform List<vector> 
90
(
(6.53754e-10 -6.01438e-10 -0.00100001)
(1.82247e-09 -1.68206e-09 -0.00100001)
(3.13734e-09 -2.89919e-09 -0.00100001)
(4.67709e-09 -4.32729e-09 -0.00100001)
(6.52887e-09 -6.04801e-09 -0.00100001)
(8.80037e-09 -8.16175e-09 -0.00100002)
(1.16157e-08 -1.07834e-08 -0.00100002)
(1.51256e-08 -1.40523e-08 -0.00100003)
(1.95188e-08 -1.81431e-08 -0.00100003)
(2.50365e-08 -2.32794e-08 -0.00100004)
(3.19905e-08 -2.97503e-08 -0.00100005)
(4.07867e-08 -3.79328e-08 -0.00100007)
(5.19544e-08 -4.83192e-08 -0.00100009)
(6.61844e-08 -6.15527e-08 -0.00100012)
(8.43771e-08 -7.84729e-08 -0.00100016)
(1.07706e-07 -1.00175e-07 -0.0010002)
(1.37701e-07 -1.28086e-07 -0.00100026)
(1.76358e-07 -1.64073e-07 -0.00100034)
(2.26285e-07 -2.10574e-07 -0.00100044)
(2.90898e-07 -2.70786e-07 -0.00100057)
(3.74682e-07 -3.48912e-07 -0.00100074)
(4.83537e-07 -4.50484e-07 -0.00100096)
(6.25242e-07 -5.82805e-07 -0.00100123)
(8.10074e-07 -7.55536e-07 -0.00100159)
(1.05163e-06 -9.81472e-07 -0.00100206)
(1.36794e-06 -1.2776e-06 -0.00100266)
(1.78295e-06 -1.6665e-06 -0.00100344)
(2.3285e-06 -2.17828e-06 -0.00100445)
(3.04714e-06 -2.85317e-06 -0.00100577)
(3.99517e-06 -3.74478e-06 -0.0010075)
(5.24645e-06 -4.92282e-06 -0.00100976)
(6.90154e-06 -6.48215e-06 -0.00101271)
(9.09464e-06 -8.55034e-06 -0.0010166)
(1.20054e-05 -1.12981e-05 -0.00102168)
(1.58769e-05 -1.49569e-05 -0.00102833)
(2.11021e-05 -1.99018e-05 -0.00103812)
(2.78542e-05 -2.63005e-05 -0.0010562)
(3.76267e-05 -3.57946e-05 -0.00106899)
(4.93666e-05 -4.78763e-05 -0.000585699)
(2.40021e-05 -7.20533e-06 -0.00255961)
(5.44966e-06 -1.08729e-05 -0.00140799)
(6.51874e-05 -0.00010613 -0.00286098)
(5.80565e-05 -6.52821e-05 -0.00243086)
(1.71152e-05 -8.14568e-05 -0.00309667)
(-5.02241e-05 -7.49907e-05 -0.0023057)
(-5.64827e-05 -4.91817e-05 -0.00313466)
(-3.18104e-05 3.6831e-05 -0.00240957)
(-5.24482e-05 0.000132954 -0.00329276)
(-9.86085e-06 5.69161e-05 -0.00197992)
(-3.67564e-05 -2.51161e-05 -0.0031536)
(-4.46246e-05 -2.00637e-05 -0.00224563)
(-1.87437e-05 5.03257e-06 -0.00201174)
(-0.000185859 -8.60737e-06 -0.00205378)
(-4.72728e-05 2.52981e-05 -0.00136897)
(-1.58774e-05 3.4548e-05 -0.00101623)
(-9.86104e-06 2.68491e-05 -0.00102319)
(-6.42829e-06 2.04041e-05 -0.00102074)
(-4.0631e-06 1.5525e-05 -0.00101544)
(-2.4529e-06 1.18344e-05 -0.00101122)
(-1.37156e-06 9.03804e-06 -0.00100815)
(-6.58445e-07 6.91546e-06 -0.00100592)
(-1.94766e-07 5.29892e-06 -0.00100431)
(9.67006e-08 4.06617e-06 -0.00100313)
(2.7027e-07 3.12513e-06 -0.00100226)
(3.6455e-07 2.40578e-06 -0.00100163)
(4.06513e-07 1.85484e-06 -0.00100116)
(4.11285e-07 1.43364e-06 -0.00100081)
(3.93057e-07 1.11123e-06 -0.00100056)
(3.61431e-07 8.63763e-07 -0.00100039)
(3.2329e-07 6.73172e-07 -0.00100026)
(2.834e-07 5.25854e-07 -0.00100018)
(2.44746e-07 4.11583e-07 -0.00100012)
(2.08988e-07 3.22664e-07 -0.00100008)
(1.76917e-07 2.53277e-07 -0.00100005)
(1.4877e-07 1.99002e-07 -0.00100003)
(1.24456e-07 1.56463e-07 -0.00100002)
(1.03705e-07 1.23073e-07 -0.00100001)
(8.61611e-08 9.6837e-08 -0.00100001)
(7.1443e-08 7.62153e-08 -0.001)
(5.91751e-08 6.00122e-08 -0.000999999)
(4.90086e-08 4.7298e-08 -0.000999997)
(4.06316e-08 3.73473e-08 -0.000999997)
(3.37727e-08 2.95929e-08 -0.000999996)
(2.82016e-08 2.35894e-08 -0.000999996)
(2.37315e-08 1.89923e-08 -0.000999996)
(2.02036e-08 1.55217e-08 -0.000999997)
(1.75009e-08 1.29694e-08 -0.000999997)
(1.55271e-08 1.11688e-08 -0.000999998)
(1.41766e-08 9.96802e-09 -0.000999999)
(1.33207e-08 9.26918e-09 -0.001)
)
;

boundaryField
{
    inlet
    {
        type            calculated;
        value           uniform (1.33207e-08 9.26918e-09 -0.001);
    }
    outlet
    {
        type            calculated;
        value           uniform (6.53754e-10 -6.01438e-10 -0.00100001);
    }
    repeat_boundary
    {
        type            calculated;
        value           nonuniform List<vector> 
180
(
(6.53754e-10 0 -0.00100001)
(1.82247e-09 0 -0.00100001)
(3.13734e-09 0 -0.00100001)
(4.67709e-09 0 -0.00100001)
(6.52887e-09 0 -0.00100001)
(8.80037e-09 0 -0.00100002)
(1.16157e-08 0 -0.00100002)
(1.51256e-08 0 -0.00100003)
(1.95188e-08 0 -0.00100003)
(2.50365e-08 0 -0.00100004)
(3.19905e-08 0 -0.00100005)
(4.07867e-08 0 -0.00100007)
(5.19544e-08 0 -0.00100009)
(6.61844e-08 0 -0.00100012)
(8.43771e-08 0 -0.00100016)
(1.07706e-07 0 -0.0010002)
(1.37701e-07 0 -0.00100026)
(1.76358e-07 0 -0.00100034)
(2.26285e-07 0 -0.00100044)
(2.90898e-07 0 -0.00100057)
(3.74682e-07 0 -0.00100074)
(4.83537e-07 0 -0.00100096)
(6.25242e-07 0 -0.00100123)
(8.10074e-07 0 -0.00100159)
(1.05163e-06 0 -0.00100206)
(1.36794e-06 0 -0.00100266)
(1.78295e-06 0 -0.00100344)
(2.3285e-06 0 -0.00100445)
(3.04714e-06 0 -0.00100577)
(3.99517e-06 0 -0.0010075)
(5.24645e-06 0 -0.00100976)
(6.90154e-06 0 -0.00101271)
(9.09464e-06 0 -0.0010166)
(1.20054e-05 0 -0.00102168)
(1.58769e-05 0 -0.00102833)
(2.11021e-05 0 -0.00103812)
(2.78542e-05 0 -0.0010562)
(3.76267e-05 0 -0.00106899)
(4.93666e-05 0 -0.000585699)
(2.40021e-05 0 -0.00255961)
(5.44966e-06 0 -0.00140799)
(6.51874e-05 0 -0.00286098)
(5.80565e-05 0 -0.00243086)
(1.71152e-05 0 -0.00309667)
(-5.02241e-05 0 -0.0023057)
(-5.64827e-05 0 -0.00313466)
(-3.18104e-05 0 -0.00240957)
(-5.24482e-05 0 -0.00329276)
(-9.86085e-06 0 -0.00197992)
(-3.67564e-05 0 -0.0031536)
(-4.46246e-05 0 -0.00224563)
(-1.87437e-05 0 -0.00201174)
(-0.000185859 0 -0.00205378)
(-4.72728e-05 0 -0.00136897)
(-1.58774e-05 0 -0.00101623)
(-9.86104e-06 0 -0.00102319)
(-6.42829e-06 0 -0.00102074)
(-4.0631e-06 0 -0.00101544)
(-2.4529e-06 0 -0.00101122)
(-1.37156e-06 0 -0.00100815)
(-6.58445e-07 0 -0.00100592)
(-1.94766e-07 0 -0.00100431)
(9.67006e-08 0 -0.00100313)
(2.7027e-07 0 -0.00100226)
(3.6455e-07 0 -0.00100163)
(4.06513e-07 0 -0.00100116)
(4.11285e-07 0 -0.00100081)
(3.93057e-07 0 -0.00100056)
(3.61431e-07 0 -0.00100039)
(3.2329e-07 0 -0.00100026)
(2.834e-07 0 -0.00100018)
(2.44746e-07 0 -0.00100012)
(2.08988e-07 0 -0.00100008)
(1.76917e-07 0 -0.00100005)
(1.4877e-07 0 -0.00100003)
(1.24456e-07 0 -0.00100002)
(1.03705e-07 0 -0.00100001)
(8.61611e-08 0 -0.00100001)
(7.1443e-08 0 -0.001)
(5.91751e-08 0 -0.000999999)
(4.90086e-08 0 -0.000999997)
(4.06316e-08 0 -0.000999997)
(3.37727e-08 0 -0.000999996)
(2.82016e-08 0 -0.000999996)
(2.37315e-08 0 -0.000999996)
(2.02036e-08 0 -0.000999997)
(1.75009e-08 0 -0.000999997)
(1.55271e-08 0 -0.000999998)
(1.41766e-08 0 -0.000999999)
(1.33207e-08 0 -0.001)
(0 -6.01438e-10 -0.00100001)
(0 -1.68206e-09 -0.00100001)
(0 -2.89919e-09 -0.00100001)
(0 -4.32729e-09 -0.00100001)
(0 -6.04801e-09 -0.00100001)
(0 -8.16175e-09 -0.00100002)
(0 -1.07834e-08 -0.00100002)
(0 -1.40523e-08 -0.00100003)
(0 -1.81431e-08 -0.00100003)
(0 -2.32794e-08 -0.00100004)
(0 -2.97503e-08 -0.00100005)
(0 -3.79328e-08 -0.00100007)
(0 -4.83192e-08 -0.00100009)
(0 -6.15527e-08 -0.00100012)
(0 -7.84729e-08 -0.00100016)
(0 -1.00175e-07 -0.0010002)
(0 -1.28086e-07 -0.00100026)
(0 -1.64073e-07 -0.00100034)
(0 -2.10574e-07 -0.00100044)
(0 -2.70786e-07 -0.00100057)
(0 -3.48912e-07 -0.00100074)
(0 -4.50484e-07 -0.00100096)
(0 -5.82805e-07 -0.00100123)
(0 -7.55536e-07 -0.00100159)
(0 -9.81472e-07 -0.00100206)
(0 -1.2776e-06 -0.00100266)
(0 -1.6665e-06 -0.00100344)
(0 -2.17828e-06 -0.00100445)
(0 -2.85317e-06 -0.00100577)
(0 -3.74478e-06 -0.0010075)
(0 -4.92282e-06 -0.00100976)
(0 -6.48215e-06 -0.00101271)
(0 -8.55034e-06 -0.0010166)
(0 -1.12981e-05 -0.00102168)
(0 -1.49569e-05 -0.00102833)
(0 -1.99018e-05 -0.00103812)
(0 -2.63005e-05 -0.0010562)
(0 -3.57946e-05 -0.00106899)
(0 -4.78763e-05 -0.000585699)
(0 -7.20533e-06 -0.00255961)
(0 -1.08729e-05 -0.00140799)
(0 -0.00010613 -0.00286098)
(0 -6.52821e-05 -0.00243086)
(0 -8.14568e-05 -0.00309667)
(0 -7.49907e-05 -0.0023057)
(0 -4.91817e-05 -0.00313466)
(0 3.6831e-05 -0.00240957)
(0 0.000132954 -0.00329276)
(0 5.69161e-05 -0.00197992)
(0 -2.51161e-05 -0.0031536)
(0 -2.00637e-05 -0.00224563)
(0 5.03257e-06 -0.00201174)
(0 -8.60737e-06 -0.00205378)
(0 2.52981e-05 -0.00136897)
(0 3.4548e-05 -0.00101623)
(0 2.68491e-05 -0.00102319)
(0 2.04041e-05 -0.00102074)
(0 1.5525e-05 -0.00101544)
(0 1.18344e-05 -0.00101122)
(0 9.03804e-06 -0.00100815)
(0 6.91546e-06 -0.00100592)
(0 5.29892e-06 -0.00100431)
(0 4.06617e-06 -0.00100313)
(0 3.12513e-06 -0.00100226)
(0 2.40578e-06 -0.00100163)
(0 1.85484e-06 -0.00100116)
(0 1.43364e-06 -0.00100081)
(0 1.11123e-06 -0.00100056)
(0 8.63763e-07 -0.00100039)
(0 6.73172e-07 -0.00100026)
(0 5.25854e-07 -0.00100018)
(0 4.11583e-07 -0.00100012)
(0 3.22664e-07 -0.00100008)
(0 2.53277e-07 -0.00100005)
(0 1.99002e-07 -0.00100003)
(0 1.56463e-07 -0.00100002)
(0 1.23073e-07 -0.00100001)
(0 9.6837e-08 -0.00100001)
(0 7.62153e-08 -0.001)
(0 6.00122e-08 -0.000999999)
(0 4.7298e-08 -0.000999997)
(0 3.73473e-08 -0.000999997)
(0 2.95929e-08 -0.000999996)
(0 2.35894e-08 -0.000999996)
(0 1.89923e-08 -0.000999996)
(0 1.55217e-08 -0.000999997)
(0 1.29694e-08 -0.000999997)
(0 1.11688e-08 -0.000999998)
(0 9.96802e-09 -0.000999999)
(0 9.26918e-09 -0.001)
)
;
    }
    procBoundary2to0
    {
        type            processor;
        value           nonuniform List<vector> 
90
(
(6.27182e-10 -6.0115e-10 -0.000999999)
(1.7247e-09 -1.68092e-09 -0.000999999)
(2.90687e-09 -2.9007e-09 -0.000999998)
(4.18953e-09 -4.32744e-09 -0.000999997)
(5.62886e-09 -6.04901e-09 -0.000999995)
(7.29348e-09 -8.16323e-09 -0.000999993)
(9.27007e-09 -1.07809e-08 -0.000999991)
(1.16629e-08 -1.40522e-08 -0.000999989)
(1.4594e-08 -1.81431e-08 -0.000999986)
(1.82082e-08 -2.32794e-08 -0.000999983)
(2.26729e-08 -2.97503e-08 -0.00099998)
(2.81796e-08 -3.79327e-08 -0.000999977)
(3.49448e-08 -4.83191e-08 -0.000999973)
(4.32106e-08 -6.15527e-08 -0.000999968)
(5.3243e-08 -7.84728e-08 -0.000999962)
(6.5328e-08 -1.00174e-07 -0.000999954)
(7.97618e-08 -1.28086e-07 -0.000999943)
(9.68325e-08 -1.64072e-07 -0.000999929)
(1.16788e-07 -2.10572e-07 -0.000999908)
(1.39782e-07 -2.70784e-07 -0.00099988)
(1.65792e-07 -3.48909e-07 -0.00099984)
(1.94492e-07 -4.50479e-07 -0.000999785)
(2.25061e-07 -5.82797e-07 -0.000999706)
(2.55907e-07 -7.5552e-07 -0.000999596)
(2.84261e-07 -9.81445e-07 -0.000999441)
(3.05593e-07 -1.27755e-06 -0.000999225)
(3.12765e-07 -1.66642e-06 -0.000998924)
(2.94779e-07 -2.17813e-06 -0.000998504)
(2.34818e-07 -2.85291e-06 -0.000997922)
(1.08854e-07 -3.74432e-06 -0.000997125)
(-1.12932e-07 -4.92199e-06 -0.000996036)
(-4.79533e-07 -6.48065e-06 -0.000994533)
(-1.06214e-06 -8.54759e-06 -0.000992461)
(-1.96106e-06 -1.12929e-05 -0.000989605)
(-3.31668e-06 -1.49429e-05 -0.000985689)
(-5.31804e-06 -1.97899e-05 -0.000980896)
(-8.28806e-06 -2.63167e-05 -0.000977326)
(-1.30397e-05 -3.57733e-05 -0.000954612)
(-1.99419e-05 -4.80903e-05 -0.000627542)
(6.19205e-06 -7.73725e-06 -0.00191317)
(-1.12705e-05 -1.32408e-05 -0.00167036)
(-4.66352e-05 -0.000102617 -0.00167455)
(-2.9349e-05 -5.26797e-05 -0.00233974)
(-7.13053e-05 -5.74331e-05 -0.00225042)
(-8.27843e-05 -7.09961e-05 -0.00235918)
(-4.45449e-05 -2.70394e-05 -0.00191572)
(-4.71381e-05 2.92768e-05 -0.0025482)
(-3.86342e-06 6.81401e-05 -0.00180815)
(4.20948e-05 7.49788e-05 -0.00230714)
(-3.28243e-05 -1.98981e-05 -0.00239809)
(-3.95122e-05 -3.31784e-06 -0.00143285)
(2.47474e-05 0.000177959 -0.00186162)
(0.000139261 0.000124783 -0.00173175)
(4.02806e-05 1.61407e-05 -0.00111658)
(3.6871e-05 3.41191e-05 -0.000924038)
(2.80601e-05 2.68556e-05 -0.000949355)
(2.14295e-05 2.04273e-05 -0.000963932)
(1.64131e-05 1.55385e-05 -0.000972402)
(1.25967e-05 1.18419e-05 -0.000978644)
(9.68757e-06 9.04229e-06 -0.00098345)
(7.46589e-06 6.91787e-06 -0.000987153)
(5.76628e-06 5.30029e-06 -0.00099001)
(4.46311e-06 4.06695e-06 -0.000992218)
(3.46131e-06 3.12557e-06 -0.000993927)
(2.68928e-06 2.40604e-06 -0.000995251)
(2.09317e-06 1.85499e-06 -0.00099628)
(1.63214e-06 1.43373e-06 -0.00099708)
(1.27446e-06 1.11129e-06 -0.000997702)
(9.96886e-07 8.63794e-07 -0.000998189)
(7.81271e-07 6.7319e-07 -0.000998569)
(6.13422e-07 5.25864e-07 -0.000998867)
(4.82407e-07 4.11589e-07 -0.000999101)
(3.79867e-07 3.22668e-07 -0.000999286)
(2.99416e-07 2.53279e-07 -0.000999432)
(2.36165e-07 1.99003e-07 -0.000999548)
(1.86357e-07 1.56464e-07 -0.000999639)
(1.47092e-07 1.23073e-07 -0.000999712)
(1.16116e-07 9.68373e-08 -0.00099977)
(9.16798e-08 7.62155e-08 -0.000999817)
(7.24134e-08 6.00123e-08 -0.000999854)
(5.72464e-08 4.72981e-08 -0.000999884)
(4.53387e-08 3.73474e-08 -0.000999908)
(3.60304e-08 2.9593e-08 -0.000999927)
(2.88026e-08 2.35905e-08 -0.000999943)
(2.32471e-08 1.89912e-08 -0.000999956)
(1.90443e-08 1.55217e-08 -0.000999967)
(1.59461e-08 1.29694e-08 -0.000999975)
(1.37604e-08 1.11682e-08 -0.000999983)
(1.23127e-08 9.9687e-09 -0.00099999)
(1.14612e-08 9.26923e-09 -0.000999996)
)
;
    }
    procBoundary2to3
    {
        type            processor;
        value           nonuniform List<vector> 
90
(
(6.53421e-10 -5.74912e-10 -0.000999998)
(1.82115e-09 -1.58447e-09 -0.000999998)
(3.13906e-09 -2.6685e-09 -0.000999997)
(4.67715e-09 -3.83967e-09 -0.000999995)
(6.52902e-09 -5.14758e-09 -0.000999994)
(8.80162e-09 -6.65485e-09 -0.000999991)
(1.16143e-08 -8.4383e-09 -0.000999989)
(1.51255e-08 -1.05896e-08 -0.000999986)
(1.95188e-08 -1.32183e-08 -0.000999983)
(2.50365e-08 -1.64511e-08 -0.000999979)
(3.19905e-08 -2.04326e-08 -0.000999975)
(4.07867e-08 -2.53256e-08 -0.00099997)
(5.19544e-08 -3.13096e-08 -0.000999964)
(6.61843e-08 -3.8579e-08 -0.000999956)
(8.43769e-08 -4.73389e-08 -0.000999947)
(1.07706e-07 -5.77967e-08 -0.000999935)
(1.37701e-07 -7.01472e-08 -0.000999919)
(1.76357e-07 -8.45477e-08 -0.000999898)
(2.26283e-07 -1.01077e-07 -0.000999869)
(2.90896e-07 -1.1967e-07 -0.00099983)
(3.74679e-07 -1.40022e-07 -0.000999776)
(4.83532e-07 -1.61439e-07 -0.000999701)
(6.25233e-07 -1.82624e-07 -0.000999598)
(8.10057e-07 -2.01369e-07 -0.000999457)
(1.0516e-06 -2.14103e-07 -0.000999262)
(1.36789e-06 -2.15253e-07 -0.000998993)
(1.78286e-06 -1.96326e-07 -0.000998624)
(2.32835e-06 -1.44562e-07 -0.000998116)
(3.04687e-06 -4.08553e-08 -0.00099742)
(3.99468e-06 1.41516e-07 -0.000996476)
(5.24558e-06 4.36533e-07 -0.00099519)
(6.89995e-06 8.98859e-07 -0.000993429)
(9.09175e-06 1.60635e-06 -0.00099102)
(1.19999e-05 2.66812e-06 -0.000987724)
(1.58624e-05 4.23638e-06 -0.000983227)
(2.09879e-05 6.51654e-06 -0.000977731)
(2.78661e-05 9.84e-06 -0.000974219)
(3.76247e-05 1.48775e-05 -0.000955945)
(4.9525e-05 2.13789e-05 -0.000562214)
(2.49653e-05 1.09885e-05 -0.00202569)
(7.43062e-06 6.5988e-06 -0.0015473)
(4.22169e-05 1.25719e-05 -0.00173085)
(5.96555e-05 3.01955e-05 -0.00272312)
(2.59444e-06 8.97555e-06 -0.00176606)
(-5.24315e-05 -4.20783e-05 -0.0025447)
(-4.50196e-05 -1.87733e-05 -0.00217974)
(-3.35357e-05 6.75569e-05 -0.00238591)
(-3.39986e-05 6.30213e-05 -0.00211727)
(-1.75633e-05 1.97502e-05 -0.0025253)
(-1.84866e-05 -2.1505e-05 -0.00178029)
(7.11218e-06 -7.91946e-05 -0.00249081)
(-0.000106298 -0.000100988 -0.00136373)
(-0.000149793 -6.66037e-05 -0.00187591)
(-6.18721e-05 1.84023e-06 -0.00115937)
(-1.6916e-05 -1.48871e-05 -0.000976854)
(-9.93494e-06 -1.10334e-05 -0.00098347)
(-6.44587e-06 -7.44944e-06 -0.000991815)
(-4.0683e-06 -4.94169e-06 -0.000995525)
(-2.45554e-06 -3.20951e-06 -0.000997741)
(-1.37295e-06 -2.01769e-06 -0.000999166)
(-6.5918e-07 -1.20686e-06 -0.00100004)
(-1.95161e-07 -6.60928e-07 -0.00100054)
(9.65974e-08 -2.99382e-07 -0.00100081)
(2.70031e-07 -6.56604e-08 -0.00100093)
(3.64479e-07 8.12931e-08 -0.00100095)
(4.06472e-07 1.68327e-07 -0.00100093)
(4.1126e-07 2.12876e-07 -0.00100088)
(3.93041e-07 2.29879e-07 -0.00100082)
(3.61421e-07 2.28336e-07 -0.00100074)
(3.23283e-07 2.15206e-07 -0.00100066)
(2.83396e-07 1.95841e-07 -0.00100057)
(2.44743e-07 1.73927e-07 -0.0010005)
(2.08986e-07 1.51787e-07 -0.00100042)
(1.76915e-07 1.30779e-07 -0.00100036)
(1.48769e-07 1.11608e-07 -0.0010003)
(1.24455e-07 9.4562e-08 -0.00100025)
(1.03704e-07 7.9686e-08 -0.0010002)
(8.61609e-08 6.68819e-08 -0.00100017)
(7.14429e-08 5.59786e-08 -0.00100014)
(5.9175e-08 4.67739e-08 -0.00100011)
(4.90086e-08 3.90603e-08 -0.00100009)
(4.06316e-08 3.26403e-08 -0.00100007)
(3.37728e-08 2.73354e-08 -0.00100006)
(2.82025e-08 2.29904e-08 -0.00100005)
(2.37305e-08 1.94745e-08 -0.00100004)
(2.02035e-08 1.66809e-08 -0.00100003)
(1.7501e-08 1.45243e-08 -0.00100002)
(1.55274e-08 1.29353e-08 -0.00100001)
(1.41763e-08 1.18323e-08 -0.00100001)
(1.33207e-08 1.11288e-08 -0.001)
)
;
    }
}


// ************************************************************************* //
