/*--------------------------------*- C++ -*----------------------------------*\
| =========                 |                                                 |
| \\      /  F ield         | OpenFOAM: The Open Source CFD Toolbox           |
|  \\    /   O peration     | Version:  5.x                                   |
|   \\  /    A nd           | Web:      www.OpenFOAM.org                      |
|    \\/     M anipulation  |                                                 |
\*---------------------------------------------------------------------------*/
FoamFile
{
    version     2.0;
    format      ascii;
    class       volVectorField;
    location    "600";
    object      stored_U;
}
// * * * * * * * * * * * * * * * * * * * * * * * * * * * * * * * * * * * * * //

dimensions      [0 1 -1 0 0 0 0];

internalField   nonuniform List<vector> 
90
(
(0.0483465 -0.129185 -4.91714)
(0.0496362 -0.134938 -4.90761)
(0.0520617 -0.13983 -4.90017)
(0.0547012 -0.142544 -4.89442)
(0.0573749 -0.145265 -4.8882)
(0.0601506 -0.147316 -4.88207)
(0.0630458 -0.149009 -4.87654)
(0.0660871 -0.150213 -4.87134)
(0.0692889 -0.151017 -4.86675)
(0.0726553 -0.15139 -4.86271)
(0.0761874 -0.151363 -4.85935)
(0.0798741 -0.150935 -4.85668)
(0.0837006 -0.150122 -4.85478)
(0.0876432 -0.148932 -4.85366)
(0.0916734 -0.147383 -4.85336)
(0.0957566 -0.145488 -4.85391)
(0.0998543 -0.143269 -4.85532)
(0.103924 -0.140746 -4.85759)
(0.107922 -0.137947 -4.86072)
(0.111801 -0.1349 -4.86471)
(0.115518 -0.131638 -4.86952)
(0.119026 -0.128196 -4.87513)
(0.122284 -0.124614 -4.8815)
(0.125253 -0.120933 -4.88858)
(0.127898 -0.117197 -4.89631)
(0.130188 -0.113451 -4.90463)
(0.132101 -0.109739 -4.91347)
(0.133618 -0.106109 -4.92275)
(0.134728 -0.102602 -4.93238)
(0.135428 -0.0992608 -4.94229)
(0.135722 -0.0961236 -4.95239)
(0.13563 -0.0932238 -4.96258)
(0.135182 -0.0905865 -4.97278)
(0.134399 -0.0882274 -4.98293)
(0.133285 -0.0861515 -4.99293)
(0.131831 -0.0843541 -5.00272)
(0.130031 -0.082823 -5.01223)
(0.127884 -0.0815401 -5.02137)
(0.125401 -0.0804831 -5.03009)
(0.122597 -0.0796265 -5.03833)
(0.119497 -0.0789437 -5.04603)
(0.116134 -0.0784079 -5.05317)
(0.112544 -0.0779934 -5.05971)
(0.108768 -0.0776773 -5.06563)
(0.10485 -0.0774397 -5.07092)
(0.100834 -0.077265 -5.07559)
(0.096763 -0.0771424 -5.07964)
(0.0926795 -0.0770667 -5.08308)
(0.0886219 -0.0770377 -5.08592)
(0.0846247 -0.0770588 -5.08818)
(0.0807176 -0.0771362 -5.08988)
(0.0769253 -0.0772779 -5.09103)
(0.073267 -0.0774931 -5.09165)
(0.0697564 -0.0777909 -5.09174)
(0.0664024 -0.0781798 -5.09133)
(0.0632089 -0.0786669 -5.0904)
(0.0601763 -0.0792572 -5.08898)
(0.0573012 -0.0799535 -5.08705)
(0.0545783 -0.0807558 -5.08461)
(0.0520005 -0.0816617 -5.08166)
(0.04956 -0.0826661 -5.0782)
(0.047249 -0.083762 -5.07422)
(0.0450601 -0.0849409 -5.06972)
(0.0429869 -0.0861931 -5.06468)
(0.0410238 -0.0875077 -5.05912)
(0.0391666 -0.0888734 -5.05302)
(0.037412 -0.0902831 -5.0464)
(0.0357571 -0.0917414 -5.03924)
(0.0341987 -0.0932465 -5.03157)
(0.0327323 -0.0947438 -5.02336)
(0.0313553 -0.0961928 -5.01464)
(0.0300631 -0.0975775 -5.0054)
(0.0288522 -0.098873 -4.99566)
(0.0277199 -0.100069 -4.98544)
(0.0266638 -0.101149 -4.97474)
(0.0256831 -0.102099 -4.96358)
(0.0247778 -0.102903 -4.95198)
(0.0239491 -0.10354 -4.93994)
(0.0231992 -0.103983 -4.92748)
(0.022531 -0.104204 -4.91461)
(0.0219483 -0.104161 -4.90137)
(0.0214561 -0.103803 -4.88778)
(0.0210617 -0.103057 -4.87388)
(0.0207713 -0.101845 -4.85959)
(0.0205935 -0.100113 -4.84482)
(0.0205611 -0.0978848 -4.83013)
(0.0205556 -0.094683 -4.81663)
(0.0207274 -0.0895156 -4.80448)
(0.0211551 -0.0825634 -4.7867)
(0.0212036 -0.0798092 -4.7641)
)
;

boundaryField
{
    inlet
    {
        type            calculated;
        value           uniform (0.0212036 -0.0798092 -4.7641);
    }
    outlet
    {
        type            calculated;
        value           uniform (0.0483465 -0.129185 -4.91714);
    }
    repeat_boundary
    {
        type            calculated;
        value           nonuniform List<vector> 
180
(
(0.0483465 0 -4.91714)
(0.0496362 0 -4.90761)
(0.0520617 0 -4.90017)
(0.0547012 0 -4.89442)
(0.0573749 0 -4.8882)
(0.0601506 0 -4.88207)
(0.0630458 0 -4.87654)
(0.0660871 0 -4.87134)
(0.0692889 0 -4.86675)
(0.0726553 0 -4.86271)
(0.0761874 0 -4.85935)
(0.0798741 0 -4.85668)
(0.0837006 0 -4.85478)
(0.0876432 0 -4.85366)
(0.0916734 0 -4.85336)
(0.0957566 0 -4.85391)
(0.0998543 0 -4.85532)
(0.103924 0 -4.85759)
(0.107922 0 -4.86072)
(0.111801 0 -4.86471)
(0.115518 0 -4.86952)
(0.119026 0 -4.87513)
(0.122284 0 -4.8815)
(0.125253 0 -4.88858)
(0.127898 0 -4.89631)
(0.130188 0 -4.90463)
(0.132101 0 -4.91347)
(0.133618 0 -4.92275)
(0.134728 0 -4.93238)
(0.135428 0 -4.94229)
(0.135722 0 -4.95239)
(0.13563 0 -4.96258)
(0.135182 0 -4.97278)
(0.134399 0 -4.98293)
(0.133285 0 -4.99293)
(0.131831 0 -5.00272)
(0.130031 0 -5.01223)
(0.127884 0 -5.02137)
(0.125401 0 -5.03009)
(0.122597 0 -5.03833)
(0.119497 0 -5.04603)
(0.116134 0 -5.05317)
(0.112544 0 -5.05971)
(0.108768 0 -5.06563)
(0.10485 0 -5.07092)
(0.100834 0 -5.07559)
(0.096763 0 -5.07964)
(0.0926795 0 -5.08308)
(0.0886219 0 -5.08592)
(0.0846247 0 -5.08818)
(0.0807176 0 -5.08988)
(0.0769253 0 -5.09103)
(0.073267 0 -5.09165)
(0.0697564 0 -5.09174)
(0.0664024 0 -5.09133)
(0.0632089 0 -5.0904)
(0.0601763 0 -5.08898)
(0.0573012 0 -5.08705)
(0.0545783 0 -5.08461)
(0.0520005 0 -5.08166)
(0.04956 0 -5.0782)
(0.047249 0 -5.07422)
(0.0450601 0 -5.06972)
(0.0429869 0 -5.06468)
(0.0410238 0 -5.05912)
(0.0391666 0 -5.05302)
(0.037412 0 -5.0464)
(0.0357571 0 -5.03924)
(0.0341987 0 -5.03157)
(0.0327323 0 -5.02336)
(0.0313553 0 -5.01464)
(0.0300631 0 -5.0054)
(0.0288522 0 -4.99566)
(0.0277199 0 -4.98544)
(0.0266638 0 -4.97474)
(0.0256831 0 -4.96358)
(0.0247778 0 -4.95198)
(0.0239491 0 -4.93994)
(0.0231992 0 -4.92748)
(0.022531 0 -4.91461)
(0.0219483 0 -4.90137)
(0.0214561 0 -4.88778)
(0.0210617 0 -4.87388)
(0.0207713 0 -4.85959)
(0.0205935 0 -4.84482)
(0.0205611 0 -4.83013)
(0.0205556 0 -4.81663)
(0.0207274 0 -4.80448)
(0.0211551 0 -4.7867)
(0.0212036 0 -4.7641)
(0 -0.129185 -4.91714)
(0 -0.134938 -4.90761)
(0 -0.13983 -4.90017)
(0 -0.142544 -4.89442)
(0 -0.145265 -4.8882)
(0 -0.147316 -4.88207)
(0 -0.149009 -4.87654)
(0 -0.150213 -4.87134)
(0 -0.151017 -4.86675)
(0 -0.15139 -4.86271)
(0 -0.151363 -4.85935)
(0 -0.150935 -4.85668)
(0 -0.150122 -4.85478)
(0 -0.148932 -4.85366)
(0 -0.147383 -4.85336)
(0 -0.145488 -4.85391)
(0 -0.143269 -4.85532)
(0 -0.140746 -4.85759)
(0 -0.137947 -4.86072)
(0 -0.1349 -4.86471)
(0 -0.131638 -4.86952)
(0 -0.128196 -4.87513)
(0 -0.124614 -4.8815)
(0 -0.120933 -4.88858)
(0 -0.117197 -4.89631)
(0 -0.113451 -4.90463)
(0 -0.109739 -4.91347)
(0 -0.106109 -4.92275)
(0 -0.102602 -4.93238)
(0 -0.0992608 -4.94229)
(0 -0.0961236 -4.95239)
(0 -0.0932238 -4.96258)
(0 -0.0905865 -4.97278)
(0 -0.0882274 -4.98293)
(0 -0.0861515 -4.99293)
(0 -0.0843541 -5.00272)
(0 -0.082823 -5.01223)
(0 -0.0815401 -5.02137)
(0 -0.0804831 -5.03009)
(0 -0.0796265 -5.03833)
(0 -0.0789437 -5.04603)
(0 -0.0784079 -5.05317)
(0 -0.0779934 -5.05971)
(0 -0.0776773 -5.06563)
(0 -0.0774397 -5.07092)
(0 -0.077265 -5.07559)
(0 -0.0771424 -5.07964)
(0 -0.0770667 -5.08308)
(0 -0.0770377 -5.08592)
(0 -0.0770588 -5.08818)
(0 -0.0771362 -5.08988)
(0 -0.0772779 -5.09103)
(0 -0.0774931 -5.09165)
(0 -0.0777909 -5.09174)
(0 -0.0781798 -5.09133)
(0 -0.0786669 -5.0904)
(0 -0.0792572 -5.08898)
(0 -0.0799535 -5.08705)
(0 -0.0807558 -5.08461)
(0 -0.0816617 -5.08166)
(0 -0.0826661 -5.0782)
(0 -0.083762 -5.07422)
(0 -0.0849409 -5.06972)
(0 -0.0861931 -5.06468)
(0 -0.0875077 -5.05912)
(0 -0.0888734 -5.05302)
(0 -0.0902831 -5.0464)
(0 -0.0917414 -5.03924)
(0 -0.0932465 -5.03157)
(0 -0.0947438 -5.02336)
(0 -0.0961928 -5.01464)
(0 -0.0975775 -5.0054)
(0 -0.098873 -4.99566)
(0 -0.100069 -4.98544)
(0 -0.101149 -4.97474)
(0 -0.102099 -4.96358)
(0 -0.102903 -4.95198)
(0 -0.10354 -4.93994)
(0 -0.103983 -4.92748)
(0 -0.104204 -4.91461)
(0 -0.104161 -4.90137)
(0 -0.103803 -4.88778)
(0 -0.103057 -4.87388)
(0 -0.101845 -4.85959)
(0 -0.100113 -4.84482)
(0 -0.0978848 -4.83013)
(0 -0.094683 -4.81663)
(0 -0.0895156 -4.80448)
(0 -0.0825634 -4.7867)
(0 -0.0798092 -4.7641)
)
;
    }
    procBoundary0to1
    {
        type            processor;
        value           nonuniform List<vector> 
90
(
(0.0459211 -0.112938 -4.4948)
(0.0477181 -0.11781 -4.45865)
(0.0505578 -0.118335 -4.43213)
(0.0532985 -0.119936 -4.40113)
(0.0561005 -0.120473 -4.37123)
(0.0589308 -0.120694 -4.3397)
(0.0618438 -0.120365 -4.30784)
(0.064855 -0.119598 -4.27514)
(0.0679896 -0.118361 -4.24192)
(0.0712581 -0.116678 -4.20809)
(0.0746723 -0.114547 -4.17376)
(0.0782345 -0.111971 -4.13893)
(0.0819452 -0.10895 -4.10367)
(0.0857994 -0.105484 -4.06802)
(0.089789 -0.101575 -4.03203)
(0.0939022 -0.0972223 -3.99576)
(0.0981251 -0.0924322 -3.95927)
(0.102441 -0.0872119 -3.92264)
(0.106833 -0.081574 -3.88595)
(0.111281 -0.075536 -3.84929)
(0.115767 -0.0691218 -3.81274)
(0.120272 -0.0623619 -3.77641)
(0.124776 -0.0552945 -3.74038)
(0.129263 -0.0479656 -3.70477)
(0.133718 -0.0404289 -3.66967)
(0.138127 -0.0327465 -3.63518)
(0.142478 -0.0249886 -3.60137)
(0.146764 -0.0172335 -3.56834)
(0.15098 -0.00956616 -3.53614)
(0.155123 -0.00207681 -3.50482)
(0.159198 0.00513583 -3.47439)
(0.163217 0.0119613 -3.44486)
(0.167199 0.0182851 -3.41635)
(0.171117 0.0240391 -3.38868)
(0.174923 0.0292229 -3.36177)
(0.178571 0.0338678 -3.3356)
(0.182027 0.0380067 -3.31011)
(0.185262 0.0416683 -3.28528)
(0.18826 0.0448767 -3.26109)
(0.191009 0.0476522 -3.23751)
(0.193508 0.0500117 -3.21453)
(0.195757 0.0519704 -3.19212)
(0.197766 0.0535415 -3.17028)
(0.199546 0.0547369 -3.14898)
(0.201112 0.0555674 -3.12821)
(0.202484 0.0560437 -3.10792)
(0.20368 0.0561766 -3.08809)
(0.204723 0.0559791 -3.06867)
(0.205632 0.0554657 -3.04963)
(0.20643 0.0546519 -3.03092)
(0.207136 0.053555 -3.01249)
(0.207769 0.0521937 -2.99429)
(0.208347 0.0505882 -2.97626)
(0.208884 0.0487604 -2.95837)
(0.209394 0.0467333 -2.94056)
(0.20989 0.0445306 -2.92278)
(0.210381 0.0421766 -2.90501)
(0.210876 0.0396954 -2.88719)
(0.211382 0.0371106 -2.86931)
(0.211904 0.0344446 -2.85133)
(0.212447 0.0317191 -2.83324)
(0.213014 0.0289543 -2.81503)
(0.213606 0.02617 -2.79668)
(0.214226 0.0233849 -2.7782)
(0.214873 0.0206173 -2.75959)
(0.215549 0.0178867 -2.74085)
(0.21625 0.0152204 -2.72199)
(0.216977 0.01266 -2.70303)
(0.217724 0.0102398 -2.684)
(0.21848 0.00792104 -2.66495)
(0.219234 0.00563638 -2.64591)
(0.219973 0.0033464 -2.62691)
(0.220684 0.00101279 -2.60797)
(0.221353 -0.00139367 -2.58911)
(0.22197 -0.00389832 -2.57035)
(0.222522 -0.00652289 -2.5517)
(0.222999 -0.00928673 -2.53318)
(0.223393 -0.0122075 -2.5148)
(0.223695 -0.0153022 -2.49658)
(0.223898 -0.018587 -2.47853)
(0.223998 -0.0220778 -2.46068)
(0.223991 -0.025791 -2.44306)
(0.22388 -0.0297423 -2.42567)
(0.223664 -0.0339541 -2.40835)
(0.223358 -0.0384743 -2.39115)
(0.223196 -0.0436115 -2.37454)
(0.222868 -0.0490067 -2.35963)
(0.222527 -0.0545792 -2.34712)
(0.222122 -0.0604695 -2.32997)
(0.221447 -0.0652472 -2.30101)
)
;
    }
    procBoundary0to2
    {
        type            processor;
        value           nonuniform List<vector> 
90
(
(0.112756 -0.0283905 -5.94327)
(0.118498 -0.0289331 -5.97623)
(0.122791 -0.0292387 -6.02284)
(0.127443 -0.0291261 -6.05881)
(0.131927 -0.0289484 -6.10145)
(0.136413 -0.0285387 -6.14195)
(0.140988 -0.0281492 -6.18531)
(0.145592 -0.0277142 -6.22868)
(0.150346 -0.0273782 -6.2736)
(0.155207 -0.0271443 -6.31917)
(0.160224 -0.0270971 -6.36589)
(0.165376 -0.0272644 -6.41347)
(0.170661 -0.0277003 -6.46209)
(0.176044 -0.0284349 -6.51167)
(0.181489 -0.0295034 -6.56228)
(0.186933 -0.0309283 -6.6139)
(0.192304 -0.03273 -6.66656)
(0.197512 -0.0349204 -6.72027)
(0.202452 -0.0375073 -6.77502)
(0.207008 -0.0404922 -6.8308)
(0.211056 -0.0438726 -6.88761)
(0.214465 -0.0476419 -6.94539)
(0.217104 -0.0517905 -7.00411)
(0.218843 -0.0563063 -7.06371)
(0.219564 -0.0611753 -7.12411)
(0.219155 -0.066382 -7.18524)
(0.217523 -0.0719098 -7.24699)
(0.214591 -0.0777402 -7.30928)
(0.210303 -0.083853 -7.37198)
(0.204625 -0.0902256 -7.43499)
(0.197545 -0.0968329 -7.49819)
(0.18907 -0.103646 -7.56145)
(0.179225 -0.110629 -7.62464)
(0.168063 -0.117741 -7.68766)
(0.155672 -0.12493 -7.75036)
(0.14217 -0.132139 -7.81263)
(0.127692 -0.139304 -7.87438)
(0.112381 -0.146359 -7.93549)
(0.0963817 -0.153238 -7.99589)
(0.079836 -0.15988 -8.05548)
(0.0628789 -0.166227 -8.11419)
(0.0456365 -0.172234 -8.17195)
(0.0282241 -0.177862 -8.22868)
(0.0107465 -0.183089 -8.28434)
(-0.00670225 -0.187902 -8.33885)
(-0.0240372 -0.192303 -8.39218)
(-0.0411802 -0.196307 -8.44428)
(-0.0580575 -0.199939 -8.49511)
(-0.0746001 -0.203234 -8.54466)
(-0.090744 -0.206236 -8.59292)
(-0.106431 -0.208992 -8.63989)
(-0.121609 -0.211552 -8.68558)
(-0.136232 -0.213967 -8.73004)
(-0.150266 -0.216285 -8.7733)
(-0.163684 -0.218552 -8.81542)
(-0.176472 -0.220809 -8.85646)
(-0.188629 -0.223092 -8.8965)
(-0.200166 -0.225429 -8.93562)
(-0.211108 -0.227843 -8.9739)
(-0.22149 -0.230348 -9.01144)
(-0.231356 -0.232954 -9.04832)
(-0.240759 -0.235663 -9.08462)
(-0.249751 -0.238471 -9.12043)
(-0.258387 -0.241371 -9.15582)
(-0.266722 -0.244353 -9.19085)
(-0.274802 -0.247406 -9.22561)
(-0.282665 -0.25052 -9.26019)
(-0.290333 -0.253693 -9.29463)
(-0.297832 -0.256918 -9.32878)
(-0.305303 -0.26019 -9.36315)
(-0.312754 -0.263468 -9.39746)
(-0.320233 -0.266756 -9.43192)
(-0.327766 -0.270036 -9.46645)
(-0.335366 -0.273309 -9.50111)
(-0.343055 -0.276571 -9.53589)
(-0.350843 -0.279818 -9.57078)
(-0.358742 -0.283048 -9.60578)
(-0.366763 -0.286254 -9.64087)
(-0.374918 -0.28943 -9.67604)
(-0.38322 -0.292567 -9.71128)
(-0.391684 -0.295653 -9.74655)
(-0.400331 -0.298669 -9.78179)
(-0.409188 -0.301587 -9.81697)
(-0.418286 -0.304383 -9.85213)
(-0.427645 -0.307046 -9.88735)
(-0.437269 -0.309584 -9.92189)
(-0.44736 -0.311766 -9.95439)
(-0.458293 -0.313136 -9.9862)
(-0.469981 -0.313937 -10.027)
(-0.475953 -0.315302 -10.0575)
)
;
    }
}


// ************************************************************************* //
