/*--------------------------------*- C++ -*----------------------------------*\
| =========                 |                                                 |
| \\      /  F ield         | OpenFOAM: The Open Source CFD Toolbox           |
|  \\    /   O peration     | Version:  5.x                                   |
|   \\  /    A nd           | Web:      www.OpenFOAM.org                      |
|    \\/     M anipulation  |                                                 |
\*---------------------------------------------------------------------------*/
FoamFile
{
    version     2.0;
    format      ascii;
    class       volScalarField;
    location    "0.1";
    object      p;
}
// * * * * * * * * * * * * * * * * * * * * * * * * * * * * * * * * * * * * * //

dimensions      [0 2 -2 0 0 0 0];

internalField   nonuniform List<scalar> 
2250
(
-3.33786e-09
-3.39435e-09
-3.37798e-09
-3.36606e-09
-3.35984e-09
-3.37954e-09
-3.39686e-09
-3.37359e-09
-3.34197e-09
-3.31664e-09
-3.33278e-09
-3.33893e-09
-3.31243e-09
-3.28846e-09
-3.23298e-09
-3.28578e-09
-3.27482e-09
-3.26515e-09
-3.25512e-09
-3.22173e-09
-3.26074e-09
-3.24917e-09
-3.23368e-09
-3.25485e-09
-3.29622e-09
-9.98185e-09
-1.00659e-08
-1.00238e-08
-9.96912e-09
-9.93191e-09
-1.00245e-08
-1.00473e-08
-9.98006e-09
-9.89582e-09
-9.81206e-09
-9.8911e-09
-9.87583e-09
-9.81247e-09
-9.74167e-09
-9.62483e-09
-9.73188e-09
-9.70178e-09
-9.67525e-09
-9.6759e-09
-9.63552e-09
-9.61648e-09
-9.59499e-09
-9.60894e-09
-9.70904e-09
-9.88438e-09
-1.64559e-08
-1.65265e-08
-1.64333e-08
-1.63186e-08
-1.62288e-08
-1.64559e-08
-1.6437e-08
-1.63363e-08
-1.62048e-08
-1.60774e-08
-1.62187e-08
-1.61819e-08
-1.60988e-08
-1.59892e-08
-1.58622e-08
-1.59629e-08
-1.59312e-08
-1.59073e-08
-1.59289e-08
-1.59209e-08
-1.57504e-08
-1.57872e-08
-1.58614e-08
-1.60184e-08
-1.62658e-08
-2.26316e-08
-2.26656e-08
-2.254e-08
-2.23804e-08
-2.22326e-08
-2.25766e-08
-2.25404e-08
-2.24221e-08
-2.22557e-08
-2.20973e-08
-2.22845e-08
-2.22605e-08
-2.21692e-08
-2.20347e-08
-2.1903e-08
-2.19931e-08
-2.19923e-08
-2.19746e-08
-2.19594e-08
-2.1934e-08
-2.17768e-08
-2.18823e-08
-2.19501e-08
-2.20239e-08
-2.22236e-08
-2.84863e-08
-2.85103e-08
-2.83662e-08
-2.81648e-08
-2.7947e-08
-2.84156e-08
-2.83921e-08
-2.82526e-08
-2.80403e-08
-2.78365e-08
-2.81201e-08
-2.81175e-08
-2.8002e-08
-2.78345e-08
-2.76739e-08
-2.78261e-08
-2.784e-08
-2.77972e-08
-2.77069e-08
-2.76429e-08
-2.76341e-08
-2.77146e-08
-2.77039e-08
-2.76742e-08
-2.78508e-08
-3.40653e-08
-3.40985e-08
-3.39171e-08
-3.36779e-08
-3.34031e-08
-3.40092e-08
-3.39812e-08
-3.38002e-08
-3.35515e-08
-3.3311e-08
-3.36998e-08
-3.36877e-08
-3.35387e-08
-3.33556e-08
-3.31792e-08
-3.33757e-08
-3.33643e-08
-3.32918e-08
-3.31807e-08
-3.3108e-08
-3.3114e-08
-3.31111e-08
-3.30602e-08
-3.30422e-08
-3.31886e-08
-3.93983e-08
-3.9404e-08
-3.91885e-08
-3.89416e-08
-3.86684e-08
-3.93204e-08
-3.92546e-08
-3.90504e-08
-3.88166e-08
-3.85937e-08
-3.89822e-08
-3.89309e-08
-3.87848e-08
-3.86415e-08
-3.85051e-08
-3.86046e-08
-3.85679e-08
-3.85159e-08
-3.84709e-08
-3.84096e-08
-3.82202e-08
-3.81966e-08
-3.82145e-08
-3.82774e-08
-3.82711e-08
-4.44703e-08
-4.44161e-08
-4.42159e-08
-4.40238e-08
-4.38256e-08
-4.43332e-08
-4.42306e-08
-4.40691e-08
-4.39235e-08
-4.37884e-08
-4.40003e-08
-4.39263e-08
-4.38515e-08
-4.38041e-08
-4.37602e-08
-4.3628e-08
-4.36164e-08
-4.3639e-08
-4.36898e-08
-4.36416e-08
-4.32363e-08
-4.32931e-08
-4.34239e-08
-4.35133e-08
-4.32847e-08
-4.93242e-08
-4.92353e-08
-4.91157e-08
-4.90357e-08
-4.89626e-08
-4.91487e-08
-4.90537e-08
-4.89961e-08
-4.89831e-08
-4.89758e-08
-4.88799e-08
-4.88326e-08
-4.88664e-08
-4.89261e-08
-4.89878e-08
-4.85999e-08
-4.8652e-08
-4.8746e-08
-4.88596e-08
-4.885e-08
-4.83389e-08
-4.84836e-08
-4.86683e-08
-4.87299e-08
-4.84333e-08
-5.41041e-08
-5.40338e-08
-5.40309e-08
-5.40774e-08
-5.41412e-08
-5.39335e-08
-5.38975e-08
-5.39528e-08
-5.40581e-08
-5.41573e-08
-5.37425e-08
-5.37542e-08
-5.38715e-08
-5.3993e-08
-5.41141e-08
-5.35504e-08
-5.36444e-08
-5.37565e-08
-5.38738e-08
-5.39185e-08
-5.337e-08
-5.35178e-08
-5.36728e-08
-5.37167e-08
-5.35618e-08
-5.89601e-08
-5.8961e-08
-5.90633e-08
-5.92001e-08
-5.93702e-08
-5.88236e-08
-5.88721e-08
-5.8996e-08
-5.91555e-08
-5.92944e-08
-5.86454e-08
-5.87124e-08
-5.88484e-08
-5.89576e-08
-5.9064e-08
-5.842e-08
-5.85067e-08
-5.85788e-08
-5.86402e-08
-5.86955e-08
-5.81342e-08
-5.82122e-08
-5.82793e-08
-5.82969e-08
-5.8287e-08
-6.39941e-08
-6.4084e-08
-6.42399e-08
-6.44046e-08
-6.46285e-08
-6.38736e-08
-6.39877e-08
-6.41151e-08
-6.42582e-08
-6.439e-08
-6.35933e-08
-6.36838e-08
-6.37765e-08
-6.38269e-08
-6.38979e-08
-6.31814e-08
-6.32272e-08
-6.32287e-08
-6.32152e-08
-6.32356e-08
-6.26614e-08
-6.26433e-08
-6.25952e-08
-6.2544e-08
-6.25382e-08
-6.92311e-08
-6.9365e-08
-6.95139e-08
-6.96616e-08
-6.9897e-08
-6.90419e-08
-6.91611e-08
-6.92488e-08
-6.93496e-08
-6.94826e-08
-6.85468e-08
-6.86115e-08
-6.8642e-08
-6.86599e-08
-6.8749e-08
-6.7831e-08
-6.78187e-08
-6.77713e-08
-6.77436e-08
-6.77686e-08
-6.70103e-08
-6.68963e-08
-6.6776e-08
-6.66935e-08
-6.66643e-08
-7.4642e-08
-7.47404e-08
-7.48577e-08
-7.50012e-08
-7.52292e-08
-7.4266e-08
-7.43282e-08
-7.43947e-08
-7.44989e-08
-7.46652e-08
-7.34768e-08
-7.34864e-08
-7.351e-08
-7.35829e-08
-7.37552e-08
-7.23822e-08
-7.23263e-08
-7.23163e-08
-7.23894e-08
-7.25285e-08
-7.1146e-08
-7.0993e-08
-7.09435e-08
-7.09876e-08
-7.11038e-08
-8.02728e-08
-8.03012e-08
-8.04379e-08
-8.06577e-08
-8.09087e-08
-7.96344e-08
-7.96475e-08
-7.97841e-08
-7.99913e-08
-8.02365e-08
-7.85212e-08
-7.85219e-08
-7.86503e-08
-7.88728e-08
-7.91747e-08
-7.70144e-08
-7.69914e-08
-7.71296e-08
-7.74003e-08
-7.77528e-08
-7.52365e-08
-7.51796e-08
-7.53625e-08
-7.56852e-08
-7.61458e-08
-8.63755e-08
-8.64071e-08
-8.66759e-08
-8.70805e-08
-8.74703e-08
-8.54957e-08
-8.55623e-08
-8.58758e-08
-8.62827e-08
-8.66971e-08
-8.4055e-08
-8.41545e-08
-8.44741e-08
-8.49034e-08
-8.53887e-08
-8.21092e-08
-8.22206e-08
-8.25638e-08
-8.30596e-08
-8.36543e-08
-7.97523e-08
-7.99091e-08
-8.03553e-08
-8.09538e-08
-8.17741e-08
-9.33608e-08
-9.35371e-08
-9.40296e-08
-9.46921e-08
-9.53904e-08
-9.23034e-08
-9.25363e-08
-9.30662e-08
-9.37207e-08
-9.44284e-08
-9.04645e-08
-9.07327e-08
-9.12474e-08
-9.19045e-08
-9.26415e-08
-8.79513e-08
-8.82337e-08
-8.87574e-08
-8.94511e-08
-9.02657e-08
-8.49617e-08
-8.53087e-08
-8.58921e-08
-8.66403e-08
-8.76537e-08
-1.01559e-07
-1.01968e-07
-1.02693e-07
-1.03643e-07
-1.04781e-07
-1.00289e-07
-1.00711e-07
-1.0143e-07
-1.02351e-07
-1.0346e-07
-9.78259e-08
-9.82437e-08
-9.89206e-08
-9.98337e-08
-1.00905e-07
-9.44294e-08
-9.48359e-08
-9.55036e-08
-9.63956e-08
-9.74777e-08
-9.04946e-08
-9.09061e-08
-9.15276e-08
-9.23994e-08
-9.3545e-08
-1.11044e-07
-1.11659e-07
-1.12597e-07
-1.13873e-07
-1.15514e-07
-1.09359e-07
-1.09919e-07
-1.10818e-07
-1.12053e-07
-1.13644e-07
-1.05917e-07
-1.06435e-07
-1.0729e-07
-1.08528e-07
-1.10043e-07
-1.0117e-07
-1.0165e-07
-1.02496e-07
-1.03676e-07
-1.05185e-07
-9.5684e-08
-9.61074e-08
-9.68544e-08
-9.80144e-08
-9.95072e-08
-1.21778e-07
-1.22537e-07
-1.2373e-07
-1.25433e-07
-1.27625e-07
-1.19382e-07
-1.20053e-07
-1.21199e-07
-1.22857e-07
-1.25013e-07
-1.14569e-07
-1.15186e-07
-1.16311e-07
-1.1798e-07
-1.20051e-07
-1.07952e-07
-1.08525e-07
-1.09656e-07
-1.11266e-07
-1.1333e-07
-1.00244e-07
-1.00757e-07
-1.01801e-07
-1.03415e-07
-1.0548e-07
-1.33963e-07
-1.3487e-07
-1.36469e-07
-1.38772e-07
-1.41639e-07
-1.30563e-07
-1.31396e-07
-1.32943e-07
-1.35209e-07
-1.38064e-07
-1.2397e-07
-1.24754e-07
-1.26308e-07
-1.28566e-07
-1.3134e-07
-1.14926e-07
-1.15687e-07
-1.17237e-07
-1.1944e-07
-1.22148e-07
-1.04351e-07
-1.05063e-07
-1.06534e-07
-1.08697e-07
-1.11403e-07
-1.4826e-07
-1.4943e-07
-1.51693e-07
-1.54888e-07
-1.58732e-07
-1.43566e-07
-1.44698e-07
-1.46904e-07
-1.50074e-07
-1.53925e-07
-1.34684e-07
-1.35778e-07
-1.37988e-07
-1.41109e-07
-1.4489e-07
-1.22498e-07
-1.23583e-07
-1.25739e-07
-1.28784e-07
-1.32415e-07
-1.08228e-07
-1.09256e-07
-1.11312e-07
-1.14229e-07
-1.17797e-07
-1.65759e-07
-1.67413e-07
-1.70695e-07
-1.75245e-07
-1.80623e-07
-1.59411e-07
-1.61055e-07
-1.64274e-07
-1.68798e-07
-1.74171e-07
-1.47491e-07
-1.49094e-07
-1.52267e-07
-1.56701e-07
-1.61991e-07
-1.31111e-07
-1.32687e-07
-1.35736e-07
-1.40025e-07
-1.451e-07
-1.11916e-07
-1.13419e-07
-1.16317e-07
-1.20366e-07
-1.25312e-07
-1.87842e-07
-1.90268e-07
-1.95012e-07
-2.01554e-07
-2.09231e-07
-1.79308e-07
-1.8171e-07
-1.86385e-07
-1.92882e-07
-2.00505e-07
-1.63214e-07
-1.65559e-07
-1.70118e-07
-1.76466e-07
-1.83931e-07
-1.41107e-07
-1.43382e-07
-1.47736e-07
-1.53812e-07
-1.60986e-07
-1.15223e-07
-1.17386e-07
-1.21471e-07
-1.27145e-07
-1.34086e-07
-2.16112e-07
-2.19635e-07
-2.26415e-07
-2.3578e-07
-2.46731e-07
-2.04584e-07
-2.08041e-07
-2.14748e-07
-2.24012e-07
-2.3483e-07
-1.82719e-07
-1.86103e-07
-1.92598e-07
-2.01583e-07
-2.12087e-07
-1.52759e-07
-1.55991e-07
-1.62152e-07
-1.70693e-07
-1.8076e-07
-1.17694e-07
-1.20734e-07
-1.26424e-07
-1.34358e-07
-1.43996e-07
-2.52481e-07
-2.57512e-07
-2.6714e-07
-2.80433e-07
-2.95997e-07
-2.36838e-07
-2.41771e-07
-2.51269e-07
-2.64331e-07
-2.79616e-07
-2.07074e-07
-2.11872e-07
-2.20995e-07
-2.3354e-07
-2.48269e-07
-1.66363e-07
-1.7087e-07
-1.79432e-07
-1.91293e-07
-2.05295e-07
-1.18696e-07
-1.22863e-07
-1.3071e-07
-1.41702e-07
-1.54851e-07
-2.99429e-07
-3.06533e-07
-3.20114e-07
-3.38845e-07
-3.60908e-07
-2.78187e-07
-2.85137e-07
-2.98435e-07
-3.16748e-07
-3.3832e-07
-2.37625e-07
-2.44295e-07
-2.56983e-07
-2.74444e-07
-2.95093e-07
-1.82252e-07
-1.88454e-07
-2.0026e-07
-2.16634e-07
-2.35988e-07
-1.17385e-07
-1.23049e-07
-1.33866e-07
-1.48908e-07
-1.66672e-07
-3.60278e-07
-3.70158e-07
-3.89226e-07
-4.15553e-07
-4.46782e-07
-3.31456e-07
-3.41093e-07
-3.59674e-07
-3.85364e-07
-4.15806e-07
-2.76035e-07
-2.85226e-07
-3.0287e-07
-3.27246e-07
-3.56152e-07
-2.00898e-07
-2.09419e-07
-2.25722e-07
-2.48341e-07
-2.75065e-07
-1.12634e-07
-1.20417e-07
-1.35313e-07
-1.5587e-07
-1.80086e-07
-4.39495e-07
-4.53021e-07
-4.7988e-07
-5.16905e-07
-5.60967e-07
-4.00677e-07
-4.13934e-07
-4.3999e-07
-4.76092e-07
-5.18854e-07
-3.24447e-07
-3.37101e-07
-3.61755e-07
-3.95842e-07
-4.36226e-07
-2.23247e-07
-2.3495e-07
-2.57417e-07
-2.88757e-07
-3.2578e-07
-1.02719e-07
-1.13527e-07
-1.34024e-07
-1.62333e-07
-1.95733e-07
-5.43063e-07
-5.61237e-07
-5.99482e-07
-6.51484e-07
-7.13437e-07
-4.9228e-07
-5.10421e-07
-5.47032e-07
-5.97857e-07
-6.57649e-07
-3.85046e-07
-4.02367e-07
-4.37163e-07
-4.84862e-07
-5.41462e-07
-2.51614e-07
-2.67533e-07
-2.98075e-07
-3.41604e-07
-3.92874e-07
-8.40016e-08
-9.93318e-08
-1.27869e-07
-1.6719e-07
-2.1357e-07
-6.78735e-07
-7.0204e-07
-7.57834e-07
-8.30437e-07
-9.17552e-07
-6.17211e-07
-6.41782e-07
-6.93082e-07
-7.65041e-07
-8.4792e-07
-4.57733e-07
-4.80843e-07
-5.31281e-07
-5.98021e-07
-6.78233e-07
-2.92539e-07
-3.13916e-07
-3.53789e-07
-4.14491e-07
-4.84698e-07
-4.77181e-08
-7.04618e-08
-1.11702e-07
-1.67373e-07
-2.32689e-07
-8.57202e-07
-8.83554e-07
-9.6923e-07
-1.06869e-06
-1.19074e-06
-7.92393e-07
-8.25151e-07
-8.96418e-07
-1.00006e-06
-1.11114e-06
-5.39334e-07
-5.67448e-07
-6.44651e-07
-7.36291e-07
-8.52611e-07
-3.58365e-07
-3.87833e-07
-4.35247e-07
-5.22217e-07
-6.14892e-07
2.27213e-08
-1.21483e-08
-7.37054e-08
-1.54125e-07
-2.49204e-07
-1.09474e-06
-1.11562e-06
-1.25512e-06
-1.38593e-06
-1.55627e-06
-1.03799e-06
-1.08158e-06
-1.17786e-06
-1.33544e-06
-1.47478e-06
-6.31572e-07
-6.56003e-07
-7.84869e-07
-8.99238e-07
-1.07588e-06
-4.57483e-07
-5.04088e-07
-5.48351e-07
-6.84721e-07
-7.97325e-07
1.46136e-07
9.25673e-08
1.33429e-09
-1.12554e-07
-2.55696e-07
-1.41649e-06
-1.40711e-06
-1.64507e-06
-1.80672e-06
-2.04589e-06
-1.37935e-06
-1.4384e-06
-1.55776e-06
-1.81612e-06
-1.97856e-06
-7.4488e-07
-7.39766e-07
-9.68527e-07
-1.07543e-06
-1.37564e-06
-5.93984e-07
-6.76217e-07
-6.89291e-07
-9.2292e-07
-1.04749e-06
3.43536e-07
2.59442e-07
1.24427e-07
-2.92965e-08
-2.52443e-07
-1.87688e-06
-1.79294e-06
-2.21862e-06
-2.39163e-06
-2.73467e-06
-1.86676e-06
-1.96051e-06
-2.09448e-06
-2.5198e-06
-2.69931e-06
-9.13027e-07
-8.37389e-07
-1.25464e-06
-1.2782e-06
-1.83483e-06
-7.84043e-07
-9.33844e-07
-8.65086e-07
-1.27707e-06
-1.39384e-06
6.41443e-07
4.93936e-07
2.86946e-07
9.11926e-08
-2.65077e-07
-2.64517e-06
-2.65095e-06
-3.31087e-06
-3.51098e-06
-4.07388e-06
-2.58766e-06
-2.85294e-06
-3.01685e-06
-3.59576e-06
-3.77325e-06
-1.27321e-06
-1.24165e-06
-2.02524e-06
-1.93059e-06
-2.81231e-06
-1.09059e-06
-1.33978e-06
-1.24423e-06
-1.83617e-06
-1.87691e-06
1.12673e-06
8.05961e-07
3.91186e-07
1.61986e-07
-3.66522e-07
-1.41488e-06
-3.1381e-07
-2.01804e-06
-1.65054e-06
-2.1566e-06
-1.68768e-06
-1.73546e-06
-1.88744e-06
-3.43492e-06
-3.70368e-06
4.25689e-07
1.50061e-06
1.87923e-08
1.34355e-06
-8.61095e-07
4.82399e-07
-2.55748e-07
7.77197e-07
-8.01361e-07
-1.06298e-06
2.96497e-06
2.84359e-06
2.71502e-06
2.73658e-06
1.44482e-06
-8.01014e-06
-8.18883e-06
-1.00349e-05
-1.0554e-05
-1.15496e-05
-7.67904e-06
-8.61922e-06
-8.77844e-06
-9.9457e-06
-8.84549e-06
-5.41059e-06
-5.65529e-06
-7.68304e-06
-7.57969e-06
-9.86035e-06
-4.98054e-06
-5.5592e-06
-4.49585e-06
-6.78714e-06
-4.59836e-06
1.06191e-06
-8.31923e-07
-1.7957e-06
-2.93778e-06
-2.84225e-06
-2.94988e-07
7.61034e-06
-3.12183e-06
3.13792e-06
4.17923e-06
-5.31307e-07
-3.88775e-07
-3.3635e-07
-7.25196e-06
-8.64152e-06
3.12066e-06
1.03641e-05
3.20744e-06
1.31527e-05
1.53836e-06
5.80056e-06
3.10966e-07
8.47357e-06
-6.35035e-07
-1.45621e-06
9.96756e-06
8.7002e-06
9.14484e-06
8.1711e-06
3.96755e-06
-1.76264e-05
-2.56642e-05
-2.1159e-05
-2.76832e-05
-3.36892e-05
-1.5001e-05
-2.12609e-05
-2.20051e-05
-2.05404e-05
-9.14991e-06
-1.3994e-05
-2.11559e-05
-2.2578e-05
-3.03276e-05
-2.85179e-05
-1.46677e-05
-1.32583e-05
-1.72008e-05
-1.67615e-05
1.50912e-06
7.02497e-06
-2.19164e-06
-8.22351e-06
-8.62173e-06
-1.40209e-06
-1.23724e-05
3.08199e-05
-2.88675e-05
-3.2228e-07
3.71754e-05
-2.35963e-05
-1.1143e-05
4.1496e-06
-4.41228e-05
-7.34826e-05
-1.14994e-05
3.22907e-05
-1.12371e-05
5.72781e-05
-8.96126e-06
2.10264e-05
-3.5517e-05
4.24087e-05
-1.87564e-05
-5.68657e-05
1.39406e-05
1.30225e-05
1.74035e-05
-1.04645e-05
-1.42826e-05
0.000824836
0.00122664
0.00112788
0.000665672
0.000959302
0.00154541
0.00100571
0.000923167
0.000617428
0.000510051
0.00148867
0.000851487
0.000962459
0.000848031
0.00078794
0.000718543
0.000716904
0.00118199
0.000816287
0.000269284
0.000327178
0.000891302
0.000931094
0.000495419
0.000191569
0.00247446
0.00199327
0.00224794
0.00201222
0.00117708
0.00232788
0.00227142
0.001906
0.00187855
0.00136904
0.00222507
0.00191155
0.00166531
0.00212269
0.00161171
0.00166278
0.00177432
0.00166086
0.00183369
0.00132493
0.00175484
0.00197866
0.001672
0.00212132
0.00192479
0.00264177
0.00249752
0.00267251
0.00271043
0.00256684
0.00282479
0.00269224
0.00282031
0.00276684
0.00212391
0.00276207
0.00266871
0.00272849
0.00269542
0.0025815
0.00263526
0.00279145
0.0024989
0.00265248
0.00238643
0.00267538
0.00273841
0.00269501
0.00268691
0.00277623
0.00301186
0.00298305
0.00336258
0.00333451
0.0037012
0.00342883
0.00326803
0.00348065
0.00384514
0.00428935
0.00313197
0.00306971
0.00313328
0.00310498
0.00322531
0.00444259
0.00346274
0.00339587
0.00350092
0.00350177
0.00328364
0.00353911
0.00323419
0.00362827
0.00375875
0.00522158
0.00431351
0.0047998
0.00423081
0.00479066
0.00418282
0.00434631
0.00441785
0.00448896
0.00451964
0.00425752
0.00441873
0.00401505
0.00434062
0.00436447
0.00484246
0.0046799
0.00407024
0.00453205
0.00402663
0.00438929
0.00412244
0.0041192
0.00450404
0.00416885
0.00627161
0.00616221
0.00544337
0.00577903
0.00577596
0.00563981
0.00514591
0.00542605
0.00520665
0.00511439
0.00532936
0.00542586
0.00578824
0.00530429
0.00538211
0.00500322
0.0051341
0.00508438
0.00535329
0.00487398
0.00479397
0.00467089
0.00546349
0.00534447
0.00479002
0.00709363
0.00711546
0.00604858
0.00643706
0.0062128
0.00655086
0.00652907
0.00636401
0.00622545
0.00632582
0.00631579
0.00623361
0.00637226
0.00640732
0.00651037
0.00656179
0.00597607
0.00622481
0.00609309
0.00595933
0.00622528
0.00648407
0.00620412
0.00619824
0.00601151
0.00769761
0.00779786
0.00750443
0.00706134
0.00796343
0.00739108
0.00768276
0.00736344
0.0070238
0.0079218
0.00708749
0.00716823
0.0069485
0.00719926
0.00709826
0.00730163
0.00727661
0.00702119
0.00705552
0.00726735
0.00713814
0.0070969
0.00669899
0.00651571
0.00693244
0.00793076
0.00822388
0.0082928
0.00790038
0.00832842
0.00814703
0.00822625
0.00854416
0.00805197
0.00862022
0.00811398
0.00805249
0.00803419
0.00792022
0.00815078
0.00748777
0.00810263
0.0080111
0.00799496
0.00784705
0.0077884
0.00783004
0.00782109
0.00748447
0.0078337
0.0089405
0.00890058
0.00887827
0.00887446
0.00891052
0.00908045
0.00889233
0.00882528
0.00883633
0.00892132
0.00893122
0.00891469
0.00885713
0.00846837
0.00886704
0.00871317
0.00890405
0.00875481
0.00872517
0.00888037
0.00881882
0.00884325
0.00889373
0.00876264
0.00887114
0.00918485
0.00917629
0.00916799
0.00917739
0.0091966
0.00918721
0.00919424
0.00910994
0.00917786
0.00914181
0.00917428
0.00921652
0.00919003
0.00914244
0.00917811
0.00916807
0.00917973
0.00916244
0.00915626
0.00919984
0.00921422
0.00918611
0.00916437
0.00915767
0.00918179
0.00916978
0.0091645
0.00917682
0.00917486
0.00915371
0.00917902
0.00917869
0.00918566
0.00918101
0.0091722
0.00918912
0.00918865
0.00919038
0.00918451
0.00918772
0.00919168
0.00918357
0.00919098
0.00918701
0.00919235
0.00919608
0.00919385
0.00919022
0.00919507
0.0092002
0.00918793
0.0091865
0.00918307
0.00918386
0.00918454
0.00918614
0.00918766
0.00917665
0.00918467
0.00918015
0.00918769
0.00919033
0.00918936
0.00918524
0.00918873
0.00918422
0.00918593
0.00918412
0.00918486
0.00919162
0.0091909
0.00919256
0.00919312
0.00919094
0.00919342
0.00918435
0.00918378
0.00918498
0.00918466
0.00918241
0.00918572
0.00918548
0.00918554
0.00918614
0.00918446
0.00918836
0.00918801
0.00918888
0.00918781
0.00918854
0.00918732
0.00918687
0.0091885
0.00918829
0.00919004
0.00919071
0.00919093
0.00919142
0.00919185
0.00919283
0.00918705
0.00918666
0.00918654
0.00918639
0.00918621
0.0091867
0.00918672
0.00918589
0.00918692
0.0091865
0.00918842
0.00918833
0.00918863
0.00918807
0.00918875
0.0091869
0.00918719
0.00918766
0.00918802
0.00918943
0.00918975
0.00919005
0.00919037
0.00919047
0.00919127
0.00918765
0.00918751
0.00918755
0.00918748
0.00918745
0.00918746
0.00918748
0.00918736
0.00918774
0.00918774
0.00918867
0.00918862
0.00918884
0.00918863
0.00918899
0.0091877
0.00918785
0.00918827
0.00918856
0.00918933
0.00918956
0.00918975
0.00918999
0.00919017
0.00919064
0.00918822
0.00918816
0.00918822
0.00918821
0.00918828
0.00918808
0.0091881
0.00918815
0.00918832
0.00918847
0.00918888
0.00918886
0.009189
0.00918895
0.00918918
0.00918825
0.00918836
0.00918867
0.0091889
0.00918937
0.00918948
0.00918961
0.0091898
0.00918996
0.00919027
0.00918864
0.00918863
0.00918869
0.00918871
0.0091888
0.00918855
0.00918858
0.00918866
0.00918877
0.00918893
0.00918907
0.00918908
0.00918917
0.00918918
0.00918934
0.00918869
0.00918878
0.00918898
0.00918917
0.00918949
0.00918952
0.00918958
0.00918971
0.00918986
0.00919007
0.00918896
0.00918897
0.00918902
0.00918905
0.00918914
0.00918891
0.00918894
0.00918902
0.0091891
0.00918923
0.00918924
0.00918925
0.00918932
0.00918936
0.00918947
0.00918903
0.00918909
0.00918924
0.00918938
0.0091896
0.00918955
0.0091896
0.00918969
0.00918981
0.00918996
0.0091892
0.00918921
0.00918926
0.0091893
0.00918937
0.00918919
0.00918921
0.00918927
0.00918934
0.00918944
0.00918938
0.0091894
0.00918944
0.00918949
0.00918958
0.00918928
0.00918933
0.00918943
0.00918954
0.00918969
0.0091896
0.00918964
0.00918971
0.00918981
0.00918991
0.00918939
0.0091894
0.00918943
0.00918947
0.00918953
0.00918939
0.00918941
0.00918946
0.00918951
0.00918958
0.0091895
0.00918952
0.00918955
0.0091896
0.00918967
0.00918947
0.00918951
0.00918958
0.00918966
0.00918976
0.00918966
0.00918969
0.00918974
0.00918982
0.0091899
0.00918953
0.00918954
0.00918957
0.0091896
0.00918965
0.00918954
0.00918956
0.00918959
0.00918963
0.00918968
0.0091896
0.00918961
0.00918964
0.00918969
0.00918974
0.00918961
0.00918963
0.00918968
0.00918974
0.00918981
0.00918971
0.00918974
0.00918977
0.00918984
0.0091899
0.00918963
0.00918964
0.00918967
0.0091897
0.00918973
0.00918965
0.00918966
0.00918968
0.00918972
0.00918976
0.00918968
0.00918969
0.00918972
0.00918975
0.0091898
0.00918971
0.00918972
0.00918976
0.0091898
0.00918985
0.00918976
0.00918978
0.00918981
0.00918986
0.00918991
0.00918971
0.00918972
0.00918974
0.00918976
0.00918979
0.00918973
0.00918973
0.00918975
0.00918978
0.00918981
0.00918975
0.00918976
0.00918978
0.00918981
0.00918984
0.00918977
0.00918979
0.00918981
0.00918984
0.00918988
0.00918981
0.00918982
0.00918984
0.00918988
0.00918992
0.00918978
0.00918978
0.0091898
0.00918981
0.00918984
0.00918978
0.00918979
0.00918981
0.00918982
0.00918985
0.0091898
0.00918981
0.00918982
0.00918984
0.00918987
0.00918982
0.00918983
0.00918985
0.00918987
0.0091899
0.00918984
0.00918985
0.00918987
0.0091899
0.00918993
0.00918982
0.00918983
0.00918984
0.00918985
0.00918987
0.00918983
0.00918983
0.00918984
0.00918986
0.00918988
0.00918984
0.00918985
0.00918986
0.00918987
0.00918989
0.00918985
0.00918986
0.00918987
0.00918989
0.00918991
0.00918987
0.00918988
0.00918989
0.00918991
0.00918994
0.00918985
0.00918986
0.00918987
0.00918988
0.00918989
0.00918986
0.00918986
0.00918987
0.00918988
0.0091899
0.00918987
0.00918987
0.00918988
0.00918989
0.00918991
0.00918988
0.00918989
0.0091899
0.00918991
0.00918992
0.00918989
0.0091899
0.00918991
0.00918992
0.00918994
0.00918988
0.00918988
0.00918989
0.0091899
0.00918991
0.00918988
0.00918989
0.00918989
0.0091899
0.00918991
0.00918989
0.00918989
0.0091899
0.00918991
0.00918992
0.0091899
0.0091899
0.00918991
0.00918992
0.00918993
0.00918991
0.00918991
0.00918992
0.00918993
0.00918995
0.0091899
0.0091899
0.00918991
0.00918991
0.00918992
0.0091899
0.0091899
0.00918991
0.00918992
0.00918992
0.00918991
0.00918991
0.00918991
0.00918992
0.00918993
0.00918991
0.00918992
0.00918992
0.00918993
0.00918994
0.00918992
0.00918992
0.00918993
0.00918994
0.00918995
0.00918991
0.00918991
0.00918992
0.00918992
0.00918993
0.00918991
0.00918992
0.00918992
0.00918992
0.00918993
0.00918992
0.00918992
0.00918992
0.00918993
0.00918993
0.00918992
0.00918992
0.00918993
0.00918993
0.00918994
0.00918993
0.00918993
0.00918993
0.00918994
0.00918995
0.00918992
0.00918992
0.00918992
0.00918993
0.00918993
0.00918992
0.00918992
0.00918993
0.00918993
0.00918993
0.00918992
0.00918993
0.00918993
0.00918993
0.00918994
0.00918993
0.00918993
0.00918993
0.00918994
0.00918994
0.00918993
0.00918993
0.00918994
0.00918994
0.00918995
0.00918993
0.00918993
0.00918993
0.00918993
0.00918994
0.00918993
0.00918993
0.00918993
0.00918993
0.00918994
0.00918993
0.00918993
0.00918993
0.00918994
0.00918994
0.00918993
0.00918993
0.00918994
0.00918994
0.00918994
0.00918994
0.00918994
0.00918994
0.00918994
0.00918995
0.00918993
0.00918993
0.00918993
0.00918994
0.00918994
0.00918993
0.00918993
0.00918993
0.00918994
0.00918994
0.00918993
0.00918993
0.00918994
0.00918994
0.00918994
0.00918994
0.00918994
0.00918994
0.00918994
0.00918994
0.00918994
0.00918994
0.00918994
0.00918994
0.00918995
0.00918993
0.00918994
0.00918994
0.00918994
0.00918994
0.00918994
0.00918994
0.00918994
0.00918994
0.00918994
0.00918994
0.00918994
0.00918994
0.00918994
0.00918994
0.00918994
0.00918994
0.00918994
0.00918994
0.00918994
0.00918994
0.00918994
0.00918994
0.00918994
0.00918994
0.00918994
0.00918994
0.00918994
0.00918994
0.00918994
0.00918994
0.00918994
0.00918994
0.00918994
0.00918994
0.00918994
0.00918994
0.00918994
0.00918994
0.00918994
0.00918994
0.00918994
0.00918994
0.00918994
0.00918994
0.00918994
0.00918994
0.00918994
0.00918994
0.00918994
0.00918994
0.00918994
0.00918994
0.00918994
0.00918994
0.00918994
0.00918994
0.00918994
0.00918994
0.00918994
0.00918994
0.00918994
0.00918994
0.00918994
0.00918994
0.00918994
0.00918994
0.00918994
0.00918994
0.00918994
0.00918994
0.00918994
0.00918994
0.00918994
0.00918994
0.00918994
0.00918994
0.00918994
0.00918994
0.00918994
0.00918994
0.00918994
0.00918994
0.00918994
0.00918994
0.00918994
0.00918994
0.00918994
0.00918994
0.00918994
0.00918994
0.00918994
0.00918994
0.00918994
0.00918994
0.00918994
0.00918994
0.00918994
0.00918994
0.00918994
0.00918994
0.00918994
0.00918994
0.00918994
0.00918994
0.00918994
0.00918994
0.00918994
0.00918994
0.00918994
0.00918994
0.00918994
0.00918994
0.00918994
0.00918994
0.00918994
0.00918994
0.00918994
0.00918994
0.00918994
0.00918994
0.00918994
0.00918994
0.00918994
0.00918995
0.00918994
0.00918994
0.00918994
0.00918994
0.00918994
0.00918994
0.00918994
0.00918994
0.00918994
0.00918994
0.00918994
0.00918994
0.00918994
0.00918994
0.00918994
0.00918994
0.00918994
0.00918994
0.00918994
0.00918995
0.00918995
0.00918995
0.00918995
0.00918995
0.00918995
0.00918994
0.00918994
0.00918994
0.00918994
0.00918994
0.00918994
0.00918994
0.00918994
0.00918994
0.00918994
0.00918995
0.00918995
0.00918995
0.00918995
0.00918995
0.00918995
0.00918995
0.00918995
0.00918995
0.00918995
0.00918995
0.00918995
0.00918995
0.00918995
0.00918995
0.00918995
0.00918995
0.00918995
0.00918995
0.00918995
0.00918995
0.00918995
0.00918995
0.00918995
0.00918995
0.00918995
0.00918995
0.00918995
0.00918995
0.00918995
0.00918995
0.00918995
0.00918995
0.00918995
0.00918995
0.00918995
0.00918995
0.00918995
0.00918995
0.00918995
0.00918995
0.00918995
0.00918995
0.00918995
0.00918995
0.00918995
0.00918995
0.00918995
0.00918995
0.00918995
0.00918995
0.00918995
0.00918995
0.00918995
0.00918995
0.00918995
0.00918995
0.00918995
0.00918995
0.00918995
0.00918995
0.00918995
0.00918995
0.00918995
0.00918995
0.00918995
0.00918995
0.00918995
0.00918995
0.00918995
0.00918995
0.00918995
0.00918995
0.00918995
0.00918995
0.00918995
0.00918995
0.00918995
0.00918995
0.00918995
0.00918995
0.00918995
0.00918995
0.00918995
0.00918995
0.00918995
0.00918995
0.00918995
0.00918995
0.00918995
0.00918995
0.00918995
0.00918995
0.00918995
0.00918995
0.00918995
0.00918995
0.00918995
0.00918995
0.00918995
0.00918995
0.00918995
0.00918995
0.00918995
0.00918995
0.00918995
0.00918995
0.00918995
0.00918995
0.00918995
0.00918995
0.00918995
0.00918995
0.00918995
0.00918995
0.00918995
0.00918995
0.00918995
0.00918995
0.00918995
0.00918995
0.00918995
0.00918995
0.00918995
0.00918995
0.00918995
0.00918995
0.00918995
0.00918995
0.00918995
0.00918995
0.00918995
0.00918995
0.00918995
0.00918995
0.00918995
0.00918995
0.00918995
0.00918995
0.00918995
0.00918995
0.00918995
0.00918995
0.00918995
0.00918995
0.00918995
0.00918995
0.00918995
0.00918995
0.00918995
0.00918995
0.00918995
0.00918995
0.00918995
0.00918995
0.00918995
0.00918995
0.00918995
0.00918995
0.00918995
0.00918995
0.00918995
0.00918995
0.00918995
0.00918995
0.00918995
0.00918995
0.00918995
0.00918995
0.00918995
0.00918995
0.00918995
0.00918995
0.00918995
0.00918995
0.00918995
0.00918995
0.00918995
0.00918995
0.00918995
0.00918995
0.00918995
0.00918995
0.00918995
0.00918995
0.00918995
0.00918995
0.00918995
0.00918995
0.00918995
0.00918995
0.00918995
0.00918995
0.00918995
0.00918995
0.00918995
0.00918995
0.00918995
0.00918995
0.00918995
0.00918995
0.00918995
0.00918995
0.00918995
0.00918995
0.00918995
0.00918995
0.00918995
0.00918995
0.00918995
0.00918995
0.00918995
0.00918995
0.00918995
0.00918995
0.00918995
0.00918995
0.00918995
0.00918995
0.00918995
0.00918995
0.00918995
0.00918995
0.00918995
0.00918995
0.00918995
0.00918995
0.00918995
0.00918995
0.00918995
0.00918995
0.00918995
0.00918995
0.00918995
0.00918995
0.00918995
0.00918995
0.00918995
0.00918995
0.00918995
)
;

boundaryField
{
    inlet
    {
        type            zeroGradient;
    }
    outlet
    {
        type            fixedValue;
        value           uniform 0;
    }
    repeat_boundary
    {
        type            zeroGradient;
    }
    procBoundary0to1
    {
        type            processor;
        value           nonuniform List<scalar> 
450
(
-3.30397e-09
-3.26991e-09
-3.19074e-09
-3.16031e-09
-3.26435e-09
-9.7949e-09
-9.69691e-09
-9.50345e-09
-9.47685e-09
-9.7426e-09
-1.60344e-08
-1.59152e-08
-1.57022e-08
-1.56823e-08
-1.58828e-08
-2.20044e-08
-2.19004e-08
-2.17331e-08
-2.16883e-08
-2.16796e-08
-2.77103e-08
-2.76259e-08
-2.75087e-08
-2.74635e-08
-2.737e-08
-3.31715e-08
-3.30996e-08
-3.30192e-08
-3.30028e-08
-3.29657e-08
-3.84716e-08
-3.8413e-08
-3.83553e-08
-3.83273e-08
-3.82788e-08
-4.37e-08
-4.36715e-08
-4.36363e-08
-4.3553e-08
-4.34271e-08
-4.89224e-08
-4.8931e-08
-4.89001e-08
-4.87546e-08
-4.86119e-08
-5.41732e-08
-5.41743e-08
-5.40698e-08
-5.38223e-08
-5.36257e-08
-5.94508e-08
-5.93633e-08
-5.90825e-08
-5.86398e-08
-5.81915e-08
-6.4744e-08
-6.45088e-08
-6.39949e-08
-6.32799e-08
-6.24554e-08
-7.00646e-08
-6.96664e-08
-6.89256e-08
-6.79217e-08
-6.67402e-08
-7.55036e-08
-7.49582e-08
-7.4035e-08
-7.27729e-08
-7.12599e-08
-8.13543e-08
-8.06948e-08
-7.96166e-08
-7.81137e-08
-7.62414e-08
-8.81294e-08
-8.73613e-08
-8.60452e-08
-8.41968e-08
-8.18643e-08
-9.62902e-08
-9.53304e-08
-9.35437e-08
-9.10671e-08
-8.80349e-08
-1.05978e-07
-1.0466e-07
-1.02098e-07
-9.85935e-08
-9.445e-08
-1.17138e-07
-1.15268e-07
-1.11633e-07
-1.06667e-07
-1.00868e-07
-1.29884e-07
-1.27253e-07
-1.2223e-07
-1.15342e-07
-1.07263e-07
-1.44797e-07
-1.41174e-07
-1.34352e-07
-1.24977e-07
-1.13856e-07
-1.63112e-07
-1.58237e-07
-1.49052e-07
-1.36394e-07
-1.21248e-07
-1.86659e-07
-1.80132e-07
-1.6776e-07
-1.5067e-07
-1.30231e-07
-2.17568e-07
-2.08718e-07
-1.91925e-07
-1.68736e-07
-1.41251e-07
-2.58337e-07
-2.46201e-07
-2.23173e-07
-1.91467e-07
-1.54299e-07
-3.12263e-07
-2.95528e-07
-2.63726e-07
-2.20077e-07
-1.69157e-07
-3.83803e-07
-3.6076e-07
-3.16729e-07
-2.56436e-07
-1.86056e-07
-4.79208e-07
-4.47574e-07
-3.86495e-07
-3.03454e-07
-2.06358e-07
-6.07211e-07
-5.64018e-07
-4.78901e-07
-3.65321e-07
-2.31486e-07
-7.79862e-07
-7.22437e-07
-6.01674e-07
-4.48236e-07
-2.61887e-07
-1.01443e-06
-9.42654e-07
-7.63483e-07
-5.63058e-07
-2.97067e-07
-1.33688e-06
-1.25538e-06
-9.74439e-07
-7.27163e-07
-3.32674e-07
-1.78476e-06
-1.70339e-06
-1.24999e-06
-9.63152e-07
-3.59227e-07
-2.40774e-06
-2.3438e-06
-1.60888e-06
-1.29684e-06
-3.65531e-07