/*--------------------------------*- C++ -*----------------------------------*\
| =========                 |                                                 |
| \\      /  F ield         | OpenFOAM: The Open Source CFD Toolbox           |
|  \\    /   O peration     | Version:  5.x                                   |
|   \\  /    A nd           | Web:      www.OpenFOAM.org                      |
|    \\/     M anipulation  |                                                 |
\*---------------------------------------------------------------------------*/
FoamFile
{
    version     2.0;
    format      ascii;
    class       volVectorField;
    location    "0.1";
    object      U;
}
// * * * * * * * * * * * * * * * * * * * * * * * * * * * * * * * * * * * * * //

dimensions      [0 1 -1 0 0 0 0];

internalField   nonuniform List<vector> 
2250
(
(-2.1889e-11 -2.00423e-11 -0.000999998)
(-1.03026e-10 -3.02333e-11 -0.000999998)
(-1.97379e-10 -3.50333e-11 -0.000999998)
(-2.55264e-10 -3.76359e-11 -0.000999999)
(-2.72045e-10 -3.93715e-11 -0.000999999)
(-3.20829e-11 -1.00995e-10 -0.000999998)
(-1.18186e-10 -1.18564e-10 -0.000999998)
(-2.05169e-10 -1.198e-10 -0.000999999)
(-2.6015e-10 -1.13972e-10 -0.000999999)
(-2.70993e-10 -1.07707e-10 -0.000999999)
(-3.92886e-11 -1.96983e-10 -0.000999998)
(-1.21836e-10 -2.08759e-10 -0.000999999)
(-1.93193e-10 -1.96059e-10 -0.000999999)
(-2.43742e-10 -1.71264e-10 -0.000999999)
(-2.59428e-10 -1.51643e-10 -0.001)
(-4.34574e-11 -2.54924e-10 -0.000999999)
(-1.16864e-10 -2.5569e-10 -0.000999999)
(-1.67678e-10 -2.34073e-10 -0.000999999)
(-2.1577e-10 -2.0454e-10 -0.000999999)
(-2.4754e-10 -1.84379e-10 -0.001)
(-3.96168e-11 -2.4428e-10 -0.000999999)
(-1.00506e-10 -2.36969e-10 -0.000999999)
(-1.42009e-10 -2.2495e-10 -0.001)
(-1.94022e-10 -2.16298e-10 -0.001)
(-2.05029e-10 -1.78127e-10 -0.001)
(-7.04953e-11 -6.57154e-11 -0.000999998)
(-2.93062e-10 -9.28602e-11 -0.000999998)
(-5.33404e-10 -1.00193e-10 -0.000999998)
(-6.66474e-10 -9.9064e-11 -0.000999999)
(-7.08981e-10 -9.4202e-11 -0.000999999)
(-9.76459e-11 -2.86393e-10 -0.000999998)
(-3.27963e-10 -3.26569e-10 -0.000999998)
(-5.40572e-10 -3.1951e-10 -0.000999998)
(-6.61816e-10 -2.91535e-10 -0.000999999)
(-6.96161e-10 -2.59511e-10 -0.000999999)
(-1.10247e-10 -5.2594e-10 -0.000999998)
(-3.26188e-10 -5.40398e-10 -0.000999998)
(-4.99388e-10 -4.97437e-10 -0.000999999)
(-6.07882e-10 -4.26335e-10 -0.000999999)
(-6.63912e-10 -3.72317e-10 -0.000999999)
(-1.11151e-10 -6.52683e-10 -0.000999999)
(-2.98485e-10 -6.34447e-10 -0.000999999)
(-4.26519e-10 -5.71401e-10 -0.000999999)
(-5.36777e-10 -4.98548e-10 -0.000999999)
(-6.34751e-10 -4.61797e-10 -0.001)
(-9.09653e-11 -6.24132e-10 -0.000999999)
(-2.43726e-10 -5.95656e-10 -0.000999999)
(-3.6343e-10 -5.66268e-10 -0.000999999)
(-4.98308e-10 -5.474e-10 -0.001)
(-5.41567e-10 -4.69554e-10 -0.001)
(-1.54252e-10 -1.43063e-10 -0.000999998)
(-5.38283e-10 -1.71983e-10 -0.000999998)
(-9.05763e-10 -1.72346e-10 -0.000999998)
(-1.09923e-09 -1.60413e-10 -0.000999999)
(-1.18059e-09 -1.44261e-10 -0.000999999)
(-1.83184e-10 -5.10765e-10 -0.000999998)
(-5.68273e-10 -5.45551e-10 -0.000999998)
(-8.95866e-10 -5.20224e-10 -0.000999998)
(-1.07338e-09 -4.67492e-10 -0.000999999)
(-1.15298e-09 -4.08686e-10 -0.000999999)
(-1.88368e-10 -8.56681e-10 -0.000999998)
(-5.47778e-10 -8.5141e-10 -0.000999998)
(-8.29472e-10 -7.83841e-10 -0.000999999)
(-9.90064e-10 -6.84104e-10 -0.000999999)
(-1.11077e-09 -6.0684e-10 -0.000999999)
(-1.76383e-10 -1.01968e-09 -0.000999998)
(-4.93819e-10 -9.76796e-10 -0.000999999)
(-7.28574e-10 -8.90353e-10 -0.000999999)
(-8.96534e-10 -8.00145e-10 -0.000999999)
(-1.09407e-09 -7.88789e-10 -0.001)
(-1.43694e-10 -1.00665e-09 -0.000999999)
(-4.16445e-10 -9.65831e-10 -0.000999999)
(-6.52689e-10 -9.34352e-10 -0.000999999)
(-8.88494e-10 -9.33397e-10 -0.001)
(-1.0365e-09 -8.96346e-10 -0.001)
(-2.59618e-10 -2.33668e-10 -0.000999997)
(-8.23029e-10 -2.53513e-10 -0.000999997)
(-1.31937e-09 -2.4598e-10 -0.000999998)
(-1.59797e-09 -2.2858e-10 -0.000999998)
(-1.73665e-09 -2.0874e-10 -0.000999999)
(-2.79512e-10 -7.46496e-10 -0.000999997)
(-8.36455e-10 -7.61317e-10 -0.000999997)
(-1.29693e-09 -7.23137e-10 -0.000999998)
(-1.56397e-09 -6.65104e-10 -0.000999998)
(-1.7045e-09 -6.04789e-10 -0.000999999)
(-2.73522e-10 -1.1832e-09 -0.000999998)
(-7.99835e-10 -1.15968e-09 -0.000999998)
(-1.22577e-09 -1.08889e-09 -0.000999998)
(-1.48305e-09 -9.97202e-10 -0.000999999)
(-1.66591e-09 -9.32839e-10 -0.000999999)
(-2.53806e-10 -1.39644e-09 -0.000999998)
(-7.3985e-10 -1.35216e-09 -0.000999998)
(-1.13446e-09 -1.277e-09 -0.000999999)
(-1.40815e-09 -1.20922e-09 -0.000999999)
(-1.67023e-09 -1.23985e-09 -0.001)
(-2.2662e-10 -1.44608e-09 -0.000999998)
(-6.77537e-10 -1.41296e-09 -0.000999999)
(-1.0826e-09 -1.38921e-09 -0.000999999)
(-1.44586e-09 -1.40788e-09 -0.001)
(-1.67642e-09 -1.43204e-09 -0.001)
(-3.84937e-10 -3.3389e-10 -0.000999996)
(-1.16575e-09 -3.43343e-10 -0.000999996)
(-1.83106e-09 -3.33767e-10 -0.000999997)
(-2.25548e-09 -3.20365e-10 -0.000999998)
(-2.46693e-09 -3.03183e-10 -0.000999999)
(-3.94479e-10 -1.01024e-09 -0.000999996)
(-1.1672e-09 -1.0086e-09 -0.000999997)
(-1.81152e-09 -9.70799e-10 -0.000999997)
(-2.22926e-09 -9.26284e-10 -0.000999998)
(-2.44226e-09 -8.78837e-10 -0.000999999)
(-3.82113e-10 -1.56864e-09 -0.000999997)
(-1.12661e-09 -1.54202e-09 -0.000999997)
(-1.7523e-09 -1.48285e-09 -0.000999998)
(-2.16811e-09 -1.41374e-09 -0.000999998)
(-2.41219e-09 -1.35977e-09 -0.000999999)
(-3.6499e-10 -1.8921e-09 -0.000999997)
(-1.07841e-09 -1.86567e-09 -0.000999998)
(-1.68326e-09 -1.80973e-09 -0.000999998)
(-2.10647e-09 -1.75321e-09 -0.000999999)
(-2.42369e-09 -1.82422e-09 -0.001)
(-3.5217e-10 -2.03517e-09 -0.000999998)
(-1.04045e-09 -2.02001e-09 -0.000999998)
(-1.63956e-09 -1.99663e-09 -0.000999999)
(-2.18259e-09 -2.00855e-09 -0.001)
(-2.40508e-09 -1.99314e-09 -0.001)
(-5.41561e-10 -4.55481e-10 -0.000999995)
(-1.60794e-09 -4.60245e-10 -0.000999995)
(-2.51287e-09 -4.54437e-10 -0.000999996)
(-3.14654e-09 -4.48113e-10 -0.000999997)
(-3.44603e-09 -4.3338e-10 -0.000999998)
(-5.46481e-10 -1.3483e-09 -0.000999995)
(-1.609e-09 -1.34325e-09 -0.000999995)
(-2.5053e-09 -1.31405e-09 -0.000999996)
(-3.13118e-09 -1.28451e-09 -0.000999997)
(-3.43243e-09 -1.24705e-09 -0.000999998)
(-5.35071e-10 -2.09579e-09 -0.000999996)
(-1.57419e-09 -2.0767e-09 -0.000999996)
(-2.45885e-09 -2.02573e-09 -0.000999997)
(-3.08563e-09 -1.96926e-09 -0.000999998)
(-3.40896e-09 -1.90882e-09 -0.000999999)
(-5.23709e-10 -2.59727e-09 -0.000999996)
(-1.53509e-09 -2.58282e-09 -0.000999997)
(-2.3979e-09 -2.52596e-09 -0.000999997)
(-3.01471e-09 -2.45253e-09 -0.000999998)
(-3.40078e-09 -2.43043e-09 -0.000999999)
(-5.15997e-10 -2.84104e-09 -0.000999997)
(-1.49788e-09 -2.83383e-09 -0.000999998)
(-2.32816e-09 -2.79612e-09 -0.000999998)
(-2.99013e-09 -2.76766e-09 -0.000999999)
(-3.38519e-09 -2.7401e-09 -0.001)
(-7.5066e-10 -6.20117e-10 -0.000999993)
(-2.20264e-09 -6.25741e-10 -0.000999993)
(-3.43326e-09 -6.23124e-10 -0.000999994)
(-4.32274e-09 -6.18631e-10 -0.000999995)
(-4.73769e-09 -6.07677e-10 -0.000999997)
(-7.56523e-10 -1.816e-09 -0.000999993)
(-2.20841e-09 -1.81561e-09 -0.000999994)
(-3.43216e-09 -1.79211e-09 -0.000999994)
(-4.31481e-09 -1.76683e-09 -0.000999996)
(-4.73439e-09 -1.74209e-09 -0.000999997)
(-7.48493e-10 -2.8287e-09 -0.000999994)
(-2.1795e-09 -2.81402e-09 -0.000999994)
(-3.39074e-09 -2.76188e-09 -0.000999995)
(-4.28082e-09 -2.70458e-09 -0.000999996)
(-4.71852e-09 -2.65857e-09 -0.000999998)
(-7.37006e-10 -3.55248e-09 -0.000999995)
(-2.13654e-09 -3.53225e-09 -0.000999995)
(-3.32278e-09 -3.46585e-09 -0.000999996)
(-4.21204e-09 -3.38737e-09 -0.000999997)
(-4.69226e-09 -3.31069e-09 -0.000999999)
(-7.22104e-10 -3.90367e-09 -0.000999996)
(-2.08619e-09 -3.88898e-09 -0.000999996)
(-3.24539e-09 -3.8379e-09 -0.000999997)
(-4.12567e-09 -3.77588e-09 -0.000999999)
(-4.66939e-09 -3.72785e-09 -0.001)
(-1.03512e-09 -8.49862e-10 -0.00099999)
(-3.00325e-09 -8.54907e-10 -0.00099999)
(-4.65806e-09 -8.49799e-10 -0.000999991)
(-5.86023e-09 -8.41835e-10 -0.000999993)
(-6.44535e-09 -8.37605e-10 -0.000999995)
(-1.04049e-09 -2.46236e-09 -0.00099999)
(-3.00685e-09 -2.46209e-09 -0.000999991)
(-4.65296e-09 -2.43776e-09 -0.000999992)
(-5.85815e-09 -2.41218e-09 -0.000999994)
(-6.45099e-09 -2.40633e-09 -0.000999996)
(-1.03252e-09 -3.81736e-09 -0.000999991)
(-2.97968e-09 -3.79921e-09 -0.000999992)
(-4.61653e-09 -3.75002e-09 -0.000999993)
(-5.83974e-09 -3.69952e-09 -0.000999995)
(-6.44672e-09 -3.69277e-09 -0.000999997)
(-1.0159e-09 -4.80152e-09 -0.000999992)
(-2.93274e-09 -4.76918e-09 -0.000999993)
(-4.55333e-09 -4.71052e-09 -0.000999994)
(-5.80168e-09 -4.66104e-09 -0.000999996)
(-6.43112e-09 -4.68417e-09 -0.000999998)
(-9.91939e-10 -5.29402e-09 -0.000999994)
(-2.87969e-09 -5.26931e-09 -0.000999995)
(-4.5077e-09 -5.2214e-09 -0.000999996)
(-5.81339e-09 -5.16509e-09 -0.000999998)
(-6.36035e-09 -5.06346e-09 -0.001)
(-1.41247e-09 -1.15972e-09 -0.000999985)
(-4.06759e-09 -1.15807e-09 -0.000999986)
(-6.28639e-09 -1.14737e-09 -0.000999988)
(-7.90358e-09 -1.13749e-09 -0.00099999)
(-8.74165e-09 -1.14002e-09 -0.000999993)
(-1.41128e-09 -3.33516e-09 -0.000999986)
(-4.06011e-09 -3.32673e-09 -0.000999987)
(-6.27648e-09 -3.30262e-09 -0.000999989)
(-7.9099e-09 -3.28393e-09 -0.000999991)
(-8.75588e-09 -3.29592e-09 -0.000999993)
(-1.40095e-09 -5.14415e-09 -0.000999987)
(-4.03643e-09 -5.12444e-09 -0.000999988)
(-6.25483e-09 -5.09351e-09 -0.00099999)
(-7.91164e-09 -5.06715e-09 -0.000999992)
(-8.76527e-09 -5.10466e-09 -0.000999995)
(-1.38292e-09 -6.46319e-09 -0.000999989)
(-4.00042e-09 -6.43156e-09 -0.00099999)
(-6.21928e-09 -6.40063e-09 -0.000999992)
(-7.92211e-09 -6.39985e-09 -0.000999994)
(-8.76897e-09 -6.54509e-09 -0.000999997)
(-1.35829e-09 -7.16043e-09 -0.000999991)
(-3.96185e-09 -7.13724e-09 -0.000999992)
(-6.22218e-09 -7.10681e-09 -0.000999994)
(-8.0561e-09 -7.0715e-09 -0.000999996)
(-8.65286e-09 -6.92605e-09 -0.000999999)
(-1.90409e-09 -1.56596e-09 -0.00099998)
(-5.48655e-09 -1.55761e-09 -0.000999981)
(-8.49081e-09 -1.54559e-09 -0.000999983)
(-1.0684e-08 -1.54013e-09 -0.000999986)
(-1.18712e-08 -1.54914e-09 -0.00099999)
(-1.89634e-09 -4.50931e-09 -0.00099998)
(-5.47272e-09 -4.49694e-09 -0.000999982)
(-8.48769e-09 -4.48194e-09 -0.000999984)
(-1.0706e-08 -4.47955e-09 -0.000999987)
(-1.18963e-08 -4.50292e-09 -0.000999991)
(-1.88753e-09 -6.96159e-09 -0.000999982)
(-5.46101e-09 -6.95385e-09 -0.000999983)
(-8.4885e-09 -6.9505e-09 -0.000999986)
(-1.07248e-08 -6.95215e-09 -0.000999989)
(-1.19156e-08 -7.00157e-09 -0.000999992)
(-1.87695e-09 -8.75116e-09 -0.000999985)
(-5.44947e-09 -8.73923e-09 -0.000999986)
(-8.4861e-09 -8.73722e-09 -0.000999988)
(-1.07585e-08 -8.75862e-09 -0.000999991)
(-1.19324e-08 -8.9304e-09 -0.000999995)
(-1.86077e-09 -9.72631e-09 -0.000999988)
(-5.43096e-09 -9.71775e-09 -0.000999989)
(-8.50662e-09 -9.70515e-09 -0.000999991)
(-1.0918e-08 -9.68776e-09 -0.000999994)
(-1.18118e-08 -9.54338e-09 -0.000999998)
(-2.55856e-09 -2.10859e-09 -0.000999972)
(-7.41701e-09 -2.10354e-09 -0.000999973)
(-1.15273e-08 -2.09754e-09 -0.000999976)
(-1.45188e-08 -2.10032e-09 -0.00099998)
(-1.61557e-08 -2.11545e-09 -0.000999985)
(-2.55431e-09 -6.1162e-09 -0.000999973)
(-7.41483e-09 -6.11677e-09 -0.000999974)
(-1.15436e-08 -6.11636e-09 -0.000999978)
(-1.45617e-08 -6.12948e-09 -0.000999982)
(-1.61915e-08 -6.15633e-09 -0.000999987)
(-2.55339e-09 -9.48998e-09 -0.000999975)
(-7.41962e-09 -9.50586e-09 -0.000999977)
(-1.15604e-08 -9.52191e-09 -0.00099998)
(-1.45856e-08 -9.53879e-09 -0.000999984)
(-1.62073e-08 -9.56467e-09 -0.000999989)
(-2.55438e-09 -1.19408e-08 -0.000999979)
(-7.4303e-09 -1.19572e-08 -0.000999981)
(-1.15767e-08 -1.19698e-08 -0.000999984)
(-1.46064e-08 -1.19771e-08 -0.000999988)
(-1.6214e-08 -1.20497e-08 -0.000999993)
(-2.54964e-09 -1.32677e-08 -0.000999983)
(-7.42679e-09 -1.32768e-08 -0.000999985)
(-1.15786e-08 -1.32691e-08 -0.000999988)
(-1.46655e-08 -1.32504e-08 -0.000999992)
(-1.61538e-08 -1.31735e-08 -0.000999997)
(-3.46345e-09 -2.86167e-09 -0.000999961)
(-1.00888e-08 -2.8708e-09 -0.000999963)
(-1.57245e-08 -2.87227e-09 -0.000999967)
(-1.98083e-08 -2.87898e-09 -0.000999973)
(-2.20137e-08 -2.89412e-09 -0.00099998)
(-3.47364e-09 -8.34633e-09 -0.000999963)
(-1.01115e-08 -8.37141e-09 -0.000999965)
(-1.57591e-08 -8.37781e-09 -0.000999969)
(-1.98641e-08 -8.38907e-09 -0.000999975)
(-2.20542e-08 -8.40453e-09 -0.000999982)
(-3.48069e-09 -1.29969e-08 -0.000999966)
(-1.01236e-08 -1.30324e-08 -0.000999968)
(-1.57699e-08 -1.30437e-08 -0.000999973)
(-1.98715e-08 -1.30455e-08 -0.000999978)
(-2.2049e-08 -1.303e-08 -0.000999985)
(-3.48762e-09 -1.63514e-08 -0.000999971)
(-1.01359e-08 -1.63883e-08 -0.000999973)
(-1.57725e-08 -1.63935e-08 -0.000999977)
(-1.98531e-08 -1.63634e-08 -0.000999983)
(-2.20296e-08 -1.63311e-08 -0.00099999)
(-3.49011e-09 -1.81223e-08 -0.000999977)
(-1.01358e-08 -1.81427e-08 -0.000999979)
(-1.57426e-08 -1.81258e-08 -0.000999983)
(-1.98091e-08 -1.80944e-08 -0.000999989)
(-2.20011e-08 -1.80592e-08 -0.000999995)
(-4.73403e-09 -3.92194e-09 -0.000999946)
(-1.37897e-08 -3.94419e-09 -0.000999949)
(-2.14862e-08 -3.94619e-09 -0.000999955)
(-2.70594e-08 -3.94569e-09 -0.000999963)
(-3.00015e-08 -3.94607e-09 -0.000999972)
(-4.75774e-09 -1.14335e-08 -0.000999949)
(-1.38304e-08 -1.14745e-08 -0.000999952)
(-2.15238e-08 -1.14679e-08 -0.000999958)
(-2.71053e-08 -1.14499e-08 -0.000999965)
(-3.00351e-08 -1.14248e-08 -0.000999975)
(-4.76439e-09 -1.78005e-08 -0.000999954)
(-1.38286e-08 -1.78368e-08 -0.000999957)
(-2.14994e-08 -1.78133e-08 -0.000999962)
(-2.70659e-08 -1.77638e-08 -0.00099997)
(-2.99923e-08 -1.7691e-08 -0.000999979)
(-4.76488e-09 -2.23826e-08 -0.00099996)
(-1.38127e-08 -2.24179e-08 -0.000999963)
(-2.14511e-08 -2.23851e-08 -0.000999969)
(-2.69866e-08 -2.22992e-08 -0.000999977)
(-2.99375e-08 -2.21897e-08 -0.000999986)
(-4.76221e-09 -2.47379e-08 -0.000999968)
(-1.37905e-08 -2.47578e-08 -0.000999971)
(-2.13774e-08 -2.47194e-08 -0.000999976)
(-2.68704e-08 -2.46687e-08 -0.000999984)
(-2.99071e-08 -2.46424e-08 -0.000999993)
(-6.49588e-09 -5.39168e-09 -0.000999926)
(-1.88618e-08 -5.41357e-09 -0.000999931)
(-2.93306e-08 -5.40408e-09 -0.000999938)
(-3.69365e-08 -5.38391e-09 -0.000999949)
(-4.08732e-08 -5.35318e-09 -0.000999962)
(-6.51977e-09 -1.5652e-08 -0.00099993)
(-1.88965e-08 -1.56833e-08 -0.000999934)
(-2.93498e-08 -1.564e-08 -0.000999942)
(-3.6948e-08 -1.5569e-08 -0.000999952)
(-4.08866e-08 -1.54747e-08 -0.000999965)
(-6.51295e-09 -2.43104e-08 -0.000999936)
(-1.88561e-08 -2.43238e-08 -0.00099994)
(-2.92676e-08 -2.42417e-08 -0.000999948)
(-3.68386e-08 -2.41186e-08 -0.000999959)
(-4.07897e-08 -2.39719e-08 -0.000999971)
(-6.49374e-09 -3.05704e-08 -0.000999945)
(-1.87866e-08 -3.05763e-08 -0.000999949)
(-2.91451e-08 -3.04762e-08 -0.000999957)
(-3.66832e-08 -3.03186e-08 -0.000999967)
(-4.06845e-08 -3.0135e-08 -0.00099998)
(-6.46807e-09 -3.37326e-08 -0.000999956)
(-1.87067e-08 -3.37373e-08 -0.00099996)
(-2.90055e-08 -3.36576e-08 -0.000999967)
(-3.64975e-08 -3.35666e-08 -0.000999978)
(-4.06348e-08 -3.35294e-08 -0.00099999)
(-8.88961e-09 -7.38308e-09 -0.000999899)
(-2.57376e-08 -7.38808e-09 -0.000999905)
(-3.99587e-08 -7.35591e-09 -0.000999915)
(-5.03349e-08 -7.30872e-09 -0.00099993)
(-5.56596e-08 -7.24194e-09 -0.000999947)
(-8.89734e-09 -2.13512e-08 -0.000999904)
(-2.57405e-08 -2.13462e-08 -0.000999909)
(-3.99455e-08 -2.1249e-08 -0.00099992)
(-5.03054e-08 -2.11155e-08 -0.000999934)
(-5.56492e-08 -2.09462e-08 -0.000999951)
(-8.86543e-09 -3.30973e-08 -0.000999913)
(-2.56439e-08 -3.30714e-08 -0.000999918)
(-3.97976e-08 -3.29222e-08 -0.000999929)
(-5.01235e-08 -3.27226e-08 -0.000999943)
(-5.54844e-08 -3.24935e-08 -0.00099996)
(-8.81816e-09 -4.16467e-08 -0.000999924)
(-2.55094e-08 -4.16058e-08 -0.00099993)
(-3.95972e-08 -4.14244e-08 -0.00099994)
(-4.98835e-08 -4.11851e-08 -0.000999955)
(-5.52972e-08 -4.08962e-08 -0.000999972)
(-8.7559e-09 -4.59593e-08 -0.000999939)
(-2.53468e-08 -4.5937e-08 -0.000999944)
(-3.9371e-08 -4.57899e-08 -0.000999954)
(-4.95953e-08 -4.56152e-08 -0.000999969)
(-5.51902e-08 -4.55206e-08 -0.000999985)
(-1.21048e-08 -1.00502e-08 -0.000999862)
(-3.50198e-08 -1.00307e-08 -0.000999869)
(-5.43595e-08 -9.9732e-09 -0.000999884)
(-6.85001e-08 -9.90027e-09 -0.000999903)
(-7.57769e-08 -9.80594e-09 -0.000999927)
(-1.2089e-08 -2.90328e-08 -0.000999868)
(-3.49834e-08 -2.89832e-08 -0.000999876)
(-5.43184e-08 -2.88311e-08 -0.00099989)
(-6.84473e-08 -2.86356e-08 -0.00099991)
(-7.57516e-08 -2.84005e-08 -0.000999933)
(-1.20294e-08 -4.49945e-08 -0.00099988)
(-3.48296e-08 -4.49312e-08 -0.000999888)
(-5.41062e-08 -4.47161e-08 -0.000999902)
(-6.81935e-08 -4.44309e-08 -0.000999921)
(-7.55049e-08 -4.41018e-08 -0.000999944)
(-1.19539e-08 -5.66466e-08 -0.000999896)
(-3.46295e-08 -5.65645e-08 -0.000999904)
(-5.3819e-08 -5.62985e-08 -0.000999918)
(-6.78421e-08 -5.59523e-08 -0.000999937)
(-7.5197e-08 -5.55174e-08 -0.00099996)
(-1.18547e-08 -6.2592e-08 -0.000999915)
(-3.43803e-08 -6.25409e-08 -0.000999923)
(-5.34858e-08 -6.23008e-08 -0.000999937)
(-6.74125e-08 -6.19975e-08 -0.000999956)
(-7.49462e-08 -6.17499e-08 -0.000999979)
(-1.64324e-08 -1.36389e-08 -0.000999811)
(-4.75924e-08 -1.3604e-08 -0.000999821)
(-7.39384e-08 -1.35268e-08 -0.000999841)
(-9.31835e-08 -1.34303e-08 -0.000999868)
(-1.03168e-07 -1.33132e-08 -0.000999899)
(-1.64026e-08 -3.94516e-08 -0.00099982)
(-4.75351e-08 -3.9376e-08 -0.00099983)
(-7.38855e-08 -3.91745e-08 -0.000999849)
(-9.31248e-08 -3.89077e-08 -0.000999876)
(-1.03129e-07 -3.85985e-08 -0.000999908)
(-1.63223e-08 -6.12075e-08 -0.000999836)
(-4.7331e-08 -6.11226e-08 -0.000999846)
(-7.35976e-08 -6.08319e-08 -0.000999865)
(-9.27754e-08 -6.04256e-08 -0.000999892)
(-1.0277e-07 -5.99593e-08 -0.000999923)
(-1.62206e-08 -7.70594e-08 -0.000999858)
(-4.70573e-08 -7.69539e-08 -0.000999868)
(-7.31897e-08 -7.65886e-08 -0.000999888)
(-9.22648e-08 -7.60889e-08 -0.000999914)
(-1.02292e-07 -7.54682e-08 -0.000999945)
(-1.60918e-08 -8.52575e-08 -0.000999884)
(-4.67235e-08 -8.51778e-08 -0.000999894)
(-7.27215e-08 -8.48122e-08 -0.000999913)
(-9.16549e-08 -8.43331e-08 -0.00099994)
(-1.01796e-07 -8.38298e-08 -0.000999971)
(-2.23141e-08 -1.85305e-08 -0.000999742)
(-6.47221e-08 -1.84978e-08 -0.000999756)
(-1.00638e-07 -1.84011e-08 -0.000999783)
(-1.26806e-07 -1.82703e-08 -0.000999819)
(-1.40494e-07 -1.81194e-08 -0.000999862)
(-2.22883e-08 -5.36991e-08 -0.000999754)
(-6.46668e-08 -5.36215e-08 -0.000999768)
(-1.00574e-07 -5.33551e-08 -0.000999794)
(-1.26734e-07 -5.29806e-08 -0.000999831)
(-1.40423e-07 -5.25565e-08 -0.000999874)
(-2.21899e-08 -8.3402e-08 -0.000999776)
(-6.43993e-08 -8.32998e-08 -0.00099979)
(-1.00169e-07 -8.28944e-08 -0.000999816)
(-1.26234e-07 -8.23094e-08 -0.000999853)
(-1.39894e-07 -8.16486e-08 -0.000999895)
(-2.20549e-08 -1.04964e-07 -0.000999806)
(-6.4021e-08 -1.04838e-07 -0.00099982)
(-9.95849e-08 -1.0433e-07 -0.000999847)
(-1.25505e-07 -1.03613e-07 -0.000999883)
(-1.39169e-07 -1.02766e-07 -0.000999925)
(-2.18941e-08 -1.16201e-07 -0.000999842)
(-6.35806e-08 -1.1608e-07 -0.000999856)
(-9.893e-08 -1.15534e-07 -0.000999882)
(-1.2467e-07 -1.14803e-07 -0.000999918)
(-1.3833e-07 -1.13955e-07 -0.00099996)
(-3.03667e-08 -2.52587e-08 -0.000999648)
(-8.81366e-08 -2.52333e-08 -0.000999668)
(-1.3708e-07 -2.50997e-08 -0.000999704)
(-1.7268e-07 -2.49096e-08 -0.000999754)
(-1.91404e-07 -2.46961e-08 -0.000999812)
(-3.03505e-08 -7.32559e-08 -0.000999664)
(-8.80778e-08 -7.31699e-08 -0.000999684)
(-1.36977e-07 -7.27876e-08 -0.00099972)
(-1.72559e-07 -7.22422e-08 -0.00099977)
(-1.9127e-07 -7.1626e-08 -0.000999828)
(-3.02175e-08 -1.13803e-07 -0.000999695)
(-8.7697e-08 -1.13657e-07 -0.000999714)
(-1.36385e-07 -1.13065e-07 -0.00099975)
(-1.71825e-07 -1.12219e-07 -0.000999799)
(-1.9048e-07 -1.1126e-07 -0.000999858)
(-3.00272e-08 -1.43165e-07 -0.000999736)
(-8.7153e-08 -1.42986e-07 -0.000999755)
(-1.35541e-07 -1.42253e-07 -0.000999791)
(-1.70777e-07 -1.41211e-07 -0.00099984)
(-1.89388e-07 -1.40018e-07 -0.000999898)
(-2.98099e-08 -1.58479e-07 -0.000999785)
(-8.65349e-08 -1.5828e-07 -0.000999804)
(-1.3459e-07 -1.57463e-07 -0.00099984)
(-1.6959e-07 -1.56353e-07 -0.000999888)
(-1.8809e-07 -1.55055e-07 -0.000999946)
(-4.13991e-08 -3.45179e-08 -0.000999521)
(-1.20133e-07 -3.44817e-08 -0.000999547)
(-1.86806e-07 -3.42804e-08 -0.000999597)
(-2.35318e-07 -3.39962e-08 -0.000999665)
(-2.60896e-07 -3.36697e-08 -0.000999745)
(-4.13754e-08 -1.00076e-07 -0.000999543)
(-1.20031e-07 -9.9937e-08 -0.000999569)
(-1.86619e-07 -9.93603e-08 -0.000999619)
(-2.35089e-07 -9.85519e-08 -0.000999687)
(-2.60645e-07 -9.76196e-08 -0.000999766)
(-4.11742e-08 -1.55395e-07 -0.000999584)
(-1.19456e-07 -1.5515e-07 -0.000999611)
(-1.85736e-07 -1.54263e-07 -0.00099966)
(-2.33992e-07 -1.53023e-07 -0.000999727)
(-2.59453e-07 -1.5159e-07 -0.000999807)
(-4.0891e-08 -1.95419e-07 -0.000999641)
(-1.18647e-07 -1.95123e-07 -0.000999667)
(-1.84495e-07 -1.94024e-07 -0.000999716)
(-2.32448e-07 -1.92474e-07 -0.000999783)
(-2.57795e-07 -1.90683e-07 -0.000999862)
(-4.057e-08 -2.16233e-07 -0.000999708)
(-1.17724e-07 -2.15883e-07 -0.000999734)
(-1.8306e-07 -2.14651e-07 -0.000999782)
(-2.30651e-07 -2.12951e-07 -0.000999848)
(-2.55829e-07 -2.1099e-07 -0.000999926)
(-5.64724e-08 -4.72178e-08 -0.000999347)
(-1.63797e-07 -4.71403e-08 -0.000999383)
(-2.54643e-07 -4.68325e-08 -0.00099945)
(-3.20833e-07 -4.64051e-08 -0.000999543)
(-3.55768e-07 -4.58995e-08 -0.000999653)
(-5.64116e-08 -1.36795e-07 -0.000999377)
(-1.63594e-07 -1.36537e-07 -0.000999413)
(-2.54311e-07 -1.35663e-07 -0.00099948)
(-3.20416e-07 -1.34454e-07 -0.000999573)
(-3.55315e-07 -1.33036e-07 -0.000999682)
(-5.6099e-08 -2.12271e-07 -0.000999434)
(-1.62717e-07 -2.11849e-07 -0.00099947)
(-2.52986e-07 -2.10512e-07 -0.000999537)
(-3.18767e-07 -2.08663e-07 -0.000999629)
(-3.53511e-07 -2.0651e-07 -0.000999737)
(-5.56664e-08 -2.66849e-07 -0.000999512)
(-1.61494e-07 -2.66338e-07 -0.000999547)
(-2.51129e-07 -2.64664e-07 -0.000999614)
(-3.16457e-07 -2.62326e-07 -0.000999705)
(-3.5098e-07 -2.59601e-07 -0.000999812)
(-5.51731e-08 -2.95124e-07 -0.000999603)
(-1.60077e-07 -2.94513e-07 -0.000999638)
(-2.48936e-07 -2.92635e-07 -0.000999704)
(-3.13705e-07 -2.90024e-07 -0.000999794)
(-3.47992e-07 -2.8702e-07 -0.0009999)
(-7.70255e-08 -6.46077e-08 -0.00099911)
(-2.23343e-07 -6.44577e-08 -0.000999159)
(-3.47189e-07 -6.39919e-08 -0.000999251)
(-4.37536e-07 -6.33497e-08 -0.000999377)
(-4.85282e-07 -6.25889e-08 -0.000999527)
(-7.6898e-08 -1.87066e-07 -0.000999151)
(-2.22973e-07 -1.86616e-07 -0.0009992)
(-3.46624e-07 -1.85299e-07 -0.000999292)
(-4.36829e-07 -1.83485e-07 -0.000999418)
(-4.84504e-07 -1.81355e-07 -0.000999567)
(-7.64197e-08 -2.90122e-07 -0.000999229)
(-2.21646e-07 -2.89416e-07 -0.000999277)
(-3.44632e-07 -2.87396e-07 -0.000999369)
(-4.3435e-07 -2.84615e-07 -0.000999494)
(-4.8178e-07 -2.81382e-07 -0.000999642)
(-7.5756e-08 -3.64558e-07 -0.000999336)
(-2.19787e-07 -3.63684e-07 -0.000999384)
(-3.41828e-07 -3.61126e-07 -0.000999474)
(-4.30873e-07 -3.5759e-07 -0.000999598)
(-4.77933e-07 -3.5347e-07 -0.000999744)
(-7.4987e-08 -4.02972e-07 -0.00099946)
(-2.17599e-07 -4.01939e-07 -0.000999508)
(-3.38487e-07 -3.99052e-07 -0.000999597)
(-4.26694e-07 -3.95052e-07 -0.000999719)
(-4.73401e-07 -3.90444e-07 -0.000999863)
(-1.05051e-07 -8.84464e-08 -0.000998785)
(-3.04574e-07 -8.81908e-08 -0.000998852)
(-4.73472e-07 -8.74908e-08 -0.000998978)
(-5.96792e-07 -8.6528e-08 -0.000999151)
(-6.6211e-07 -8.54037e-08 -0.000999354)
(-1.04826e-07 -2.56013e-07 -0.000998842)
(-3.03949e-07 -2.55274e-07 -0.000998909)
(-4.7254e-07 -2.53289e-07 -0.000999034)
(-5.95642e-07 -2.5056e-07 -0.000999206)
(-6.60834e-07 -2.47383e-07 -0.000999409)
(-1.04103e-07 -3.96875e-07 -0.000998949)
(-3.01943e-07 -3.95721e-07 -0.000999015)
(-4.69532e-07 -3.92658e-07 -0.000999139)
(-5.91908e-07 -3.88453e-07 -0.00099931)
(-6.5672e-07 -3.83576e-07 -0.000999512)
(-1.03087e-07 -4.98422e-07 -0.000999095)
(-2.99112e-07 -4.96958e-07 -0.000999161)
(-4.65279e-07 -4.93043e-07 -0.000999284)
(-5.8664e-07 -4.87669e-07 -0.000999452)
(-6.50897e-07 -4.81412e-07 -0.000999651)
(-1.01887e-07 -5.506e-07 -0.000999267)
(-2.95737e-07 -5.4889e-07 -0.000999331)
(-4.60174e-07 -5.4442e-07 -0.000999452)
(-5.80277e-07 -5.38291e-07 -0.000999618)
(-6.44005e-07 -5.31234e-07 -0.000999814)
(-1.43314e-07 -1.21207e-07 -0.000998342)
(-4.1548e-07 -1.20797e-07 -0.000998433)
(-6.45855e-07 -1.19742e-07 -0.000998605)
(-8.1416e-07 -1.18297e-07 -0.000998841)
(-9.03581e-07 -1.16629e-07 -0.000999119)
(-1.42945e-07 -3.50795e-07 -0.00099842)
(-4.14459e-07 -3.49607e-07 -0.000998511)
(-6.44339e-07 -3.46595e-07 -0.000998682)
(-8.1231e-07 -3.42483e-07 -0.000998917)
(-9.01544e-07 -3.37733e-07 -0.000999194)
(-1.41846e-07 -5.43552e-07 -0.000998567)
(-4.11406e-07 -5.41681e-07 -0.000998658)
(-6.39772e-07 -5.36998e-07 -0.000998827)
(-8.06675e-07 -5.30622e-07 -0.00099906)
(-8.95339e-07 -5.23253e-07 -0.000999334)
(-1.40287e-07 -6.82139e-07 -0.000998769)
(-4.0707e-07 -6.7972e-07 -0.000998858)
(-6.33289e-07 -6.73697e-07 -0.000999025)
(-7.98672e-07 -6.65501e-07 -0.000999255)
(-8.86561e-07 -6.55999e-07 -0.000999525)
(-1.38418e-07 -7.52944e-07 -0.000999004)
(-4.01849e-07 -7.50134e-07 -0.000999091)
(-6.25459e-07 -7.43194e-07 -0.000999255)
(-7.88977e-07 -7.33787e-07 -0.000999481)
(-8.76062e-07 -7.22999e-07 -0.000999748)
(-1.95647e-07 -1.66338e-07 -0.000997736)
(-5.67048e-07 -1.65682e-07 -0.000997861)
(-8.81247e-07 -1.64081e-07 -0.000998095)
(-1.11087e-06 -1.61915e-07 -0.000998418)
(-1.2333e-06 -1.5943e-07 -0.000998797)
(-1.95044e-07 -4.81387e-07 -0.000997844)
(-5.65386e-07 -4.79467e-07 -0.000997968)
(-8.788e-07 -4.74875e-07 -0.000998202)
(-1.10792e-06 -4.68689e-07 -0.000998523)
(-1.2301e-06 -4.61604e-07 -0.000998901)
(-1.9335e-07 -7.45461e-07 -0.000998047)
(-5.60703e-07 -7.42411e-07 -0.00099817)
(-8.7187e-07 -7.35235e-07 -0.000998401)
(-1.09945e-06 -7.25597e-07 -0.000998719)
(-1.22082e-06 -7.14563e-07 -0.000999093)
(-1.9094e-07 -9.34671e-07 -0.000998324)
(-5.54037e-07 -9.30691e-07 -0.000998446)
(-8.61998e-07 -9.21405e-07 -0.000998673)
(-1.08739e-06 -9.08947e-07 -0.000998986)
(-1.2077e-06 -8.94679e-07 -0.000999355)
(-1.88021e-07 -1.03058e-06 -0.000998647)
(-5.45941e-07 -1.02596e-06 -0.000998766)
(-8.49997e-07 -1.0152e-06 -0.000998989)
(-1.07273e-06 -1.00079e-06 -0.000999296)
(-1.19184e-06 -9.84379e-07 -0.000999659)
(-2.67406e-07 -2.28624e-07 -0.000996906)
(-7.74452e-07 -2.27539e-07 -0.000997078)
(-1.20278e-06 -2.2511e-07 -0.000997399)
(-1.51584e-06 -2.21873e-07 -0.000997839)
(-1.68335e-06 -2.18217e-07 -0.000998356)
(-2.66393e-07 -6.61739e-07 -0.000997055)
(-7.71733e-07 -6.58568e-07 -0.000997227)
(-1.19889e-06 -6.5158e-07 -0.000997546)
(-1.51122e-06 -6.42332e-07 -0.000997984)
(-1.67839e-06 -6.31906e-07 -0.000998499)
(-2.63732e-07 -1.02395e-06 -0.000997337)
(-7.64515e-07 -1.01893e-06 -0.000997506)
(-1.18843e-06 -1.00796e-06 -0.000997821)
(-1.49866e-06 -9.93512e-07 -0.000998254)
(-1.66475e-06 -9.77244e-07 -0.000998764)
(-2.59961e-07 -1.28233e-06 -0.000997719)
(-7.54241e-07 -1.27577e-06 -0.000997885)
(-1.17349e-06 -1.26147e-06 -0.000998194)
(-1.4807e-06 -1.24266e-06 -0.00099862)
(-1.64541e-06 -1.22154e-06 -0.000999123)
(-2.55371e-07 -1.41191e-06 -0.000998164)
(-7.41652e-07 -1.4043e-06 -0.000998326)
(-1.15514e-06 -1.38764e-06 -0.000998628)
(-1.45872e-06 -1.36565e-06 -0.000999046)
(-1.62184e-06 -1.34092e-06 -0.000999539)
(-3.66251e-07 -3.14635e-07 -0.000995769)
(-1.05887e-06 -3.1275e-07 -0.000996007)
(-1.64218e-06 -3.09092e-07 -0.000996446)
(-2.06842e-06 -3.04259e-07 -0.000997047)
(-2.29706e-06 -2.98982e-07 -0.000997753)
(-3.64464e-07 -9.11565e-07 -0.000995975)
(-1.05439e-06 -9.06151e-07 -0.000996211)
(-1.63606e-06 -8.95559e-07 -0.000996648)
(-2.06137e-06 -8.81807e-07 -0.000997246)
(-2.28959e-06 -8.66749e-07 -0.000997948)
(-3.60174e-07 -1.40904e-06 -0.000996367)
(-1.04317e-06 -1.40059e-06 -0.0009966)
(-1.62036e-06 -1.3839e-06 -0.00099703)
(-2.04296e-06 -1.3624e-06 -0.000997621)
(-2.26998e-06 -1.33884e-06 -0.000998316)
(-3.54147e-07 -1.76193e-06 -0.000996894)
(-1.02724e-06 -1.75091e-06 -0.000997121)
(-1.59789e-06 -1.72887e-06 -0.000997543)
(-2.01657e-06 -1.70064e-06 -0.000998124)
(-2.242e-06 -1.66978e-06 -0.000998809)
(-3.46769e-07 -1.93628e-06 -0.00099751)
(-1.00743e-06 -1.92365e-06 -0.00099773)
(-1.56986e-06 -1.89783e-06 -0.000998141)
(-1.98387e-06 -1.86448e-06 -0.000998708)
(-2.20781e-06 -1.82765e-06 -0.00099938)
(-5.03652e-07 -4.3308e-07 -0.000994208)
(-1.45037e-06 -4.29526e-07 -0.000994543)
(-2.243e-06 -4.24152e-07 -0.000995144)
(-2.82219e-06 -4.16815e-07 -0.000995966)
(-3.13224e-06 -4.0938e-07 -0.000996926)
(-5.0024e-07 -1.25922e-06 -0.00099449)
(-1.44286e-06 -1.24942e-06 -0.00099482)
(-2.23345e-06 -1.2335e-06 -0.000995417)
(-2.81151e-06 -1.21299e-06 -0.000996233)
(-3.12137e-06 -1.1917e-06 -0.00099719)
(-4.93006e-07 -1.94341e-06 -0.000995045)
(-1.42506e-06 -1.92858e-06 -0.000995367)
(-2.20994e-06 -1.90332e-06 -0.000995955)
(-2.78489e-06 -1.87147e-06 -0.000996761)
(-3.09424e-06 -1.8381e-06 -0.000997708)
(-4.82987e-07 -2.42552e-06 -0.000995768)
(-1.40012e-06 -2.40616e-06 -0.000996079)
(-2.17637e-06 -2.372e-06 -0.000996657)
(-2.74665e-06 -2.32981e-06 -0.000997447)
(-3.05483e-06 -2.28553e-06 -0.000998381)
(-4.70554e-07 -2.65835e-06 -0.000996631)
(-1.36801e-06 -2.63712e-06 -0.000996927)
(-2.13326e-06 -2.59708e-06 -0.000997484)
(-2.69842e-06 -2.54701e-06 -0.000998254)
(-3.00699e-06 -2.49274e-06 -0.000999171)
(-6.9822e-07 -5.93966e-07 -0.000992061)
(-1.99267e-06 -5.86307e-07 -0.000992547)
(-3.0648e-06 -5.79162e-07 -0.000993366)
(-3.85016e-06 -5.67307e-07 -0.000994492)
(-4.26409e-06 -5.57321e-07 -0.000995797)
(-6.90793e-07 -1.74696e-06 -0.000992432)
(-1.97977e-06 -1.72754e-06 -0.000992903)
(-3.04999e-06 -1.70418e-06 -0.000993723)
(-3.83377e-06 -1.67296e-06 -0.000994835)
(-4.249e-06 -1.64361e-06 -0.000996138)
(-6.77797e-07 -2.68816e-06 -0.000993247)
(-1.9505e-06 -2.66044e-06 -0.0009937)
(-3.0147e-06 -2.62317e-06 -0.000994504)
(-3.79559e-06 -2.57597e-06 -0.000995602)
(-4.21431e-06 -2.53021e-06 -0.00099689)
(-6.60039e-07 -3.34805e-06 -0.000994219)
(-1.91135e-06 -3.31126e-06 -0.000994649)
(-2.96556e-06 -3.25766e-06 -0.000995444)
(-3.7413e-06 -3.19439e-06 -0.000996518)