/*--------------------------------*- C++ -*----------------------------------*\
  =========                 |
  \\      /  F ield         | OpenFOAM: The Open Source CFD Toolbox
   \\    /   O peration     | Website:  https://openfoam.org
    \\  /    A nd           | Version:  9
     \\/     M anipulation  |
\*---------------------------------------------------------------------------*/
FoamFile
{
    format      ascii;
    class       volScalarField;
    location    "90000";
    object      p;
}
// * * * * * * * * * * * * * * * * * * * * * * * * * * * * * * * * * * * * * //

dimensions      [0 2 -2 0 0 0 0];

internalField   nonuniform List<scalar> 
9000
(
5.05481e-10
4.8803e-10
4.56499e-10
3.93323e-10
2.9848e-10
2.58186e-10
2.44882e-10
2.33087e-10
2.17888e-10
2.06366e-10
5.07818e-10
4.94229e-10
4.67411e-10
4.10192e-10
3.25495e-10
2.77001e-10
2.63549e-10
2.44068e-10
2.21611e-10
2.09709e-10
5.11862e-10
5.0003e-10
4.86975e-10
4.54695e-10
4.07492e-10
3.56889e-10
3.36449e-10
3.04059e-10
2.72788e-10
2.5658e-10
5.01666e-10
4.99594e-10
5.12384e-10
5.21511e-10
5.22935e-10
4.63838e-10
4.33274e-10
3.8408e-10
3.412e-10
3.19112e-10
4.45318e-10
4.72739e-10
5.29265e-10
5.962e-10
6.55972e-10
5.70092e-10
5.27388e-10
4.6073e-10
4.04635e-10
3.75937e-10
4.26954e-10
4.46684e-10
4.95576e-10
5.45151e-10
5.86071e-10
6.30613e-10
5.38117e-10
4.77571e-10
4.31413e-10
4.05375e-10
4.13384e-10
4.17323e-10
4.49134e-10
4.90163e-10
5.31359e-10
5.24539e-10
4.84955e-10
4.55089e-10
4.29308e-10
4.13671e-10
3.73779e-10
3.69394e-10
3.91215e-10
4.1901e-10
4.46441e-10
4.45435e-10
4.32066e-10
4.20892e-10
4.10655e-10
4.05832e-10
3.48799e-10
3.43197e-10
3.59213e-10
3.74344e-10
3.83712e-10
3.86681e-10
3.90896e-10
3.93689e-10
3.96278e-10
4.00471e-10
3.43079e-10
3.39753e-10
3.52157e-10
3.59456e-10
3.58378e-10
3.60241e-10
3.71758e-10
3.82238e-10
3.92184e-10
4.01244e-10
1.51589e-09
1.46756e-09
1.37452e-09
1.19981e-09
9.52929e-10
8.36481e-10
7.92157e-10
7.45249e-10
6.94828e-10
6.66325e-10
1.52331e-09
1.48431e-09
1.40449e-09
1.2507e-09
1.04412e-09
9.08757e-10
8.5528e-10
7.86336e-10
7.18886e-10
6.92865e-10
1.53336e-09
1.50446e-09
1.46357e-09
1.37607e-09
1.26565e-09
1.12594e-09
1.04881e-09
9.46663e-10
8.57196e-10
8.19559e-10
1.51347e-09
1.51523e-09
1.53882e-09
1.55122e-09
1.55566e-09
1.3896e-09
1.28829e-09
1.15012e-09
1.03466e-09
9.81133e-10
1.39492e-09
1.468e-09
1.58902e-09
1.73566e-09
1.87617e-09
1.61445e-09
1.49806e-09
1.33693e-09
1.19672e-09
1.12328e-09
1.33563e-09
1.38868e-09
1.49674e-09
1.59297e-09
1.66043e-09
1.80497e-09
1.55706e-09
1.38811e-09
1.26596e-09
1.19679e-09
1.28657e-09
1.30066e-09
1.36833e-09
1.44376e-09
1.50683e-09
1.51062e-09
1.39448e-09
1.31868e-09
1.25925e-09
1.2261e-09
1.18051e-09
1.17882e-09
1.22483e-09
1.27115e-09
1.3027e-09
1.29323e-09
1.25823e-09
1.2369e-09
1.22321e-09
1.22191e-09
1.11888e-09
1.11735e-09
1.14993e-09
1.16698e-09
1.1595e-09
1.15148e-09
1.16488e-09
1.18088e-09
1.20059e-09
1.22137e-09
1.11151e-09
1.11776e-09
1.13936e-09
1.13551e-09
1.10693e-09
1.09245e-09
1.12674e-09
1.16387e-09
1.20095e-09
1.23104e-09
2.51684e-09
2.44783e-09
2.30641e-09
2.06083e-09
1.73976e-09
1.55911e-09
1.46317e-09
1.36193e-09
1.26689e-09
1.22489e-09
2.5273e-09
2.47066e-09
2.34934e-09
2.13888e-09
1.88021e-09
1.681e-09
1.56247e-09
1.43024e-09
1.31445e-09
1.27792e-09
2.54201e-09
2.50716e-09
2.43762e-09
2.30912e-09
2.16666e-09
1.96916e-09
1.8151e-09
1.64252e-09
1.50285e-09
1.45319e-09
2.53326e-09
2.53894e-09
2.53995e-09
2.51813e-09
2.50441e-09
2.27358e-09
2.10408e-09
1.90044e-09
1.7377e-09
1.66928e-09
2.43218e-09
2.50138e-09
2.5954e-09
2.71461e-09
2.84731e-09
2.44874e-09
2.31235e-09
2.12004e-09
1.94465e-09
1.85292e-09
2.33887e-09
2.38815e-09
2.47654e-09
2.53308e-09
2.53484e-09
2.73201e-09
2.42475e-09
2.20397e-09
2.04419e-09
1.95548e-09
2.23207e-09
2.2491e-09
2.30565e-09
2.35035e-09
2.33612e-09
2.35589e-09
2.2105e-09
2.11956e-09
2.05404e-09
2.02365e-09
2.09447e-09
2.10469e-09
2.1408e-09
2.15298e-09
2.11207e-09
2.08558e-09
2.05293e-09
2.03887e-09
2.03877e-09
2.0506e-09
2.03008e-09
2.04623e-09
2.0669e-09
2.04542e-09
1.97207e-09
1.93442e-09
1.96314e-09
1.99629e-09
2.03674e-09
2.07151e-09
2.03745e-09
2.06141e-09
2.06524e-09
2.01949e-09
1.93383e-09
1.88254e-09
1.93952e-09
1.99635e-09
2.05221e-09
2.09073e-09
3.50766e-09
3.42345e-09
3.2588e-09
2.99922e-09
2.67727e-09
2.45387e-09
2.29401e-09
2.1296e-09
1.98923e-09
1.93333e-09
3.51534e-09
3.44644e-09
3.30419e-09
3.08239e-09
2.82238e-09
2.58566e-09
2.39699e-09
2.20149e-09
2.04508e-09
1.99992e-09
3.53885e-09
3.49743e-09
3.39966e-09
3.24476e-09
3.07858e-09
2.85103e-09
2.62907e-09
2.40361e-09
2.23599e-09
2.18489e-09
3.55309e-09
3.54426e-09
3.49235e-09
3.40813e-09
3.33649e-09
3.08264e-09
2.87326e-09
2.64143e-09
2.46931e-09
2.4072e-09
3.50568e-09
3.52183e-09
3.5194e-09
3.5275e-09
3.56167e-09
3.10638e-09
2.99391e-09
2.82246e-09
2.6671e-09
2.59623e-09
3.39885e-09
3.40885e-09
3.41213e-09
3.36461e-09
3.22653e-09
3.38459e-09
3.12581e-09
2.9245e-09
2.78156e-09
2.71143e-09
3.25792e-09
3.26796e-09
3.26532e-09
3.22706e-09
3.08405e-09
3.07635e-09
2.95725e-09
2.88086e-09
2.83477e-09
2.82126e-09
3.14153e-09
3.15966e-09
3.14577e-09
3.08295e-09
2.93728e-09
2.87576e-09
2.85487e-09
2.85106e-09
2.86599e-09
2.88454e-09
3.10478e-09
3.13249e-09
3.10759e-09
3.02038e-09
2.87064e-09
2.79247e-09
2.81808e-09
2.85118e-09
2.89528e-09
2.92468e-09
3.12488e-09
3.15212e-09
3.11219e-09
3.01163e-09
2.87408e-09
2.78325e-09
2.82862e-09
2.87315e-09
2.91943e-09
2.93969e-09
4.50187e-09
4.40922e-09
4.24936e-09
4.01654e-09
3.72822e-09
3.47857e-09
3.26444e-09
3.04533e-09
2.87307e-09
2.80995e-09
4.50127e-09
4.42798e-09
4.28734e-09
4.08335e-09
3.84074e-09
3.57981e-09
3.33997e-09
3.09892e-09
2.92395e-09
2.87906e-09
4.53231e-09
4.48495e-09
4.36824e-09
4.19857e-09
4.00572e-09
3.75312e-09
3.49471e-09
3.24468e-09
3.07927e-09
3.03971e-09
4.56348e-09
4.5325e-09
4.42798e-09
4.28228e-09
4.12626e-09
3.85342e-09
3.63996e-09
3.41232e-09
3.26608e-09
3.22832e-09
4.56995e-09
4.52959e-09
4.4272e-09
4.3082e-09
4.20794e-09
3.73224e-09
3.65236e-09
3.52438e-09
3.4259e-09
3.39975e-09
4.46574e-09
4.43515e-09
4.33971e-09
4.17563e-09
3.91473e-09
3.95168e-09
3.75553e-09
3.61235e-09
3.52859e-09
3.50268e-09
4.33192e-09
4.32947e-09
4.25304e-09
4.12396e-09
3.87902e-09
3.78926e-09
3.69662e-09
3.63855e-09
3.61541e-09
3.61362e-09
4.2646e-09
4.27729e-09
4.19806e-09
4.05895e-09
3.84698e-09
3.72774e-09
3.68808e-09
3.67106e-09
3.67914e-09
3.684e-09
4.2565e-09
4.27679e-09
4.19414e-09
4.04872e-09
3.86537e-09
3.74211e-09
3.71338e-09
3.70797e-09
3.72215e-09
3.72094e-09
4.26882e-09
4.27712e-09
4.1883e-09
4.04759e-09
3.89776e-09
3.7755e-09
3.74577e-09
3.73447e-09
3.73627e-09
3.71573e-09
5.53342e-09
5.44646e-09
5.31112e-09
5.11984e-09
4.87328e-09
4.60199e-09
4.34471e-09
4.09028e-09
3.90758e-09
3.84588e-09
5.5264e-09
5.46206e-09
5.33793e-09
5.15905e-09
4.93399e-09
4.6491e-09
4.37719e-09
4.11618e-09
3.94672e-09
3.90693e-09
5.55591e-09
5.50961e-09
5.38404e-09
5.203e-09
4.984e-09
4.69164e-09
4.4277e-09
4.17961e-09
4.03733e-09
4.01035e-09
5.58409e-09
5.53891e-09
5.39657e-09
5.20111e-09
4.97876e-09
4.63376e-09
4.45494e-09
4.25087e-09
4.14304e-09
4.12593e-09
5.62474e-09
5.55141e-09
5.38131e-09
5.17384e-09
4.98674e-09
4.38239e-09
4.36703e-09
4.28775e-09
4.24403e-09
4.24691e-09
5.51836e-09
5.46235e-09
5.28379e-09
5.00547e-09
4.61278e-09
4.66757e-09
4.43003e-09
4.32456e-09
4.29647e-09
4.30225e-09
5.3883e-09
5.36773e-09
5.2297e-09
5.03257e-09
4.73369e-09
4.57269e-09
4.45316e-09
4.38731e-09
4.36272e-09
4.34979e-09
5.34274e-09
5.33362e-09
5.20029e-09
5.01616e-09
4.8007e-09
4.61971e-09
4.51086e-09
4.44486e-09
4.41308e-09
4.38323e-09
5.32984e-09
5.32271e-09
5.19509e-09
5.02314e-09
4.8559e-09
4.6905e-09
4.56162e-09
4.48338e-09
4.43717e-09
4.39055e-09
5.30755e-09
5.28089e-09
5.15904e-09
5.00539e-09
4.87089e-09
4.72566e-09
4.58276e-09
4.49079e-09
4.42633e-09
4.36127e-09
6.65088e-09
6.58575e-09
6.47541e-09
6.31252e-09
6.09935e-09
5.805e-09
5.49957e-09
5.22799e-09
5.04978e-09
4.98852e-09
6.64249e-09
6.59621e-09
6.48458e-09
6.31366e-09
6.09197e-09
5.78422e-09
5.48255e-09
5.2215e-09
5.06692e-09
5.02206e-09
6.64635e-09
6.60289e-09
6.46495e-09
6.25941e-09
6.0094e-09
5.67591e-09
5.41704e-09
5.18523e-09
5.06436e-09
5.03256e-09
6.63107e-09
6.57311e-09
6.39779e-09
6.15499e-09
5.89268e-09
5.44256e-09
5.31708e-09
5.14094e-09
5.05353e-09
5.0299e-09
6.64394e-09
6.54801e-09
6.33647e-09
6.08321e-09
5.90232e-09
5.03011e-09
5.11118e-09
5.07893e-09
5.0519e-09
5.0409e-09
6.50804e-09
6.42657e-09
6.18732e-09
5.80699e-09
5.25773e-09
5.53501e-09
5.1726e-09
5.04826e-09
5.02051e-09
5.01251e-09
6.33154e-09
6.28003e-09
6.10385e-09
5.87068e-09
5.53754e-09
5.38989e-09
5.18631e-09
5.07314e-09
5.0078e-09
4.96e-09
6.24529e-09
6.19966e-09
6.03928e-09
5.84923e-09
5.65508e-09
5.44312e-09
5.23811e-09
5.09838e-09
5.00189e-09
4.92997e-09
6.18282e-09
6.13623e-09
5.99205e-09
5.82573e-09
5.68068e-09
5.48653e-09
5.26185e-09
5.10277e-09
4.98439e-09
4.89746e-09
6.11157e-09
6.04832e-09
5.92016e-09
5.77358e-09
5.64311e-09
5.47763e-09
5.24974e-09
5.08271e-09
4.95171e-09
4.85941e-09
7.88472e-09
7.84492e-09
7.73629e-09
7.56468e-09
7.35599e-09
7.0345e-09
6.66984e-09
6.39037e-09
6.21632e-09
6.14355e-09
7.86936e-09
7.83339e-09
7.70855e-09
7.50907e-09
7.26051e-09
6.93542e-09
6.59757e-09
6.34264e-09
6.19284e-09
6.12411e-09
7.80414e-09
7.7503e-09
7.5814e-09
7.32678e-09
7.02834e-09
6.67965e-09
6.4138e-09
6.19495e-09
6.07356e-09
6.01336e-09
7.68158e-09
7.59761e-09
7.383e-09
7.08579e-09
6.78808e-09
6.28835e-09
6.1865e-09
6.01943e-09
5.91466e-09
5.85427e-09
7.56082e-09
7.43862e-09
7.19852e-09
6.92077e-09
6.79946e-09
5.70545e-09
5.84357e-09
5.81643e-09
5.74961e-09
5.69066e-09
7.35326e-09
7.23802e-09
6.97287e-09
6.54528e-09
5.87474e-09
6.37967e-09
5.91767e-09
5.71899e-09
5.6187e-09
5.55398e-09
7.08771e-09
6.99594e-09
6.80869e-09
6.57409e-09
6.21379e-09
6.13994e-09
5.8403e-09
5.64657e-09
5.50805e-09
5.41779e-09
6.91082e-09
6.82576e-09
6.66985e-09
6.5029e-09
6.31212e-09
6.10856e-09
5.82163e-09
5.6014e-09
5.43262e-09
5.32872e-09
6.77424e-09
6.6932e-09
6.56402e-09
6.42324e-09
6.27482e-09
6.06763e-09
5.78978e-09
5.55889e-09
5.37417e-09
5.2671e-09
6.66396e-09
6.58059e-09
6.47163e-09
6.34314e-09
6.19864e-09
6.00965e-09
5.75072e-09
5.52214e-09
5.33764e-09
5.24222e-09
9.22634e-09
9.19353e-09
9.04712e-09
8.81856e-09
8.56454e-09
8.20722e-09
7.78804e-09
7.49983e-09
7.31717e-09
7.22025e-09
9.18061e-09
9.12978e-09
8.95565e-09
8.68798e-09
8.37538e-09
8.02985e-09
7.659e-09
7.40149e-09
7.23606e-09
7.13126e-09
8.99723e-09
8.91147e-09
8.6912e-09
8.36973e-09
8.00561e-09
7.66268e-09
7.37137e-09
7.14505e-09
6.99528e-09
6.89358e-09
8.70558e-09
8.58274e-09
8.32653e-09
7.97726e-09
7.63253e-09
7.18316e-09
7.03461e-09
6.83555e-09
6.67803e-09
6.56969e-09
8.3624e-09
8.21487e-09
7.9571e-09
7.66094e-09
7.56519e-09
6.52267e-09
6.57849e-09
6.46939e-09
6.31628e-09
6.20739e-09
8.03959e-09
7.89356e-09
7.64173e-09
7.25664e-09
6.61155e-09
7.05555e-09
6.58692e-09
6.29046e-09
6.07988e-09
5.95152e-09
7.68022e-09
7.55547e-09
7.38052e-09
7.1747e-09
6.82206e-09
6.76749e-09
6.39829e-09
6.11088e-09
5.89175e-09
5.77181e-09
7.40225e-09
7.29345e-09
7.16424e-09
7.03033e-09
6.82962e-09
6.63233e-09
6.28868e-09
5.98963e-09
5.75718e-09
5.64119e-09
7.19952e-09
7.10612e-09
7.00991e-09
6.89948e-09
6.74081e-09
6.51873e-09
6.20499e-09
5.90576e-09
5.66988e-09
5.56254e-09
7.07697e-09
6.99809e-09
6.9188e-09
6.81365e-09
6.66709e-09
6.44471e-09
6.15394e-09
5.8636e-09
5.64081e-09
5.55407e-09
1.06473e-08
1.05877e-08
1.03654e-08
1.00412e-08
9.69304e-09
9.28444e-09
8.82859e-09
8.5179e-09
8.30789e-09
8.18077e-09
1.05402e-08
1.04451e-08
1.01937e-08
9.83556e-09
9.43766e-09
9.04947e-09
8.6522e-09
8.3682e-09
8.16557e-09
8.02421e-09
1.02103e-08
1.00773e-08
9.79638e-09
9.40994e-09
8.9832e-09
8.62244e-09
8.28909e-09
8.02193e-09
7.82127e-09
7.68074e-09
9.72644e-09
9.56465e-09
9.27452e-09
8.89312e-09
8.50378e-09
8.12212e-09
7.86651e-09
7.59177e-09
7.36628e-09
7.22227e-09
9.14652e-09
8.98248e-09
8.71941e-09
8.41489e-09
8.27184e-09
7.50526e-09
7.34466e-09
7.08178e-09
6.8346e-09
6.70028e-09
8.67984e-09
8.51484e-09
8.29094e-09
7.99611e-09
7.50954e-09
7.62502e-09
7.16871e-09
6.77949e-09
6.48015e-09
6.31959e-09
8.24195e-09
8.10387e-09
7.94584e-09
7.76797e-09
7.45629e-09
7.30012e-09
6.87962e-09
6.50835e-09
6.23086e-09
6.10404e-09
7.88203e-09
7.7715e-09
7.66268e-09
7.53885e-09
7.32799e-09
7.0829e-09
6.68261e-09
6.31302e-09
6.03998e-09
5.92794e-09
7.63479e-09
7.54745e-09
7.4684e-09
7.36413e-09
7.19867e-09
6.93099e-09
6.55006e-09
6.18534e-09
5.91957e-09
5.81721e-09
7.51705e-09
7.45109e-09
7.3806e-09
7.27801e-09
7.1309e-09
6.85477e-09
6.48001e-09
6.129e-09
5.8818e-09
5.79651e-09
1.21478e-08
1.20295e-08
1.17101e-08
1.12754e-08
1.08127e-08
1.03282e-08
9.82948e-09
9.46342e-09
9.20299e-09
9.04358e-09
1.19596e-08
1.18027e-08
1.1465e-08
1.10166e-08
1.05353e-08
1.00678e-08
9.61884e-09
9.2686e-09
9.00808e-09
8.83578e-09
1.14917e-08
1.131e-08
1.09695e-08
1.05274e-08
1.00495e-08
9.60966e-09
9.20127e-09
8.85422e-09
8.58961e-09
8.42166e-09
1.08417e-08
1.06503e-08
1.03308e-08
9.92823e-09
9.49963e-09
9.08249e-09
8.69645e-09
8.32367e-09
8.03745e-09
7.87691e-09
1.00784e-08
9.90468e-09
9.63487e-09
9.31982e-09
9.07145e-09
8.49201e-09
8.11014e-09
7.70709e-09
7.40212e-09
7.26692e-09
9.45976e-09
9.28526e-09
9.06154e-09
8.80116e-09
8.42387e-09
8.20827e-09
7.69887e-09
7.23974e-09
6.90706e-09
6.75251e-09
8.94378e-09
8.80469e-09
8.63175e-09
8.42134e-09
8.09953e-09
7.77149e-09
7.2913e-09
6.86272e-09
6.56271e-09
6.44137e-09
8.51314e-09
8.40322e-09
8.26497e-09
8.07966e-09
7.80948e-09
7.45291e-09
6.98341e-09
6.56758e-09
6.28208e-09
6.1718e-09
8.21977e-09
8.12743e-09
8.00507e-09
7.83203e-09
7.59829e-09
7.23808e-09
6.77063e-09
6.36568e-09
6.08984e-09
5.9791e-09
8.09068e-09
8.01276e-09
7.88958e-09
7.71285e-09
7.48275e-09
7.12028e-09
6.65207e-09
6.2655e-09
6.00292e-09
5.90021e-09
1.3797e-08
1.36041e-08
1.3182e-08
1.26317e-08
1.20463e-08
1.14447e-08
1.08471e-08
1.03773e-08
1.00415e-08
9.84803e-09
1.35312e-08
1.33118e-08
1.28871e-08
1.23431e-08
1.17642e-08
1.11718e-08
1.06018e-08
1.01396e-08
9.80415e-09
9.60544e-09
1.29609e-08
1.27366e-08
1.23298e-08
1.18129e-08
1.12536e-08
1.06722e-08
1.01282e-08
9.66732e-09
9.33249e-09
9.14228e-09
1.21936e-08
1.19778e-08
1.16087e-08
1.11457e-08
1.06325e-08
1.00558e-08
9.52413e-09
9.05007e-09
8.71142e-09
8.5347e-09
1.13163e-08
1.11267e-08
1.08113e-08
1.04247e-08
1.00147e-08
9.35051e-09
8.82588e-09
8.3448e-09
8.01631e-09
7.87445e-09
1.05407e-08
1.03548e-08
1.0069e-08
9.70851e-09
9.22931e-09
8.81674e-09
8.19995e-09
7.6895e-09
7.35313e-09
7.20714e-09
9.90195e-09
9.74734e-09
9.48932e-09
9.1362e-09
8.66389e-09
8.16528e-09
7.60396e-09
7.13464e-09
6.82361e-09
6.68957e-09
9.3637e-09
9.22234e-09
8.97089e-09
8.61527e-09
8.16053e-09
7.65244e-09
7.11596e-09
6.67718e-09
6.38204e-09
6.2454e-09
8.97679e-09
8.83532e-09
8.58148e-09
8.22531e-09
7.784e-09
7.28556e-09
6.76547e-09
6.34792e-09
6.05651e-09
5.9107e-09
8.78969e-09
8.64923e-09
8.38809e-09
8.02214e-09
7.56804e-09
7.07503e-09
6.57208e-09
6.17026e-09
5.88081e-09
5.73576e-09
1.57387e-08
1.54697e-08
1.4932e-08
1.423e-08
1.34626e-08
1.26775e-08
1.19065e-08
1.12881e-08
1.08561e-08
1.06248e-08
1.54144e-08
1.51351e-08
1.46021e-08
1.39102e-08
1.31494e-08
1.23694e-08
1.16085e-08
1.09993e-08
1.05748e-08
1.03433e-08
1.47715e-08
1.45011e-08
1.3991e-08
1.33266e-08
1.25845e-08
1.18037e-08
1.10605e-08
1.04575e-08
1.00369e-08
9.8079e-09
1.39146e-08
1.36609e-08
1.31874e-08
1.25684e-08
1.18618e-08
1.1062e-08
1.03351e-08
9.73683e-09
9.32083e-09
9.09799e-09
1.29518e-08
1.27202e-08
1.22835e-08
1.17089e-08
1.10643e-08
1.01691e-08
9.4808e-09
8.91235e-09
8.52882e-09
8.3352e-09
1.19878e-08
1.17673e-08
1.13433e-08
1.07565e-08
1.00154e-08
9.39503e-09
8.63346e-09
8.04e-09
7.6567e-09
7.47125e-09
1.11286e-08
1.09148e-08
1.0488e-08
9.8848e-09
9.13353e-09
8.4424e-09
7.7559e-09
7.2087e-09
6.83849e-09
6.64264e-09
1.039e-08
1.01634e-08
9.71742e-09
9.09327e-09
8.33181e-09
7.63134e-09
7.01171e-09
6.51523e-09
6.15608e-09
5.94846e-09
9.8311e-09
9.58698e-09
9.12652e-09
8.49281e-09
7.73198e-09
7.04291e-09
6.47676e-09
6.00659e-09
5.64523e-09
5.43091e-09
9.53527e-09
9.2829e-09
8.81609e-09
8.17807e-09
7.41668e-09
6.73158e-09
6.19738e-09
5.72887e-09
5.36022e-09
5.13942e-09
1.81622e-08
1.78106e-08
1.7113e-08
1.61707e-08
1.50846e-08
1.40258e-08
1.30351e-08
1.22325e-08
1.16788e-08
1.13933e-08
1.77882e-08
1.74328e-08
1.67327e-08
1.57886e-08
1.47029e-08
1.36459e-08
1.26593e-08
1.18696e-08
1.13247e-08
1.10321e-08
1.7061e-08
1.67152e-08
1.60332e-08
1.51116e-08
1.40489e-08
1.29869e-08
1.19981e-08
1.12064e-08
1.06518e-08
1.0346e-08
1.60823e-08
1.57519e-08
1.50972e-08
1.42076e-08
1.31763e-08
1.2102e-08
1.10973e-08
1.0301e-08
9.73789e-09
9.42517e-09
1.49799e-08
1.46608e-08
1.40179e-08
1.31361e-08
1.2151e-08
1.1024e-08
1.00247e-08
9.25213e-09
8.71281e-09
8.40878e-09
1.37536e-08
1.34491e-08
1.28111e-08
1.19159e-08
1.08664e-08
9.86205e-09
8.8683e-09
8.08967e-09
7.55419e-09
7.26049e-09
1.25533e-08
1.22238e-08
1.15609e-08
1.0637e-08
9.54656e-09
8.55523e-09
7.64904e-09
6.91229e-09
6.38027e-09
6.06925e-09
1.15026e-08
1.1142e-08
1.0453e-08
9.51e-09
8.40046e-09
7.42074e-09
6.61089e-09
5.92737e-09
5.40075e-09
5.08229e-09
1.06999e-08
1.03165e-08
9.61609e-09
8.67442e-09
7.583e-09
6.61547e-09
5.86946e-09
5.20462e-09
4.6765e-09
4.35685e-09
1.02652e-08
9.8751e-09
9.17951e-09
8.25394e-09
7.19162e-09
6.22158e-09
5.49175e-09
4.8133e-09
4.27242e-09
3.94037e-09
2.12665e-08
2.08033e-08
1.98746e-08
1.85847e-08
1.70384e-08
1.56013e-08
1.43465e-08
1.32975e-08
1.25619e-08
1.21788e-08
2.08156e-08
2.03422e-08
1.9399e-08
1.80972e-08
1.65639e-08
1.51194e-08
1.38601e-08
1.28142e-08
1.20726e-08
1.16706e-08
1.9935e-08
1.94638e-08
1.85337e-08
1.72545e-08
1.57572e-08
1.4297e-08
1.29982e-08
1.1923e-08
1.11475e-08
1.07231e-08
1.87316e-08
1.82693e-08
1.73574e-08
1.60996e-08
1.46229e-08
1.31575e-08
1.17876e-08
1.06788e-08
9.8767e-09
9.4391e-09
1.7342e-08
1.68814e-08
1.59618e-08
1.46796e-08
1.32059e-08
1.17621e-08
1.0342e-08
9.22127e-09
8.41392e-09
7.96181e-09
1.57447e-08
1.52927e-08
1.43691e-08
1.30853e-08
1.16302e-08
1.0104e-08
8.74861e-09
7.64136e-09
6.83827e-09
6.3901e-09
1.41046e-08
1.36109e-08
1.26654e-08
1.1367e-08
9.88302e-09
8.4418e-09
7.16496e-09
6.07869e-09
5.27291e-09
4.81663e-09
1.26562e-08
1.2132e-08
1.11761e-08
9.88883e-09
8.4181e-09
7.01744e-09
5.81019e-09
4.75678e-09
3.9556e-09
3.5e-09
1.15672e-08
1.10292e-08
1.00791e-08
8.82089e-09
7.39637e-09
6.0107e-09
4.83375e-09
3.78727e-09
2.98626e-09
2.52772e-09
1.09867e-08
1.0454e-08
9.52345e-09
8.29628e-09
6.90532e-09
5.51509e-09
4.32589e-09
3.26177e-09
2.44739e-09
1.98403e-09
2.52592e-08
2.46353e-08
2.34076e-08
2.16962e-08
1.96297e-08
1.76958e-08
1.6047e-08
1.46166e-08
1.35844e-08
1.30379e-08
2.46654e-08
2.40239e-08
2.27792e-08
2.10593e-08
1.90287e-08
1.70739e-08
1.53957e-08
1.39427e-08
1.28837e-08
1.23191e-08
2.35193e-08
2.2873e-08
2.1637e-08
1.99347e-08
1.79342e-08
1.59409e-08
1.41884e-08
1.26799e-08
1.15764e-08
1.09961e-08
2.19378e-08
2.12926e-08
2.00632e-08
1.8364e-08
1.6345e-08
1.43181e-08
1.24676e-08
1.09089e-08
9.77526e-09
9.1836e-09
2.00557e-08
1.94098e-08
1.81609e-08
1.64108e-08
1.43301e-08
1.23188e-08
1.04145e-08
8.81898e-09
7.6594e-09
7.04608e-09
1.79545e-08
1.7303e-08
1.60322e-08
1.42639e-08
1.22188e-08
1.01237e-08
8.24301e-09
6.64738e-09
5.48554e-09
4.86844e-09
1.58055e-08
1.51148e-08
1.3839e-08
1.20906e-08
1.0092e-08
8.05526e-09
6.21142e-09
4.6138e-09
3.448e-09
2.83133e-09
1.39026e-08
1.31941e-08
1.19302e-08
1.02282e-08
8.28469e-09
6.28596e-09
4.45265e-09
2.86845e-09
1.70782e-09
1.08781e-09
1.24986e-08
1.17913e-08
1.0549e-08
8.8902e-09
6.99057e-09
5.00223e-09
3.16472e-09
1.58218e-09
4.17699e-10
-2.05965e-10
1.17691e-08
1.10815e-08
9.86049e-09
8.22088e-09
6.32307e-09
4.3328e-09
2.4771e-09
8.84638e-10
-2.82255e-10
-8.94307e-10
3.04037e-08
2.95673e-08
2.79866e-08
2.58073e-08
2.3212e-08
2.06316e-08
1.83361e-08
1.63179e-08
1.48407e-08
1.40621e-08
2.95847e-08
2.87347e-08
2.71463e-08
2.4968e-08
2.24094e-08
1.97963e-08
1.74384e-08
1.5374e-08
1.38633e-08
1.30818e-08
2.80441e-08
2.71863e-08
2.55955e-08
2.34105e-08
2.08375e-08
1.81604e-08
1.57157e-08
1.35921e-08
1.20484e-08
1.12622e-08
2.59129e-08
2.50499e-08
2.34451e-08
2.12259e-08
1.85715e-08
1.58092e-08
1.3278e-08
1.11095e-08
9.54505e-09
8.75338e-09
2.33357e-08
2.2477e-08
2.08406e-08
1.85468e-08
1.57985e-08
1.29518e-08
1.03793e-08
8.17062e-09
6.58658e-09
5.78904e-09
2.05657e-08
1.96835e-08
1.80012e-08
1.56445e-08
1.28485e-08
1.00709e-08
7.43342e-09
5.18462e-09
3.58635e-09
2.77966e-09
1.78131e-08
1.68926e-08
1.52021e-08
1.28707e-08
1.01534e-08
7.35042e-09
4.72057e-09
2.46772e-09
8.60901e-10
4.2399e-11
1.5379e-08
1.44492e-08
1.27742e-08
1.04872e-08
7.8171e-09
5.01164e-09
2.36505e-09
1.20045e-10
-1.49162e-09
-2.32791e-09
1.36058e-08
1.26867e-08
1.10286e-08
8.76344e-09
6.09972e-09
3.28464e-09
6.31968e-10
-1.61498e-09
-3.23359e-09
-4.06667e-09
1.27014e-08
1.18045e-08
1.01505e-08
7.87664e-09
5.18395e-09
2.36515e-09
-2.92384e-10
-2.53914e-09
-4.14561e-09
-4.97237e-09
3.70889e-08
3.59899e-08
3.39791e-08
3.12326e-08
2.80097e-08
2.45732e-08
2.13184e-08
1.84839e-08
1.64152e-08
1.53386e-08
3.59665e-08
3.4868e-08
3.28587e-08
3.01126e-08
2.68883e-08
2.34086e-08
2.00728e-08
1.7188e-08
1.50953e-08
1.40261e-08
3.38962e-08
3.27889e-08
3.07531e-08
2.79535e-08
2.46403e-08
2.10763e-08
1.76631e-08
1.47341e-08
1.26237e-08
1.1552e-08
3.10363e-08
2.99174e-08
2.78313e-08
2.49374e-08
2.14705e-08
1.77837e-08
1.43024e-08
1.13397e-08
9.21698e-09
8.1446e-09
2.75816e-08
2.6463e-08
2.43151e-08
2.13063e-08
1.77262e-08
1.38666e-08
1.03293e-08
7.33452e-09
5.21206e-09
4.15017e-09
2.39211e-08
2.276e-08
2.05399e-08
1.74241e-08
1.37019e-08
9.94654e-09
6.3087e-09
3.24294e-09
1.09112e-09
1.24952e-11
2.0369e-08
1.91535e-08
1.68898e-08
1.37502e-08
1.00393e-08
6.20987e-09
2.56726e-09
-5.10659e-10
-2.69775e-09
-3.81812e-09
1.72528e-08
1.60243e-08
1.37538e-08
1.06135e-08
6.89011e-09
3.00564e-09
-6.55665e-10
-3.74255e-09
-5.95729e-09
-7.10478e-09
1.49993e-08
1.37771e-08
1.1498e-08
8.33946e-09
4.58451e-09
6.56284e-10
-3.01184e-09
-6.1133e-09
-8.33453e-09
-9.48161e-09
1.38514e-08
1.26388e-08
1.03439e-08
7.15915e-09
3.37091e-09
-5.7183e-10
-4.24679e-09
-7.34832e-09
-9.56593e-09
-1.07346e-08
4.58803e-08
4.44495e-08
4.18503e-08
3.82999e-08
3.41409e-08
2.95498e-08
2.50417e-08
2.11702e-08
1.83629e-08
1.69074e-08
4.43775e-08
4.29602e-08
4.03573e-08
3.67845e-08
3.25622e-08
2.79124e-08
2.33292e-08
1.94165e-08
1.65923e-08
1.5137e-08
4.16181e-08
4.01867e-08
3.75189e-08
3.38316e-08
2.94448e-08
2.46894e-08
2.00401e-08
1.60892e-08
1.32435e-08
1.17757e-08
3.78114e-08
3.63509e-08
3.35777e-08
2.97243e-08
2.5117e-08
2.02186e-08
1.54973e-08
1.15055e-08
8.63652e-09
7.15936e-09
3.32481e-08
3.17525e-08
2.88598e-08
2.4825e-08
2.00457e-08
1.49732e-08
1.01665e-08
6.13068e-09
3.24957e-09
1.76762e-09
2.83926e-08
2.68335e-08
2.38363e-08
1.96588e-08
1.47102e-08
9.5433e-09
4.65216e-09
5.32898e-10
-2.39903e-09
-3.9135e-09
2.37213e-08
2.20894e-08
1.90078e-08
1.47345e-08
9.68992e-09
4.4375e-09
-5.24704e-10
-4.71686e-09
-7.72911e-09
-9.30358e-09
1.96794e-08
1.80234e-08
1.48992e-08
1.05649e-08
5.43194e-09
7.52227e-11
-4.94781e-09
-9.19505e-09
-1.22587e-08
-1.3861e-08
1.67645e-08
1.50983e-08
1.19363e-08
7.54739e-09
2.35244e-09
-3.08621e-09
-8.15651e-09
-1.24415e-08
-1.55239e-08
-1.71449e-08
1.5262e-08
1.35906e-08
1.04039e-08
5.97852e-09
7.45726e-10
-4.72014e-09
-9.82348e-09
-1.41281e-08
-1.72361e-08
-1.8888e-08
5.75468e-08
5.56688e-08
5.2211e-08
4.74586e-08
4.18518e-08
3.56957e-08
2.9641e-08
2.44764e-08
2.0737e-08
1.87878e-08
5.55646e-08
5.37011e-08
5.02144e-08
4.53974e-08
3.96766e-08
3.34338e-08
2.73117e-08
2.21018e-08
1.83332e-08
1.63647e-08
5.18963e-08
5.00012e-08
4.63995e-08
4.14093e-08
3.54767e-08
2.90882e-08
2.28784e-08
1.75984e-08
1.37748e-08
1.17712e-08
4.68285e-08
4.48661e-08
4.10957e-08
3.58798e-08
2.96858e-08
2.31015e-08
1.67713e-08
1.13987e-08
7.50457e-09
5.46137e-09
4.07836e-08
3.87255e-08
3.47707e-08
2.93091e-08
2.28652e-08
1.61161e-08
9.63583e-09
4.14572e-09
1.6621e-10
-1.92749e-09
3.43232e-08
3.21763e-08
2.80656e-08
2.23974e-08
1.57671e-08
8.71039e-09
2.09331e-09
-3.51682e-09
-7.58547e-09
-9.73711e-09
2.81187e-08
2.58962e-08
2.16698e-08
1.58316e-08
8.98676e-09
1.76678e-09
-5.03175e-09
-1.08063e-08
-1.49899e-08
-1.71967e-08
2.28149e-08
2.05511e-08
1.62391e-08
1.02711e-08
3.24842e-09
-4.14313e-09
-1.10894e-08
-1.69742e-08
-2.12321e-08
-2.34716e-08
1.89828e-08
1.66878e-08
1.231e-08
6.24227e-09
-8.96581e-10
-8.40724e-09
-1.54662e-08
-2.14226e-08
-2.57313e-08
-2.8004e-08
1.69821e-08
1.46746e-08
1.02599e-08
4.13076e-09
-3.07968e-09
-1.06298e-08
-1.77497e-08
-2.37567e-08
-2.81056e-08
-3.04013e-08
7.30931e-08
7.0591e-08
6.58994e-08
5.94187e-08
5.17414e-08
4.34779e-08
3.5462e-08
2.86274e-08
2.36683e-08
2.10676e-08
7.04827e-08
6.79791e-08
6.32183e-08
5.66248e-08
4.88086e-08
4.04159e-08
3.23014e-08
2.53853e-08
2.0364e-08
1.77226e-08
6.55903e-08
6.30214e-08
5.80885e-08
5.12696e-08
4.32124e-08
3.45989e-08
2.63173e-08
1.9253e-08
1.41166e-08
1.14099e-08
5.88101e-08
5.61221e-08
5.09581e-08
4.38653e-08
3.55133e-08
2.65659e-08
1.80621e-08
1.08008e-08
5.51459e-09
2.72527e-09
5.07477e-08
4.79082e-08
4.24997e-08
3.51043e-08
2.64285e-08
1.71795e-08
8.39658e-09
8.84792e-10
-4.59168e-09
-7.4794e-09
4.21429e-08
3.91813e-08
3.35352e-08
2.57979e-08
1.67891e-08
7.27619e-09
-1.85651e-09
-9.60521e-09
-1.52494e-08
-1.823e-08
3.3888e-08
3.08444e-08
2.50356e-08
1.70342e-08
7.66884e-09
-2.22783e-09
-1.16255e-08
-1.96174e-08
-2.5406e-08
-2.84501e-08
2.68694e-08
2.37538e-08
1.77991e-08
9.57178e-09
-8.30151e-11
-1.02734e-08
-1.99108e-08
-2.80715e-08
-3.3977e-08
-3.70787e-08
2.17782e-08
1.86087e-08
1.25446e-08
4.14644e-09
-5.7121e-09
-1.60784e-08
-2.58935e-08
-3.41792e-08
-4.01766e-08
-4.33279e-08
1.91022e-08
1.59086e-08
9.77694e-09
1.2834e-09
-8.69114e-09
-1.91287e-08
-2.90308e-08
-3.73953e-08
-4.34427e-08
-4.66389e-08
9.38229e-08
9.0453e-08
8.40617e-08
7.52252e-08
6.47777e-08
5.3704e-08
4.30844e-08
3.4032e-08
2.74534e-08
2.39959e-08
9.03645e-08
8.69621e-08
8.04522e-08
7.14506e-08
6.08304e-08
4.95697e-08
3.8773e-08
2.95733e-08
2.28854e-08
1.93731e-08
8.38166e-08
8.03004e-08
7.35492e-08
6.42511e-08
5.33213e-08
4.1723e-08
3.06262e-08
2.11626e-08
1.42836e-08
1.06723e-08
7.4726e-08
7.10355e-08
6.39743e-08
5.43139e-08
4.29933e-08
3.08493e-08
1.9371e-08
9.56352e-09
2.43677e-09
-1.31105e-09
6.3964e-08
6.00696e-08
5.26724e-08
4.26006e-08
3.08306e-08
1.80737e-08
6.1313e-09
-4.09126e-09
-1.15099e-08
-1.54029e-08
5.25047e-08
4.84418e-08
4.06939e-08
3.00818e-08
1.76757e-08
4.80238e-09
-7.80141e-09
-1.84641e-08
-2.61954e-08
-3.02302e-08
4.1507e-08
3.73203e-08
2.93187e-08
1.83038e-08
5.3799e-09
-8.18098e-09
-2.11571e-08
-3.21722e-08
-4.01299e-08
-4.42938e-08
3.21618e-08
2.78563e-08
1.96173e-08
8.24409e-09
-5.1045e-09
-1.91421e-08
-3.2483e-08
-4.37749e-08
-5.1939e-08
-5.62235e-08
2.53645e-08
2.09728e-08
1.25537e-08
9.21251e-10
-1.27364e-08
-2.70575e-08
-4.0667e-08
-5.21734e-08
-6.0497e-08
-6.48819e-08
2.17803e-08
1.73364e-08
8.81365e-09
-2.94383e-09
-1.67499e-08
-3.12172e-08
-4.49601e-08
-5.65892e-08
-6.50135e-08
-6.9488e-08
1.21443e-07
1.16891e-07
1.0823e-07
9.62788e-08
8.22078e-08
6.74169e-08
5.33244e-08
4.13327e-08
3.26221e-08
2.8053e-08
1.16838e-07
1.12211e-07
1.03369e-07
9.11806e-08
7.68535e-08
6.17881e-08
4.74105e-08
3.51796e-08
2.63015e-08
2.16652e-08
1.08076e-07
1.03272e-07
9.40916e-08
8.14789e-08
6.66859e-08
5.11025e-08
3.62353e-08
2.3584e-08
1.44146e-08
9.6238e-09
9.59196e-08
9.08747e-08
8.12542e-08
6.8093e-08
5.26846e-08
3.62997e-08
2.08021e-08
7.60285e-09
-1.9544e-09
-6.96346e-09
8.15789e-08
7.62473e-08
6.61279e-08
5.2331e-08
3.62112e-08
1.88312e-08
2.60941e-09
-1.12276e-08
-2.12059e-08
-2.64361e-08
6.63255e-08
6.07492e-08
5.01219e-08
3.55441e-08
1.84243e-08
7.64777e-10
-1.6452e-08
-3.09913e-08
-4.15024e-08
-4.69594e-08
5.16654e-08
4.58864e-08
3.4851e-08
1.9657e-08
1.80195e-09
-1.68667e-08
-3.47071e-08
-4.98302e-08
-6.07561e-08
-6.6474e-08
3.91912e-08
3.32269e-08
2.18174e-08
6.08869e-09
-1.23845e-08
-3.17648e-08
-5.0199e-08
-6.58085e-08
-7.7104e-08
-8.30485e-08
3.01022e-08
2.3999e-08
1.23161e-08
-3.78335e-09
-2.27011e-08
-4.25329e-08
-6.14024e-08
-7.73821e-08
-8.89655e-08
-9.50886e-08
2.52932e-08
1.91026e-08
7.28173e-09
-8.99214e-09
-2.80999e-08
-4.81941e-08
-6.72861e-08
-8.34793e-08
-9.52427e-08
-1.01487e-07
1.58219e-07
1.52088e-07
1.40442e-07
1.24417e-07
1.05631e-07
8.59592e-08
6.73121e-08
5.14733e-08
3.99981e-08
3.39962e-08
1.52092e-07
1.45832e-07
1.3392e-07
1.17544e-07
9.83551e-08
7.82599e-08
5.91754e-08
4.29652e-08
3.1237e-08
2.51274e-08
1.40422e-07
1.33902e-07
1.215e-07
1.04482e-07
8.45533e-08
6.36382e-08
4.37798e-08
2.69154e-08
1.47223e-08
8.3564e-09
1.24254e-07
1.1739e-07
1.04335e-07
8.64511e-08
6.55134e-08
4.3431e-08
2.25512e-08
4.81318e-09
-8.00907e-09
-1.47186e-08
1.05173e-07
9.78948e-08
8.40903e-08
6.51967e-08
4.31022e-08
1.95462e-08
-2.46227e-09
-2.11945e-08
-3.46822e-08
-4.17599e-08
8.4892e-08
7.72365e-08
6.26732e-08
4.26587e-08
1.91122e-08
-5.21035e-09
-2.86854e-08
-4.84912e-08
-6.28161e-08
-7.02835e-08
6.53942e-08
5.7415e-08
4.21974e-08
2.12413e-08
-3.39874e-09
-2.91719e-08
-5.37034e-08
-7.44918e-08
-8.9548e-08
-9.74586e-08
4.87451e-08
4.04776e-08
2.46889e-08
2.94209e-09
-2.26235e-08
-4.94519e-08
-7.49415e-08
-9.65527e-08
-1.12234e-07
-1.20507e-07
3.65837e-08
2.81014e-08
1.19129e-08
-1.0384e-08
-3.65988e-08
-6.41232e-08
-9.03233e-08
-1.12554e-07
-1.28709e-07
-1.37247e-07
3.0129e-08
2.15277e-08
5.14028e-09
-1.74273e-08
-4.39305e-08
-7.18617e-08
-9.84335e-08
-1.21005e-07
-1.37421e-07
-1.46107e-07
2.07172e-07
1.98963e-07
1.83422e-07
1.62084e-07
1.37197e-07
1.11165e-07
8.66204e-08
6.57906e-08
5.07871e-08
4.29294e-08
1.99079e-07
1.9067e-07
1.74731e-07
1.52857e-07
1.2733e-07
1.00623e-07
7.53958e-08
5.39929e-08
3.85787e-08
3.05235e-08
1.83661e-07
1.74867e-07
1.5819e-07
1.35319e-07
1.08604e-07
8.0586e-08
5.41333e-08
3.16921e-08
1.54997e-08
7.03208e-09
1.62303e-07
1.52991e-07
1.35325e-07
1.11091e-07
8.27482e-08
5.295e-08
2.48591e-08
1.01267e-09
-1.62165e-08
-2.52321e-08
1.37008e-07
1.27098e-07
1.08297e-07
8.24836e-08
5.23172e-08
2.028e-08
-9.60531e-09
-3.5021e-08
-5.33826e-08
-6.30324e-08
1.10111e-07
9.96157e-08