/*--------------------------------*- C++ -*----------------------------------*\
  =========                 |
  \\      /  F ield         | OpenFOAM: The Open Source CFD Toolbox
   \\    /   O peration     | Website:  https://openfoam.org
    \\  /    A nd           | Version:  9
     \\/     M anipulation  |
\*---------------------------------------------------------------------------*/
FoamFile
{
    format      ascii;
    class       volVectorField;
    location    "90000";
    object      stored_U;
}
// * * * * * * * * * * * * * * * * * * * * * * * * * * * * * * * * * * * * * //

dimensions      [0 1 -1 0 0 0 0];

internalField   nonuniform List<vector> 
9000
(
(-2.50943e-11 2.99371e-11 -0.001)
(-4.21112e-11 3.55819e-11 -0.001)
(-5.58476e-11 4.00095e-11 -0.001)
(-7.87472e-11 4.62174e-11 -0.001)
(-8.87219e-11 5.11545e-11 -0.001)
(-8.30585e-11 5.02765e-11 -0.001)
(-7.52755e-11 4.74896e-11 -0.001)
(-7.10398e-11 4.34606e-11 -0.001)
(-4.81832e-11 4.07252e-11 -0.001)
(-1.82156e-11 4.03119e-11 -0.001)
(-1.95399e-11 1.03842e-10 -0.001)
(-3.21263e-11 1.11195e-10 -0.001)
(-4.52397e-11 1.20146e-10 -0.001)
(-6.78687e-11 1.35581e-10 -0.001)
(-8.5037e-11 1.54983e-10 -0.001)
(-8.70129e-11 1.51991e-10 -0.001)
(-8.23302e-11 1.48241e-10 -0.001)
(-7.79077e-11 1.40006e-10 -0.001)
(-5.13234e-11 1.33976e-10 -0.001)
(-1.85877e-11 1.31575e-10 -0.001)
(-1.7959e-11 1.69655e-10 -0.001)
(-2.60702e-11 1.75575e-10 -0.001)
(-3.15622e-11 1.88325e-10 -0.001)
(-4.41985e-11 2.11475e-10 -0.001)
(-7.26488e-11 2.49524e-10 -0.001)
(-9.00564e-11 2.47339e-10 -0.001)
(-8.74557e-11 2.40689e-10 -0.001)
(-8.54045e-11 2.29672e-10 -0.001)
(-5.64004e-11 2.21117e-10 -0.001)
(-2.03584e-11 2.16273e-10 -0.001)
(-1.39527e-11 1.87411e-10 -0.000999999)
(-1.38238e-11 2.04305e-10 -0.000999999)
(-9.37329e-12 2.27283e-10 -0.000999999)
(-6.69127e-12 2.67707e-10 -0.000999999)
(-4.92385e-11 3.22054e-10 -0.000999999)
(-9.58691e-11 3.18693e-10 -0.001)
(-9.99742e-11 2.99235e-10 -0.001)
(-9.74612e-11 2.82704e-10 -0.001)
(-6.42663e-11 2.67828e-10 -0.001)
(-2.29788e-11 2.59904e-10 -0.001)
(-1.62628e-12 2.15407e-10 -0.000999999)
(1.32758e-11 2.22101e-10 -0.000999999)
(3.18015e-11 2.30494e-10 -0.000999999)
(5.05595e-11 2.43625e-10 -0.000999999)
(-2.17176e-11 2.59009e-10 -0.000999999)
(-1.12916e-10 3.01052e-10 -0.000999999)
(-1.23471e-10 2.82444e-10 -0.000999999)
(-1.1678e-10 2.73794e-10 -0.000999999)
(-7.86707e-11 2.69153e-10 -0.001)
(-2.77796e-11 2.64111e-10 -0.001)
(-7.87272e-12 2.47051e-10 -0.000999999)
(6.80197e-13 2.35498e-10 -0.000999999)
(1.21045e-11 2.21077e-10 -0.000999999)
(2.17334e-11 1.99617e-10 -0.000999999)
(8.02636e-12 1.71558e-10 -0.000999998)
(-7.24945e-11 1.91288e-10 -0.000999998)
(-1.27112e-10 2.02978e-10 -0.000999999)
(-1.10674e-10 2.20165e-10 -0.000999999)
(-7.33791e-11 2.34607e-10 -0.000999999)
(-2.74833e-11 2.39513e-10 -0.000999999)
(-1.3693e-11 2.14973e-10 -0.000999998)
(-1.3227e-11 2.06828e-10 -0.000999998)
(-4.11958e-12 1.92318e-10 -0.000999998)
(9.3493e-13 1.76351e-10 -0.000999998)
(-3.01032e-11 1.54312e-10 -0.000999998)
(-8.13648e-11 1.29278e-10 -0.000999998)
(-9.44586e-11 1.4947e-10 -0.000999998)
(-8.50752e-11 1.73134e-10 -0.000999999)
(-5.87384e-11 1.87276e-10 -0.000999999)
(-2.23021e-11 1.95787e-10 -0.000999999)
(-1.64202e-11 1.58512e-10 -0.000999998)
(-2.23955e-11 1.54523e-10 -0.000999998)
(-1.84009e-11 1.43433e-10 -0.000999998)
(-1.62798e-11 1.28417e-10 -0.000999998)
(-3.90181e-11 1.0802e-10 -0.000999998)
(-7.72309e-11 1.05588e-10 -0.000999998)
(-8.32314e-11 1.16626e-10 -0.000999998)
(-7.28225e-11 1.29106e-10 -0.000999998)
(-5.02299e-11 1.39137e-10 -0.000999998)
(-1.84956e-11 1.45254e-10 -0.000999999)
(-1.79283e-11 1.04108e-10 -0.000999998)
(-2.85968e-11 1.03464e-10 -0.000999998)
(-3.02395e-11 9.59079e-11 -0.000999998)
(-3.44653e-11 8.30528e-11 -0.000999998)
(-5.29157e-11 6.70825e-11 -0.000999998)
(-7.27313e-11 6.12384e-11 -0.000999998)
(-7.09199e-11 7.15776e-11 -0.000999998)
(-6.25297e-11 7.80175e-11 -0.000999998)
(-4.22311e-11 8.59663e-11 -0.000999998)
(-1.58429e-11 8.98836e-11 -0.000999998)
(-1.71773e-11 3.72867e-11 -0.000999997)
(-3.07214e-11 3.80667e-11 -0.000999998)
(-3.87744e-11 3.5185e-11 -0.000999998)
(-4.49372e-11 2.95236e-11 -0.000999998)
(-6.07068e-11 2.45356e-11 -0.000999998)
(-7.25917e-11 2.16277e-11 -0.000999998)
(-6.62513e-11 2.45764e-11 -0.000999998)
(-5.8347e-11 2.61211e-11 -0.000999998)
(-3.81462e-11 2.87885e-11 -0.000999998)
(-1.43687e-11 3.02346e-11 -0.000999998)
(-6.18559e-11 8.58397e-11 -0.001)
(-1.08974e-10 1.0082e-10 -0.001)
(-1.47881e-10 1.10838e-10 -0.001)
(-2.15351e-10 1.24836e-10 -0.001)
(-2.43905e-10 1.40265e-10 -0.001)
(-2.18582e-10 1.37143e-10 -0.001)
(-1.98426e-10 1.29859e-10 -0.001)
(-1.88864e-10 1.19649e-10 -0.001)
(-1.2509e-10 1.13888e-10 -0.001)
(-4.54925e-11 1.14576e-10 -0.001)
(-4.71179e-11 2.87423e-10 -0.001)
(-8.42422e-11 3.09027e-10 -0.001)
(-1.24048e-10 3.31232e-10 -0.001)
(-1.86649e-10 3.68885e-10 -0.001)
(-2.32503e-10 4.22352e-10 -0.001)
(-2.295e-10 4.1334e-10 -0.001)
(-2.16308e-10 4.00349e-10 -0.001)
(-2.05083e-10 3.7857e-10 -0.001)
(-1.30078e-10 3.64099e-10 -0.001)
(-4.4635e-11 3.60012e-10 -0.001)
(-4.08428e-11 4.63949e-10 -0.001)
(-6.58594e-11 4.82252e-10 -0.001)
(-8.83503e-11 5.1451e-10 -0.001)
(-1.24966e-10 5.71495e-10 -0.001)
(-2.00242e-10 6.6381e-10 -0.001)
(-2.40965e-10 6.53401e-10 -0.001)
(-2.33543e-10 6.3447e-10 -0.001)
(-2.25363e-10 6.08406e-10 -0.001)
(-1.43098e-10 5.87259e-10 -0.001)
(-4.89163e-11 5.75375e-10 -0.001)
(-2.96899e-11 5.22094e-10 -0.000999999)
(-3.46062e-11 5.63793e-10 -0.000999999)
(-3.48917e-11 6.17339e-10 -0.000999999)
(-3.73945e-11 7.09174e-10 -0.000999999)
(-1.50605e-10 8.32843e-10 -0.000999999)
(-2.58871e-10 8.07648e-10 -0.001)
(-2.61367e-10 7.70151e-10 -0.001)
(-2.52256e-10 7.40087e-10 -0.001)
(-1.61979e-10 7.09854e-10 -0.001)
(-5.53996e-11 6.91705e-10 -0.001)
(-4.10345e-13 5.84273e-10 -0.000999999)
(2.8191e-11 5.99169e-10 -0.000999999)
(5.69389e-11 6.20616e-10 -0.000999999)
(9.05359e-11 6.46713e-10 -0.000999999)
(-1.01784e-10 6.62922e-10 -0.000999999)
(-3.03748e-10 7.95109e-10 -0.000999999)
(-3.01124e-10 7.44759e-10 -0.000999999)
(-2.85588e-10 7.24282e-10 -0.001)
(-1.90155e-10 7.14141e-10 -0.001)
(-6.57995e-11 7.0114e-10 -0.001)
(-1.61982e-11 6.57215e-10 -0.000999998)
(3.91134e-13 6.29192e-10 -0.000999998)
(1.25585e-11 5.94758e-10 -0.000999998)
(4.95888e-12 5.40155e-10 -0.000999998)
(-2.29244e-12 4.60159e-10 -0.000999999)
(-1.77026e-10 5.39613e-10 -0.000999999)
(-3.32075e-10 5.50372e-10 -0.000999999)
(-2.82767e-10 5.88567e-10 -0.000999999)
(-1.83742e-10 6.21659e-10 -0.000999999)
(-6.70635e-11 6.32887e-10 -0.000999999)
(-2.96113e-11 5.79802e-10 -0.000999998)
(-3.55263e-11 5.60611e-10 -0.000999998)
(-3.22008e-11 5.21831e-10 -0.000999998)
(-4.42762e-11 4.78863e-10 -0.000999998)
(-1.02317e-10 4.3203e-10 -0.000999998)
(-2.13281e-10 3.46417e-10 -0.000999998)
(-2.52121e-10 4.00274e-10 -0.000999999)
(-2.14232e-10 4.61407e-10 -0.000999999)
(-1.44496e-10 5.00223e-10 -0.000999999)
(-5.3267e-11 5.21783e-10 -0.000999999)
(-3.62885e-11 4.27264e-10 -0.000999998)
(-5.85799e-11 4.1818e-10 -0.000999998)
(-6.92572e-11 3.89341e-10 -0.000999998)
(-8.48672e-11 3.50047e-10 -0.000999998)
(-1.3473e-10 3.05697e-10 -0.000999998)
(-2.08838e-10 2.83345e-10 -0.000999998)
(-2.17101e-10 3.18756e-10 -0.000999998)
(-1.82747e-10 3.49048e-10 -0.000999998)
(-1.22221e-10 3.75025e-10 -0.000999998)
(-4.44213e-11 3.89283e-10 -0.000999999)
(-3.93409e-11 2.82852e-10 -0.000999997)
(-7.41823e-11 2.83187e-10 -0.000999997)
(-1.00364e-10 2.62436e-10 -0.000999997)
(-1.27888e-10 2.2961e-10 -0.000999998)
(-1.68971e-10 1.92268e-10 -0.000999998)
(-2.00164e-10 1.73596e-10 -0.000999998)
(-1.86382e-10 1.99135e-10 -0.000999998)
(-1.57881e-10 2.15228e-10 -0.000999998)
(-1.03399e-10 2.33922e-10 -0.000999998)
(-3.81946e-11 2.43372e-10 -0.000999998)
(-3.62868e-11 1.02767e-10 -0.000999997)
(-7.93389e-11 1.05922e-10 -0.000999997)
(-1.22692e-10 9.77041e-11 -0.000999997)
(-1.54574e-10 8.35092e-11 -0.000999997)
(-1.90348e-10 7.05556e-11 -0.000999998)
(-2.01543e-10 6.17989e-11 -0.000999998)
(-1.75041e-10 6.8872e-11 -0.000999998)
(-1.47738e-10 7.27491e-11 -0.000999998)
(-9.33652e-11 7.88346e-11 -0.000999998)
(-3.43709e-11 8.24087e-11 -0.000999998)
(-8.44357e-11 1.67325e-10 -0.001)
(-1.76429e-10 1.85505e-10 -0.001)
(-2.59344e-10 1.96779e-10 -0.001)
(-3.7058e-10 2.1238e-10 -0.001)
(-4.21001e-10 2.35141e-10 -0.001)
(-3.83922e-10 2.28948e-10 -0.001)
(-3.51045e-10 2.18717e-10 -0.001)
(-3.19839e-10 2.05431e-10 -0.001)
(-2.05615e-10 1.99387e-10 -0.001)
(-7.06425e-11 2.01566e-10 -0.001)
(-6.66916e-11 5.23691e-10 -0.001)
(-1.47722e-10 5.53572e-10 -0.001)
(-2.33172e-10 5.80844e-10 -0.001)
(-3.33345e-10 6.24794e-10 -0.001)
(-4.05688e-10 6.93878e-10 -0.001)
(-4.01048e-10 6.80761e-10 -0.001)
(-3.75054e-10 6.58892e-10 -0.001)
(-3.39668e-10 6.28823e-10 -0.001)
(-2.09412e-10 6.12572e-10 -0.001)
(-6.81929e-11 6.08641e-10 -0.001)
(-5.56171e-11 8.30012e-10 -0.001)
(-1.20682e-10 8.57396e-10 -0.001)
(-1.88871e-10 8.95498e-10 -0.001)
(-2.58644e-10 9.59091e-10 -0.001)
(-3.66181e-10 1.05848e-09 -0.001)
(-4.19568e-10 1.03511e-09 -0.001)
(-4.03502e-10 1.01884e-09 -0.001)
(-3.6665e-10 9.85466e-10 -0.001)
(-2.24915e-10 9.64645e-10 -0.001)
(-7.3461e-11 9.50143e-10 -0.001)
(-4.0799e-11 9.86057e-10 -0.000999999)
(-8.38471e-11 1.02997e-09 -0.000999999)
(-1.3164e-10 1.08491e-09 -0.000999999)
(-1.70473e-10 1.168e-09 -0.000999999)
(-3.29753e-10 1.29641e-09 -0.001)
(-4.40672e-10 1.22351e-09 -0.001)
(-4.24715e-10 1.21184e-09 -0.001)
(-3.93796e-10 1.19193e-09 -0.001)
(-2.42867e-10 1.17025e-09 -0.001)
(-8.08587e-11 1.15032e-09 -0.001)
(-1.3613e-11 1.06918e-09 -0.000999999)
(-2.37836e-11 1.08398e-09 -0.000999999)
(-5.10369e-11 1.10224e-09 -0.000999999)
(-4.71796e-11 1.11392e-09 -0.000999999)
(-3.10591e-10 1.0909e-09 -0.000999999)
(-5.03888e-10 1.303e-09 -0.000999999)
(-4.35015e-10 1.22123e-09 -0.001)
(-4.08108e-10 1.20657e-09 -0.001)
(-2.64273e-10 1.19851e-09 -0.001)
(-9.124e-11 1.18476e-09 -0.001)
(-2.82027e-11 1.11628e-09 -0.000999998)
(-5.30378e-11 1.08878e-09 -0.000999998)
(-1.0191e-10 1.04762e-09 -0.000999998)
(-1.81787e-10 9.87646e-10 -0.000999998)
(-1.40382e-10 8.70117e-10 -0.000999999)
(-3.10249e-10 1.01986e-09 -0.000999999)
(-5.2136e-10 1.00171e-09 -0.000999999)
(-4.16426e-10 1.04325e-09 -0.000999999)
(-2.62344e-10 1.07715e-09 -0.000999999)
(-9.23824e-11 1.08997e-09 -0.000999999)
(-4.31121e-11 9.95665e-10 -0.000999998)
(-9.46348e-11 9.73533e-10 -0.000999998)
(-1.5235e-10 9.2569e-10 -0.000999998)
(-2.24506e-10 8.75221e-10 -0.000999998)
(-2.78229e-10 8.35536e-10 -0.000999998)
(-3.72595e-10 6.87807e-10 -0.000999998)
(-4.11793e-10 7.71672e-10 -0.000999999)
(-3.32527e-10 8.48483e-10 -0.000999999)
(-2.15392e-10 8.96785e-10 -0.000999999)
(-7.64067e-11 9.2078e-10 -0.000999999)
(-5.19065e-11 7.56075e-10 -0.000999997)
(-1.24792e-10 7.44717e-10 -0.000999997)
(-2.0032e-10 7.06592e-10 -0.000999997)
(-2.71878e-10 6.55686e-10 -0.000999997)
(-3.27785e-10 6.09058e-10 -0.000999998)
(-3.74149e-10 5.63049e-10 -0.000999998)
(-3.60662e-10 6.1488e-10 -0.000999998)
(-2.91174e-10 6.53572e-10 -0.000999998)
(-1.88161e-10 6.85333e-10 -0.000999998)
(-6.66341e-11 7.00639e-10 -0.000999998)
(-5.5682e-11 5.01609e-10 -0.000999997)
(-1.45453e-10 5.0191e-10 -0.000999997)
(-2.41425e-10 4.73362e-10 -0.000999997)
(-3.21985e-10 4.31013e-10 -0.000999997)
(-3.70818e-10 3.92123e-10 -0.000999997)
(-3.66709e-10 3.6097e-10 -0.000999998)
(-3.21206e-10 3.95908e-10 -0.000999998)
(-2.61929e-10 4.14675e-10 -0.000999998)
(-1.66819e-10 4.35153e-10 -0.000999998)
(-5.96751e-11 4.44548e-10 -0.000999998)
(-5.23286e-11 1.81862e-10 -0.000999997)
(-1.53699e-10 1.85445e-10 -0.000999997)
(-2.70815e-10 1.73759e-10 -0.000999997)
(-3.52314e-10 1.55715e-10 -0.000999997)
(-3.96964e-10 1.42618e-10 -0.000999997)
(-3.69531e-10 1.28759e-10 -0.000999998)
(-3.06227e-10 1.39057e-10 -0.000999998)
(-2.51538e-10 1.4312e-10 -0.000999998)
(-1.5714e-10 1.49273e-10 -0.000999998)
(-5.62586e-11 1.52342e-10 -0.000999998)
(-1.03478e-10 2.73201e-10 -0.001)
(-2.58994e-10 2.89604e-10 -0.001)
(-3.99538e-10 2.99151e-10 -0.001)
(-5.46416e-10 3.12105e-10 -0.001)
(-6.22307e-10 3.34708e-10 -0.001)
(-5.89781e-10 3.27702e-10 -0.001)
(-5.40919e-10 3.12694e-10 -0.001)
(-4.69442e-10 2.99695e-10 -0.001)
(-2.96729e-10 2.95928e-10 -0.001)
(-9.81802e-11 2.99388e-10 -0.001)
(-8.77461e-11 8.22366e-10 -0.001)
(-2.34167e-10 8.52509e-10 -0.001)
(-3.78029e-10 8.74961e-10 -0.001)
(-5.12249e-10 9.07551e-10 -0.001)
(-6.0815e-10 9.66513e-10 -0.001)
(-6.12769e-10 9.50444e-10 -0.001)
(-5.69841e-10 9.2005e-10 -0.001)
(-4.87076e-10 8.91951e-10 -0.001)
(-2.96983e-10 8.82208e-10 -0.001)
(-9.43343e-11 8.80195e-10 -0.001)
(-7.4879e-11 1.29097e-09 -0.001)
(-2.08469e-10 1.31913e-09 -0.001)
(-3.45545e-10 1.34425e-09 -0.001)
(-4.56193e-10 1.38068e-09 -0.001)
(-5.80772e-10 1.45199e-09 -0.001)
(-6.37254e-10 1.41389e-09 -0.001)
(-6.00354e-10 1.40557e-09 -0.001)
(-5.08116e-10 1.37911e-09 -0.001)
(-3.07297e-10 1.3701e-09 -0.001)
(-9.86667e-11 1.35801e-09 -0.001)
(-6.17882e-11 1.59651e-09 -0.000999999)
(-1.83325e-10 1.62361e-09 -0.000999999)
(-3.16707e-10 1.65019e-09 -0.000999999)
(-4.04557e-10 1.69205e-09 -0.001)
(-5.75004e-10 1.7814e-09 -0.001)
(-6.5934e-10 1.63439e-09 -0.001)
(-6.04694e-10 1.67325e-09 -0.001)
(-5.22449e-10 1.67534e-09 -0.001)
(-3.15439e-10 1.67739e-09 -0.001)
(-1.03852e-10 1.66472e-09 -0.001)
(-5.04392e-11 1.70473e-09 -0.000999998)
(-1.57732e-10 1.71087e-09 -0.000999998)
(-2.77297e-10 1.70952e-09 -0.000999999)
(-3.24925e-10 1.68629e-09 -0.000999999)
(-6.38458e-10 1.57281e-09 -0.000999999)
(-7.45603e-10 1.86728e-09 -0.001)
(-5.59408e-10 1.75962e-09 -0.001)
(-5.0379e-10 1.75414e-09 -0.001)
(-3.14688e-10 1.75488e-09 -0.001)
(-1.08267e-10 1.74753e-09 -0.001)
(-5.88068e-11 1.66774e-09 -0.000999998)
(-1.81794e-10 1.65373e-09 -0.000999998)
(-3.41439e-10 1.61885e-09 -0.000999998)
(-5.41296e-10 1.56265e-09 -0.000999998)
(-3.94186e-10 1.42056e-09 -0.000999999)
(-4.72547e-10 1.63653e-09 -0.000999999)
(-7.17759e-10 1.58322e-09 -0.000999999)
(-5.26979e-10 1.613e-09 -0.000999999)
(-3.18703e-10 1.63268e-09 -0.000999999)
(-1.0809e-10 1.63898e-09 -0.000999999)
(-6.76143e-11 1.49192e-09 -0.000999997)
(-2.09892e-10 1.47709e-09 -0.000999997)
(-3.68561e-10 1.43554e-09 -0.000999997)
(-5.23123e-10 1.40188e-09 -0.000999998)
(-5.64692e-10 1.41417e-09 -0.000999998)
(-5.82988e-10 1.1828e-09 -0.000999998)
(-5.82886e-10 1.29519e-09 -0.000999998)
(-4.5406e-10 1.36554e-09 -0.000999999)
(-2.85576e-10 1.40308e-09 -0.000999999)
(-9.90872e-11 1.41581e-09 -0.000999999)
(-7.62027e-11 1.16858e-09 -0.000999997)
(-2.41014e-10 1.15698e-09 -0.000999997)
(-4.16888e-10 1.11891e-09 -0.000999997)
(-5.62704e-10 1.06873e-09 -0.000999997)
(-6.13287e-10 1.03888e-09 -0.000999997)
(-5.91494e-10 9.81727e-10 -0.000999998)
(-5.34964e-10 1.03158e-09 -0.000999998)
(-4.18872e-10 1.06534e-09 -0.000999998)
(-2.65636e-10 1.08897e-09 -0.000999998)
(-9.27256e-11 1.09788e-09 -0.000999998)
(-8.12528e-11 7.6755e-10 -0.000999996)
(-2.61773e-10 7.63212e-10 -0.000999996)
(-4.56933e-10 7.36792e-10 -0.000999996)
(-6.03092e-10 6.98222e-10 -0.000999997)
(-6.51611e-10 6.7451e-10 -0.000999997)
(-5.90221e-10 6.39022e-10 -0.000999997)
(-4.99187e-10 6.73048e-10 -0.000999998)
(-3.96444e-10 6.87104e-10 -0.000999998)
(-2.50736e-10 6.99368e-10 -0.000999998)
(-8.8014e-11 7.02679e-10 -0.000999998)
(-8.17069e-11 2.73403e-10 -0.000999996)
(-2.72733e-10 2.73291e-10 -0.000999996)
(-4.81098e-10 2.62556e-10 -0.000999996)
(-6.23725e-10 2.4838e-10 -0.000999996)
(-6.71192e-10 2.40723e-10 -0.000999997)
(-5.91769e-10 2.27591e-10 -0.000999997)
(-4.85921e-10 2.38085e-10 -0.000999997)
(-3.91849e-10 2.4002e-10 -0.000999997)
(-2.48248e-10 2.42181e-10 -0.000999998)
(-8.79266e-11 2.41707e-10 -0.000999998)
(-1.33005e-10 4.03123e-10 -0.001)
(-3.68567e-10 4.1561e-10 -0.001)
(-5.76279e-10 4.21414e-10 -0.001)
(-7.6042e-10 4.27812e-10 -0.001)
(-8.67179e-10 4.41956e-10 -0.001)
(-8.5349e-10 4.34026e-10 -0.001)
(-7.81662e-10 4.20177e-10 -0.001)
(-6.48262e-10 4.11063e-10 -0.001)
(-4.0746e-10 4.10913e-10 -0.001)
(-1.3457e-10 4.14889e-10 -0.001)
(-1.21432e-10 1.19027e-09 -0.001)
(-3.51783e-10 1.21482e-09 -0.001)
(-5.65274e-10 1.22422e-09 -0.001)
(-7.41385e-10 1.23415e-09 -0.001)
(-8.62597e-10 1.26342e-09 -0.001)
(-8.76833e-10 1.24221e-09 -0.001)
(-8.06141e-10 1.21734e-09 -0.001)
(-6.58799e-10 1.19749e-09 -0.001)
(-4.03647e-10 1.19754e-09 -0.001)
(-1.30104e-10 1.19852e-09 -0.001)
(-1.10643e-10 1.86156e-09 -0.001)
(-3.37533e-10 1.88224e-09 -0.001)
(-5.58273e-10 1.88258e-09 -0.001)
(-7.22745e-10 1.88029e-09 -0.001)
(-8.60787e-10 1.90331e-09 -0.001)
(-9.01187e-10 1.85399e-09 -0.001)
(-8.27932e-10 1.85916e-09 -0.001)
(-6.69294e-10 1.84527e-09 -0.001)
(-4.04955e-10 1.84818e-09 -0.001)
(-1.31656e-10 1.84099e-09 -0.001)
(-1.03964e-10 2.35273e-09 -0.000999999)
(-3.34294e-10 2.35498e-09 -0.000999999)
(-5.67527e-10 2.34231e-09 -0.000999999)
(-7.20757e-10 2.32941e-09 -0.001)
(-8.89024e-10 2.38411e-09 -0.001)
(-9.21099e-10 2.16765e-09 -0.001)
(-8.14965e-10 2.23576e-09 -0.001)
(-6.69652e-10 2.26513e-09 -0.001)
(-4.04399e-10 2.28979e-09 -0.001)
(-1.33928e-10 2.28583e-09 -0.001)
(-1.1221e-10 2.51256e-09 -0.000999998)
(-3.52191e-10 2.51095e-09 -0.000999998)
(-5.8408e-10 2.48016e-09 -0.000999999)
(-6.80992e-10 2.41981e-09 -0.000999999)
(-1.02258e-09 2.24174e-09 -0.000999999)
(-1.04955e-09 2.57452e-09 -0.001)
(-7.30432e-10 2.44029e-09 -0.001)
(-6.14958e-10 2.4388e-09 -0.001)
(-3.79794e-10 2.44672e-09 -0.001)
(-1.31447e-10 2.44527e-09 -0.001)
(-1.1005e-10 2.3818e-09 -0.000999997)
(-3.71447e-10 2.38631e-09 -0.000999997)
(-6.5902e-10 2.36064e-09 -0.000999998)
(-9.59309e-10 2.32089e-09 -0.000999998)
(-7.34528e-10 2.15977e-09 -0.000999999)
(-7.22564e-10 2.43046e-09 -0.000999999)
(-9.50537e-10 2.3427e-09 -0.000999999)
(-6.62867e-10 2.34433e-09 -0.000999999)
(-3.9316e-10 2.33963e-09 -0.001)
(-1.30996e-10 2.33314e-09 -0.001)
(-1.12182e-10 2.13266e-09 -0.000999997)
(-3.78039e-10 2.12695e-09 -0.000999997)
(-6.49838e-10 2.10421e-09 -0.000999997)
(-8.82017e-10 2.09525e-09 -0.000999997)
(-9.13074e-10 2.16135e-09 -0.000999998)
(-8.66443e-10 1.87287e-09 -0.000999998)
(-8.16538e-10 1.99577e-09 -0.000999998)
(-6.17754e-10 2.04311e-09 -0.000999999)
(-3.86536e-10 2.05613e-09 -0.000999999)
(-1.33829e-10 2.04926e-09 -0.000999999)
(-1.19452e-10 1.70416e-09 -0.000999996)
(-4.03944e-10 1.69371e-09 -0.000999996)
(-6.91022e-10 1.66264e-09 -0.000999996)
(-9.02211e-10 1.62111e-09 -0.000999997)
(-9.56769e-10 1.61861e-09 -0.000999997)
(-8.88051e-10 1.55184e-09 -0.000999997)
(-7.8033e-10 1.59262e-09 -0.000999998)
(-6.02199e-10 1.60957e-09 -0.000999998)
(-3.83026e-10 1.61532e-09 -0.000999998)
(-1.34092e-10 1.61233e-09 -0.000999998)
(-1.25614e-10 1.10289e-09 -0.000999995)
(-4.22747e-10 1.09205e-09 -0.000999995)
(-7.22579e-10 1.07303e-09 -0.000999996)
(-9.25934e-10 1.04752e-09 -0.000999996)
(-9.82185e-10 1.04499e-09 -0.000999996)
(-8.92306e-10 1.01529e-09 -0.000999997)
(-7.58685e-10 1.03893e-09 -0.000999997)
(-5.94738e-10 1.04216e-09 -0.000999997)
(-3.80465e-10 1.04073e-09 -0.000999998)
(-1.33703e-10 1.03591e-09 -0.000999998)
(-1.31919e-10 3.84077e-10 -0.000999995)
(-4.35038e-10 3.78198e-10 -0.000999995)
(-7.34291e-10 3.71741e-10 -0.000999995)
(-9.28379e-10 3.65217e-10 -0.000999996)
(-9.87097e-10 3.67478e-10 -0.000999996)
(-8.9248e-10 3.58489e-10 -0.000999996)
(-7.52098e-10 3.65855e-10 -0.000999997)
(-5.99257e-10 3.63923e-10 -0.000999997)
(-3.86592e-10 3.60445e-10 -0.000999997)
(-1.36773e-10 3.56506e-10 -0.000999997)
(-1.79011e-10 5.61513e-10 -0.001)
(-5.14384e-10 5.69936e-10 -0.001)
(-8.05016e-10 5.7041e-10 -0.001)
(-1.04165e-09 5.68829e-10 -0.001)
(-1.18644e-09 5.70061e-10 -0.001)
(-1.19392e-09 5.62754e-10 -0.001)
(-1.08759e-09 5.5615e-10 -0.001)
(-8.75141e-10 5.52942e-10 -0.001)
(-5.52903e-10 5.5588e-10 -0.001)
(-1.8564e-10 5.58878e-10 -0.001)
(-1.71851e-10 1.64067e-09 -0.001)
(-5.07492e-10 1.65596e-09 -0.001)
(-8.07628e-10 1.64841e-09 -0.001)
(-1.04388e-09 1.63493e-09 -0.001)
(-1.19458e-09 1.63033e-09 -0.001)
(-1.20999e-09 1.60781e-09 -0.001)
(-1.09947e-09 1.59928e-09 -0.001)
(-8.76992e-10 1.59046e-09 -0.001)
(-5.4696e-10 1.59672e-09 -0.001)
(-1.81996e-10 1.59881e-09 -0.001)
(-1.66836e-10 2.55688e-09 -0.001)
(-5.10677e-10 2.56403e-09 -0.001)
(-8.27772e-10 2.54017e-09 -0.001)
(-1.0617e-09 2.50762e-09 -0.001)
(-1.21575e-09 2.49757e-09 -0.001)
(-1.22724e-09 2.42852e-09 -0.001)
(-1.1071e-09 2.45584e-09 -0.001)
(-8.79249e-10 2.45106e-09 -0.001)
(-5.42574e-10 2.45837e-09 -0.001)
(-1.8102e-10 2.45457e-09 -0.001)
(-1.6923e-10 3.25346e-09 -0.000999999)
(-5.29132e-10 3.23207e-09 -0.000999999)
(-8.64483e-10 3.18948e-09 -0.001)
(-1.08663e-09 3.14702e-09 -0.001)
(-1.27384e-09 3.19884e-09 -0.001)
(-1.25189e-09 2.91307e-09 -0.001)
(-1.07707e-09 3.00191e-09 -0.001)
(-8.74248e-10 3.04589e-09 -0.001)
(-5.38768e-10 3.07599e-09 -0.001)
(-1.81406e-10 3.0755e-09 -0.001)
(-1.93631e-10 3.51178e-09 -0.000999998)
(-5.80634e-10 3.50268e-09 -0.000999998)
(-9.13232e-10 3.45514e-09 -0.000999999)
(-1.05237e-09 3.37247e-09 -0.000999999)
(-1.44967e-09 3.15912e-09 -0.000999999)
(-1.42407e-09 3.52612e-09 -0.001)
(-9.74275e-10 3.34957e-09 -0.001)
(-8.04758e-10 3.33874e-09 -0.001)
(-5.07135e-10 3.34745e-09 -0.001)
(-1.76135e-10 3.34586e-09 -0.001)
(-1.84511e-10 3.33922e-09 -0.000999997)
(-5.92445e-10 3.35932e-09 -0.000999997)
(-9.95159e-10 3.34307e-09 -0.000999998)
(-1.38273e-09 3.31366e-09 -0.000999998)
(-1.11987e-09 3.13396e-09 -0.000999998)
(-1.06138e-09 3.46544e-09 -0.000999999)
(-1.26463e-09 3.3282e-09 -0.000999999)
(-8.75922e-10 3.29395e-09 -0.000999999)
(-5.2524e-10 3.26771e-09 -0.001)
(-1.7709e-10 3.24669e-09 -0.001)
(-1.79647e-10 2.99958e-09 -0.000999996)
(-5.83255e-10 3.00464e-09 -0.000999996)
(-9.59382e-10 2.99628e-09 -0.000999996)
(-1.26139e-09 3.01174e-09 -0.000999997)
(-1.2979e-09 3.12395e-09 -0.000999997)
(-1.23003e-09 2.7899e-09 -0.000999998)
(-1.14576e-09 2.90872e-09 -0.000999998)
(-8.64802e-10 2.9276e-09 -0.000999998)
(-5.48151e-10 2.9112e-09 -0.000999999)
(-1.91315e-10 2.88528e-09 -0.000999999)
(-1.84683e-10 2.41075e-09 -0.000999995)
(-6.01401e-10 2.40317e-09 -0.000999995)
(-9.88457e-10 2.38135e-09 -0.000999995)
(-1.25511e-09 2.35218e-09 -0.000999996)
(-1.34183e-09 2.38156e-09 -0.000999996)
(-1.27653e-09 2.30091e-09 -0.000999997)
(-1.1269e-09 2.32374e-09 -0.000999997)
(-8.73066e-10 2.31865e-09 -0.000999997)
(-5.61945e-10 2.3049e-09 -0.000999998)
(-1.97665e-10 2.29083e-09 -0.000999998)
(-1.91388e-10 1.54138e-09 -0.000999994)
(-6.17145e-10 1.52672e-09 -0.000999995)
(-1.01058e-09 1.5165e-09 -0.000999995)
(-1.26106e-09 1.50485e-09 -0.000999995)
(-1.34896e-09 1.52267e-09 -0.000999995)
(-1.28767e-09 1.5054e-09 -0.000999996)
(-1.12786e-09 1.50947e-09 -0.000999996)
(-8.83204e-10 1.49949e-09 -0.000999997)
(-5.71357e-10 1.48631e-09 -0.000999997)
(-2.01066e-10 1.47581e-09 -0.000999997)
(-2.01563e-10 5.27274e-10 -0.000999994)
(-6.27936e-10 5.17636e-10 -0.000999994)
(-1.00859e-09 5.16322e-10 -0.000999994)
(-1.24649e-09 5.17834e-10 -0.000999995)
(-1.33873e-09 5.28535e-10 -0.000999995)
(-1.28742e-09 5.25703e-10 -0.000999996)
(-1.13079e-09 5.26727e-10 -0.000999996)
(-8.94418e-10 5.20975e-10 -0.000999996)
(-5.81724e-10 5.13982e-10 -0.000999997)
(-2.05173e-10 5.08645e-10 -0.000999997)
(-2.42211e-10 7.61829e-10 -0.001)
(-7.07558e-10 7.65279e-10 -0.001)
(-1.1097e-09 7.60705e-10 -0.001)
(-1.41785e-09 7.52501e-10 -0.001)
(-1.61289e-09 7.42767e-10 -0.001)
(-1.64527e-09 7.38218e-10 -0.001)
(-1.49222e-09 7.39624e-10 -0.001)
(-1.18304e-09 7.40962e-10 -0.001)
(-7.55621e-10 7.45121e-10 -0.00100001)
(-2.58728e-10 7.44967e-10 -0.00100001)
(-2.40476e-10 2.20698e-09 -0.001)
(-7.11368e-10 2.20878e-09 -0.001)
(-1.12454e-09 2.18801e-09 -0.001)
(-1.43831e-09 2.15864e-09 -0.001)
(-1.63e-09 2.12845e-09 -0.001)
(-1.65137e-09 2.11085e-09 -0.001)
(-1.49217e-09 2.12024e-09 -0.001)
(-1.17957e-09 2.11996e-09 -0.001)
(-7.5162e-10 2.12779e-09 -0.001)
(-2.58053e-10 2.12659e-09 -0.001)
(-2.44666e-10 3.42171e-09 -0.001)
(-7.32004e-10 3.41223e-09 -0.001)
(-1.16221e-09 3.37547e-09 -0.001)
(-1.4801e-09 3.3313e-09 -0.001)
(-1.66367e-09 3.3063e-09 -0.001)
(-1.65663e-09 3.22198e-09 -0.001)
(-1.48601e-09 3.26881e-09 -0.001)
(-1.1775e-09 3.27078e-09 -0.001)
(-7.46447e-10 3.27592e-09 -0.001)
(-2.56671e-10 3.27103e-09 -0.001)
(-2.56025e-10 4.33984e-09 -0.001)
(-7.64228e-10 4.30711e-09 -0.001)
(-1.20608e-09 4.25782e-09 -0.001)
(-1.50769e-09 4.21853e-09 -0.001)
(-1.73955e-09 4.28087e-09 -0.001)
(-1.68912e-09 3.96847e-09 -0.001)
(-1.44356e-09 4.06089e-09 -0.001)
(-1.17218e-09 4.10389e-09 -0.001)
(-7.45304e-10 4.12269e-09 -0.001)
(-2.57279e-10 4.11619e-09 -0.001)
(-2.84727e-10 4.75536e-09 -0.000999998)
(-8.2207e-10 4.74419e-09 -0.000999998)
(-1.25135e-09 4.69722e-09 -0.000999999)
(-1.45707e-09 4.60999e-09 -0.000999999)
(-1.9138e-09 4.39736e-09 -0.001)
(-1.87661e-09 4.78785e-09 -0.001)
(-1.35052e-09 4.57973e-09 -0.001)
(-1.11514e-09 4.5482e-09 -0.001)
(-7.26385e-10 4.54783e-09 -0.001)
(-2.56014e-10 4.54005e-09 -0.001)
(-2.75456e-10 4.63225e-09 -0.000999997)
(-8.31369e-10 4.65745e-09 -0.000999997)
(-1.34088e-09 4.64549e-09 -0.000999997)
(-1.8074e-09 4.61594e-09 -0.000999998)
(-1.5617e-09 4.42795e-09 -0.000999998)
(-1.50675e-09 4.79601e-09 -0.000999999)
(-1.6832e-09 4.61741e-09 -0.000999999)
(-1.20347e-09 4.54995e-09 -0.001)
(-7.44795e-10 4.50951e-09 -0.001)
(-2.57033e-10 4.48197e-09 -0.001)
(-2.67841e-10 4.1787e-09 -0.000999995)
(-8.17687e-10 4.19077e-09 -0.000999995)
(-1.29345e-09 4.18903e-09 -0.000999996)
(-1.67469e-09 4.2243e-09 -0.000999996)
(-1.73365e-09 4.3589e-09 -0.000999997)
(-1.68707e-09 4.00211e-09 -0.000999997)
(-1.5966e-09 4.09893e-09 -0.000999998)
(-1.22242e-09 4.09097e-09 -0.000999998)
(-7.85726e-10 4.05263e-09 -0.000999999)
(-2.75438e-10 4.01901e-09 -0.000999999)
(-2.70737e-10 3.34401e-09 -0.000999994)
(-8.28898e-10 3.34124e-09 -0.000999994)
(-1.30788e-09 3.32812e-09 -0.000999994)
(-1.6375e-09 3.31513e-09 -0.000999995)
(-1.78387e-09 3.37332e-09 -0.000999995)
(-1.7669e-09 3.26932e-09 -0.000999996)
(-1.59433e-09 3.27359e-09 -0.000999996)
(-1.2492e-09 3.24954e-09 -0.000999997)
(-8.08914e-10 3.22257e-09 -0.000999997)
(-2.8325e-10 3.20474e-09 -0.000999998)
(-2.76409e-10 2.12765e-09 -0.000999993)
(-8.39816e-10 2.11503e-09 -0.000999993)
(-1.31984e-09 2.11385e-09 -0.000999994)
(-1.6293e-09 2.11396e-09 -0.000999994)
(-1.77931e-09 2.14341e-09 -0.000999994)
(-1.78659e-09 2.13427e-09 -0.000999995)
(-1.61614e-09 2.11799e-09 -0.000999996)
(-1.27283e-09 2.09808e-09 -0.000999996)
(-8.24224e-10 2.08037e-09 -0.000999996)
(-2.87438e-10 2.07144e-09 -0.000999997)
(-2.86471e-10 7.22363e-10 -0.000999993)
(-8.45038e-10 7.1302e-10 -0.000999993)
(-1.30671e-09 7.16919e-10 -0.000999993)
(-1.60486e-09 7.23814e-10 -0.000999993)
(-1.7603e-09 7.38384e-10 -0.000999994)
(-1.78906e-09 7.39823e-10 -0.000999994)
(-1.62748e-09 7.32998e-10 -0.000999995)
(-1.28411e-09 7.25688e-10 -0.000999996)
(-8.30079e-10 7.19342e-10 -0.000999996)
(-2.88046e-10 7.17009e-10 -0.000999996)
(-3.27842e-10 1.0251e-09 -0.001)
(-9.6845e-10 1.02202e-09 -0.001)
(-1.52386e-09 1.01428e-09 -0.001)
(-1.92336e-09 1.00237e-09 -0.001)
(-2.186e-09 9.8433e-10 -0.00100001)
(-2.26093e-09 9.84706e-10 -0.00100001)
(-2.05109e-09 9.91717e-10 -0.00100001)
(-1.61502e-09 9.95465e-10 -0.00100001)
(-1.04086e-09 9.98968e-10 -0.00100001)
(-3.61685e-10 9.94392e-10 -0.00100001)
(-3.33221e-10 2.94903e-09 -0.001)
(-9.8289e-10 2.9361e-09 -0.001)
(-1.54634e-09 2.90945e-09 -0.001)
(-1.95668e-09 2.87323e-09 -0.001)
(-2.20753e-09 2.82782e-09 -0.001)
(-2.2576e-09 2.81717e-09 -0.00100001)
(-2.04395e-09 2.84205e-09 -0.00100001)
(-1.61052e-09 2.84752e-09 -0.00100001)
(-1.04201e-09 2.85358e-09 -0.00100001)
(-3.65197e-10 2.84662e-09 -0.00100001)
(-3.46455e-10 4.55256e-09 -0.001)
(-1.01537e-09 4.52998e-09 -0.001)
(-1.58999e-09 4.49206e-09 -0.001)
(-2.00861e-09 4.44745e-09 -0.001)
(-2.24618e-09 4.41539e-09 -0.001)
(-2.25107e-09 4.33119e-09 -0.001)
(-2.02468e-09 4.39446e-09 -0.001)
(-1.60623e-09 4.40102e-09 -0.00100001)
(-1.03843e-09 4.40038e-09 -0.00100001)
(-3.6436e-10 4.39155e-09 -0.00100001)
(-3.63814e-10 5.74259e-09 -0.001)
(-1.05217e-09 5.71545e-09 -0.001)
(-1.62971e-09 5.68002e-09 -0.001)
(-2.03366e-09 5.66105e-09 -0.001)
(-2.32412e-09 5.72833e-09 -0.001)
(-2.27894e-09 5.42259e-09 -0.001)
(-1.97438e-09 5.51564e-09 -0.001)
(-1.60422e-09 5.54812e-09 -0.001)
(-1.04337e-09 5.54754e-09 -0.001)
(-3.66455e-10 5.53099e-09 -0.001)
(-3.83496e-10 6.37305e-09 -0.000999998)
(-1.08875e-09 6.36632e-09 -0.000999998)
(-1.64516e-09 6.33181e-09 -0.000999999)
(-1.96036e-09 6.25692e-09 -0.000999999)
(-2.48477e-09 6.05854e-09 -0.001)
(-2.46377e-09 6.46416e-09 -0.001)
(-1.89901e-09 6.24832e-09 -0.001)
(-1.57355e-09 6.19588e-09 -0.001)
(-1.04505e-09 6.17669e-09 -0.001)
(-3.71148e-10 6.15893e-09 -0.001)
(-3.81629e-10 6.36092e-09 -0.000999996)
(-1.10545e-09 6.37993e-09 -0.000999996)
(-1.73997e-09 6.36819e-09 -0.000999997)
(-2.30696e-09 6.33605e-09 -0.000999997)
(-2.11686e-09 6.1539e-09 -0.000999998)
(-2.08906e-09 6.52079e-09 -0.000999999)
(-2.24261e-09 6.32929e-09 -0.000999999)
(-1.67499e-09 6.2433e-09 -0.001)
(-1.06855e-09 6.1996e-09 -0.001)
(-3.73258e-10 6.17681e-09 -0.001)
(-3.75756e-10 5.75559e-09 -0.000999994)
(-1.09354e-09 5.76914e-09 -0.000999994)
(-1.6899e-09 5.77021e-09 -0.000999995)
(-2.1747e-09 5.81676e-09 -0.000999995)
(-2.30003e-09 5.95798e-09 -0.000999996)
(-2.28834e-09 5.59186e-09 -0.000999997)
(-2.17647e-09 5.66399e-09 -0.000999997)
(-1.70239e-09 5.64106e-09 -0.000999998)
(-1.09971e-09 5.60221e-09 -0.000999998)
(-3.82892e-10 5.57827e-09 -0.000999999)
(-3.78194e-10 4.57848e-09 -0.000999992)
(-1.10166e-09 4.58117e-09 -0.000999993)
(-1.69311e-09 4.5765e-09 -0.000999993)
(-2.11922e-09 4.5796e-09 -0.000999994)
(-2.34178e-09 4.65142e-09 -0.000999994)
(-2.38304e-09 4.54164e-09 -0.000999995)
(-2.19337e-09 4.52601e-09 -0.000999996)
(-1.73599e-09 4.49232e-09 -0.000999996)
(-1.12059e-09 4.46371e-09 -0.000999997)
(-3.87182e-10 4.44983e-09 -0.000999997)
(-3.8098e-10 2.91774e-09 -0.000999991)
(-1.10397e-09 2.91449e-09 -0.000999991)
(-1.69184e-09 2.9222e-09 -0.000999992)
(-2.09953e-09 2.93047e-09 -0.000999992)
(-2.33768e-09 2.96249e-09 -0.000999993)
(-2.41343e-09 2.94872e-09 -0.000999994)