/*--------------------------------*- C++ -*----------------------------------*\
  =========                 |
  \\      /  F ield         | OpenFOAM: The Open Source CFD Toolbox
   \\    /   O peration     | Website:  https://openfoam.org
    \\  /    A nd           | Version:  9
     \\/     M anipulation  |
\*---------------------------------------------------------------------------*/
FoamFile
{
    format      ascii;
    class       volVectorField;
    location    "90000";
    object      U;
}
// * * * * * * * * * * * * * * * * * * * * * * * * * * * * * * * * * * * * * //

dimensions      [0 1 -1 0 0 0 0];

internalField   nonuniform List<vector> 
9000
(
(-1.63919e-11 2.88742e-11 -0.001)
(-1.76837e-11 3.25865e-11 -0.001)
(-8.59585e-12 3.46578e-11 -0.001)
(6.86185e-14 3.78768e-11 -0.001)
(-2.13628e-11 3.77475e-11 -0.001)
(-5.64145e-11 4.09496e-11 -0.001)
(-6.28865e-11 3.8255e-11 -0.001)
(-5.76791e-11 3.8067e-11 -0.001)
(-3.49254e-11 3.89551e-11 -0.001)
(-1.25018e-11 3.87359e-11 -0.001)
(-1.27499e-11 1.00925e-10 -0.001)
(-1.19405e-11 1.05462e-10 -0.001)
(-3.24306e-12 1.05168e-10 -0.001)
(3.03887e-12 1.0513e-10 -0.001)
(-1.853e-11 1.00705e-10 -0.001)
(-5.61377e-11 1.02865e-10 -0.001)
(-6.59806e-11 1.02695e-10 -0.001)
(-5.70461e-11 1.04765e-10 -0.001)
(-3.42188e-11 1.06775e-10 -0.001)
(-1.26718e-11 1.0677e-10 -0.001)
(-1.20462e-11 1.73137e-10 -0.001)
(-1.3648e-11 1.73299e-10 -0.001)
(-8.92905e-12 1.66229e-10 -0.001)
(-4.51837e-12 1.5619e-10 -0.001)
(-2.38277e-11 1.51159e-10 -0.001)
(-5.46303e-11 1.54286e-10 -0.001)
(-6.11611e-11 1.56196e-10 -0.001)
(-5.36756e-11 1.6004e-10 -0.001)
(-3.273e-11 1.61702e-10 -0.001)
(-1.22914e-11 1.6206e-10 -0.001)
(-1.29195e-11 2.21156e-10 -0.001)
(-1.92262e-11 2.18476e-10 -0.001)
(-2.03855e-11 2.0665e-10 -0.001)
(-1.20534e-11 1.9743e-10 -0.001)
(-2.04996e-11 1.98251e-10 -0.001)
(-5.1122e-11 2.12492e-10 -0.001)
(-6.02037e-11 2.04235e-10 -0.001)
(-5.15219e-11 2.04837e-10 -0.001)
(-3.18487e-11 2.02386e-10 -0.001)
(-1.19765e-11 2.00829e-10 -0.001)
(-1.53244e-11 2.53296e-10 -0.001)
(-2.87554e-11 2.49158e-10 -0.001)
(-3.00138e-11 2.39495e-10 -0.001)
(-1.29303e-11 2.32382e-10 -0.001)
(-8.82028e-12 2.27974e-10 -0.001)
(-4.86874e-11 2.18204e-10 -0.001)
(-6.88424e-11 2.30528e-10 -0.001)
(-5.54926e-11 2.27583e-10 -0.001)
(-3.63219e-11 2.24582e-10 -0.001)
(-1.34725e-11 2.21603e-10 -0.001)
(-1.77272e-11 2.63622e-10 -0.000999999)
(-3.36891e-11 2.63844e-10 -0.000999999)
(-3.72087e-11 2.61768e-10 -0.001)
(-2.36637e-11 2.53261e-10 -0.001)
(-3.48396e-11 2.34497e-10 -0.001)
(-4.8628e-11 2.147e-10 -0.001)
(-5.07045e-11 2.24752e-10 -0.001)
(-5.73895e-11 2.23541e-10 -0.001)
(-3.7341e-11 2.22804e-10 -0.001)
(-1.45036e-11 2.21206e-10 -0.001)
(-1.5666e-11 2.42109e-10 -0.000999999)
(-3.1167e-11 2.46067e-10 -0.000999999)
(-4.06382e-11 2.45085e-10 -0.000999999)
(-4.03067e-11 2.39988e-10 -0.000999999)
(-4.74372e-11 2.24718e-10 -0.000999999)
(-5.83011e-11 2.22405e-10 -0.000999999)
(-5.98656e-11 2.03047e-10 -0.000999999)
(-5.73647e-11 2.01969e-10 -0.001)
(-3.81122e-11 1.98135e-10 -0.001)
(-1.45242e-11 1.96022e-10 -0.001)
(-1.42457e-11 1.91209e-10 -0.000999999)
(-3.11843e-11 1.92049e-10 -0.000999999)
(-4.33161e-11 1.88855e-10 -0.000999999)
(-4.40387e-11 1.86773e-10 -0.000999999)
(-5.2394e-11 1.82282e-10 -0.000999999)
(-7.01934e-11 1.74947e-10 -0.000999999)
(-7.1116e-11 1.64063e-10 -0.000999999)
(-6.22564e-11 1.60184e-10 -0.000999999)
(-4.27959e-11 1.56015e-10 -0.000999999)
(-1.61231e-11 1.52196e-10 -0.000999999)
(-1.51469e-11 1.19719e-10 -0.000999998)
(-3.38777e-11 1.18575e-10 -0.000999998)
(-4.5929e-11 1.15723e-10 -0.000999998)
(-4.68657e-11 1.13115e-10 -0.000999999)
(-5.92458e-11 1.11391e-10 -0.000999999)
(-7.64925e-11 1.04114e-10 -0.000999999)
(-7.46076e-11 1.0198e-10 -0.000999999)
(-6.53773e-11 9.75842e-11 -0.000999999)
(-4.57295e-11 9.54272e-11 -0.000999999)
(-1.79707e-11 9.23987e-11 -0.000999999)
(-1.55377e-11 4.02324e-11 -0.000999998)
(-3.53296e-11 3.98801e-11 -0.000999998)
(-4.87225e-11 3.88001e-11 -0.000999998)
(-4.82022e-11 3.70521e-11 -0.000999998)
(-6.12722e-11 3.72675e-11 -0.000999998)
(-7.94456e-11 3.49122e-11 -0.000999999)
(-7.74194e-11 3.42084e-11 -0.000999999)
(-6.86988e-11 3.19159e-11 -0.000999999)
(-4.77389e-11 3.09078e-11 -0.000999999)
(-1.89152e-11 2.99262e-11 -0.000999999)
(-3.76959e-11 8.22867e-11 -0.001)
(-3.84368e-11 9.25668e-11 -0.001)
(-1.4367e-11 9.59717e-11 -0.001)
(-5.16998e-12 9.9487e-11 -0.001)
(-6.27651e-11 9.48209e-11 -0.001)
(-1.3843e-10 1.01097e-10 -0.001)
(-1.52998e-10 9.84159e-11 -0.001)
(-1.40335e-10 9.92111e-11 -0.001)
(-8.57555e-11 1.01945e-10 -0.001)
(-3.13063e-11 1.01425e-10 -0.001)
(-2.76014e-11 2.78963e-10 -0.001)
(-2.48825e-11 2.90798e-10 -0.001)
(-7.38345e-12 2.8692e-10 -0.001)
(-6.6705e-12 2.80929e-10 -0.001)
(-6.17132e-11 2.66184e-10 -0.001)
(-1.35166e-10 2.68787e-10 -0.001)
(-1.55162e-10 2.72209e-10 -0.001)
(-1.36929e-10 2.78052e-10 -0.001)
(-8.33935e-11 2.83103e-10 -0.001)
(-3.16551e-11 2.83738e-10 -0.001)
(-2.63728e-11 4.69162e-10 -0.001)
(-3.10127e-11 4.6709e-10 -0.001)
(-2.42841e-11 4.47655e-10 -0.001)
(-2.62055e-11 4.21565e-10 -0.001)
(-7.5331e-11 4.08333e-10 -0.001)
(-1.32631e-10 4.13282e-10 -0.001)
(-1.43999e-10 4.18268e-10 -0.001)
(-1.29601e-10 4.26798e-10 -0.001)
(-7.95956e-11 4.29667e-10 -0.001)
(-3.0142e-11 4.31817e-10 -0.001)
(-3.0525e-11 5.9162e-10 -0.001)
(-4.73316e-11 5.82473e-10 -0.001)
(-5.29959e-11 5.55091e-10 -0.001)
(-4.60395e-11 5.29819e-10 -0.001)
(-7.00056e-11 5.27946e-10 -0.001)
(-1.25262e-10 5.63568e-10 -0.001)
(-1.4171e-10 5.45873e-10 -0.001)
(-1.25491e-10 5.45293e-10 -0.001)
(-7.75258e-11 5.40468e-10 -0.001)
(-2.86948e-11 5.40519e-10 -0.001)
(-3.68454e-11 6.73507e-10 -0.001)
(-6.88947e-11 6.62956e-10 -0.001)
(-7.70304e-11 6.4218e-10 -0.001)
(-5.33526e-11 6.26329e-10 -0.001)
(-4.15986e-11 6.10973e-10 -0.001)
(-1.14794e-10 5.87931e-10 -0.001)
(-1.62293e-10 6.1072e-10 -0.001)
(-1.34934e-10 6.05696e-10 -0.001)
(-8.33376e-11 5.98907e-10 -0.001)
(-2.91543e-11 5.93948e-10 -0.001)
(-4.26115e-11 7.11719e-10 -0.000999999)
(-8.01876e-11 7.13283e-10 -0.000999999)
(-8.97192e-11 7.05503e-10 -0.000999999)
(-7.7201e-11 6.86535e-10 -0.000999999)
(-1.08485e-10 6.45352e-10 -0.001)
(-1.25507e-10 5.92178e-10 -0.001)
(-1.23827e-10 6.02629e-10 -0.001)
(-1.37196e-10 5.98148e-10 -0.001)
(-8.81028e-11 5.90812e-10 -0.001)
(-3.25401e-11 5.81994e-10 -0.001)
(-3.66075e-11 6.57609e-10 -0.000999999)
(-7.64657e-11 6.65888e-10 -0.000999999)
(-1.03882e-10 6.58132e-10 -0.000999999)
(-1.13715e-10 6.40131e-10 -0.000999999)
(-1.35948e-10 6.11342e-10 -0.000999999)
(-1.57265e-10 6.02615e-10 -0.000999999)
(-1.56274e-10 5.50181e-10 -0.000999999)
(-1.46682e-10 5.37412e-10 -0.000999999)
(-9.82608e-11 5.21977e-10 -0.001)
(-3.67344e-11 5.09628e-10 -0.001)
(-3.54313e-11 5.11274e-10 -0.000999998)
(-8.08115e-11 5.10144e-10 -0.000999998)
(-1.15546e-10 4.98864e-10 -0.000999999)
(-1.24015e-10 4.88759e-10 -0.000999999)
(-1.45992e-10 4.79662e-10 -0.000999999)
(-1.86724e-10 4.63236e-10 -0.000999999)
(-1.89047e-10 4.33887e-10 -0.000999999)
(-1.65327e-10 4.18247e-10 -0.000999999)
(-1.14776e-10 4.04644e-10 -0.000999999)
(-4.37774e-11 3.91952e-10 -0.000999999)
(-3.85631e-11 3.17488e-10 -0.000999998)
(-8.97723e-11 3.13921e-10 -0.000999998)
(-1.25298e-10 3.05383e-10 -0.000999998)
(-1.32885e-10 2.9765e-10 -0.000999998)
(-1.61422e-10 2.90369e-10 -0.000999999)
(-2.02982e-10 2.74232e-10 -0.000999999)
(-2.01227e-10 2.65092e-10 -0.000999999)
(-1.7584e-10 2.51963e-10 -0.000999999)
(-1.23694e-10 2.45258e-10 -0.000999999)
(-4.85618e-11 2.39029e-10 -0.000999999)
(-3.93894e-11 1.06501e-10 -0.000999998)
(-9.33032e-11 1.05777e-10 -0.000999998)
(-1.31668e-10 1.03043e-10 -0.000999998)
(-1.38615e-10 9.92859e-11 -0.000999998)
(-1.69067e-10 9.68575e-11 -0.000999998)
(-2.11553e-10 9.13349e-11 -0.000999999)
(-2.1081e-10 8.79776e-11 -0.000999999)
(-1.84859e-10 8.13271e-11 -0.000999999)
(-1.26941e-10 7.8738e-11 -0.000999999)
(-4.93573e-11 7.7673e-11 -0.000999999)
(-4.99746e-11 1.62276e-10 -0.001)
(-7.1473e-11 1.7422e-10 -0.001)
(-6.64323e-11 1.7545e-10 -0.001)
(-8.81141e-11 1.73505e-10 -0.001)
(-1.70864e-10 1.65146e-10 -0.001)
(-2.46029e-10 1.68187e-10 -0.001)
(-2.52769e-10 1.69239e-10 -0.001)
(-2.21933e-10 1.71422e-10 -0.001)
(-1.37291e-10 1.75722e-10 -0.001)
(-4.97379e-11 1.75228e-10 -0.001)
(-3.83859e-11 5.11427e-10 -0.001)
(-5.88466e-11 5.2415e-10 -0.001)
(-6.75058e-11 5.15485e-10 -0.001)
(-9.90586e-11 5.0087e-10 -0.001)
(-1.76972e-10 4.80665e-10 -0.001)
(-2.42332e-10 4.75965e-10 -0.001)
(-2.49793e-10 4.83145e-10 -0.001)
(-2.15715e-10 4.88753e-10 -0.001)
(-1.33321e-10 4.94806e-10 -0.001)
(-4.99727e-11 4.94936e-10 -0.001)
(-3.81943e-11 8.27401e-10 -0.001)
(-6.85831e-11 8.23623e-10 -0.001)
(-9.00626e-11 8.00578e-10 -0.001)
(-1.23448e-10 7.69843e-10 -0.001)
(-1.96409e-10 7.46747e-10 -0.001)
(-2.43944e-10 7.39228e-10 -0.001)
(-2.40318e-10 7.48398e-10 -0.001)
(-2.10578e-10 7.50724e-10 -0.001)
(-1.30319e-10 7.53381e-10 -0.001)
(-4.86906e-11 7.55201e-10 -0.001)
(-4.35993e-11 1.0414e-09 -0.001)
(-8.72858e-11 1.0334e-09 -0.001)
(-1.21451e-10 1.00656e-09 -0.001)
(-1.53e-10 9.65832e-10 -0.001)
(-2.07671e-10 9.56577e-10 -0.001)
(-2.40671e-10 9.84016e-10 -0.001)
(-2.38316e-10 9.63643e-10 -0.001)
(-2.10659e-10 9.53598e-10 -0.001)
(-1.27359e-10 9.49804e-10 -0.001)
(-4.67328e-11 9.51277e-10 -0.001)
(-4.81305e-11 1.16678e-09 -0.001)
(-1.05506e-10 1.15998e-09 -0.001)
(-1.5783e-10 1.13455e-09 -0.001)
(-1.73467e-10 1.10704e-09 -0.001)
(-1.78141e-10 1.07625e-09 -0.001)
(-2.36635e-10 1.07432e-09 -0.001)
(-2.70668e-10 1.06139e-09 -0.001)
(-2.24283e-10 1.0553e-09 -0.001)
(-1.30775e-10 1.04576e-09 -0.001)
(-4.54883e-11 1.04242e-09 -0.001)
(-5.27629e-11 1.21659e-09 -0.000999999)
(-1.21966e-10 1.21535e-09 -0.000999999)
(-1.74605e-10 1.19294e-09 -0.000999999)
(-2.11274e-10 1.17022e-09 -0.000999999)
(-2.40099e-10 1.12623e-09 -0.001)
(-2.55445e-10 1.06696e-09 -0.001)
(-2.57555e-10 1.05319e-09 -0.001)
(-2.26197e-10 1.04399e-09 -0.001)
(-1.38176e-10 1.02295e-09 -0.001)
(-4.81397e-11 1.0053e-09 -0.001)
(-5.16128e-11 1.11799e-09 -0.000999999)
(-1.3154e-10 1.11558e-09 -0.000999999)
(-2.03139e-10 1.0939e-09 -0.000999999)
(-2.4e-10 1.06567e-09 -0.000999999)
(-2.81245e-10 1.04733e-09 -0.000999999)
(-3.09966e-10 1.01139e-09 -0.000999999)
(-2.938e-10 9.58086e-10 -0.000999999)
(-2.54385e-10 9.31484e-10 -0.000999999)
(-1.67498e-10 8.99947e-10 -0.001)
(-6.125e-11 8.7381e-10 -0.001)
(-5.70086e-11 8.57217e-10 -0.000999998)
(-1.48061e-10 8.465e-10 -0.000999998)
(-2.2462e-10 8.2634e-10 -0.000999998)
(-2.57782e-10 8.08519e-10 -0.000999998)
(-2.94372e-10 7.91457e-10 -0.000999999)
(-3.44728e-10 7.74141e-10 -0.000999999)
(-3.37434e-10 7.38949e-10 -0.000999999)
(-2.84196e-10 7.15584e-10 -0.000999999)
(-1.94071e-10 6.94357e-10 -0.000999999)
(-7.25323e-11 6.77151e-10 -0.000999999)
(-6.37398e-11 5.30297e-10 -0.000999998)
(-1.63949e-10 5.23779e-10 -0.000999998)
(-2.41166e-10 5.11382e-10 -0.000999998)
(-2.74827e-10 4.98008e-10 -0.000999998)
(-3.15574e-10 4.81512e-10 -0.000999998)
(-3.6241e-10 4.62782e-10 -0.000999998)
(-3.52293e-10 4.52873e-10 -0.000999999)
(-2.98831e-10 4.36215e-10 -0.000999999)
(-2.0448e-10 4.28705e-10 -0.000999999)
(-7.70212e-11 4.24795e-10 -0.000999999)
(-6.42715e-11 1.78268e-10 -0.000999998)
(-1.67669e-10 1.77937e-10 -0.000999998)
(-2.50046e-10 1.74652e-10 -0.000999998)
(-2.86995e-10 1.68735e-10 -0.000999998)
(-3.28883e-10 1.61785e-10 -0.000999998)
(-3.72531e-10 1.54742e-10 -0.000999998)
(-3.6315e-10 1.50938e-10 -0.000999999)
(-3.07853e-10 1.43201e-10 -0.000999999)
(-2.04289e-10 1.41662e-10 -0.000999999)
(-7.54418e-11 1.42875e-10 -0.000999999)
(-6.15073e-11 2.69531e-10 -0.001)
(-1.34927e-10 2.78234e-10 -0.001)
(-1.88122e-10 2.76598e-10 -0.001)
(-2.56576e-10 2.70694e-10 -0.001)
(-3.50438e-10 2.62393e-10 -0.001)
(-3.98749e-10 2.62011e-10 -0.001)
(-3.793e-10 2.61404e-10 -0.001)
(-3.1745e-10 2.63922e-10 -0.001)
(-1.98884e-10 2.68138e-10 -0.001)
(-7.03725e-11 2.66308e-10 -0.001)
(-5.33829e-11 8.07131e-10 -0.001)
(-1.28756e-10 8.15795e-10 -0.001)
(-1.9628e-10 8.04813e-10 -0.001)
(-2.7167e-10 7.85062e-10 -0.001)
(-3.60057e-10 7.66133e-10 -0.001)
(-4.00304e-10 7.52135e-10 -0.001)
(-3.77941e-10 7.52804e-10 -0.001)
(-3.11243e-10 7.55227e-10 -0.001)
(-1.96311e-10 7.59094e-10 -0.001)
(-7.18287e-11 7.54936e-10 -0.001)
(-5.42389e-11 1.27259e-09 -0.001)
(-1.39037e-10 1.27068e-09 -0.001)
(-2.19473e-10 1.25064e-09 -0.001)
(-2.95989e-10 1.21829e-09 -0.001)
(-3.84172e-10 1.19539e-09 -0.001)
(-4.1272e-10 1.16592e-09 -0.001)
(-3.76842e-10 1.16789e-09 -0.001)
(-3.11694e-10 1.15961e-09 -0.001)
(-1.98044e-10 1.15845e-09 -0.001)
(-7.3197e-11 1.15523e-09 -0.001)
(-5.74096e-11 1.61365e-09 -0.001)
(-1.53118e-10 1.61199e-09 -0.001)
(-2.48906e-10 1.59088e-09 -0.001)
(-3.26973e-10 1.55127e-09 -0.001)
(-4.1248e-10 1.54031e-09 -0.001)
(-4.27944e-10 1.50733e-09 -0.001)
(-3.84331e-10 1.49135e-09 -0.001)
(-3.20593e-10 1.46648e-09 -0.001)
(-1.98446e-10 1.46237e-09 -0.001)
(-7.28897e-11 1.46e-09 -0.001)
(-5.85496e-11 1.78239e-09 -0.000999999)
(-1.64792e-10 1.77924e-09 -0.000999999)
(-2.80387e-10 1.7503e-09 -0.001)
(-3.46507e-10 1.70872e-09 -0.001)
(-4.28139e-10 1.62876e-09 -0.001)
(-4.61871e-10 1.71668e-09 -0.001)
(-4.17695e-10 1.63405e-09 -0.001)
(-3.40488e-10 1.61326e-09 -0.001)
(-2.01707e-10 1.59938e-09 -0.001)
(-7.293e-11 1.59631e-09 -0.001)
(-6.38536e-11 1.79197e-09 -0.000999999)
(-1.8863e-10 1.78124e-09 -0.000999999)
(-3.19576e-10 1.74651e-09 -0.000999999)
(-4.48535e-10 1.71351e-09 -0.000999999)
(-4.04691e-10 1.66012e-09 -0.000999999)
(-4.22678e-10 1.6522e-09 -0.000999999)
(-4.87689e-10 1.60228e-09 -0.001)
(-3.55044e-10 1.58445e-09 -0.001)
(-2.12347e-10 1.54952e-09 -0.001)
(-7.31606e-11 1.52739e-09 -0.001)
(-7.2683e-11 1.62078e-09 -0.000999998)
(-2.1376e-10 1.60215e-09 -0.000999998)
(-3.48309e-10 1.56923e-09 -0.000999998)
(-4.32805e-10 1.54325e-09 -0.000999999)
(-4.89557e-10 1.55907e-09 -0.000999999)
(-5.19754e-10 1.43798e-09 -0.000999999)
(-4.85391e-10 1.43123e-09 -0.000999999)
(-3.92967e-10 1.40283e-09 -0.000999999)
(-2.55862e-10 1.36149e-09 -0.001)
(-9.23575e-11 1.33012e-09 -0.001)
(-8.5288e-11 1.24544e-09 -0.000999998)
(-2.43262e-10 1.22518e-09 -0.000999998)
(-3.78713e-10 1.19828e-09 -0.000999998)
(-4.58736e-10 1.17258e-09 -0.000999998)
(-5.09989e-10 1.14614e-09 -0.000999998)
(-5.50487e-10 1.12412e-09 -0.000999999)
(-5.22775e-10 1.10167e-09 -0.000999999)
(-4.24564e-10 1.08069e-09 -0.000999999)
(-2.8244e-10 1.05924e-09 -0.000999999)
(-1.01987e-10 1.04681e-09 -0.000999999)
(-9.51073e-11 7.76171e-10 -0.000999997)
(-2.6329e-10 7.67288e-10 -0.000999997)
(-4.01042e-10 7.53892e-10 -0.000999997)
(-4.84872e-10 7.34207e-10 -0.000999998)
(-5.37925e-10 7.06478e-10 -0.000999998)
(-5.64154e-10 6.85661e-10 -0.000999998)
(-5.28734e-10 6.86515e-10 -0.000999998)
(-4.35179e-10 6.76418e-10 -0.000999999)
(-2.87555e-10 6.72999e-10 -0.000999999)
(-1.02689e-10 6.75492e-10 -0.000999999)
(-9.5316e-11 2.63494e-10 -0.000999997)
(-2.66533e-10 2.63581e-10 -0.000999997)
(-4.11168e-10 2.60346e-10 -0.000999997)
(-5.05138e-10 2.52835e-10 -0.000999997)
(-5.57479e-10 2.39129e-10 -0.000999998)
(-5.6931e-10 2.32314e-10 -0.000999998)
(-5.30962e-10 2.32939e-10 -0.000999998)
(-4.37283e-10 2.29187e-10 -0.000999998)
(-2.81545e-10 2.30258e-10 -0.000999998)
(-9.80426e-11 2.34339e-10 -0.000999999)
(-8.69062e-11 4.03557e-10 -0.001)
(-2.42756e-10 4.06356e-10 -0.001)
(-3.80651e-10 4.0257e-10 -0.001)
(-5.00755e-10 3.94579e-10 -0.001)
(-5.99062e-10 3.85918e-10 -0.001)
(-6.22358e-10 3.8361e-10 -0.001)
(-5.65734e-10 3.82607e-10 -0.001)
(-4.53155e-10 3.84432e-10 -0.001)
(-2.90152e-10 3.85617e-10 -0.001)
(-1.03184e-10 3.80572e-10 -0.001)
(-8.49292e-11 1.17545e-09 -0.001)
(-2.4503e-10 1.1773e-09 -0.001)
(-3.93274e-10 1.16513e-09 -0.001)
(-5.18456e-10 1.14349e-09 -0.001)
(-6.11158e-10 1.12502e-09 -0.001)
(-6.2675e-10 1.10531e-09 -0.001)
(-5.65965e-10 1.10258e-09 -0.001)
(-4.51007e-10 1.09818e-09 -0.001)
(-2.93873e-10 1.09479e-09 -0.001)
(-1.07745e-10 1.08424e-09 -0.001)
(-8.70851e-11 1.83109e-09 -0.001)
(-2.55711e-10 1.83054e-09 -0.001)
(-4.15382e-10 1.81283e-09 -0.001)
(-5.41857e-10 1.78143e-09 -0.001)
(-6.38379e-10 1.76114e-09 -0.001)
(-6.45967e-10 1.71785e-09 -0.001)
(-5.73988e-10 1.70977e-09 -0.001)
(-4.61785e-10 1.68919e-09 -0.001)
(-3.02621e-10 1.67772e-09 -0.001)
(-1.11955e-10 1.66732e-09 -0.001)
(-8.85983e-11 2.33458e-09 -0.001)
(-2.66772e-10 2.33327e-09 -0.001)
(-4.42689e-10 2.31343e-09 -0.001)
(-5.70239e-10 2.27526e-09 -0.001)
(-6.7486e-10 2.28337e-09 -0.001)
(-6.78249e-10 2.1791e-09 -0.001)
(-5.94738e-10 2.1577e-09 -0.001)
(-4.82915e-10 2.12604e-09 -0.001)
(-3.12557e-10 2.11718e-09 -0.001)
(-1.15124e-10 2.10688e-09 -0.001)
(-9.21694e-11 2.5621e-09 -0.000999999)
(-2.81056e-10 2.56035e-09 -0.000999999)
(-4.73628e-10 2.52505e-09 -0.001)
(-5.7197e-10 2.47393e-09 -0.001)
(-7.34576e-10 2.34894e-09 -0.001)
(-7.7166e-10 2.52562e-09 -0.001)
(-6.2703e-10 2.3834e-09 -0.001)
(-5.01998e-10 2.33965e-09 -0.001)
(-3.17676e-10 2.3163e-09 -0.001)
(-1.18421e-10 2.30916e-09 -0.001)
(-9.49206e-11 2.50145e-09 -0.000999998)
(-3.08662e-10 2.48725e-09 -0.000999998)
(-5.29455e-10 2.44864e-09 -0.000999999)
(-7.46485e-10 2.41391e-09 -0.000999999)
(-6.23388e-10 2.32547e-09 -0.000999999)
(-6.43801e-10 2.40256e-09 -0.000999999)
(-7.80563e-10 2.32149e-09 -0.001)
(-5.49663e-10 2.28814e-09 -0.001)
(-3.38547e-10 2.24584e-09 -0.001)
(-1.18143e-10 2.22739e-09 -0.001)
(-1.11056e-10 2.23377e-09 -0.000999998)
(-3.38792e-10 2.20668e-09 -0.000999998)
(-5.4731e-10 2.17585e-09 -0.000999998)
(-6.95303e-10 2.1544e-09 -0.000999998)
(-7.45986e-10 2.19545e-09 -0.000999998)
(-7.75454e-10 1.98619e-09 -0.000999999)
(-7.41425e-10 2.03031e-09 -0.000999999)
(-5.77373e-10 2.01457e-09 -0.000999999)
(-3.74195e-10 1.98174e-09 -0.000999999)
(-1.32957e-10 1.95971e-09 -0.001)
(-1.25854e-10 1.74243e-09 -0.000999997)
(-3.70819e-10 1.72071e-09 -0.000999997)
(-5.82038e-10 1.69278e-09 -0.000999997)
(-7.2693e-10 1.65944e-09 -0.000999997)
(-7.91462e-10 1.6262e-09 -0.000999998)
(-8.08846e-10 1.57614e-09 -0.000999998)
(-7.52212e-10 1.58492e-09 -0.000999998)
(-5.97924e-10 1.57555e-09 -0.000999999)
(-3.896e-10 1.56266e-09 -0.000999999)
(-1.36543e-10 1.55948e-09 -0.000999999)
(-1.35793e-10 1.10122e-09 -0.000999996)
(-3.91692e-10 1.09257e-09 -0.000999997)
(-6.08717e-10 1.07834e-09 -0.000999997)
(-7.61767e-10 1.05365e-09 -0.000999997)
(-8.29136e-10 1.0201e-09 -0.000999997)
(-8.16604e-10 9.91935e-10 -0.000999998)
(-7.41889e-10 1.01052e-09 -0.000999998)
(-5.99312e-10 1.01091e-09 -0.000999998)
(-3.87065e-10 1.01261e-09 -0.000999998)
(-1.33135e-10 1.02049e-09 -0.000999998)
(-1.36114e-10 3.78078e-10 -0.000999996)
(-3.95001e-10 3.78162e-10 -0.000999996)
(-6.19935e-10 3.74779e-10 -0.000999996)
(-7.83583e-10 3.65909e-10 -0.000999997)
(-8.51544e-10 3.51475e-10 -0.000999997)
(-8.16955e-10 3.41995e-10 -0.000999997)
(-7.31921e-10 3.49828e-10 -0.000999998)
(-5.94708e-10 3.50843e-10 -0.000999998)
(-3.77382e-10 3.53537e-10 -0.000999998)
(-1.26598e-10 3.59223e-10 -0.000999998)
(-1.35799e-10 5.65147e-10 -0.001)
(-4.03702e-10 5.62292e-10 -0.001)
(-6.42387e-10 5.57171e-10 -0.001)
(-8.23593e-10 5.49412e-10 -0.001)
(-9.28447e-10 5.3994e-10 -0.001)
(-9.30546e-10 5.39405e-10 -0.001)
(-8.32601e-10 5.40099e-10 -0.001)
(-6.57319e-10 5.40154e-10 -0.001)
(-4.31149e-10 5.36476e-10 -0.001)
(-1.54974e-10 5.28623e-10 -0.001)
(-1.39837e-10 1.6299e-09 -0.001)
(-4.13499e-10 1.62483e-09 -0.001)
(-6.56469e-10 1.61242e-09 -0.001)
(-8.42295e-10 1.59384e-09 -0.001)
(-9.40016e-10 1.5755e-09 -0.001)
(-9.32002e-10 1.5635e-09 -0.001)
(-8.33396e-10 1.55828e-09 -0.001)
(-6.62092e-10 1.54629e-09 -0.001)
(-4.42522e-10 1.53234e-09 -0.001)
(-1.62181e-10 1.51726e-09 -0.001)
(-1.43832e-10 2.52884e-09 -0.001)
(-4.24977e-10 2.52634e-09 -0.001)
(-6.74782e-10 2.5116e-09 -0.001)
(-8.62044e-10 2.48739e-09 -0.001)
(-9.6046e-10 2.47599e-09 -0.001)
(-9.49521e-10 2.43707e-09 -0.001)
(-8.51468e-10 2.41776e-09 -0.001)
(-6.84376e-10 2.38455e-09 -0.001)
(-4.58128e-10 2.36105e-09 -0.001)
(-1.67597e-10 2.34613e-09 -0.001)
(-1.46794e-10 3.21991e-09 -0.001)
(-4.35608e-10 3.21199e-09 -0.001)
(-6.95863e-10 3.1917e-09 -0.001)
(-8.78066e-10 3.16254e-09 -0.001)
(-9.90496e-10 3.19792e-09 -0.001)
(-9.904e-10 3.06907e-09 -0.001)
(-8.86068e-10 3.03334e-09 -0.001)
(-7.18587e-10 2.99286e-09 -0.001)
(-4.76474e-10 2.97364e-09 -0.001)
(-1.72908e-10 2.95846e-09 -0.001)
(-1.57104e-10 3.54554e-09 -0.000999999)
(-4.59085e-10 3.54189e-09 -0.000999999)
(-7.24647e-10 3.51251e-09 -0.001)
(-8.55846e-10 3.47131e-09 -0.001)
(-1.0539e-09 3.34384e-09 -0.001)
(-1.114e-09 3.50962e-09 -0.001)
(-9.2767e-10 3.36315e-09 -0.001)
(-7.43665e-10 3.30305e-09 -0.001)
(-4.86941e-10 3.27187e-09 -0.001)
(-1.77607e-10 3.259e-09 -0.001)
(-1.56685e-10 3.45845e-09 -0.000999998)
(-4.75371e-10 3.45238e-09 -0.000999998)
(-7.66918e-10 3.42011e-09 -0.000999998)
(-1.0468e-09 3.38547e-09 -0.000999999)
(-9.51863e-10 3.26222e-09 -0.000999999)
(-9.71027e-10 3.37102e-09 -0.001)
(-1.09281e-09 3.28629e-09 -0.001)
(-8.09418e-10 3.24538e-09 -0.001)
(-5.14294e-10 3.20964e-09 -0.001)
(-1.80036e-10 3.19662e-09 -0.001)
(-1.69479e-10 3.08834e-09 -0.000999997)
(-5.04136e-10 3.07017e-09 -0.000999997)
(-7.92048e-10 3.03921e-09 -0.000999997)
(-1.01365e-09 3.00754e-09 -0.000999998)
(-1.06836e-09 3.0305e-09 -0.000999998)
(-1.09013e-09 2.81562e-09 -0.000999998)
(-1.0533e-09 2.86949e-09 -0.000999999)
(-8.19871e-10 2.8686e-09 -0.000999999)
(-5.29553e-10 2.85409e-09 -0.000999999)
(-1.84899e-10 2.84606e-09 -0.000999999)
(-1.80209e-10 2.44078e-09 -0.000999996)
(-5.30334e-10 2.42656e-09 -0.000999996)
(-8.29952e-10 2.39955e-09 -0.000999996)
(-1.05556e-09 2.35783e-09 -0.000999997)
(-1.1439e-09 2.32141e-09 -0.000999997)
(-1.13195e-09 2.24307e-09 -0.000999997)
(-1.0398e-09 2.27042e-09 -0.000999998)
(-8.24447e-10 2.27153e-09 -0.000999998)
(-5.31287e-10 2.2686e-09 -0.000999998)
(-1.82818e-10 2.27139e-09 -0.000999999)
(-1.87894e-10 1.55952e-09 -0.000999995)
(-5.49911e-10 1.55366e-09 -0.000999995)
(-8.60985e-10 1.5377e-09 -0.000999996)
(-1.09166e-09 1.51085e-09 -0.000999996)
(-1.18292e-09 1.4882e-09 -0.000999996)
(-1.14093e-09 1.45309e-09 -0.000999997)
(-1.02468e-09 1.47407e-09 -0.000999997)
(-8.21248e-10 1.47708e-09 -0.000999997)
(-5.25111e-10 1.48023e-09 -0.000999998)
(-1.77863e-10 1.48729e-09 -0.000999998)
(-1.88361e-10 5.38567e-10 -0.000999995)
(-5.53983e-10 5.38683e-10 -0.000999995)
(-8.71301e-10 5.34493e-10 -0.000999995)
(-1.1029e-09 5.26878e-10 -0.000999996)
(-1.19939e-09 5.21234e-10 -0.000999996)
(-1.14407e-09 5.08366e-10 -0.000999996)
(-1.01403e-09 5.16332e-10 -0.000999997)
(-8.16635e-10 5.17437e-10 -0.000999997)
(-5.17289e-10 5.19547e-10 -0.000999997)
(-1.7285e-10 5.23368e-10 -0.000999997)
(-2.09889e-10 7.66194e-10 -0.001)
(-6.20275e-10 7.6026e-10 -0.001)
(-9.73755e-10 7.56335e-10 -0.001)
(-1.23067e-09 7.52155e-10 -0.001)
(-1.36014e-09 7.46698e-10 -0.001)
(-1.34652e-09 7.48818e-10 -0.00100001)
(-1.2048e-09 7.4833e-10 -0.00100001)
(-9.59033e-10 7.44396e-10 -0.00100001)
(-6.36382e-10 7.36768e-10 -0.00100001)
(-2.28287e-10 7.28487e-10 -0.00100001)
(-2.17479e-10 2.20987e-09 -0.001)
(-6.32668e-10 2.20085e-09 -0.001)
(-9.83641e-10 2.19391e-09 -0.001)
(-1.24244e-09 2.1859e-09 -0.001)
(-1.36579e-09 2.17418e-09 -0.001)
(-1.34723e-09 2.17609e-09 -0.001)
(-1.21135e-09 2.16219e-09 -0.00100001)
(-9.72192e-10 2.14203e-09 -0.00100001)
(-6.52126e-10 2.12121e-09 -0.00100001)
(-2.35713e-10 2.10534e-09 -0.00100001)
(-2.23067e-10 3.42845e-09 -0.001)
(-6.41537e-10 3.42482e-09 -0.001)
(-9.90826e-10 3.41992e-09 -0.001)
(-1.25271e-09 3.41171e-09 -0.001)
(-1.37245e-09 3.40703e-09 -0.001)
(-1.36106e-09 3.39394e-09 -0.001)
(-1.24119e-09 3.35266e-09 -0.001)
(-1.00157e-09 3.31218e-09 -0.001)
(-6.70328e-10 3.28376e-09 -0.001)
(-2.40854e-10 3.26826e-09 -0.00100001)
(-2.27182e-10 4.34228e-09 -0.001)
(-6.47815e-10 4.33582e-09 -0.001)
(-9.97372e-10 4.32338e-09 -0.001)
(-1.25555e-09 4.308e-09 -0.001)
(-1.3838e-09 4.33545e-09 -0.001)
(-1.40187e-09 4.29281e-09 -0.001)
(-1.2933e-09 4.21528e-09 -0.001)
(-1.04081e-09 4.15847e-09 -0.001)
(-6.8999e-10 4.13033e-09 -0.001)
(-2.4554e-10 4.11345e-09 -0.001)
(-2.36876e-10 4.81816e-09 -0.000999999)
(-6.6846e-10 4.81885e-09 -0.000999999)
(-1.01922e-09 4.80385e-09 -0.001)
(-1.24067e-09 4.7854e-09 -0.001)
(-1.3877e-09 4.71657e-09 -0.001)
(-1.48124e-09 4.74277e-09 -0.001)
(-1.37546e-09 4.65346e-09 -0.001)
(-1.08595e-09 4.59612e-09 -0.001)
(-7.076e-10 4.56591e-09 -0.001)
(-2.5057e-10 4.5503e-09 -0.001)
(-2.34874e-10 4.78974e-09 -0.000999998)
(-6.71229e-10 4.79299e-09 -0.000999998)
(-1.03143e-09 4.76334e-09 -0.000999998)
(-1.34268e-09 4.72371e-09 -0.000999998)
(-1.42643e-09 4.61228e-09 -0.000999999)
(-1.46499e-09 4.61747e-09 -0.001)
(-1.43994e-09 4.58138e-09 -0.001)
(-1.12773e-09 4.55446e-09 -0.001)
(-7.27141e-10 4.5332e-09 -0.001)
(-2.53103e-10 4.52397e-09 -0.001)
(-2.42219e-10 4.31129e-09 -0.000999996)
(-7.04029e-10 4.30568e-09 -0.000999996)
(-1.08908e-09 4.26455e-09 -0.000999997)
(-1.39181e-09 4.20468e-09 -0.000999997)
(-1.49387e-09 4.16148e-09 -0.000999997)
(-1.51206e-09 4.04991e-09 -0.000999998)
(-1.43849e-09 4.06775e-09 -0.000999998)
(-1.1335e-09 4.06743e-09 -0.000999999)
(-7.29362e-10 4.06347e-09 -0.000999999)
(-2.51642e-10 4.06171e-09 -0.000999999)
(-2.48055e-10 3.41936e-09 -0.000999995)
(-7.26095e-10 3.41426e-09 -0.000999995)
(-1.13297e-09 3.38515e-09 -0.000999995)
(-1.44571e-09 3.33878e-09 -0.000999996)
(-1.58118e-09 3.30287e-09 -0.000999996)
(-1.55889e-09 3.22239e-09 -0.000999997)
(-1.42241e-09 3.23702e-09 -0.000999997)
(-1.13144e-09 3.23592e-09 -0.000999998)
(-7.24926e-10 3.23546e-09 -0.000999998)
(-2.47431e-10 3.23711e-09 -0.000999998)
(-2.53239e-10 2.19512e-09 -0.000999994)
(-7.44609e-10 2.19144e-09 -0.000999994)
(-1.16485e-09 2.17417e-09 -0.000999994)
(-1.47391e-09 2.15256e-09 -0.000999995)
(-1.6101e-09 2.15011e-09 -0.000999995)
(-1.5777e-09 2.11775e-09 -0.000999996)
(-1.42473e-09 2.11287e-09 -0.000999996)
(-1.13444e-09 2.10662e-09 -0.000999997)
(-7.21795e-10 2.10617e-09 -0.000999997)
(-2.44143e-10 2.10734e-09 -0.000999997)
(-2.55047e-10 7.58094e-10 -0.000999993)
(-7.49703e-10 7.57136e-10 -0.000999993)
(-1.16988e-09 7.53039e-10 -0.000999994)
(-1.46696e-09 7.50078e-10 -0.000999994)
(-1.61304e-09 7.5731e-10 -0.000999995)
(-1.59327e-09 7.44471e-10 -0.000999995)
(-1.43089e-09 7.39246e-10 -0.000999996)
(-1.13574e-09 7.35906e-10 -0.000999996)
(-7.18887e-10 7.35856e-10 -0.000999996)
(-2.42167e-10 7.36163e-10 -0.000999997)
(-3.08143e-10 1.03302e-09 -0.001)
(-8.94698e-10 1.02808e-09 -0.001)
(-1.38449e-09 1.02842e-09 -0.00100001)
(-1.73418e-09 1.03044e-09 -0.00100001)
(-1.9221e-09 1.03229e-09 -0.00100001)
(-1.91926e-09 1.03444e-09 -0.00100001)
(-1.73036e-09 1.02807e-09 -0.00100001)
(-1.38927e-09 1.01957e-09 -0.00100001)
(-9.18003e-10 1.01098e-09 -0.00100001)
(-3.25519e-10 1.00438e-09 -0.00100001)
(-3.15363e-10 2.99015e-09 -0.001)
(-9.02773e-10 2.98435e-09 -0.001)
(-1.38465e-09 2.98785e-09 -0.001)
(-1.73326e-09 2.99314e-09 -0.001)
(-1.92139e-09 2.99264e-09 -0.00100001)
(-1.92686e-09 2.99552e-09 -0.00100001)
(-1.74825e-09 2.971e-09 -0.00100001)
(-1.4087e-09 2.94617e-09 -0.00100001)
(-9.33029e-10 2.92593e-09 -0.00100001)
(-3.30962e-10 2.91256e-09 -0.00100001)
(-3.19658e-10 4.64775e-09 -0.001)
(-9.04273e-10 4.64937e-09 -0.001)
(-1.37871e-09 4.65633e-09 -0.001)
(-1.73265e-09 4.66056e-09 -0.001)
(-1.92333e-09 4.65306e-09 -0.001)
(-1.94457e-09 4.65623e-09 -0.00100001)
(-1.78299e-09 4.60154e-09 -0.00100001)
(-1.43661e-09 4.56415e-09 -0.00100001)
(-9.47904e-10 4.54102e-09 -0.00100001)
(-3.34382e-10 4.52775e-09 -0.00100001)
(-3.21962e-10 5.86591e-09 -0.001)
(-9.03139e-10 5.87319e-09 -0.001)
(-1.37431e-09 5.87338e-09 -0.001)
(-1.73684e-09 5.86593e-09 -0.001)
(-1.92606e-09 5.84469e-09 -0.001)
(-1.97881e-09 5.9112e-09 -0.001)
(-1.84059e-09 5.80265e-09 -0.001)
(-1.46882e-09 5.73931e-09 -0.001)
(-9.61059e-10 5.71146e-09 -0.00100001)
(-3.36392e-10 5.69397e-09 -0.00100001)
(-3.22549e-10 6.53896e-09 -0.000999999)
(-9.07823e-10 6.54817e-09 -0.000999999)
(-1.38675e-09 6.5389e-09 -0.001)
(-1.76139e-09 6.52919e-09 -0.001)
(-1.87819e-09 6.5171e-09 -0.001)
(-1.98663e-09 6.42054e-09 -0.001)
(-1.95475e-09 6.38477e-09 -0.001)
(-1.52702e-09 6.34825e-09 -0.001)
(-9.8241e-10 6.32681e-09 -0.001)
(-3.41793e-10 6.31092e-09 -0.001)
(-3.24185e-10 6.59902e-09 -0.000999997)
(-9.15562e-10 6.60322e-09 -0.000999997)
(-1.39415e-09 6.56508e-09 -0.000999997)
(-1.75867e-09 6.51143e-09 -0.000999998)
(-2.03469e-09 6.44879e-09 -0.000999999)
(-2.11104e-09 6.3059e-09 -0.000999999)
(-1.91283e-09 6.33302e-09 -0.001)
(-1.52591e-09 6.33038e-09 -0.001)
(-9.86318e-10 6.32251e-09 -0.001)
(-3.41041e-10 6.3151e-09 -0.001)
(-3.30046e-10 5.97819e-09 -0.000999995)
(-9.54299e-10 5.97704e-09 -0.000999995)
(-1.47942e-09 5.92356e-09 -0.000999995)
(-1.87774e-09 5.83985e-09 -0.000999996)
(-2.08371e-09 5.74138e-09 -0.000999996)
(-2.10237e-09 5.72937e-09 -0.000999997)
(-1.93024e-09 5.71398e-09 -0.000999998)
(-1.53666e-09 5.7018e-09 -0.000999998)
(-9.85581e-10 5.6972e-09 -0.000999999)
(-3.37938e-10 5.69261e-09 -0.000999999)
(-3.35848e-10 4.73638e-09 -0.000999993)
(-9.81452e-10 4.73398e-09 -0.000999993)
(-1.53211e-09 4.70031e-09 -0.000999994)
(-1.94088e-09 4.65652e-09 -0.000999994)
(-2.14518e-09 4.62232e-09 -0.000999995)
(-2.13842e-09 4.57941e-09 -0.000999995)
(-1.94035e-09 4.55283e-09 -0.000999996)
(-1.54191e-09 4.53771e-09 -0.000999997)
(-9.84529e-10 4.53219e-09 -0.000999997)
(-3.35436e-10 4.52656e-09 -0.000999997)
(-3.40644e-10 3.04187e-09 -0.000999992)
(-9.99124e-10 3.03802e-09 -0.000999992)
(-1.55726e-09 3.02228e-09 -0.000999992)
(-1.95547e-09 3.01131e-09 -0.000999993)
(-2.16051e-09 3.02008e-09 -0.000999993)
(-2.17153e-09 2.99901e-09 -0.000999994)
(-1.97161e-09 2.95799e-09 -0.000999995)
(-1.55645e-09 2.93963e-09 -0.000999995)
(-9.87975e-10 2.93429e-09 -0.000999996)
(-3.35559e-10 2.92894e-09 -0.000999996)
(-3.44354e-10 1.04838e-09 -0.000999991)
(-1.00486e-09 1.04588e-09 -0.000999991)
(-1.55627e-09 1.04282e-09 -0.000999992)
(-1.93941e-09 1.04425e-09 -0.000999992)
(-2.15353e-09 1.05537e-09 -0.000999993)
(-2.19649e-09 1.04759e-09 -0.000999993)
(-1.99596e-09 1.02686e-09 -0.000999994)
(-1.56227e-09 1.01983e-09 -0.000999995)
(-9.87889e-10 1.01816e-09 -0.000999995)
(-3.35109e-10 1.01632e-09 -0.000999995)