/*--------------------------------*- C++ -*----------------------------------*\
| =========                 |                                                 |
| \\      /  F ield         | OpenFOAM: The Open Source CFD Toolbox           |
|  \\    /   O peration     | Version:  5.x                                   |
|   \\  /    A nd           | Web:      www.OpenFOAM.org                      |
|    \\/     M anipulation  |                                                 |
\*---------------------------------------------------------------------------*/
FoamFile
{
    version     2.0;
    format      ascii;
    class       volScalarField;
    location    "9000";
    object      p;
}
// * * * * * * * * * * * * * * * * * * * * * * * * * * * * * * * * * * * * * //

dimensions      [0 2 -2 0 0 0 0];

internalField   nonuniform List<scalar> 
180
(
5.67682e-09
1.64396e-08
2.74438e-08
3.88696e-08
4.99127e-08
6.09793e-08
7.20666e-08
8.32002e-08
9.44059e-08
1.05709e-07
1.17132e-07
1.28691e-07
1.40394e-07
1.52244e-07
1.64233e-07
1.76347e-07
1.88564e-07
2.00856e-07
2.13188e-07
2.25522e-07
2.37817e-07
2.50027e-07
2.62108e-07
2.74015e-07
2.85706e-07
2.9714e-07
3.08281e-07
3.19097e-07
3.29563e-07
3.39659e-07
3.49372e-07
3.58693e-07
3.67621e-07
3.7616e-07
3.84316e-07
3.921e-07
3.99519e-07
4.06582e-07
4.1329e-07
4.19637e-07
4.25604e-07
4.31159e-07
4.36248e-07
4.40794e-07
4.44692e-07
4.47804e-07
4.49949e-07
4.50903e-07
4.50383e-07
4.48041e-07
4.43445e-07
4.36061e-07
4.25232e-07
4.10143e-07
3.89783e-07
3.62895e-07
3.27911e-07
2.82873e-07
2.25335e-07
1.52236e-07
5.97477e-08
-5.69147e-08
-2.03732e-07
-3.88171e-07
-6.19553e-07
-9.09499e-07
-1.2725e-06
-1.72662e-06
-2.29445e-06
-3.00434e-06
-3.89174e-06
-5.00058e-06
-6.38541e-06
-8.11851e-06
-1.03075e-05
-1.30976e-05
-1.6552e-05
-2.03563e-05
-2.4656e-05
-3.50874e-05
-6.6241e-05
0.000670167
0.00146245
0.0019458
0.00371388
0.00587138
0.00845989
0.00950165
0.0101296
0.0116004
0.0154712
0.0180042
0.02026
0.0206689
0.0217908
0.0221499
0.022507
0.0235469
0.023706
0.0243587
0.0259263
0.026314
0.0264537
0.0264579
0.0264645
0.0264714
0.0264747
0.0264774
0.0264799
0.026482
0.0264837
0.0264852
0.0264864
0.0264874
0.0264882
0.0264889
0.0264894
0.0264899
0.0264902
0.0264905
0.0264908
0.026491
0.0264911
0.0264913
0.0264914
0.0264915
0.0264915
0.0264916
0.0264917
0.0264917
0.0264917
0.0264917
0.0264918
0.0264918
0.0264918
0.0264918
0.0264918
0.0264918
0.0264918
0.0264918
0.0264918
0.0264918
0.0264918
0.0264918
0.0264918
0.0264918
0.0264918
0.0264918
0.0264918
0.0264918
0.0264918
0.0264918
0.0264918
0.0264918
0.0264918
0.0264918
0.0264918
0.0264918
0.0264918
0.0264918
0.0264918
0.0264918
0.0264918
0.0264918
0.0264918
0.0264918
0.0264918
0.0264918
0.0264918
0.0264918
0.0264918
0.0264918
0.0264918
0.0264918
0.0264918
0.0264918
0.0264918
0.0264918
0.0264918
0.0264918
)
;

boundaryField
{
    inlet
    {
        type            zeroGradient;
    }
    outlet
    {
        type            fixedValue;
        value           uniform 0;
    }
    repeat_boundary
    {
        type            zeroGradient;
    }
    procBoundary2to0
    {
        type            processor;
        value           nonuniform List<scalar> 
180
(
6.64359e-09
1.94523e-08
3.25381e-08
4.59863e-08
5.89726e-08
7.18733e-08
8.4663e-08
9.7348e-08
1.0994e-07
1.22454e-07
1.34912e-07
1.47331e-07
1.59731e-07
1.72128e-07
1.8454e-07
1.96979e-07
2.09459e-07
2.21994e-07
2.34595e-07
2.47277e-07
2.60052e-07
2.72933e-07
2.8594e-07
2.99083e-07
3.12392e-07
3.25904e-07
3.39659e-07
3.5371e-07
3.68114e-07
3.82934e-07
3.98242e-07
4.14117e-07
4.30653e-07
4.47952e-07
4.66132e-07
4.85328e-07
5.05697e-07
5.2742e-07
5.50703e-07
5.75781e-07
6.02921e-07
6.32424e-07
6.64638e-07
6.9996e-07
7.3885e-07
7.81841e-07
8.29553e-07
8.82715e-07
9.42182e-07
1.00896e-06
1.08426e-06
1.16949e-06
1.26636e-06
1.37687e-06
1.50347e-06
1.64903e-06
1.81702e-06
2.01161e-06
2.23778e-06
2.50153e-06
2.81005e-06
3.172e-06
3.59781e-06
4.10006e-06
4.6939e-06
5.39769e-06
6.23365e-06
7.2287e-06
8.41559e-06
9.83407e-06
1.15328e-05
1.35723e-05
1.60285e-05
1.89896e-05
2.25366e-05
2.6753e-05
3.19645e-05
3.93344e-05
4.96302e-05
5.38745e-05
-6.5526e-06
0.00108529
0.00177567
0.00201787
0.00267536
0.0039261
0.00596418
0.00681677
0.0112393
0.0139969
0.015307
0.0156513
0.0165886
0.0186679
0.0193102
0.0209056
0.0219769
0.022732
0.0236661
0.0242129
0.0250772
0.0261733
0.0263582
0.0265418
0.0266195
0.0265769
0.0265603
0.0265502
0.0265416
0.0265339
0.0265274
0.0265218
0.0265172
0.0265132
0.0265099
0.0265071
0.0265047
0.0265028
0.0265011
0.0264997
0.0264985
0.0264975
0.0264967
0.026496
0.0264954
0.0264949
0.0264944
0.0264941
0.0264938
0.0264935
0.0264933
0.0264932
0.026493
0.0264929
0.0264928
0.0264927
0.0264926
0.0264925
0.0264924
0.0264924
0.0264923
0.0264923
0.0264922
0.0264922
0.0264921
0.0264921
0.0264921
0.0264921
0.026492
0.026492
0.026492
0.026492
0.026492
0.026492
0.026492
0.0264919
0.0264919
0.0264919
0.0264919
0.0264919
0.0264919
0.0264919
0.0264919
0.0264919
0.0264919
0.0264919
0.0264919
0.0264919
0.0264919
0.0264919
0.0264919
0.0264919
0.0264919
0.0264919
0.0264919
0.0264919
0.0264919
0.0264919
0.0264919
0.0264919
)
;
    }
    procBoundary2to3
    {
        type            processor;
        value           nonuniform List<scalar> 
180
(
6.49814e-09
1.89377e-08
3.1614e-08
4.46451e-08
5.72015e-08
6.96483e-08
8.19509e-08
9.41077e-08
1.06122e-07
1.18002e-07
1.29757e-07
1.41395e-07
1.52926e-07
1.64352e-07
1.75677e-07
1.86897e-07
1.98011e-07
2.09012e-07
2.19892e-07
2.30642e-07
2.41251e-07
2.51709e-07
2.62004e-07
2.72125e-07
2.82059e-07
2.91795e-07
3.0132e-07
3.10621e-07
3.19688e-07
3.28507e-07
3.37067e-07
3.45353e-07
3.53353e-07
3.61054e-07
3.6844e-07
3.75495e-07
3.82203e-07
3.88545e-07
3.94502e-07
4.00055e-07
4.05186e-07
4.09879e-07
4.14123e-07
4.17919e-07
4.21277e-07
4.24232e-07
4.26846e-07
4.29227e-07
4.31538e-07
4.3402e-07
4.37019e-07
4.41017e-07
4.4667e-07
4.54864e-07
4.66773e-07
4.83938e-07
5.0837e-07
5.42664e-07
5.90156e-07
6.55113e-07
7.42969e-07
8.60629e-07
1.01685e-06
1.22271e-06
1.49229e-06
1.84341e-06
2.29881e-06
2.8875e-06
3.64656e-06
4.62299e-06
5.87579e-06
7.4755e-06
9.50841e-06
1.2074e-05
1.52744e-05
1.92534e-05
2.4441e-05
3.18532e-05
4.14605e-05
4.12736e-05
9.75599e-06
0.000901844
0.00140505
0.00190843
0.00501947
0.00616348
0.00984516
0.0125265
0.0131759
0.0152906
0.0164079
0.0165099
0.0187446
0.0221652
0.0222384
0.0230094
0.0231876
0.0235668
0.0248614
0.0252301
0.0252439
0.0257902
0.0265133
0.0264144
0.0264272
0.0264378
0.0264432
0.0264486
0.0264538
0.0264585
0.0264626
0.0264662
0.0264694
0.0264722
0.0264747
0.0264768
0.0264787
0.0264804
0.0264818
0.0264831
0.0264842
0.0264852
0.026486
0.0264868
0.0264874
0.026488
0.0264885
0.0264889
0.0264892
0.0264896
0.0264898
0.0264901
0.0264903
0.0264905
0.0264906
0.0264908
0.0264909
0.026491
0.0264911
0.0264912
0.0264913
0.0264913
0.0264914
0.0264914
0.0264915
0.0264915
0.0264916
0.0264916
0.0264916
0.0264916
0.0264917
0.0264917
0.0264917
0.0264917
0.0264917
0.0264917
0.0264918
0.0264918
0.0264918
0.0264918
0.0264918
0.0264918
0.0264918
0.0264918
0.0264918
0.0264918
0.0264918
0.0264918
0.0264918
0.0264918
0.0264918
0.0264918
0.0264918
0.0264918
0.0264918
0.0264918
0.0264919
0.0264919
0.0264919
0.0264919
)
;
    }
}


// ************************************************************************* //
