/*--------------------------------*- C++ -*----------------------------------*\
| =========                 |                                                 |
| \\      /  F ield         | OpenFOAM: The Open Source CFD Toolbox           |
|  \\    /   O peration     | Version:  5.x                                   |
|   \\  /    A nd           | Web:      www.OpenFOAM.org                      |
|    \\/     M anipulation  |                                                 |
\*---------------------------------------------------------------------------*/
FoamFile
{
    version     2.0;
    format      ascii;
    class       surfaceScalarField;
    location    "0.003";
    object      phi;
}
// * * * * * * * * * * * * * * * * * * * * * * * * * * * * * * * * * * * * * //

dimensions      [0 3 -1 0 0 0 0];

internalField   nonuniform List<scalar> 
179
(
-2.50013e-10
-2.50013e-10
-2.50013e-10
-2.50014e-10
-2.50014e-10
-2.50015e-10
-2.50016e-10
-2.50018e-10
-2.50019e-10
-2.5002e-10
-2.50022e-10
-2.50024e-10
-2.50026e-10
-2.50029e-10
-2.50032e-10
-2.50035e-10
-2.50038e-10
-2.50042e-10
-2.50046e-10
-2.5005e-10
-2.50055e-10
-2.50061e-10
-2.50067e-10
-2.50074e-10
-2.50082e-10
-2.5009e-10
-2.501e-10
-2.5011e-10
-2.50122e-10
-2.50135e-10
-2.5015e-10
-2.50166e-10
-2.50184e-10
-2.50203e-10
-2.50225e-10
-2.5025e-10
-2.50276e-10
-2.50306e-10
-2.50339e-10
-2.50376e-10
-2.50416e-10
-2.50461e-10
-2.5051e-10
-2.50565e-10
-2.50625e-10
-2.50692e-10
-2.50766e-10
-2.50848e-10
-2.50939e-10
-2.51039e-10
-2.5115e-10
-2.51273e-10
-2.5141e-10
-2.5156e-10
-2.51727e-10
-2.51912e-10
-2.52117e-10
-2.52343e-10
-2.52594e-10
-2.52872e-10
-2.53179e-10
-2.53519e-10
-2.53896e-10
-2.54312e-10
-2.54774e-10
-2.55285e-10
-2.5585e-10
-2.56477e-10
-2.57171e-10
-2.5794e-10
-2.58792e-10
-2.59736e-10
-2.60784e-10
-2.61947e-10
-2.63237e-10
-2.64666e-10
-2.66231e-10
-2.67891e-10
-2.69524e-10
-2.7095e-10
-2.71201e-10
-2.71164e-10
-2.68245e-10
-2.67958e-10
-2.7398e-10
-2.78597e-10
-2.81663e-10
-2.88609e-10
-2.87202e-10
-2.76167e-10
-2.59225e-10
-2.50447e-10
-2.17077e-10
-1.99792e-10
-1.95974e-10
-1.96725e-10
-2.09484e-10
-2.25318e-10
-2.38363e-10
-2.41578e-10
-2.4002e-10
-2.36839e-10
-2.32595e-10
-2.30532e-10
-2.30974e-10
-2.32215e-10
-2.33517e-10
-2.34785e-10
-2.35995e-10
-2.37132e-10
-2.38191e-10
-2.39174e-10
-2.40082e-10
-2.40924e-10
-2.41702e-10
-2.4242e-10
-2.43081e-10
-2.4369e-10
-2.44249e-10
-2.44762e-10
-2.45232e-10
-2.45663e-10
-2.46057e-10
-2.46417e-10
-2.46746e-10
-2.47046e-10
-2.4732e-10
-2.47569e-10
-2.47796e-10
-2.48003e-10
-2.4819e-10
-2.48361e-10
-2.48515e-10
-2.48656e-10
-2.48784e-10
-2.489e-10
-2.49005e-10
-2.491e-10
-2.49187e-10
-2.49265e-10
-2.49336e-10
-2.494e-10
-2.49459e-10
-2.49512e-10
-2.49559e-10
-2.49602e-10
-2.49642e-10
-2.49677e-10
-2.49709e-10
-2.49737e-10
-2.49763e-10
-2.49787e-10
-2.49808e-10
-2.49827e-10
-2.49844e-10
-2.4986e-10
-2.49874e-10
-2.49886e-10
-2.49898e-10
-2.49908e-10
-2.49917e-10
-2.49926e-10
-2.49933e-10
-2.4994e-10
-2.49946e-10
-2.49952e-10
-2.49957e-10
-2.49961e-10
-2.49966e-10
-2.4997e-10
-2.49973e-10
-2.49976e-10
-2.49979e-10
-2.49982e-10
-2.49985e-10
-2.49988e-10
-2.4999e-10
-2.49992e-10
-2.49995e-10
)
;

boundaryField
{
    inlet
    {
        type            calculated;
        value           uniform -2.49997e-10;
    }
    outlet
    {
        type            calculated;
        value           uniform 2.50013e-10;
    }
    repeat_boundary
    {
        type            calculated;
        value           uniform 0;
    }
    procBoundary2to0
    {
        type            processor;
        value           nonuniform List<scalar> 
180
(
1.33279e-16
2.21947e-16
3.43385e-16
4.74612e-16
6.11986e-16
7.5587e-16
9.07742e-16
1.06931e-15
1.24237e-15
1.42881e-15
1.63061e-15
1.84992e-15
2.08904e-15
2.35048e-15
2.63698e-15
2.95155e-15
3.29751e-15
3.67851e-15
4.09861e-15
4.5623e-15
5.07456e-15
5.64089e-15
6.26742e-15
6.96092e-15
7.72891e-15
8.57972e-15
9.52256e-15
1.05675e-14
1.17255e-14
1.30087e-14
1.44303e-14
1.60045e-14
1.77476e-14
1.96776e-14
2.18146e-14
2.41806e-14
2.68001e-14
2.96999e-14
3.29093e-14
3.64611e-14
4.03909e-14
4.47383e-14
4.95469e-14
5.48647e-14
6.07449e-14
6.7246e-14
7.44328e-14
8.23764e-14
9.11552e-14
1.00856e-13
1.11576e-13
1.23421e-13
1.36507e-13
1.50962e-13
1.66929e-13
1.84562e-13
2.04032e-13
2.25529e-13
2.49259e-13
2.7545e-13
3.04351e-13
3.36236e-13
3.71407e-13
4.10191e-13
4.52948e-13
5.00069e-13
5.5198e-13
6.09144e-13
6.72088e-13
7.41462e-13
8.17944e-13
9.02314e-13
9.95438e-13
1.09828e-12
1.21167e-12
1.33507e-12
1.46195e-12
1.56854e-12
1.58113e-12
1.33958e-12
1.21291e-13
-2.74039e-14
-5.74477e-13
-2.66731e-13
3.73065e-12
4.44629e-12
4.00039e-13
4.42381e-12
-4.16085e-13
-7.67806e-12
-1.16375e-11
-8.11986e-12
-1.15627e-11
-1.49336e-11
-6.78242e-13
9.95078e-14
8.93035e-12
5.5848e-12
6.64995e-12
3.61565e-12
4.10172e-12
9.90822e-13
-3.71407e-13
-8.27576e-13
-1.7049e-13
-6.34126e-13
-6.23138e-13
-5.11735e-13
-4.1767e-13
-3.49477e-13
-2.96877e-13
-2.53566e-13
-2.16682e-13
-1.82714e-13
-1.53852e-13
-1.29352e-13
-1.08567e-13
-9.09312e-14
-7.59842e-14
-6.33307e-14
-5.26326e-14
-4.36e-14
-3.59843e-14
-2.95729e-14
-2.41838e-14
-1.96611e-14
-1.58711e-14
-1.27012e-14
-1.00785e-14
-7.92878e-15
-6.18643e-15
-4.80523e-15
-3.76541e-15
-2.65179e-15
-1.71747e-15
-9.76872e-16
-3.9466e-16
5.77467e-17
4.03836e-16
6.63211e-16
8.522e-16
9.84391e-16
1.07106e-15
1.12149e-15
1.14531e-15
1.14615e-15
1.12838e-15
1.09625e-15
1.05415e-15
1.00506e-15
9.51313e-16
8.94738e-16
8.36787e-16
7.78153e-16
7.20639e-16
6.64943e-16
6.11066e-16
5.59321e-16
5.10284e-16
4.64873e-16
4.2316e-16
3.84977e-16
3.50431e-16
3.18442e-16
2.89026e-16
2.62001e-16
2.37008e-16
2.13661e-16
1.91922e-16
1.71648e-16
1.52736e-16
1.35114e-16
1.18723e-16
1.03509e-16
8.94064e-17
7.62929e-17
6.38744e-17
5.17351e-17
4.08739e-17
1.77787e-17
)
;
    }
    procBoundary2to3
    {
        type            processor;
        value           nonuniform List<scalar> 
180
(
2.40896e-17
1.47355e-17
1.38462e-17
1.55206e-17
1.76667e-17
1.95163e-17
2.08658e-17
2.16196e-17
2.17131e-17
2.10897e-17
1.97012e-17
1.75193e-17
1.45636e-17
1.08504e-17
6.40227e-18
1.25777e-18
-4.52352e-18
-1.08804e-17
-1.77213e-17
-2.4905e-17
-3.2192e-17
-3.91751e-17
-4.51885e-17
-4.91796e-17
-4.95244e-17
-4.78061e-17
-5.23716e-17
-5.57395e-17
-5.7755e-17
-5.83605e-17
-5.76297e-17
-5.57901e-17
-5.32334e-17
-5.04964e-17
-4.82251e-17
-4.71212e-17
-4.78837e-17
-5.1152e-17
-5.74538e-17
-6.71585e-17
-8.04343e-17
-9.72273e-17
-1.17324e-16
-1.40176e-16
-1.64961e-16
-1.90564e-16
-2.15495e-16
-2.37795e-16
-2.54854e-16
-2.63003e-16
-2.5767e-16
-2.33077e-16
-1.81768e-16
-9.4026e-17
4.2797e-17
2.42525e-16
5.00292e-16
8.47082e-16
1.30512e-15
1.9016e-15
2.66909e-15
3.64755e-15
4.88524e-15
6.37411e-15
8.26299e-15
1.06367e-14
1.35735e-14
1.71989e-14
2.16717e-14
2.71705e-14
3.391e-14
4.21493e-14
5.21986e-14
6.43891e-14
7.87857e-14
9.38409e-14
1.02826e-13
9.1797e-14
5.23625e-14
8.66789e-14
1.30397e-13
-1.01068e-14
-2.34499e-12
-1.96356e-14
2.2912e-12
1.70493e-13
2.66612e-12
2.52234e-12
-9.9143e-13
-3.35707e-12
-5.30427e-12
-6.58386e-13
-2.18077e-11
-2.351e-12
-3.13957e-12
6.50877e-13
3.82892e-12
1.02489e-11
6.39499e-12
-4.00746e-13
-5.65937e-12
-4.17169e-12
-3.8721e-12
-1.23523e-12
6.12228e-13
1.87544e-12
1.92545e-12
1.77977e-12
1.62755e-12
1.48682e-12
1.35623e-12
1.23584e-12
1.12544e-12
1.02436e-12
9.31862e-13
8.47282e-13
7.70006e-13
6.99455e-13
6.3509e-13
5.76406e-13
5.22936e-13
4.74245e-13
4.29927e-13
3.89611e-13
3.52956e-13
3.19648e-13
2.89396e-13
2.61932e-13
2.37009e-13
2.14403e-13
1.93905e-13
1.75326e-13
1.5849e-13
1.43237e-13
1.29423e-13
1.16917e-13
1.05598e-13
9.53571e-14
8.60938e-14
7.77172e-14
7.01442e-14
6.32996e-14
5.71146e-14
5.15271e-14
4.64804e-14
4.19233e-14
3.78092e-14
3.40959e-14
3.07451e-14
2.77222e-14
2.49958e-14
2.25373e-14
2.03209e-14
1.83233e-14
1.65234e-14
1.49019e-14
1.34416e-14
1.21267e-14
1.09433e-14
9.87843e-15
8.92073e-15
8.05982e-15
7.28637e-15
6.59202e-15
5.96928e-15
5.41143e-15
4.91248e-15
4.46707e-15
4.07045e-15
3.7184e-15
3.4072e-15
3.13356e-15
2.89461e-15
2.68783e-15
2.51107e-15
2.36242e-15
2.24003e-15
2.14194e-15
2.0667e-15
2.06389e-15
)
;
    }
}


// ************************************************************************* //
