/*--------------------------------*- C++ -*----------------------------------*\
| =========                 |                                                 |
| \\      /  F ield         | OpenFOAM: The Open Source CFD Toolbox           |
|  \\    /   O peration     | Version:  5.x                                   |
|   \\  /    A nd           | Web:      www.OpenFOAM.org                      |
|    \\/     M anipulation  |                                                 |
\*---------------------------------------------------------------------------*/
FoamFile
{
    version     2.0;
    format      ascii;
    class       volVectorField;
    location    "0.003";
    object      stored_U;
}
// * * * * * * * * * * * * * * * * * * * * * * * * * * * * * * * * * * * * * //

dimensions      [0 1 -1 0 0 0 0];

internalField   nonuniform List<vector> 
180
(
(1.09896e-09 -4.26304e-09 -0.00100002)
(1.27032e-09 -7.20606e-09 -0.00100002)
(1.77503e-09 -1.13231e-08 -0.00100002)
(2.41935e-09 -1.58767e-08 -0.00100002)
(3.1133e-09 -2.06864e-08 -0.00100002)
(3.83289e-09 -2.57529e-08 -0.00100003)
(4.57487e-09 -3.11225e-08 -0.00100003)
(5.34096e-09 -3.68538e-08 -0.00100003)
(6.13358e-09 -4.30104e-08 -0.00100004)
(6.95509e-09 -4.96609e-08 -0.00100004)
(7.80751e-09 -5.68789e-08 -0.00100005)
(8.69255e-09 -6.47445e-08 -0.00100006)
(9.61152e-09 -7.33442e-08 -0.00100007)
(1.05653e-08 -8.27728e-08 -0.00100008)
(1.15545e-08 -9.31338e-08 -0.00100009)
(1.25792e-08 -1.04541e-07 -0.0010001)
(1.3639e-08 -1.17118e-07 -0.00100011)
(1.47331e-08 -1.31004e-07 -0.00100013)
(1.58601e-08 -1.46349e-07 -0.00100014)
(1.70181e-08 -1.63321e-07 -0.00100016)
(1.82045e-08 -1.82104e-07 -0.00100018)
(1.94158e-08 -2.02902e-07 -0.0010002)
(2.06474e-08 -2.2594e-07 -0.00100023)
(2.18935e-08 -2.51469e-07 -0.00100025)
(2.31465e-08 -2.79764e-07 -0.00100028)
(2.43969e-08 -3.11131e-07 -0.00100032)
(2.56329e-08 -3.45907e-07 -0.00100035)
(2.68397e-08 -3.84467e-07 -0.00100039)
(2.79993e-08 -4.27226e-07 -0.00100044)
(2.90894e-08 -4.74642e-07 -0.00100049)
(3.00833e-08 -5.27224e-07 -0.00100054)
(3.09485e-08 -5.85534e-07 -0.0010006)
(3.16464e-08 -6.50195e-07 -0.00100067)
(3.21307e-08 -7.21899e-07 -0.00100074)
(3.23464e-08 -8.0141e-07 -0.00100082)
(3.22281e-08 -8.89575e-07 -0.00100092)
(3.16986e-08 -9.87333e-07 -0.00100102)
(3.06666e-08 -1.09572e-06 -0.00100113)
(2.90244e-08 -1.21589e-06 -0.00100125)
(2.66455e-08 -1.34911e-06 -0.00100138)
(2.33817e-08 -1.4968e-06 -0.00100153)
(1.90603e-08 -1.6605e-06 -0.00100169)
(1.34796e-08 -1.84196e-06 -0.00100187)
(6.40273e-09 -2.04308e-06 -0.00100207)
(-2.4471e-09 -2.26598e-06 -0.00100229)
(-1.33941e-08 -2.51299e-06 -0.00100254)
(-2.68173e-08 -2.78672e-06 -0.0010028)
(-4.31597e-08 -3.09004e-06 -0.0010031)
(-6.2939e-08 -3.4261e-06 -0.00100342)
(-8.67596e-08 -3.79841e-06 -0.00100378)
(-1.15325e-07 -4.21085e-06 -0.00100417)
(-1.49452e-07 -4.66769e-06 -0.0010046)
(-1.90089e-07 -5.17368e-06 -0.00100508)
(-2.38333e-07 -5.73405e-06 -0.0010056)
(-2.95457e-07 -6.35459e-06 -0.00100618)
(-3.62921e-07 -7.04166e-06 -0.00100681)
(-4.42422e-07 -7.80234e-06 -0.00100751)
(-5.35971e-07 -8.64434e-06 -0.00100827)
(-6.45902e-07 -9.57619e-06 -0.00100911)
(-7.74927e-07 -1.06072e-05 -0.00101003)
(-9.26208e-07 -1.17476e-05 -0.00101103)
(-1.10341e-06 -1.30085e-05 -0.00101214)
(-1.31082e-06 -1.44026e-05 -0.00101334)
(-1.55341e-06 -1.59435e-05 -0.00101466)
(-1.83712e-06 -1.76462e-05 -0.0010161)
(-2.1688e-06 -1.9527e-05 -0.00101767)
(-2.55642e-06 -2.1604e-05 -0.00101937)
(-3.0093e-06 -2.38966e-05 -0.00102123)
(-3.53833e-06 -2.64263e-05 -0.00102324)
(-4.1562e-06 -2.9216e-05 -0.00102543)
(-4.87777e-06 -3.2291e-05 -0.00102779)
(-5.72037e-06 -3.56784e-05 -0.00103034)
(-6.70431e-06 -3.94079e-05 -0.00103306)
(-7.85461e-06 -4.35111e-05 -0.00103587)
(-9.21027e-06 -4.80144e-05 -0.00103896)
(-1.08634e-05 -5.29031e-05 -0.00104371)
(-1.30701e-05 -5.79647e-05 -0.00105239)
(-1.6341e-05 -6.22569e-05 -0.00105448)
(-2.13344e-05 -6.27246e-05 -0.00101624)
(-2.61627e-05 -5.22116e-05 -0.000680826)
(-2.83063e-05 -1.36256e-05 -0.00316476)
(-8.42215e-06 -2.31444e-06 -4.37005e-05)
(-0.000138891 4.08074e-05 -0.00374777)
(-1.25159e-05 5.95717e-06 -0.000299545)
(0.000101968 -0.000139315 -0.00374496)
(7.01755e-05 -0.000204049 -0.0040722)
(3.36044e-05 -1.48538e-05 -0.000536403)
(0.000410047 -0.00035841 -0.00450603)
(-4.21446e-06 5.67323e-05 -0.00112766)
(-0.000256446 0.000774737 -0.00282494)
(-0.000340823 0.000981736 -0.00313005)
(-0.000120961 0.000225048 -0.000679167)
(-0.000935143 0.00142743 -0.00269373)
(-0.000287441 0.000501075 -0.00251815)
(-3.48273e-05 6.0197e-05 -0.00018019)
(0.000121367 8.9374e-06 -0.00495078)
(4.20999e-05 -6.5468e-07 -0.000480015)
(0.000745816 -0.000611877 -0.00261512)
(0.000677192 -0.000510374 -0.00193032)
(5.20607e-06 -0.000306142 -0.00143647)
(-0.000259839 -0.000383171 -0.00238872)
(-0.00012766 -0.000122773 -0.00181003)
(-3.80131e-05 1.01218e-05 -0.00183458)
(3.34864e-06 2.4434e-05 -0.00156865)
(4.16135e-05 8.18523e-06 -0.00120489)
(7.53134e-05 2.03029e-05 -0.00103305)
(7.43913e-05 1.8187e-05 -0.000905486)
(6.73854e-05 1.36343e-05 -0.000916211)
(6.09785e-05 1.05769e-05 -0.000933504)
(5.53768e-05 8.62884e-06 -0.000941264)
(5.03041e-05 7.20285e-06 -0.000946029)
(4.56746e-05 6.0431e-06 -0.000950583)
(4.14542e-05 5.06578e-06 -0.000954961)
(3.76093e-05 4.23819e-06 -0.000958995)
(3.4108e-05 3.53767e-06 -0.000962682)
(3.09211e-05 2.94538e-06 -0.000966054)
(2.80221e-05 2.44524e-06 -0.00096914)
(2.53862e-05 2.02351e-06 -0.00097196)
(2.29908e-05 1.66845e-06 -0.000974535)
(2.0815e-05 1.37002e-06 -0.000976884)
(1.88395e-05 1.11965e-06 -0.000979026)
(1.70466e-05 9.10029e-07 -0.000980978)
(1.54201e-05 7.34905e-07 -0.000982754)
(1.39452e-05 5.88958e-07 -0.000984371)
(1.26082e-05 4.67666e-07 -0.000985842)
(1.13966e-05 3.67175e-07 -0.000987178)
(1.02991e-05 2.84214e-07 -0.000988392)
(9.30515e-06 2.1601e-07 -0.000989493)
(8.40533e-06 1.60205e-07 -0.000990493)
(7.59094e-06 1.14805e-07 -0.0009914)
(6.85407e-06 7.81244e-08 -0.000992223)
(6.1875e-06 4.87386e-08 -0.000992968)
(5.58468e-06 2.54497e-08 -0.000993642)
(5.03961e-06 7.25051e-09 -0.000994253)
(4.54687e-06 -6.74526e-09 -0.000994807)
(4.10159e-06 -1.73571e-08 -0.000995309)
(3.69929e-06 -2.52519e-08 -0.000995764)
(3.33593e-06 -3.09723e-08 -0.000996176)
(3.0078e-06 -3.496e-08 -0.000996548)
(2.71156e-06 -3.75749e-08 -0.000996885)
(2.44416e-06 -3.911e-08 -0.000997189)
(2.20284e-06 -3.98036e-08 -0.000997464)
(1.9851e-06 -3.98492e-08 -0.000997713)
(1.78867e-06 -3.94023e-08 -0.000997937)
(1.61149e-06 -3.85895e-08 -0.00099814)
(1.45171e-06 -3.75136e-08 -0.000998323)
(1.30764e-06 -3.62563e-08 -0.000998488)
(1.17777e-06 -3.48816e-08 -0.000998637)
(1.06071e-06 -3.34394e-08 -0.000998771)
(9.5522e-07 -3.19675e-08 -0.000998892)
(8.60177e-07 -3.04947e-08 -0.000999002)
(7.74562e-07 -2.90426e-08 -0.0009991)
(6.97456e-07 -2.7627e-08 -0.000999189)
(6.28028e-07 -2.62585e-08 -0.000999269)
(5.65527e-07 -2.49443e-08 -0.000999341)
(5.09275e-07 -2.36886e-08 -0.000999407)
(4.58662e-07 -2.24937e-08 -0.000999465)
(4.13135e-07 -2.13598e-08 -0.000999518)
(3.722e-07 -2.0286e-08 -0.000999566)
(3.35409e-07 -1.92702e-08 -0.000999609)
(3.0236e-07 -1.831e-08 -0.000999648)
(2.72691e-07 -1.74032e-08 -0.000999683)
(2.46076e-07 -1.65471e-08 -0.000999715)
(2.22222e-07 -1.57394e-08 -0.000999744)
(2.00867e-07 -1.49773e-08 -0.00099977)
(1.81775e-07 -1.42578e-08 -0.000999794)
(1.64735e-07 -1.35783e-08 -0.000999816)
(1.49559e-07 -1.29358e-08 -0.000999835)
(1.36078e-07 -1.23278e-08 -0.000999853)
(1.24144e-07 -1.17514e-08 -0.000999869)
(1.13623e-07 -1.12042e-08 -0.000999885)
(1.04398e-07 -1.06836e-08 -0.000999899)
(9.63674e-08 -1.01872e-08 -0.000999911)
(8.94412e-08 -9.71275e-09 -0.000999923)
(8.35418e-08 -9.25761e-09 -0.000999935)
(7.86015e-08 -8.81744e-09 -0.000999945)
(7.45543e-08 -8.38093e-09 -0.000999955)
(7.13349e-08 -7.9334e-09 -0.000999965)
(6.89149e-08 -7.49623e-09 -0.000999975)
(6.73942e-08 -7.15921e-09 -0.000999983)
)
;

boundaryField
{
    inlet
    {
        type            calculated;
        value           uniform (6.73942e-08 -7.15921e-09 -0.000999983);
    }
    outlet
    {
        type            calculated;
        value           uniform (1.09896e-09 -4.26304e-09 -0.00100002);
    }
    repeat_boundary
    {
        type            calculated;
        value           nonuniform List<vector> 
360
(
(1.09896e-09 0 -0.00100002)
(1.27032e-09 0 -0.00100002)
(1.77503e-09 0 -0.00100002)
(2.41935e-09 0 -0.00100002)
(3.1133e-09 0 -0.00100002)
(3.83289e-09 0 -0.00100003)
(4.57487e-09 0 -0.00100003)
(5.34096e-09 0 -0.00100003)
(6.13358e-09 0 -0.00100004)
(6.95509e-09 0 -0.00100004)
(7.80751e-09 0 -0.00100005)
(8.69255e-09 0 -0.00100006)
(9.61152e-09 0 -0.00100007)
(1.05653e-08 0 -0.00100008)
(1.15545e-08 0 -0.00100009)
(1.25792e-08 0 -0.0010001)
(1.3639e-08 0 -0.00100011)
(1.47331e-08 0 -0.00100013)
(1.58601e-08 0 -0.00100014)
(1.70181e-08 0 -0.00100016)
(1.82045e-08 0 -0.00100018)
(1.94158e-08 0 -0.0010002)
(2.06474e-08 0 -0.00100023)
(2.18935e-08 0 -0.00100025)
(2.31465e-08 0 -0.00100028)
(2.43969e-08 0 -0.00100032)
(2.56329e-08 0 -0.00100035)
(2.68397e-08 0 -0.00100039)
(2.79993e-08 0 -0.00100044)
(2.90894e-08 0 -0.00100049)
(3.00833e-08 0 -0.00100054)
(3.09485e-08 0 -0.0010006)
(3.16464e-08 0 -0.00100067)
(3.21307e-08 0 -0.00100074)
(3.23464e-08 0 -0.00100082)
(3.22281e-08 0 -0.00100092)
(3.16986e-08 0 -0.00100102)
(3.06666e-08 0 -0.00100113)
(2.90244e-08 0 -0.00100125)
(2.66455e-08 0 -0.00100138)
(2.33817e-08 0 -0.00100153)
(1.90603e-08 0 -0.00100169)
(1.34796e-08 0 -0.00100187)
(6.40273e-09 0 -0.00100207)
(-2.4471e-09 0 -0.00100229)
(-1.33941e-08 0 -0.00100254)
(-2.68173e-08 0 -0.0010028)
(-4.31597e-08 0 -0.0010031)
(-6.2939e-08 0 -0.00100342)
(-8.67596e-08 0 -0.00100378)
(-1.15325e-07 0 -0.00100417)
(-1.49452e-07 0 -0.0010046)
(-1.90089e-07 0 -0.00100508)
(-2.38333e-07 0 -0.0010056)
(-2.95457e-07 0 -0.00100618)
(-3.62921e-07 0 -0.00100681)
(-4.42422e-07 0 -0.00100751)
(-5.35971e-07 0 -0.00100827)
(-6.45902e-07 0 -0.00100911)
(-7.74927e-07 0 -0.00101003)
(-9.26208e-07 0 -0.00101103)
(-1.10341e-06 0 -0.00101214)
(-1.31082e-06 0 -0.00101334)
(-1.55341e-06 0 -0.00101466)
(-1.83712e-06 0 -0.0010161)
(-2.1688e-06 0 -0.00101767)
(-2.55642e-06 0 -0.00101937)
(-3.0093e-06 0 -0.00102123)
(-3.53833e-06 0 -0.00102324)
(-4.1562e-06 0 -0.00102543)
(-4.87777e-06 0 -0.00102779)
(-5.72037e-06 0 -0.00103034)
(-6.70431e-06 0 -0.00103306)
(-7.85461e-06 0 -0.00103587)
(-9.21027e-06 0 -0.00103896)
(-1.08634e-05 0 -0.00104371)
(-1.30701e-05 0 -0.00105239)
(-1.6341e-05 0 -0.00105448)
(-2.13344e-05 0 -0.00101624)
(-2.61627e-05 0 -0.000680826)
(-2.83063e-05 0 -0.00316476)
(-8.42215e-06 0 -4.37005e-05)
(-0.000138891 0 -0.00374777)
(-1.25159e-05 0 -0.000299545)
(0.000101968 0 -0.00374496)
(7.01755e-05 0 -0.0040722)
(3.36044e-05 0 -0.000536403)
(0.000410047 0 -0.00450603)
(-4.21446e-06 0 -0.00112766)
(-0.000256446 0 -0.00282494)
(-0.000340823 0 -0.00313005)
(-0.000120961 0 -0.000679167)
(-0.000935143 0 -0.00269373)
(-0.000287441 0 -0.00251815)
(-3.48273e-05 0 -0.00018019)
(0.000121367 0 -0.00495078)
(4.20999e-05 0 -0.000480015)
(0.000745816 0 -0.00261512)
(0.000677192 0 -0.00193032)
(5.20607e-06 0 -0.00143647)
(-0.000259839 0 -0.00238872)
(-0.00012766 0 -0.00181003)
(-3.80131e-05 0 -0.00183458)
(3.34864e-06 0 -0.00156865)
(4.16135e-05 0 -0.00120489)
(7.53134e-05 0 -0.00103305)
(7.43913e-05 0 -0.000905486)
(6.73854e-05 0 -0.000916211)
(6.09785e-05 0 -0.000933504)
(5.53768e-05 0 -0.000941264)
(5.03041e-05 0 -0.000946029)
(4.56746e-05 0 -0.000950583)
(4.14542e-05 0 -0.000954961)
(3.76093e-05 0 -0.000958995)
(3.4108e-05 0 -0.000962682)
(3.09211e-05 0 -0.000966054)
(2.80221e-05 0 -0.00096914)
(2.53862e-05 0 -0.00097196)
(2.29908e-05 0 -0.000974535)
(2.0815e-05 0 -0.000976884)
(1.88395e-05 0 -0.000979026)
(1.70466e-05 0 -0.000980978)
(1.54201e-05 0 -0.000982754)
(1.39452e-05 0 -0.000984371)
(1.26082e-05 0 -0.000985842)
(1.13966e-05 0 -0.000987178)
(1.02991e-05 0 -0.000988392)
(9.30515e-06 0 -0.000989493)
(8.40533e-06 0 -0.000990493)
(7.59094e-06 0 -0.0009914)
(6.85407e-06 0 -0.000992223)
(6.1875e-06 0 -0.000992968)
(5.58468e-06 0 -0.000993642)
(5.03961e-06 0 -0.000994253)
(4.54687e-06 0 -0.000994807)
(4.10159e-06 0 -0.000995309)
(3.69929e-06 0 -0.000995764)
(3.33593e-06 0 -0.000996176)
(3.0078e-06 0 -0.000996548)
(2.71156e-06 0 -0.000996885)
(2.44416e-06 0 -0.000997189)
(2.20284e-06 0 -0.000997464)
(1.9851e-06 0 -0.000997713)
(1.78867e-06 0 -0.000997937)
(1.61149e-06 0 -0.00099814)
(1.45171e-06 0 -0.000998323)
(1.30764e-06 0 -0.000998488)
(1.17777e-06 0 -0.000998637)
(1.06071e-06 0 -0.000998771)
(9.5522e-07 0 -0.000998892)
(8.60177e-07 0 -0.000999002)
(7.74562e-07 0 -0.0009991)
(6.97456e-07 0 -0.000999189)
(6.28028e-07 0 -0.000999269)
(5.65527e-07 0 -0.000999341)
(5.09275e-07 0 -0.000999407)
(4.58662e-07 0 -0.000999465)
(4.13135e-07 0 -0.000999518)
(3.722e-07 0 -0.000999566)
(3.35409e-07 0 -0.000999609)
(3.0236e-07 0 -0.000999648)
(2.72691e-07 0 -0.000999683)
(2.46076e-07 0 -0.000999715)
(2.22222e-07 0 -0.000999744)
(2.00867e-07 0 -0.00099977)
(1.81775e-07 0 -0.000999794)
(1.64735e-07 0 -0.000999816)
(1.49559e-07 0 -0.000999835)
(1.36078e-07 0 -0.000999853)
(1.24144e-07 0 -0.000999869)
(1.13623e-07 0 -0.000999885)
(1.04398e-07 0 -0.000999899)
(9.63674e-08 0 -0.000999911)
(8.94412e-08 0 -0.000999923)
(8.35418e-08 0 -0.000999935)
(7.86015e-08 0 -0.000999945)
(7.45543e-08 0 -0.000999955)
(7.13349e-08 0 -0.000999965)
(6.89149e-08 0 -0.000999975)
(6.73942e-08 0 -0.000999983)
(0 -4.26304e-09 -0.00100002)
(0 -7.20606e-09 -0.00100002)
(0 -1.13231e-08 -0.00100002)
(0 -1.58767e-08 -0.00100002)
(0 -2.06864e-08 -0.00100002)
(0 -2.57529e-08 -0.00100003)
(0 -3.11225e-08 -0.00100003)
(0 -3.68538e-08 -0.00100003)
(0 -4.30104e-08 -0.00100004)
(0 -4.96609e-08 -0.00100004)
(0 -5.68789e-08 -0.00100005)
(0 -6.47445e-08 -0.00100006)
(0 -7.33442e-08 -0.00100007)
(0 -8.27728e-08 -0.00100008)
(0 -9.31338e-08 -0.00100009)
(0 -1.04541e-07 -0.0010001)
(0 -1.17118e-07 -0.00100011)
(0 -1.31004e-07 -0.00100013)
(0 -1.46349e-07 -0.00100014)
(0 -1.63321e-07 -0.00100016)
(0 -1.82104e-07 -0.00100018)
(0 -2.02902e-07 -0.0010002)
(0 -2.2594e-07 -0.00100023)
(0 -2.51469e-07 -0.00100025)
(0 -2.79764e-07 -0.00100028)
(0 -3.11131e-07 -0.00100032)
(0 -3.45907e-07 -0.00100035)
(0 -3.84467e-07 -0.00100039)
(0 -4.27226e-07 -0.00100044)
(0 -4.74642e-07 -0.00100049)
(0 -5.27224e-07 -0.00100054)
(0 -5.85534e-07 -0.0010006)
(0 -6.50195e-07 -0.00100067)
(0 -7.21899e-07 -0.00100074)
(0 -8.0141e-07 -0.00100082)
(0 -8.89575e-07 -0.00100092)
(0 -9.87333e-07 -0.00100102)
(0 -1.09572e-06 -0.00100113)
(0 -1.21589e-06 -0.00100125)
(0 -1.34911e-06 -0.00100138)
(0 -1.4968e-06 -0.00100153)
(0 -1.6605e-06 -0.00100169)
(0 -1.84196e-06 -0.00100187)
(0 -2.04308e-06 -0.00100207)
(0 -2.26598e-06 -0.00100229)
(0 -2.51299e-06 -0.00100254)
(0 -2.78672e-06 -0.0010028)
(0 -3.09004e-06 -0.0010031)
(0 -3.4261e-06 -0.00100342)
(0 -3.79841e-06 -0.00100378)
(0 -4.21085e-06 -0.00100417)
(0 -4.66769e-06 -0.0010046)
(0 -5.17368e-06 -0.00100508)
(0 -5.73405e-06 -0.0010056)
(0 -6.35459e-06 -0.00100618)
(0 -7.04166e-06 -0.00100681)
(0 -7.80234e-06 -0.00100751)
(0 -8.64434e-06 -0.00100827)
(0 -9.57619e-06 -0.00100911)
(0 -1.06072e-05 -0.00101003)
(0 -1.17476e-05 -0.00101103)
(0 -1.30085e-05 -0.00101214)
(0 -1.44026e-05 -0.00101334)
(0 -1.59435e-05 -0.00101466)
(0 -1.76462e-05 -0.0010161)
(0 -1.9527e-05 -0.00101767)
(0 -2.1604e-05 -0.00101937)
(0 -2.38966e-05 -0.00102123)
(0 -2.64263e-05 -0.00102324)
(0 -2.9216e-05 -0.00102543)
(0 -3.2291e-05 -0.00102779)
(0 -3.56784e-05 -0.00103034)
(0 -3.94079e-05 -0.00103306)
(0 -4.35111e-05 -0.00103587)
(0 -4.80144e-05 -0.00103896)
(0 -5.29031e-05 -0.00104371)
(0 -5.79647e-05 -0.00105239)
(0 -6.22569e-05 -0.00105448)
(0 -6.27246e-05 -0.00101624)
(0 -5.22116e-05 -0.000680826)
(0 -1.36256e-05 -0.00316476)
(0 -2.31444e-06 -4.37005e-05)
(0 4.08074e-05 -0.00374777)
(0 5.95717e-06 -0.000299545)
(0 -0.000139315 -0.00374496)
(0 -0.000204049 -0.0040722)
(0 -1.48538e-05 -0.000536403)
(0 -0.00035841 -0.00450603)
(0 5.67323e-05 -0.00112766)
(0 0.000774737 -0.00282494)
(0 0.000981736 -0.00313005)
(0 0.000225048 -0.000679167)
(0 0.00142743 -0.00269373)
(0 0.000501075 -0.00251815)
(0 6.0197e-05 -0.00018019)
(0 8.9374e-06 -0.00495078)
(0 -6.5468e-07 -0.000480015)
(0 -0.000611877 -0.00261512)
(0 -0.000510374 -0.00193032)
(0 -0.000306142 -0.00143647)
(0 -0.000383171 -0.00238872)
(0 -0.000122773 -0.00181003)
(0 1.01218e-05 -0.00183458)
(0 2.4434e-05 -0.00156865)
(0 8.18523e-06 -0.00120489)
(0 2.03029e-05 -0.00103305)
(0 1.8187e-05 -0.000905486)
(0 1.36343e-05 -0.000916211)
(0 1.05769e-05 -0.000933504)
(0 8.62884e-06 -0.000941264)
(0 7.20285e-06 -0.000946029)
(0 6.0431e-06 -0.000950583)
(0 5.06578e-06 -0.000954961)
(0 4.23819e-06 -0.000958995)
(0 3.53767e-06 -0.000962682)
(0 2.94538e-06 -0.000966054)
(0 2.44524e-06 -0.00096914)
(0 2.02351e-06 -0.00097196)
(0 1.66845e-06 -0.000974535)
(0 1.37002e-06 -0.000976884)
(0 1.11965e-06 -0.000979026)
(0 9.10029e-07 -0.000980978)
(0 7.34905e-07 -0.000982754)
(0 5.88958e-07 -0.000984371)
(0 4.67666e-07 -0.000985842)
(0 3.67175e-07 -0.000987178)
(0 2.84214e-07 -0.000988392)
(0 2.1601e-07 -0.000989493)
(0 1.60205e-07 -0.000990493)
(0 1.14805e-07 -0.0009914)
(0 7.81244e-08 -0.000992223)
(0 4.87386e-08 -0.000992968)
(0 2.54497e-08 -0.000993642)
(0 7.25051e-09 -0.000994253)
(0 -6.74526e-09 -0.000994807)
(0 -1.73571e-08 -0.000995309)
(0 -2.52519e-08 -0.000995764)
(0 -3.09723e-08 -0.000996176)
(0 -3.496e-08 -0.000996548)
(0 -3.75749e-08 -0.000996885)
(0 -3.911e-08 -0.000997189)
(0 -3.98036e-08 -0.000997464)
(0 -3.98492e-08 -0.000997713)
(0 -3.94023e-08 -0.000997937)
(0 -3.85895e-08 -0.00099814)
(0 -3.75136e-08 -0.000998323)
(0 -3.62563e-08 -0.000998488)
(0 -3.48816e-08 -0.000998637)
(0 -3.34394e-08 -0.000998771)
(0 -3.19675e-08 -0.000998892)
(0 -3.04947e-08 -0.000999002)
(0 -2.90426e-08 -0.0009991)
(0 -2.7627e-08 -0.000999189)
(0 -2.62585e-08 -0.000999269)
(0 -2.49443e-08 -0.000999341)
(0 -2.36886e-08 -0.000999407)
(0 -2.24937e-08 -0.000999465)
(0 -2.13598e-08 -0.000999518)
(0 -2.0286e-08 -0.000999566)
(0 -1.92702e-08 -0.000999609)
(0 -1.831e-08 -0.000999648)
(0 -1.74032e-08 -0.000999683)
(0 -1.65471e-08 -0.000999715)
(0 -1.57394e-08 -0.000999744)
(0 -1.49773e-08 -0.00099977)
(0 -1.42578e-08 -0.000999794)
(0 -1.35783e-08 -0.000999816)
(0 -1.29358e-08 -0.000999835)
(0 -1.23278e-08 -0.000999853)
(0 -1.17514e-08 -0.000999869)
(0 -1.12042e-08 -0.000999885)
(0 -1.06836e-08 -0.000999899)
(0 -1.01872e-08 -0.000999911)
(0 -9.71275e-09 -0.000999923)
(0 -9.25761e-09 -0.000999935)
(0 -8.81744e-09 -0.000999945)
(0 -8.38093e-09 -0.000999955)
(0 -7.9334e-09 -0.000999965)
(0 -7.49623e-09 -0.000999975)
(0 -7.15921e-09 -0.000999983)
)
;
    }
    procBoundary2to0
    {
        type            processor;
        value           nonuniform List<vector> 
180
(
(1.13851e-09 -4.26304e-09 -0.000999928)
(1.42933e-09 -7.20606e-09 -0.000999927)
(2.02503e-09 -1.13231e-08 -0.000999926)
(2.75497e-09 -1.58767e-08 -0.000999924)
(3.53577e-09 -2.06864e-08 -0.000999922)
(4.34354e-09 -2.57529e-08 -0.00099992)
(5.17504e-09 -3.11225e-08 -0.000999917)
(6.03215e-09 -3.68538e-08 -0.000999913)
(6.9177e-09 -4.30104e-08 -0.000999909)
(7.83454e-09 -4.96608e-08 -0.000999904)
(8.78536e-09 -5.68789e-08 -0.000999899)
(9.77262e-09 -6.47444e-08 -0.000999892)
(1.07986e-08 -7.33442e-08 -0.000999885)
(1.18652e-08 -8.27728e-08 -0.000999877)
(1.29744e-08 -9.31337e-08 -0.000999867)
(1.41276e-08 -1.04541e-07 -0.000999857)
(1.53263e-08 -1.17118e-07 -0.000999845)
(1.65717e-08 -1.31004e-07 -0.000999831)
(1.78647e-08 -1.46349e-07 -0.000999816)
(1.9206e-08 -1.63321e-07 -0.000999799)
(2.05961e-08 -1.82103e-07 -0.000999781)
(2.20353e-08 -2.02901e-07 -0.00099976)
(2.35232e-08 -2.2594e-07 -0.000999736)
(2.50594e-08 -2.51469e-07 -0.00099971)
(2.66427e-08 -2.79764e-07 -0.000999681)
(2.8271e-08 -3.1113e-07 -0.000999648)
(2.99417e-08 -3.45906e-07 -0.000999612)
(3.16509e-08 -3.84467e-07 -0.000999572)
(3.33933e-08 -4.27225e-07 -0.000999528)
(3.5162e-08 -4.74641e-07 -0.000999478)
(3.69483e-08 -5.27222e-07 -0.000999423)
(3.87409e-08 -5.85531e-07 -0.000999361)
(4.05256e-08 -6.50192e-07 -0.000999293)
(4.22852e-08 -7.21896e-07 -0.000999217)
(4.39984e-08 -8.01406e-07 -0.000999132)
(4.56393e-08 -8.8957e-07 -0.000999038)
(4.71768e-08 -9.87326e-07 -0.000998934)
(4.8574e-08 -1.09571e-06 -0.000998818)
(4.97868e-08 -1.21588e-06 -0.000998689)
(5.07636e-08 -1.3491e-06 -0.000998545)
(5.14437e-08 -1.49678e-06 -0.000998386)
(5.1756e-08 -1.66048e-06 -0.000998208)
(5.16173e-08 -1.84194e-06 -0.000998011)
(5.09297e-08 -2.04305e-06 -0.000997791)
(4.95765e-08 -2.26594e-06 -0.000997547)
(4.74192e-08 -2.51295e-06 -0.000997276)
(4.42951e-08 -2.78667e-06 -0.000996974)
(4.0013e-08 -3.08997e-06 -0.000996639)
(3.43605e-08 -3.42601e-06 -0.000996265)
(2.70862e-08 -3.7983e-06 -0.00099585)
(1.79e-08 -4.21072e-06 -0.000995389)
(6.46608e-09 -4.66754e-06 -0.000994876)
(-7.60246e-09 -5.17349e-06 -0.000994305)
(-2.47497e-08 -5.73381e-06 -0.00099367)
(-4.54816e-08 -6.35429e-06 -0.000992965)
(-7.03697e-08 -7.0413e-06 -0.000992181)
(-1.00051e-07 -7.80188e-06 -0.00099131)
(-1.35224e-07 -8.64378e-06 -0.000990342)
(-1.76625e-07 -9.57549e-06 -0.000989268)
(-2.2499e-07 -1.06063e-05 -0.000988078)
(-2.80969e-07 -1.17465e-05 -0.000986758)
(-3.45447e-07 -1.30072e-05 -0.000985294)
(-4.19617e-07 -1.4401e-05 -0.000983668)
(-5.04799e-07 -1.59415e-05 -0.000981864)
(-6.02411e-07 -1.76437e-05 -0.000979861)
(-7.13989e-07 -1.95239e-05 -0.000977641)
(-8.41142e-07 -2.16002e-05 -0.00097518)
(-9.85531e-07 -2.38919e-05 -0.000972454)
(-1.14888e-06 -2.64204e-05 -0.000969436)
(-1.33284e-06 -2.92088e-05 -0.000966099)
(-1.53903e-06 -3.2282e-05 -0.000962411)
(-1.76887e-06 -3.56672e-05 -0.000958338)
(-2.02367e-06 -3.93934e-05 -0.000953812)
(-2.30524e-06 -4.34904e-05 -0.000948741)
(-2.61834e-06 -4.79781e-05 -0.000943318)
(-2.97903e-06 -5.28241e-05 -0.000938801)
(-3.45694e-06 -5.77609e-05 -0.000936245)
(-4.26458e-06 -6.17739e-05 -0.000923203)
(-5.81231e-06 -6.14877e-05 -0.000865261)
(-7.65182e-06 -5.01629e-05 -0.000572845)
(-5.48023e-06 -8.97367e-06 -0.00284435)
(1.5114e-05 1.82758e-05 -4.25732e-05)
(0.000204286 4.07266e-05 -0.00342332)
(1.58958e-05 2.62788e-05 -7.19558e-05)
(-0.00045319 -0.000237738 -0.0027529)
(-0.000519802 -0.000267309 -0.00255139)
(-1.91056e-05 -5.78058e-06 -0.000565493)
(-0.000118587 -0.000152279 -0.00474422)
(3.32432e-05 2.95809e-05 -0.000293531)
(0.000279018 0.000308288 -0.00419535)
(0.000193844 0.000474922 -0.00183341)
(6.50077e-05 0.000911477 -0.00322913)
(-5.44122e-05 0.000107171 -0.000393361)
(-0.000169713 0.00135919 -0.0031803)
(-0.000192398 0.000417763 -0.00298478)
(-8.39801e-05 -7.01052e-05 -0.00103534)
(-0.000466781 -0.0010771 -0.00376527)
(-8.81898e-05 -0.000216195 -0.000830018)
(-0.000146794 -0.000385072 -0.00361786)
(-9.36888e-05 -0.000180433 -0.00184278)
(-0.00022131 -0.000161074 -0.00281311)
(-0.000133457 -6.4272e-05 -0.00245801)
(-4.66944e-05 2.26914e-05 -0.00148239)
(-1.69252e-06 3.30545e-05 -0.00176773)
(1.31728e-05 -4.29428e-06 -0.000796533)
(8.79446e-05 1.39256e-05 -0.000955355)
(0.000105436 1.59765e-05 -0.000876075)
(0.000102073 1.30296e-05 -0.000881929)
(9.31015e-05 1.04421e-05 -0.000898912)
(8.36091e-05 8.60625e-06 -0.000911418)
(7.4825e-05 7.20185e-06 -0.000920934)
(6.69263e-05 6.0452e-06 -0.00092934)
(5.98638e-05 5.06789e-06 -0.000936945)
(5.3555e-05 4.23994e-06 -0.000943744)
(4.79191e-05 3.53907e-06 -0.000949793)
(4.28834e-05 2.94651e-06 -0.000955177)
(3.8383e-05 2.44615e-06 -0.000959974)
(3.43603e-05 2.02425e-06 -0.000964248)
(3.07639e-05 1.66905e-06 -0.000968058)
(2.75479e-05 1.3705e-06 -0.000971455)
(2.46716e-05 1.12005e-06 -0.000974485)
(2.20987e-05 9.10348e-07 -0.000977188)
(1.97967e-05 7.35165e-07 -0.0009796)
(1.77368e-05 5.89171e-07 -0.000981753)
(1.58932e-05 4.6784e-07 -0.000983676)
(1.42429e-05 3.67317e-07 -0.000985393)
(1.27655e-05 2.8433e-07 -0.000986927)
(1.14426e-05 2.16105e-07 -0.000988297)
(1.02579e-05 1.60283e-07 -0.000989523)
(9.19679e-06 1.14869e-07 -0.000990618)
(8.2463e-06 7.81765e-08 -0.000991598)
(7.39477e-06 4.87813e-08 -0.000992474)
(6.63182e-06 2.54846e-08 -0.000993258)
(5.94817e-06 7.27911e-09 -0.00099396)
(5.33552e-06 -6.72185e-09 -0.000994588)
(4.78639e-06 -1.7338e-08 -0.000995149)
(4.29412e-06 -2.52363e-08 -0.00099565)
(3.85277e-06 -3.09594e-08 -0.000996099)
(3.45702e-06 -3.49495e-08 -0.000996501)
(3.10211e-06 -3.75663e-08 -0.000996861)
(2.78381e-06 -3.9103e-08 -0.000997183)
(2.49831e-06 -3.97979e-08 -0.000997471)
(2.2422e-06 -3.98445e-08 -0.00099773)
(2.01245e-06 -3.93985e-08 -0.000997962)
(1.80632e-06 -3.85864e-08 -0.00099817)
(1.62139e-06 -3.7511e-08 -0.000998356)
(1.45545e-06 -3.62542e-08 -0.000998523)
(1.30654e-06 -3.48799e-08 -0.000998673)
(1.17293e-06 -3.3438e-08 -0.000998808)
(1.05302e-06 -3.19664e-08 -0.000998929)
(9.45413e-07 -3.04938e-08 -0.000999037)
(8.48846e-07 -2.90419e-08 -0.000999135)
(7.62187e-07 -2.76264e-08 -0.000999222)
(6.84422e-07 -2.62581e-08 -0.000999301)
(6.14645e-07 -2.49439e-08 -0.000999371)
(5.52043e-07 -2.36883e-08 -0.000999435)
(4.95886e-07 -2.24934e-08 -0.000999492)
(4.45521e-07 -2.13596e-08 -0.000999544)
(4.00361e-07 -2.02859e-08 -0.00099959)
(3.59882e-07 -1.927e-08 -0.000999632)
(3.23613e-07 -1.83099e-08 -0.000999669)
(2.91133e-07 -1.74031e-08 -0.000999703)
(2.62063e-07 -1.65471e-08 -0.000999734)
(2.36068e-07 -1.57394e-08 -0.000999762)
(2.12845e-07 -1.49773e-08 -0.000999787)
(1.92124e-07 -1.42578e-08 -0.000999809)
(1.73666e-07 -1.35783e-08 -0.00099983)
(1.57256e-07 -1.29358e-08 -0.000999849)
(1.42704e-07 -1.23278e-08 -0.000999866)
(1.29841e-07 -1.17514e-08 -0.000999882)
(1.18517e-07 -1.12041e-08 -0.000999896)
(1.08601e-07 -1.06835e-08 -0.000999909)
(9.99769e-08 -1.01872e-08 -0.000999922)
(9.2545e-08 -9.71275e-09 -0.000999933)
(8.62182e-08 -9.25761e-09 -0.000999944)
(8.09236e-08 -8.81743e-09 -0.000999954)
(7.66041e-08 -8.38093e-09 -0.000999964)
(7.3224e-08 -7.9334e-09 -0.000999973)
(7.07927e-08 -7.49623e-09 -0.000999983)
(6.9501e-08 -7.15921e-09 -0.000999991)
)
;
    }
    procBoundary2to3
    {
        type            processor;
        value           nonuniform List<vector> 
180
(
(1.09896e-09 -4.30259e-09 -0.001)
(1.27032e-09 -7.36508e-09 -0.001)
(1.77503e-09 -1.15731e-08 -0.001)
(2.41935e-09 -1.62123e-08 -0.00100001)
(3.1133e-09 -2.11089e-08 -0.00100001)
(3.83288e-09 -2.62636e-08 -0.00100001)
(4.57487e-09 -3.17227e-08 -0.00100001)
(5.34096e-09 -3.7545e-08 -0.00100002)
(6.13358e-09 -4.37945e-08 -0.00100002)
(6.95508e-09 -5.05403e-08 -0.00100003)
(7.8075e-09 -5.78568e-08 -0.00100003)
(8.69254e-09 -6.58246e-08 -0.00100004)
(9.61151e-09 -7.45313e-08 -0.00100005)
(1.05653e-08 -8.40727e-08 -0.00100006)
(1.15545e-08 -9.45536e-08 -0.00100007)
(1.25792e-08 -1.06089e-07 -0.00100008)
(1.3639e-08 -1.18806e-07 -0.00100009)
(1.4733e-08 -1.32842e-07 -0.0010001)
(1.58601e-08 -1.48354e-07 -0.00100012)
(1.70181e-08 -1.65509e-07 -0.00100014)
(1.82045e-08 -1.84495e-07 -0.00100015)
(1.94158e-08 -2.05521e-07 -0.00100018)
(2.06474e-08 -2.28816e-07 -0.0010002)
(2.18934e-08 -2.54635e-07 -0.00100023)
(2.31464e-08 -2.8326e-07 -0.00100026)
(2.43968e-08 -3.15005e-07 -0.00100029)
(2.56328e-08 -3.50216e-07 -0.00100033)
(2.68396e-08 -3.89279e-07 -0.00100037)
(2.79992e-08 -4.3262e-07 -0.00100041)
(2.90892e-08 -4.80715e-07 -0.00100046)
(3.00831e-08 -5.34089e-07 -0.00100052)
(3.09483e-08 -5.93326e-07 -0.00100058)
(3.16461e-08 -6.59074e-07 -0.00100065)
(3.21303e-08 -7.32054e-07 -0.00100073)
(3.23459e-08 -8.13062e-07 -0.00100082)
(3.22274e-08 -9.02986e-07 -0.00100092)
(3.16978e-08 -1.00281e-06 -0.00100102)
(3.06656e-08 -1.11363e-06 -0.00100114)
(2.90232e-08 -1.23665e-06 -0.00100128)
(2.6644e-08 -1.37323e-06 -0.00100143)
(2.33798e-08 -1.52486e-06 -0.00100159)
(1.90581e-08 -1.6932e-06 -0.00100178)
(1.34768e-08 -1.8801e-06 -0.00100199)
(6.39928e-09 -2.08761e-06 -0.00100222)
(-2.45137e-09 -2.318e-06 -0.00100247)
(-1.33994e-08 -2.57381e-06 -0.00100276)
(-2.68239e-08 -2.85784e-06 -0.00100308)
(-4.31678e-08 -3.17321e-06 -0.00100344)
(-6.2949e-08 -3.52339e-06 -0.00100383)
(-8.67721e-08 -3.91225e-06 -0.00100427)
(-1.1534e-07 -4.34407e-06 -0.00100477)
(-1.49471e-07 -4.8236e-06 -0.00100532)
(-1.90113e-07 -5.35616e-06 -0.00100593)
(-2.38363e-07 -5.94763e-06 -0.00100661)
(-2.95494e-07 -6.60455e-06 -0.00100738)
(-3.62967e-07 -7.3342e-06 -0.00100823)
(-4.4248e-07 -8.14469e-06 -0.00100918)
(-5.36042e-07 -9.04507e-06 -0.00101024)
(-6.45991e-07 -1.00454e-05 -0.00101143)
(-7.75038e-07 -1.11571e-05 -0.00101275)
(-9.26346e-07 -1.23928e-05 -0.00101423)
(-1.10358e-06 -1.37665e-05 -0.00101588)
(-1.31103e-06 -1.52938e-05 -0.00101773)
(-1.55368e-06 -1.69921e-05 -0.0010198)
(-1.83745e-06 -1.88808e-05 -0.00102212)
(-2.16921e-06 -2.09817e-05 -0.00102471)
(-2.55694e-06 -2.33192e-05 -0.00102761)
(-3.00996e-06 -2.59203e-05 -0.00103086)
(-3.53914e-06 -2.88156e-05 -0.0010345)
(-4.15723e-06 -3.20393e-05 -0.00103859)
(-4.87907e-06 -3.56296e-05 -0.00104317)
(-5.72205e-06 -3.96298e-05 -0.00104832)
(-6.70661e-06 -4.40884e-05 -0.00105406)
(-7.85811e-06 -4.90596e-05 -0.00106043)
(-9.21632e-06 -5.45993e-05 -0.00106775)
(-1.08766e-05 -6.07425e-05 -0.00107769)
(-1.30821e-05 -6.72977e-05 -0.00109157)
(-1.63163e-05 -7.36621e-05 -0.00109501)
(-2.09978e-05 -7.69001e-05 -0.00105006)
(-2.51282e-05 -7.02719e-05 -0.000826722)
(-2.75684e-05 -4.58641e-05 -0.00331935)
(-7.20443e-06 -4.92055e-05 -4.61372e-05)
(-0.000121888 -0.000298872 -0.00397935)
(4.97217e-06 -5.77619e-05 -8.78384e-05)
(0.000158166 0.000325357 -0.00435219)
(2.95724e-05 -5.54761e-05 -0.000184499)
(0.000372107 0.000370975 -0.00473295)
(1.13708e-06 -3.83998e-05 -0.000286802)
(-3.39698e-05 -0.000121803 -0.00475163)
(-6.73276e-05 -7.91301e-05 -0.00140193)
(-0.000282143 0.000113051 -0.00548853)
(-5.22251e-05 4.09371e-05 -0.0001833)
(-0.00123536 0.000994182 -0.00463831)
(-9.02476e-05 6.97415e-05 -0.000420407)
(-0.000272414 0.000407424 -0.00460581)
(8.18191e-05 0.000132538 -0.00126886)
(0.000678808 0.000375252 -0.00333614)
(0.000625551 0.000348008 -0.00265841)
(0.000371104 0.000202736 -0.0051289)
(9.66617e-07 -1.62591e-05 -0.000917179)
(-0.00024074 -0.000120485 -0.00325428)