FoamFile
{version 2.0; format ascii;class vectorField; location 0;object  v;}
345
(
( -1.78893e-08 3.0319e-06 -1.53958e-05 )  
( 1.66524e-07 -1.92428e-06 -1.50067e-05 )  
( 1.5158e-06 -1.20546e-06 -1.36475e-05 )  
( 2.07875e-06 -2.71117e-06 -1.16069e-05 )  
( 4.71752e-07 -5.77697e-07 -1.6631e-05 )  
( 3.32448e-06 -3.55682e-06 -1.47623e-05 )  
( 6.63577e-07 -5.0233e-07 -1.38944e-05 )  
( 5.48725e-06 2.91783e-06 -1.59634e-05 )  
( -8.55221e-08 -5.54595e-06 -1.61625e-05 )  
( 3.07823e-06 3.00404e-06 -1.67324e-05 )  
( 3.50092e-06 1.67858e-07 -1.58579e-05 )  
( 1.43691e-06 2.25531e-06 -1.20084e-05 )  
( 7.39964e-07 -1.80843e-06 -1.34263e-05 )  
( 1.87255e-06 -1.90648e-06 -1.28343e-05 )  
( -4.54761e-07 -1.86993e-06 -1.59523e-05 )  
( 2.56239e-06 -2.92246e-06 -1.34846e-05 )  
( 9.88712e-07 -2.99831e-06 -7.13361e-06 )  
( -1.4026e-06 -2.04701e-07 -3.2186e-05 )  
( -1.52443e-06 5.24415e-06 -2.64959e-05 )  
( -4.49955e-07 -2.02324e-06 -1.44459e-05 )  
( 1.5055e-06 -8.03001e-07 -3.16114e-05 )  
( 2.84322e-06 3.14915e-07 -1.46411e-05 )  
( -3.88262e-07 5.15033e-07 -1.10407e-05 )  
( 2.2486e-06 -9.68165e-07 -1.09036e-05 )  
( 3.15452e-06 -2.13818e-06 -2.60823e-05 )  
( 1.52122e-06 -6.75384e-07 -1.45005e-05 )  
( 2.39078e-06 -1.28065e-06 -1.66879e-05 )  
( 2.13865e-06 -1.63305e-06 -1.43332e-05 )  
( 3.02692e-06 8.89444e-06 -1.24137e-05 )  
( 4.20694e-06 -5.15028e-06 -1.31636e-05 )  
( 2.9512e-06 1.02614e-07 -3.278e-05 )  
( 8.61765e-06 6.01129e-07 -2.99604e-05 )  
( 2.87394e-06 5.56324e-07 -2.70352e-05 )  
( 3.45878e-06 4.74643e-06 -2.58142e-05 )  
( 5.00287e-06 -3.03068e-06 -3.1582e-05 )  
( -1.39396e-06 1.71732e-06 -1.12344e-05 )  
( 2.54068e-07 -4.56676e-06 -2.80868e-05 )  
( 3.94679e-06 1.20342e-06 -2.81812e-05 )  
( 5.7991e-06 -1.00442e-06 -3.19827e-05 )  
( 5.64699e-07 -3.47713e-06 -3.01843e-05 )  
( -1.5173e-06 -7.76093e-06 -2.99473e-05 )  
( 4.55098e-06 -2.479e-06 -2.79745e-05 )  
( 8.40157e-06 3.80681e-06 -2.9529e-05 )  
( 2.30897e-06 -4.90397e-08 -3.55493e-05 )  
( -2.50983e-06 1.58267e-06 -2.51965e-05 )  
( 5.47263e-06 -1.43935e-06 -3.28575e-05 )  
( 5.53349e-06 -1.08193e-06 -4.07117e-05 )  
( 1.05717e-06 2.44253e-06 -2.89184e-05 )  
( 3.02187e-06 -1.26755e-06 -2.47953e-05 )  
( -1.79262e-06 1.06005e-06 -4.54965e-05 )  
( 1.10804e-06 -5.63821e-06 -2.53476e-05 )  
( 5.31015e-06 -6.79808e-06 -2.71012e-05 )  
( 1.26894e-05 -4.10616e-06 -3.63426e-05 )  
( 4.03438e-06 5.08228e-08 -2.78908e-05 )  
( 1.03333e-05 2.69721e-06 -6.25954e-05 )  
( -1.34287e-06 -3.32726e-06 -4.06231e-05 )  
( 2.1674e-06 -1.95632e-06 -4.92213e-05 )  
( 7.56617e-07 -3.68766e-07 -3.88811e-05 )  
( 3.13701e-06 -5.54495e-06 -4.25355e-05 )  
( 3.06022e-06 -2.14984e-06 -4.79431e-05 )  
( 1.00519e-06 7.94493e-06 -4.52981e-05 )  
( -2.1372e-07 -4.02135e-06 -3.7853e-05 )  
( 3.00579e-07 -2.72229e-06 -4.16031e-05 )  
( 1.1378e-06 -1.4196e-06 -4.32726e-05 )  
( 3.75899e-06 1.4047e-06 -4.10928e-05 )  
( 8.68519e-07 6.49761e-06 -4.99676e-05 )  
( 5.30596e-06 3.60473e-06 -4.21902e-05 )  
( 3.80161e-06 1.78691e-06 -3.32806e-05 )  
( 7.15969e-06 -5.74431e-06 -3.73579e-05 )  
( 8.79868e-07 1.30409e-06 -5.93998e-05 )  
( -8.47236e-08 1.01685e-05 -4.61969e-05 )  
( 8.52501e-06 -1.73689e-06 -4.74549e-05 )  
( 3.98837e-06 5.01509e-06 -3.8225e-05 )  
( 8.72212e-06 -2.14812e-06 -5.64067e-05 )  
( 1.18746e-06 -6.26832e-06 -5.15768e-05 )  
( 7.03475e-06 3.07098e-06 -5.62699e-05 )  
( -1.50399e-06 2.04043e-06 -5.71555e-05 )  
( 3.88329e-08 -3.91228e-06 -4.30486e-05 )  
( 4.15012e-06 1.83988e-06 -5.1225e-05 )  
( -1.05976e-07 5.97907e-07 -5.99598e-05 )  
( -1.70697e-06 4.60911e-07 -5.98358e-05 )  
( -6.51497e-07 2.1473e-06 -5.30313e-05 )  
( 5.19549e-06 3.77708e-07 -4.81509e-05 )  
( -1.92484e-06 6.10081e-06 -6.36469e-05 )  
( 1.55989e-06 2.36788e-06 -4.96454e-05 )  
( 3.28106e-06 -2.11377e-06 -3.92208e-05 )  
( 9.74831e-06 2.70098e-06 -4.17324e-05 )  
( 2.14737e-07 -1.08675e-07 -6.43809e-05 )  
( 2.13502e-06 6.86068e-06 -5.84124e-05 )  
( -1.12749e-06 -1.18787e-06 -5.58424e-05 )  
( -1.50969e-06 4.5984e-06 -6.45769e-05 )  
( -1.9527e-06 -2.05267e-06 -5.99372e-05 )  
( 6.36757e-06 -1.14265e-06 -5.28541e-05 )  
( -3.43012e-06 -1.7221e-06 -5.5958e-05 )  
( -2.61958e-06 -1.96626e-06 -6.88409e-05 )  
( 6.67187e-06 -5.73705e-06 -4.71685e-05 )  
( -1.15003e-06 7.34727e-08 -6.51309e-05 )  
( 1.27683e-05 8.1428e-07 -5.53261e-05 )  
( -2.51358e-06 8.11525e-07 -6.94879e-05 )  
( 2.25791e-06 1.20648e-06 -6.59738e-05 )  
( -1.19501e-06 -2.04653e-06 -6.8816e-05 )  
( -2.3788e-06 -5.32301e-07 -6.87567e-05 )  
( -2.21628e-06 -3.30833e-06 -7.27385e-05 )  
( -2.57754e-06 -5.48271e-07 -6.65805e-05 )  
( 1.02523e-05 -3.46205e-06 -6.78732e-05 )  
( -5.95367e-07 1.11576e-06 -7.31456e-05 )  
( 5.64718e-06 4.36934e-07 -6.64413e-05 )  
( -9.142e-07 2.81751e-08 -6.24195e-05 )  
( -3.63222e-06 4.61202e-07 -7.962e-05 )  
( 3.17389e-07 -2.65445e-07 -5.38044e-05 )  
( 9.09494e-06 -2.36219e-06 -6.24637e-05 )  
( 8.82207e-06 -2.78364e-06 -7.25032e-05 )  
( 9.84785e-06 -2.37977e-06 -7.10767e-05 )  
( 3.70319e-06 3.30469e-06 -6.05105e-05 )  
( -7.75472e-07 1.91223e-06 -7.41874e-05 )  
( 4.88712e-07 -5.59919e-06 -8.58111e-05 )  
( 1.07561e-06 4.5921e-06 -7.18885e-05 )  
( 1.05995e-06 2.46276e-06 -8.00173e-05 )  
( -1.38725e-07 -1.36681e-06 -7.16128e-05 )  
( -4.4071e-06 -1.04156e-06 -7.84372e-05 )  
( -8.74081e-07 1.91807e-06 -7.5764e-05 )  
( 6.28809e-06 -1.96061e-06 -6.73776e-05 )  
( 9.46073e-06 -3.6969e-06 -6.91704e-05 )  
( -6.93919e-07 -4.42257e-09 -7.53248e-05 )  
( 2.84247e-06 -5.30002e-06 -7.46266e-05 )  
( -3.64337e-06 -1.85054e-06 -7.70721e-05 )  
( 2.12869e-06 3.63176e-06 -6.54935e-05 )  
( -4.63037e-07 3.72576e-06 -8.23658e-05 )  
( -6.58209e-08 -4.54748e-07 -7.48581e-05 )  
( 4.18892e-06 -1.44329e-06 -7.72401e-05 )  
( 2.28887e-07 3.56993e-06 -8.17685e-05 )  
( 2.89925e-06 -3.26668e-06 -8.22834e-05 )  
( 8.64976e-06 -2.52493e-06 -7.79427e-05 )  
( -3.24937e-09 -2.65442e-08 -7.97685e-05 )  
( 8.81758e-06 -3.65145e-06 -7.89468e-05 )  
( 8.79584e-06 -1.61444e-06 -7.81569e-05 )  
( 2.62551e-06 -5.55776e-06 -7.81989e-05 )  
( -1.78121e-06 -3.67348e-06 -7.51814e-05 )  
( -7.71836e-06 4.54335e-06 -7.64875e-05 )  
( -1.80593e-06 -6.65339e-06 -8.92091e-05 )  
( -2.86721e-07 -8.25015e-07 -7.35009e-05 )  
( 1.35723e-06 -6.30134e-06 -8.78967e-05 )  
( 1.03906e-06 5.53789e-07 -8.49205e-05 )  
( -7.2225e-07 -2.50746e-06 -7.88659e-05 )  
( -3.53046e-06 -4.03933e-06 -8.57738e-05 )  
( 4.19773e-07 -1.46486e-06 -8.47522e-05 )  
( -5.91908e-06 -2.55231e-06 -8.94802e-05 )  
( 8.2884e-06 -1.54125e-06 -8.04511e-05 )  
( -6.2958e-07 1.89288e-06 -8.60751e-05 )  
( 3.12637e-06 -5.19147e-06 -9.05154e-05 )  
( 2.17482e-06 2.36481e-06 -8.31382e-05 )  
( 3.11911e-07 -5.10344e-07 -8.27835e-05 )  
( 4.54931e-06 -2.87085e-06 -8.53703e-05 )  
( -9.69504e-07 -3.15815e-06 -8.76001e-05 )  
( 1.68897e-06 -7.73913e-06 -9.0307e-05 )  
( -2.26102e-06 -2.63886e-06 -8.38223e-05 )  
( -2.81979e-06 -3.39667e-06 -8.97222e-05 )  
( -6.33246e-07 -1.91022e-06 -9.39569e-05 )  
( 7.14656e-06 -2.33843e-06 -8.39964e-05 )  
( -2.54858e-06 -4.25295e-06 -8.19879e-05 )  
( 8.16002e-07 -1.79563e-06 -8.30729e-05 )  
( 4.2555e-06 -2.89736e-06 -8.4569e-05 )  
( 6.14022e-06 -2.33792e-06 -8.44549e-05 )  
( -1.36353e-06 -5.71291e-06 -8.58848e-05 )  
( 6.79196e-06 -3.59467e-06 -8.56492e-05 )  
( 1.12742e-06 -2.21203e-06 -8.91826e-05 )  
( -1.22552e-06 -6.78892e-06 -8.81915e-05 )  
( -4.62832e-06 -4.82456e-06 -9.4561e-05 )  
( 1.87713e-06 -4.11167e-06 -8.57382e-05 )  
( -5.14875e-06 -4.35667e-06 -8.5554e-05 )  
( -7.62848e-06 -5.94772e-06 -9.24842e-05 )  
( -2.56923e-06 -1.04491e-06 -9.1714e-05 )  
( -2.70902e-06 -3.13413e-06 -9.25882e-05 )  
( 1.20883e-06 -5.99877e-06 -8.53063e-05 )  
( 8.82738e-07 -5.7424e-06 -9.10376e-05 )  
( 4.16301e-06 -4.60599e-06 -8.85239e-05 )  
( 2.84616e-06 -5.06905e-06 -8.77052e-05 )  
( 9.16508e-07 -5.60706e-06 -8.69218e-05 )  
( 2.16033e-06 -5.68579e-06 -9.22514e-05 )  
( -5.79927e-06 -2.53315e-06 -9.31101e-05 )  
( 2.28021e-06 -6.16043e-06 -9.05571e-05 )  
( 1.00079e-06 -4.05913e-06 -8.76021e-05 )  
( -6.02902e-06 -4.46271e-06 -9.10747e-05 )  
( 1.61942e-06 -4.32412e-06 -9.05131e-05 )  
( 4.45543e-06 -5.85184e-06 -8.9063e-05 )  
( 2.01312e-06 -4.51598e-06 -9.36206e-05 )  
( 3.45866e-06 -3.76189e-06 -8.87117e-05 )  
( 2.95023e-06 -4.28768e-06 -8.88798e-05 )  
( 2.66332e-06 -3.68855e-06 -9.0229e-05 )  
( -1.37375e-06 -3.86833e-06 -9.05263e-05 )  
( -1.88526e-06 -5.73671e-06 -9.3902e-05 )  
( 1.5768e-07 -3.03861e-06 -9.25684e-05 )  
( 2.66667e-06 -5.2098e-06 -9.11996e-05 )  
( 6.58643e-06 -2.12023e-06 -8.70883e-05 )  
( 2.40451e-06 -3.45524e-06 -8.85385e-05 )  
( 3.08709e-06 -6.40254e-06 -9.41145e-05 )  
( -6.08739e-07 -4.031e-06 -8.75153e-05 )  
( -2.38176e-07 -1.16175e-05 -9.11279e-05 )  
( -1.30787e-07 -1.33371e-06 -9.46925e-05 )  
( 5.04051e-06 -1.64322e-05 -9.49729e-05 )  
( -1.2629e-06 -8.41511e-06 -9.51774e-05 )  
( 4.09285e-06 -5.77584e-09 -8.56474e-05 )  
( -4.55316e-06 -1.07577e-06 -9.53762e-05 )  
( 3.07145e-06 -3.57234e-06 -8.58196e-05 )  
( 1.16935e-06 -1.2373e-05 -9.30326e-05 )  
( -8.76208e-07 -8.97334e-06 -9.43045e-05 )  
( 8.21551e-07 -4.21727e-06 -8.89574e-05 )  
( -3.62986e-06 -3.63769e-06 -9.27648e-05 )  
( 2.02166e-06 -4.48077e-06 -8.70635e-05 )  
( 2.33473e-06 -4.26382e-06 -9.00366e-05 )  
( -9.59662e-07 6.29785e-07 -9.42794e-05 )  
( 6.59968e-06 -1.07133e-05 -8.93464e-05 )  
( -5.26675e-07 -5.79406e-06 -9.60923e-05 )  
( 2.42578e-06 -5.20447e-06 -8.9172e-05 )  
( 1.35814e-06 -2.83103e-06 -8.7056e-05 )  
( 3.7423e-06 -8.94651e-07 -8.6328e-05 )  
( 1.35665e-06 8.08383e-08 -8.96345e-05 )  
( -1.57242e-05 4.28296e-06 -7.91433e-05 )  
( -5.8573e-06 -6.97049e-06 -9.52136e-05 )  
( 8.60599e-06 -1.44653e-06 -8.47723e-05 )  
( 5.98314e-06 -4.477e-06 -8.45864e-05 )  
( 1.08442e-05 -4.55783e-06 -8.05868e-05 )  
( -1.90816e-06 -1.85133e-06 -9.29604e-05 )  
( 6.71291e-06 -2.2749e-06 -8.6305e-05 )  
( 3.36407e-06 -7.43774e-06 -9.18234e-05 )  
( -1.62659e-06 8.06467e-07 -9.38986e-05 )  
( 4.92321e-06 -5.67051e-06 -8.2491e-05 )  
( -7.78682e-06 3.55858e-06 -7.77078e-05 )  
( -2.06081e-06 -3.28031e-06 -9.30237e-05 )  
( 4.08608e-06 -4.14571e-06 -8.43234e-05 )  
( -4.74147e-06 -1.00173e-05 -9.23632e-05 )  
( -4.20102e-06 -1.01e-05 -9.92834e-05 )  
( -1.16939e-06 -1.14743e-06 -8.37762e-05 )  
( -4.95725e-07 -1.32758e-05 -9.23791e-05 )  
( -2.21913e-06 2.33895e-06 -8.98114e-05 )  
( -1.5837e-06 -1.07983e-07 -9.27522e-05 )  
( 5.68086e-06 2.93164e-06 -8.46466e-05 )  
( 9.47802e-06 -3.85715e-06 -7.84946e-05 )  
( -5.36995e-06 -5.755e-06 -7.76333e-05 )  
( 1.12145e-05 -7.9655e-08 -9.70359e-05 )  
( 4.18051e-06 4.24821e-06 -8.20367e-05 )  
( -2.49036e-06 -5.39996e-06 -8.38183e-05 )  
( 1.21722e-06 -7.2024e-06 -9.18979e-05 )  
( 5.78344e-06 1.43033e-06 -8.28503e-05 )  
( 2.70227e-06 5.76535e-06 -7.63539e-05 )  
( 1.62854e-06 -5.34724e-06 -9.16882e-05 )  
( -7.65938e-06 -2.04031e-06 -8.03888e-05 )  
( 1.30996e-06 -8.49417e-06 -9.07698e-05 )  
( -1.4787e-05 4.81025e-06 -8.16424e-05 )  
( 8.40944e-06 -7.86335e-07 -8.25673e-05 )  
( -1.35446e-07 6.0753e-06 -6.17389e-05 )  
( 2.10036e-06 -8.95033e-07 -8.45013e-05 )  
( 1.7619e-06 2.53436e-06 -8.53588e-05 )  
( 1.51944e-06 3.27812e-06 -8.3275e-05 )  
( 1.0042e-05 2.92822e-06 -8.1673e-05 )  
( -2.37407e-06 7.19627e-06 -8.14678e-05 )  
( 2.31444e-07 -1.7823e-05 -8.05777e-05 )  
( -1.11965e-06 6.61186e-06 -7.91155e-05 )  
( 1.39767e-05 6.23024e-06 -7.32663e-05 )  
( 7.63848e-06 2.0065e-06 -8.28932e-05 )  
( -3.48218e-05 -3.22261e-05 -7.88369e-05 )  
( -8.22619e-06 8.54337e-06 -8.63398e-05 )  
( 3.99353e-06 8.99698e-06 -6.89247e-05 )  
( 6.69518e-06 3.70883e-06 -8.20491e-05 )  
( -3.62181e-06 -5.72504e-06 -8.68205e-05 )  
( 1.22474e-05 1.45724e-05 -7.69162e-05 )  
( 1.41234e-05 6.53551e-06 -6.35871e-05 )  
( 2.7486e-06 3.05761e-05 -7.90057e-05 )  
( 8.79491e-06 6.4274e-06 -8.07408e-05 )  
( 7.18058e-06 8.53435e-06 -6.43898e-05 )  
( 1.49904e-05 1.16675e-05 -7.89071e-05 )  
( 8.58691e-06 1.07147e-05 -8.28656e-05 )  
( 9.12575e-06 -1.33054e-05 -7.72813e-05 )  
( -6.46506e-06 5.59434e-06 -5.05173e-05 )  
( 7.67423e-06 8.89396e-06 -5.7251e-05 )  
( 2.44132e-06 2.11635e-07 -7.56063e-05 )  
( 1.52916e-06 3.41362e-06 -5.66457e-05 )  
( -1.28678e-05 -6.4587e-06 -8.02825e-05 )  
( -1.80794e-06 -1.4347e-05 -8.9814e-05 )  
( -4.24219e-06 -5.22604e-06 -7.77914e-05 )  
( -5.18712e-06 7.4281e-06 -7.22812e-05 )  
( -9.98094e-07 1.4355e-05 -6.68522e-05 )  
( 2.10779e-05 3.03423e-05 -6.96695e-05 )  
( 1.26632e-05 1.6341e-06 -8.14352e-05 )  
( 1.17164e-05 5.13975e-06 -6.72994e-05 )  
( 1.32305e-05 8.16049e-06 -5.83955e-05 )  
( 6.90864e-06 7.04578e-06 -6.64154e-05 )  
( -1.11167e-06 1.68414e-05 -7.20121e-05 )  
( 9.63937e-06 3.07902e-06 -4.64278e-05 )  
( -1.44581e-06 -1.25586e-05 -6.91987e-05 )  
( 3.79142e-06 1.00725e-05 -7.92128e-05 )  
( -3.11696e-06 9.07585e-06 -4.94079e-05 )  
( -9.15782e-06 -2.54336e-05 -7.3159e-05 )  
( -7.68572e-06 1.13187e-05 -6.41933e-05 )  
( -1.19329e-05 -5.6726e-06 -4.30522e-05 )  
( 8.73832e-06 -3.29895e-06 -8.27851e-05 )  
( 1.84469e-05 1.1609e-05 -6.13436e-05 )  
( 1.03989e-06 9.43795e-06 -6.83872e-05 )  
( 1.37979e-05 2.50969e-05 -7.34117e-05 )  
( -1.74925e-06 1.48624e-05 -7.01086e-05 )  
( 5.87644e-07 -1.19118e-05 -7.11018e-05 )  
( 2.46284e-05 1.02978e-05 -6.21642e-05 )  
( 3.32809e-05 6.10464e-05 -4.88028e-05 )  
( 2.53316e-05 1.65101e-05 -6.32699e-05 )  
( -3.41491e-06 1.96182e-05 -5.72278e-05 )  
( 1.47067e-05 2.92198e-05 -7.17846e-05 )  
( 3.01676e-06 1.5176e-05 -6.38796e-05 )  
( 2.38341e-05 1.34739e-05 -6.74955e-05 )  
( -5.36596e-06 -4.98084e-06 -1.92294e-05 )  
( -1.09123e-05 -1.59156e-05 -3.97134e-05 )  
( 2.37196e-06 5.72815e-06 -6.58789e-05 )  
( 2.54465e-05 8.7948e-06 -5.79873e-05 )  
( 1.40808e-05 2.3053e-05 -6.98481e-05 )  
( -5.46538e-08 2.97878e-05 -8.14958e-05 )  
( -3.29096e-06 1.69014e-05 -6.47854e-05 )  
( 4.30024e-06 1.82439e-05 -5.83487e-05 )  
( 2.00864e-06 1.30537e-05 -7.86615e-05 )  
( 6.20888e-05 2.58397e-05 -4.79611e-05 )  
( 4.65793e-06 1.19433e-05 -5.00671e-05 )  
( 2.70737e-06 -1.10735e-05 -4.44326e-05 )  
( 1.79344e-05 4.93405e-06 -5.02824e-05 )  
( 1.07168e-06 1.86611e-05 -7.15805e-05 )  
( 1.37538e-05 1.71891e-05 -5.09647e-05 )  
( 3.54302e-05 -4.25078e-05 -4.0189e-05 )  
( -0.000106991 3.79901e-05 -5.59416e-05 )  
( 5.50061e-05 2.98123e-05 -5.55925e-05 )  
( 7.45379e-06 3.28192e-05 -4.20086e-05 )  
( 1.0976e-05 9.52728e-06 -5.17713e-05 )  
( 2.43221e-05 8.90961e-06 -5.72559e-05 )  
( -2.38691e-06 2.61365e-05 -3.60319e-05 )  
( 1.42258e-05 2.82462e-05 -5.96406e-05 )  
( 1.01479e-05 3.34666e-05 -7.06309e-05 )  
( -3.00595e-07 -3.66295e-05 -3.61652e-05 )  
( 1.07902e-05 -2.65945e-05 -6.34219e-05 )  
( 6.82939e-06 2.051e-05 -5.09337e-05 )  
( -6.25712e-05 -5.64796e-05 -8.69571e-05 )  
( 6.49498e-06 1.00524e-05 -5.76924e-05 )  
( 1.21794e-05 5.20022e-05 -1.36015e-05 )  
( 6.12625e-06 1.14618e-06 -2.66499e-05 )  
( 1.00154e-05 3.97668e-05 -5.37775e-05 )  
( 7.87467e-06 6.06834e-05 -5.47196e-05 )  
( 5.42928e-05 4.57475e-05 -6.54658e-05 )  
( 3.27697e-05 -2.77245e-06 -4.8922e-05 )  
( -5.86785e-05 9.64843e-05 -5.41508e-05 )  
( 1.33132e-05 9.35116e-06 -7.55341e-05 )  
)
