/*--------------------------------*- C++ -*----------------------------------*\
| =========                 |                                                 |
| \\      /  F ield         | OpenFOAM: The Open Source CFD Toolbox           |
|  \\    /   O peration     | Version:  5.x                                   |
|   \\  /    A nd           | Web:      www.OpenFOAM.org                      |
|    \\/     M anipulation  |                                                 |
\*---------------------------------------------------------------------------*/
FoamFile
{
    version     2.0;
    format      ascii;
    class       volScalarField;
    location    "80000";
    object      p;
}
// * * * * * * * * * * * * * * * * * * * * * * * * * * * * * * * * * * * * * //

dimensions      [0 2 -2 0 0 0 0];

internalField   nonuniform List<scalar> 
2250
(
1.88737e-10
1.95121e-10
2.04459e-10
2.07499e-10
2.10614e-10
1.99622e-10
2.0433e-10
2.09826e-10
2.10152e-10
2.13642e-10
2.3301e-10
2.28693e-10
2.28056e-10
2.23684e-10
2.26725e-10
2.97745e-10
2.69463e-10
2.51177e-10
2.40926e-10
2.46002e-10
3.69962e-10
3.07488e-10
2.51254e-10
2.42362e-10
2.59422e-10
5.58801e-10
5.80114e-10
6.14032e-10
6.3539e-10
6.5282e-10
5.86002e-10
6.07567e-10
6.34673e-10
6.51707e-10
6.70984e-10
6.96938e-10
6.9177e-10
7.00656e-10
7.05922e-10
7.23999e-10
9.2138e-10
8.35253e-10
7.93087e-10
7.81841e-10
8.00458e-10
1.19749e-09
1.01319e-09
8.70603e-10
8.50358e-10
8.78186e-10
9.27921e-10
9.86982e-10
1.05639e-09
1.11227e-09
1.15408e-09
9.68608e-10
1.03203e-09
1.09824e-09
1.15298e-09
1.19882e-09
1.15063e-09
1.17765e-09
1.22011e-09
1.25898e-09
1.29831e-09
1.51996e-09
1.42012e-09
1.39398e-09
1.40372e-09
1.42637e-09
2.01537e-09
1.75452e-09
1.59756e-09
1.56585e-09
1.56141e-09
1.35642e-09
1.45867e-09
1.56986e-09
1.67041e-09
1.74138e-09
1.40569e-09
1.51734e-09
1.63467e-09
1.73982e-09
1.81393e-09
1.6066e-09
1.69322e-09
1.79546e-09
1.88259e-09
1.93792e-09
1.99794e-09
1.97026e-09
2.01429e-09
2.05887e-09
2.07406e-09
2.52374e-09
2.3663e-09
2.28862e-09
2.2533e-09
2.20844e-09
1.89183e-09
2.01513e-09
2.16293e-09
2.30684e-09
2.4019e-09
1.93549e-09
2.07831e-09
2.24264e-09
2.39343e-09
2.48395e-09
2.09338e-09
2.24278e-09
2.40389e-09
2.53285e-09
2.59389e-09
2.3914e-09
2.48559e-09
2.61008e-09
2.68905e-09
2.70181e-09
2.80769e-09
2.83791e-09
2.87563e-09
2.86158e-09
2.81709e-09
2.48397e-09
2.62349e-09
2.807e-09
2.98649e-09
3.09326e-09
2.51573e-09
2.68402e-09
2.88575e-09
3.06601e-09
3.15739e-09
2.62951e-09
2.82315e-09
3.01648e-09
3.16599e-09
3.22572e-09
2.83392e-09
3.0202e-09
3.17899e-09
3.27659e-09
3.2984e-09
3.14676e-09
3.30041e-09
3.39525e-09
3.41553e-09
3.40606e-09
3.03116e-09
3.22547e-09
3.45695e-09
3.66461e-09
3.77271e-09
3.06222e-09
3.28325e-09
3.51981e-09
3.71391e-09
3.79919e-09
3.18329e-09
3.40701e-09
3.60631e-09
3.75591e-09
3.81402e-09
3.35828e-09
3.57049e-09
3.71395e-09
3.80931e-09
3.84298e-09
3.58609e-09
3.76227e-09
3.85095e-09
3.8924e-09
3.91215e-09
3.52302e-09
3.81915e-09
4.10616e-09
4.3311e-09
4.43574e-09
3.57604e-09
3.87706e-09
4.1431e-09
4.33834e-09
4.41975e-09
3.73737e-09
3.98527e-09
4.17654e-09
4.31474e-09
4.37439e-09
3.90536e-09
4.10447e-09
4.21203e-09
4.28997e-09
4.33038e-09
4.01537e-09
4.17394e-09
4.22751e-09
4.26218e-09
4.28869e-09
4.10107e-09
4.47932e-09
4.79811e-09
5.02304e-09
5.12422e-09
4.18141e-09
4.52638e-09
4.80032e-09
4.98916e-09
5.07327e-09
4.34733e-09
4.59014e-09
4.76959e-09
4.89974e-09
4.96667e-09
4.47263e-09
4.63444e-09
4.71412e-09
4.78002e-09
4.82696e-09
4.45642e-09
4.57355e-09
4.5894e-09
4.60794e-09
4.63501e-09
4.89512e-09
5.26844e-09
5.58157e-09
5.79765e-09
5.90074e-09
4.95003e-09
5.27275e-09
5.54232e-09
5.73307e-09
5.82782e-09
5.02995e-09
5.25299e-09
5.44245e-09
5.5877e-09
5.66916e-09
5.05156e-09
5.19479e-09
5.29291e-09
5.37959e-09
5.44078e-09
4.92441e-09
5.02682e-09
5.05438e-09
5.08575e-09
5.12513e-09
5.8656e-09
6.19163e-09
6.49273e-09
6.70738e-09
6.81711e-09
5.82096e-09
6.13056e-09
6.41469e-09
6.62276e-09
6.72825e-09
5.75427e-09
6.01239e-09
6.25001e-09
6.43103e-09
6.52586e-09
5.62833e-09
5.83807e-09
6.01095e-09
6.1481e-09
6.22755e-09
5.36513e-09
5.57497e-09
5.6872e-09
5.77403e-09
5.84051e-09
6.97198e-09
7.28787e-09
7.58181e-09
7.79003e-09
7.89545e-09
6.83091e-09
7.17111e-09
7.46835e-09
7.67932e-09
7.77825e-09
6.64028e-09
6.95784e-09
7.23111e-09
7.42909e-09
7.52283e-09
6.37104e-09
6.65447e-09
6.88605e-09
7.06104e-09
7.15045e-09
5.96945e-09
6.26727e-09
6.45967e-09
6.61332e-09
6.7064e-09
8.37533e-09
8.6611e-09
8.89942e-09
9.05913e-09
9.13371e-09
8.19152e-09
8.49074e-09
8.7302e-09
8.89255e-09
8.96263e-09
7.89028e-09
8.15345e-09
8.37971e-09
8.5444e-09
8.62089e-09
7.467e-09
7.67874e-09
7.87992e-09
8.04516e-09
8.12374e-09
6.93313e-09
7.11175e-09
7.29458e-09
7.46839e-09
7.55465e-09
1.02352e-08
1.03571e-08
1.04552e-08
1.05165e-08
1.05415e-08
9.98027e-09
1.00892e-08
1.01879e-08
1.02579e-08
1.02905e-08
9.48011e-09
9.55827e-09
9.66483e-09
9.75598e-09
9.80052e-09
8.81548e-09
8.84324e-09
8.94266e-09
9.04427e-09
9.08036e-09
8.07983e-09
8.03946e-09
8.118e-09
8.22025e-09
8.24757e-09
1.24837e-08
1.23422e-08
1.22556e-08
1.21969e-08
1.21685e-08
1.20598e-08
1.19236e-08
1.18549e-08
1.18173e-08
1.18029e-08
1.12543e-08
1.11361e-08
1.11005e-08
1.10885e-08
1.10741e-08
1.02498e-08
1.01062e-08
1.007e-08
1.00553e-08
1.00191e-08
9.2102e-09
8.9737e-09
8.88319e-09
8.83637e-09
8.77878e-09
1.50652e-08
1.46655e-08
1.43783e-08
1.41812e-08
1.40834e-08
1.44295e-08
1.40704e-08
1.38169e-08
1.36417e-08
1.35455e-08
1.32772e-08
1.29719e-08
1.27571e-08
1.25924e-08
1.24852e-08
1.1845e-08
1.15232e-08
1.13029e-08
1.11253e-08
1.10046e-08
1.0326e-08
9.89576e-09
9.60563e-09
9.38713e-09
9.24886e-09
1.81911e-08
1.75071e-08
1.69545e-08
1.65605e-08
1.63501e-08
1.73432e-08
1.67024e-08
1.6182e-08
1.57966e-08
1.55762e-08
1.57943e-08
1.52016e-08
1.47105e-08
1.4328e-08
1.41074e-08
1.37835e-08
1.31781e-08
1.26937e-08
1.23167e-08
1.21031e-08
1.14962e-08
1.08484e-08
1.03392e-08
9.9474e-09
9.72666e-09
2.2151e-08
2.10471e-08
2.01102e-08
1.94315e-08
1.90669e-08
2.1043e-08
1.99577e-08
1.90418e-08
1.83658e-08
1.79993e-08
1.89809e-08
1.79125e-08
1.70229e-08
1.6366e-08
1.60154e-08
1.61913e-08
1.51172e-08
1.42644e-08
1.36444e-08
1.33156e-08
1.28971e-08
1.18483e-08
1.10422e-08
1.04537e-08
1.01388e-08
2.71339e-08
2.54413e-08
2.39964e-08
2.29556e-08
2.2413e-08
2.56628e-08
2.39541e-08
2.25223e-08
2.14955e-08
2.09637e-08
2.28917e-08
2.11642e-08
1.97649e-08
1.87764e-08
1.82656e-08
1.90654e-08
1.73239e-08
1.59864e-08
1.50591e-08
1.45817e-08
1.45518e-08
1.2819e-08
1.15632e-08
1.07044e-08
1.02588e-08
3.33983e-08
3.09486e-08
2.88735e-08
2.73977e-08
2.66416e-08
3.14004e-08
2.89126e-08
2.68509e-08
2.53988e-08
2.46575e-08
2.75818e-08
2.50843e-08
2.3063e-08
2.16527e-08
2.09328e-08
2.22895e-08
1.97973e-08
1.78514e-08
1.65106e-08
1.58182e-08
1.61532e-08
1.36486e-08
1.17532e-08
1.04656e-08
9.78513e-09
4.14274e-08
3.80105e-08
3.51475e-08
3.31184e-08
3.20742e-08
3.86658e-08
3.52263e-08
3.23782e-08
3.03659e-08
2.93355e-08
3.33483e-08
2.99582e-08
2.71473e-08
2.51614e-08
2.41362e-08
2.60263e-08
2.26858e-08
1.99383e-08
1.79927e-08
1.69635e-08
1.76399e-08
1.42376e-08
1.14768e-08
9.54042e-09
8.48839e-09
5.19231e-08
4.72603e-08
4.3367e-08
4.05807e-08
3.91279e-08
4.81262e-08
4.34648e-08
3.95727e-08
3.67813e-08
3.53235e-08
4.0828e-08
3.62268e-08
3.23418e-08
2.95346e-08
2.80501e-08
3.08335e-08
2.62463e-08
2.23689e-08
1.9542e-08
1.80316e-08
1.92914e-08
1.4557e-08
1.06382e-08
7.78968e-09
6.23339e-09
6.58559e-08
5.95429e-08
5.42353e-08
5.03886e-08
4.83509e-08
6.06865e-08
5.43661e-08
4.90247e-08
4.5135e-08
4.30606e-08
5.0779e-08
4.44372e-08
3.90413e-08
3.50812e-08
3.29702e-08
3.71842e-08
3.07424e-08
2.5284e-08
2.12503e-08
1.91047e-08
2.1214e-08
1.46503e-08
9.14415e-09
5.02494e-09
2.799e-09
8.45314e-08
7.59616e-08
6.86815e-08
6.33714e-08
6.05306e-08
7.74967e-08
6.88758e-08
6.15111e-08
5.61179e-08
5.32322e-08
6.40478e-08
5.52756e-08
4.77801e-08
4.22813e-08
3.9362e-08
4.55109e-08
3.6523e-08
2.8895e-08
2.3269e-08
2.02926e-08
2.36092e-08
1.45204e-08
6.76681e-09
9.48956e-10
-2.12257e-09
1.09648e-07
9.80021e-08
8.80119e-08
8.07452e-08
7.68553e-08
1.00049e-07
8.82719e-08
7.81504e-08
7.0779e-08
6.68492e-08
8.17425e-08
6.96623e-08
5.93427e-08
5.18339e-08
4.78417e-08
5.65187e-08
4.40816e-08
3.35143e-08
2.58057e-08
2.17346e-08
2.68426e-08
1.41401e-08
3.28309e-09
-4.71099e-09
-8.85475e-09
1.4353e-07
1.27767e-07
1.14098e-07
1.04287e-07
9.89979e-08
1.30375e-07
1.14377e-07
1.00555e-07
9.06071e-08
8.5254e-08
1.05349e-07
8.88968e-08
7.48165e-08
6.46476e-08
5.91818e-08
7.10173e-08
5.4026e-08
3.95445e-08
2.90884e-08
2.35377e-08
3.07936e-08
1.3336e-08
-1.61648e-09
-1.24547e-08
-1.80981e-08
1.89423e-07
1.68299e-07
1.49505e-07
1.36528e-07
1.2919e-07
1.71357e-07
1.49828e-07
1.30887e-07
1.17644e-07
1.10223e-07
1.3708e-07
1.14865e-07
9.56049e-08
8.19235e-08
7.43832e-08
9.0231e-08
6.72131e-08
4.74374e-08
3.32906e-08
2.56476e-08
3.54994e-08
1.1693e-08
-8.75741e-09
-2.34337e-08
-3.12066e-08
2.51378e-07
2.24151e-07
1.97425e-07
1.81259e-07
1.70429e-07
2.26669e-07
1.98513e-07
1.71812e-07
1.54946e-07
1.44161e-07
1.79866e-07
1.50274e-07
1.23398e-07
1.05431e-07
9.47133e-08
1.16036e-07
8.49177e-08
5.76373e-08
3.85846e-08
2.78697e-08
4.15598e-08
8.78021e-09
-1.93072e-08
-3.929e-08
-5.00826e-08
3.33313e-07
3.03046e-07
2.6113e-07
2.44726e-07
2.26833e-07
2.99987e-07
2.66967e-07
2.26039e-07
2.07628e-07
1.90312e-07
2.36622e-07
1.99423e-07
1.59775e-07
1.38078e-07
1.21695e-07
1.50429e-07
1.0916e-07
7.04421e-08
4.5571e-08
3.0063e-08
4.92057e-08
4.12436e-09
-3.47113e-08
-6.21235e-08
-7.73359e-08
4.37766e-07
4.18302e-07
3.43963e-07
3.36914e-07
3.04442e-07
3.9379e-07
3.66736e-07
2.9604e-07
2.84032e-07
2.53364e-07
3.0893e-07
2.69882e-07
2.05316e-07
1.8446e-07
1.57074e-07
1.95014e-07
1.43906e-07
8.56216e-08
5.60773e-08
3.23796e-08
5.8603e-08
-3.20755e-09
-5.7731e-08
-9.54468e-08
-1.17247e-07
5.6937e-07
5.87557e-07
4.52509e-07
4.72274e-07
4.12495e-07
5.12265e-07
5.1343e-07
3.86843e-07
3.96311e-07
3.40587e-07
3.97339e-07
3.71264e-07
2.6033e-07
2.49696e-07
2.02086e-07
2.50785e-07
1.96198e-07
1.03429e-07
7.40918e-08
3.67128e-08
6.81908e-08
-1.66764e-08
-9.45043e-08
-1.4727e-07
-1.78679e-07
7.3686e-07
8.33151e-07
5.97913e-07
6.72739e-07
5.64574e-07
6.66502e-07
7.26571e-07
5.07905e-07
5.63373e-07
4.63234e-07
5.03669e-07
5.09434e-07
3.23348e-07
3.35302e-07
2.53713e-07
3.24079e-07
2.76885e-07
1.29834e-07
1.09478e-07
5.10251e-08
7.17913e-08
-4.60203e-08
-1.56895e-07
-2.33623e-07
-2.77039e-07
9.49301e-07
1.18725e-06
7.95602e-07
9.75001e-07
7.8108e-07
8.7567e-07
1.03643e-06
6.73958e-07
8.20821e-07
6.40335e-07
6.27694e-07
6.8368e-07
3.87468e-07
4.39082e-07
3.05062e-07
4.2909e-07
4.04309e-07
1.74005e-07
1.76344e-07
8.38466e-08
6.16238e-08
-1.08408e-07
-2.61445e-07
-3.7628e-07
-4.29734e-07
1.21673e-06
1.69904e-06
1.06493e-06
1.42545e-06
1.12452e-06
1.1615e-06
1.48955e-06
8.97455e-07
1.1971e-06
9.35513e-07
7.75899e-07
8.92087e-07
4.42017e-07
5.37745e-07
3.75928e-07
5.65591e-07
5.92591e-07
2.27814e-07
2.78331e-07
1.3347e-07
3.58997e-08
-2.27145e-07
-4.23123e-07
-6.05555e-07
-6.50061e-07
1.5127e-06
2.39338e-06
1.40478e-06
2.08981e-06
1.60077e-06
1.51113e-06
2.09635e-06
1.15167e-06
1.75278e-06
1.28038e-06
9.59326e-07
1.109e-06
4.6897e-07
6.24507e-07
3.95309e-07
6.88558e-07
8.46349e-07
2.59552e-07
4.11172e-07
1.63085e-07
-2.78888e-09
-4.34562e-07
-6.72331e-07
-9.69784e-07
-9.7153e-07
1.53258e-06
2.49809e-06
8.76465e-07
1.65005e-06
8.43028e-07
1.6502e-06
2.37649e-06
8.75868e-07
1.66223e-06
8.68476e-07
1.17092e-06
1.16624e-06
4.73966e-07
5.51261e-07
1.95052e-07
8.89512e-07
1.15832e-06
2.58093e-07
5.97791e-07
1.41609e-07
-2.25821e-08
-7.56326e-07
-9.71595e-07
-1.52319e-06
-1.50474e-06
5.71269e-06
9.53306e-06
6.64055e-06
9.78443e-06
7.99573e-06
6.13279e-06
8.21113e-06
5.49632e-06
8.39989e-06
6.54821e-06
4.55796e-06
4.0724e-06
2.5268e-06
3.38105e-06
3.3618e-06
2.69276e-06
3.5687e-06
1.59522e-06
2.60212e-06
2.0108e-06
1.9379e-06
-4.75358e-07
5.10603e-07
-4.3086e-07
8.5204e-07
-2.74029e-06
-2.11905e-06
-3.51122e-06
-2.41861e-06
-4.21747e-06
-2.77466e-06
-2.16942e-06
-4.21256e-06
-2.47459e-06
-4.24879e-06
-2.68513e-06
-3.37993e-06
-2.93402e-06
-3.77667e-06
-4.34608e-06
-3.10226e-06
-3.59044e-06
-3.91004e-06
-3.50278e-06
-4.02389e-06
-5.40145e-06
-4.5408e-06
-6.7537e-06
-7.44151e-06
-7.51306e-06
1.25213e-05
2.9031e-05
1.94901e-05
3.34802e-05
2.39508e-05
1.80084e-05
2.49888e-05
1.43199e-05
2.8643e-05
1.86152e-05
1.74196e-05
8.97453e-06
3.15767e-06
5.33383e-06
9.26274e-06
3.55425e-07
1.14849e-05
4.02611e-06
9.20076e-06
6.98666e-06
6.7351e-06
-5.45563e-06
6.41479e-06
7.99842e-07
1.06333e-05
-5.97611e-06
-1.63289e-05
-1.21483e-05
-2.4831e-05
-1.62726e-05
-1.61914e-05
-1.72041e-05
-1.7852e-05
-2.40858e-05
-1.30625e-05
-2.05267e-05
-9.13818e-06
-2.90233e-06
-8.38294e-06
-9.41217e-06
-1.41244e-06
-1.4946e-05
-7.11349e-06
-9.17779e-06
-7.88015e-06
-1.86861e-05
5.65101e-07
-1.99463e-05
-1.59924e-05
-2.38427e-05
5.7706e-06
7.58346e-05
6.93173e-05
0.000110224
5.99811e-05
6.2864e-05
7.55922e-05
2.68085e-05
0.000122572
4.61285e-05
0.000101544
1.9128e-05
-4.98529e-05
-3.38835e-05
1.36829e-05
-5.36071e-05
1.67451e-05
7.3326e-06
6.45911e-06
1.92003e-05
8.16706e-06
-4.63449e-05
3.88314e-05
-9.88406e-06
5.50091e-05
0.000956938
0.00111796
0.00122173
0.00106997
0.00105533
0.000928494
0.00095765
0.000988129
0.000943607
0.000910108
0.000731986
0.000843753
0.000653822
0.000814459
0.000699165
0.00101629
0.000632606
0.000618075
0.000684362
0.000457147
0.000648749
0.000665919
0.00114814
0.000795806
0.000796093
0.00173537
0.00203909
0.00160788
0.00206063
0.0024234
0.00201187
0.00140897
0.00164986
0.00115856
0.00123454
0.00148334
0.00174465
0.00184989
0.00189684
0.00299174
0.00188906
0.00169583
0.0016118
0.00189475
0.00121251
0.00210386
0.00190169
0.00208776
0.00158066
0.00158654
0.00293764
0.00322541
0.0028486
0.0029366
0.00294857
0.00300407
0.00270929
0.00278161
0.00287525
0.00304447
0.00332877
0.00253242
0.00242626
0.00275363
0.00292725
0.00207985
0.00266541
0.00242586
0.00261869
0.00287655
0.00259871
0.00229934
0.00231674
0.00247941
0.00288246
0.00384908
0.00351872
0.00397866
0.00346218
0.00356565
0.00318344
0.00357119
0.00356693
0.00343512
0.00352098
0.00384604
0.00351233
0.00359881
0.00344026
0.00359733
0.00347721
0.00321909
0.00365658
0.0032513
0.0036872
0.00303226
0.00306121
0.00275139
0.00377351
0.00372189
0.00448855
0.00420817
0.00432054
0.00431146
0.00467385
0.00393355
0.00418522
0.00442177
0.00441354
0.00439283
0.00426559
0.00427942
0.00416158
0.00420037
0.00422149
0.00426764
0.00393912
0.00428779
0.00376937
0.00424918
0.00418858
0.00481805
0.00416632
0.00413972
0.00413021
0.00512039
0.0051597
0.00521608
0.00464267
0.0046367
0.00521514
0.00507844
0.00495489
0.00488437
0.00482932
0.00455781
0.00470364
0.00514154
0.00508341
0.004444
0.00473857
0.00493975
0.00471265
0.00492776
0.00473048
0.00432959
0.0047979
0.00464204
0.00433261
0.00472241
0.00546724
0.00557036
0.00573669
0.00606558
0.0055533
0.00541961
0.00557669
0.00572934
0.00506128
0.00524925
0.00521826
0.00550956
0.00559099
0.00548054
0.00565731
0.00519191
0.0052394
0.00548105
0.00540263
0.00548841
0.00545854
0.00512223
0.00541522
0.00526713
0.00540639
0.00648505
0.00587631
0.00590782
0.00605039
0.00592299
0.00575856
0.00598226
0.00594416
0.00608915
0.00597657
0.00616828
0.00619743
0.00589442
0.00687591
0.00593834
0.00598554
0.00668035
0.00603919
0.00570344
0.00566745
0.00579175
0.00592507
0.00589879
0.00622851
0.00542173
0.00718634
0.00639799
0.00676917
0.00623526
0.00593732
0.00677187
0.00665351
0.00606762
0.00634445
0.0063265
0.00653105
0.00646424
0.0066145
0.0066584
0.00673459
0.00650498
0.00653876
0.00652503
0.00629952
0.00574978
0.00664414
0.00632905
0.0067184
0.00685297
0.00651963
0.00704223
0.00689466
0.00687668
0.00687595
0.00721247
0.00697625
0.0069774
0.00699976
0.00678812
0.00697261
0.00685465
0.0068351
0.00719304
0.00703529
0.00718642
0.00706876
0.00682671
0.00712058
0.00709549
0.00694801
0.00691679
0.00706594
0.00699669
0.00697218
0.00705185
0.00717831
0.00723294
0.00708212
0.00724044
0.00720424
0.00724538
0.00718904
0.00722032
0.00720614
0.00717847
0.00713263
0.00721734
0.00722415
0.00725799
0.00716253
0.00721697
0.00724863
0.00721735
0.00722894
0.00718274
0.00722887
0.0072272
0.00717312
0.00718267
0.00719396
0.00718838
0.00718421
0.00721287
0.00719858
0.00719271
0.00718418
0.00719275
0.00718888
0.0071911
0.00717934
0.00719368
0.00719719
0.00719597
0.00717203
0.00718605
0.00718193
0.0071768
0.00719291
0.00718708
0.00718482
0.00719812
0.00719358
0.00718331
0.00718457
0.00717185
0.00717567
0.00719452
0.00716819
0.00719309
0.0071893
0.00719068
0.00719375
0.00719099
0.007197
0.00719149
0.00718156
0.00719521
0.00718607
0.0071931
0.00718493
0.007192
0.0071996
0.00718882
0.00719565
0.007188
0.00718762
0.00719517
0.00718248
0.0071826
0.00718398
0.00719146
0.00719586
0.00719216
0.00719377
0.00719174
0.0071929
0.00719551
0.00719235
0.00719536
0.00719256
0.00719221
0.00719525
0.00719099
0.00719019
0.00718944
0.00719277
0.00719406
0.00719163
0.00719312
0.00719124
0.00719647
0.00719605
0.00719275
0.00719076
0.0071894
0.00719227
0.00719595
0.00718988
0.00719405
0.00719262
0.00719424
0.00719604
0.00719283
0.00719521
0.00719352
0.00719342
0.00719579
0.00719219
0.00719295
0.00719188
0.00719459
0.00719621
0.00719325
0.00719441
0.00719301
0.00719552
0.0071966
0.00719352
0.00719301
0.00719229
0.00719484
0.0071965
0.00719347
0.00719496
0.00719395
0.00719551
0.00719657
0.00719428
0.00719554
0.0071945
0.00719531
0.00719641
0.00719404
0.00719451
0.00719376
0.00719594
0.00719676
0.0071947
0.00719543
0.00719449
0.00719673
0.0071971
0.00719521
0.00719499
0.00719437
0.0071961
0.00719683
0.00719499
0.00719571
0.00719506
0.00719641
0.00719692
0.0071954
0.00719601
0.00719538
0.00719645
0.00719688
0.00719539
0.00719561
0.00719511
0.00719682
0.00719715
0.00719583
0.00719614
0.00719558
0.00719736
0.00719744
0.00719624
0.00719613
0.00719569
0.00719692
0.00719713
0.00719607
0.00719633
0.00719595
0.00719708
0.00719719
0.00719628
0.00719649
0.00719612
0.00719718
0.00719724
0.00719636
0.00719639
0.00719608
0.00719742
0.00719744
0.00719664
0.00719669
0.00719637
0.00719778
0.00719769
0.00719695
0.00719684
0.00719657
0.00719746
0.00719739
0.00719682
0.00719683
0.00719662
0.00719754
0.00719744
0.00719693
0.00719692
0.00719672
0.00719764
0.00719751
0.00719702
0.00719694
0.00719676
0.00719781
0.00719767
0.00719721
0.00719713
0.00719695
0.00719805
0.00719786
0.00719744
0.0071973
0.00719715
0.0071978
0.00719762
0.00719732
0.00719723
0.00719712
0.00719785
0.00719767
0.00719738
0.00719729
0.00719718
0.00719793
0.00719774
0.00719746
0.00719735
0.00719725
0.00719805
0.00719786
0.0071976
0.00719748
0.00719738
0.00719821
0.00719801
0.00719776
0.00719763
0.00719753
0.00719801
0.00719783
0.00719765
0.00719755
0.00719749
0.00719804
0.00719787
0.00719769
0.00719759
0.00719752
0.0071981
0.00719793
0.00719775
0.00719765
0.00719759
0.00719819
0.00719802
0.00719785
0.00719775
0.00719768
0.00719831
0.00719814
0.00719797
0.00719787
0.0071978
0.00719814
0.007198
0.00719788
0.0071978
0.00719775
0.00719816
0.00719803
0.00719791
0.00719783
0.00719778
0.00719821
0.00719808
0.00719796
0.00719788
0.00719783
0.00719828
0.00719815
0.00719803
0.00719795
0.0071979
0.00719836
0.00719823
0.00719812
0.00719804
0.00719799
0.00719823
0.00719813
0.00719804
0.00719798
0.00719795
0.00719825
0.00719815
0.00719806
0.007198
0.00719797
0.00719829
0.00719819
0.0071981
0.00719804
0.00719801
0.00719834
0.00719824
0.00719816
0.0071981
0.00719806
0.0071984
0.0071983
0.00719822
0.00719816
0.00719813
0.0071983
0.00719823
0.00719816
0.00719812
0.0071981
0.00719832
0.00719824
0.00719818
0.00719813
0.00719811
0.00719834
0.00719827
0.00719821
0.00719816
0.00719814
0.00719838
0.00719831
0.00719825
0.0071982
0.00719818
0.00719842
0.00719835
0.00719829
0.00719825
0.00719823
0.00719835
0.0071983
0.00719825
0.00719822
0.0071982
0.00719836
0.00719831
0.00719826
0.00719823
0.00719821
0.00719838
0.00719833
0.00719828
0.00719825
0.00719823
0.00719841
0.00719836
0.00719831
0.00719828
0.00719826
0.00719844
0.00719839
0.00719835
0.00719832
0.0071983
0.00719839
0.00719835
0.00719832
0.00719829
0.00719828
0.0071984
0.00719836
0.00719832
0.0071983
0.00719829
0.00719841
0.00719837
0.00719834
0.00719832
0.0071983
0.00719843
0.00719839
0.00719836
0.00719834
0.00719832
0.00719846
0.00719842
0.00719839
0.00719836
0.00719835
0.00719842
0.00719839
0.00719836
0.00719835
0.00719834
0.00719842
0.00719839
0.00719837
0.00719835
0.00719834
0.00719843
0.0071984
0.00719838
0.00719836
0.00719835
0.00719845
0.00719842
0.0071984
0.00719838
0.00719837
0.00719847
0.00719844
0.00719841
0.0071984
0.00719839
0.00719844
0.00719842
0.0071984
0.00719838
0.00719838
0.00719844
0.00719842
0.0071984
0.00719839
0.00719838
0.00719845
0.00719843
0.00719841
0.0071984
0.00719839
0.00719846
0.00719844
0.00719842
0.00719841
0.0071984
0.00719847
0.00719845
0.00719843
0.00719842
0.00719842
0.00719845
0.00719844
0.00719842
0.00719841
0.00719841
0.00719845
0.00719844
0.00719843
0.00719842
0.00719841
0.00719846
0.00719844
0.00719843
0.00719842
0.00719842
0.00719847
0.00719845
0.00719844
0.00719843
0.00719843
0.00719848
0.00719846
0.00719845
0.00719844
0.00719844
0.00719846
0.00719845
0.00719844
0.00719843
0.00719843
0.00719846
0.00719845
0.00719844
0.00719844
0.00719843
0.00719847
0.00719846
0.00719845
0.00719844
0.00719844
0.00719847
0.00719846
0.00719845
0.00719845
0.00719844
0.00719848
0.00719847
0.00719846
0.00719845
0.00719845
0.00719847
0.00719846
0.00719845
0.00719845
0.00719845
0.00719847
0.00719846
0.00719846
0.00719845
0.00719845
0.00719847
0.00719847
0.00719846
0.00719845
0.00719845
0.00719848
0.00719847
0.00719846
0.00719846
0.00719846
0.00719848
0.00719848
0.00719847
0.00719846
0.00719846
0.00719848
0.00719847
0.00719847
0.00719846
0.00719846
0.00719848
0.00719847
0.00719847
0.00719846
0.00719846
0.00719848
0.00719847
0.00719847
0.00719847
0.00719846
0.00719848
0.00719848
0.00719847
0.00719847
0.00719847
0.00719849
0.00719848
0.00719848
0.00719847
0.00719847
0.00719848
0.00719848
0.00719847
0.00719847
0.00719847
0.00719848
0.00719848
0.00719847
0.00719847
0.00719847
0.00719848
0.00719848
0.00719848
0.00719847
0.00719847
0.00719849
0.00719848
0.00719848
0.00719848
0.00719847
0.00719849
0.00719848
0.00719848
0.00719848
0.00719848
0.00719849
0.00719848
0.00719848
0.00719848
0.00719848
0.00719849
0.00719848
0.00719848
0.00719848
0.00719848
0.00719849
0.00719848
0.00719848
0.00719848
0.00719848
0.00719849
0.00719849
0.00719848
0.00719848
0.00719848
0.00719849
0.00719849
0.00719848
0.00719848
0.00719848
0.00719849
0.00719849
0.00719848
0.00719848
0.00719848
0.00719849
0.00719849
0.00719849
0.00719848
0.00719848
0.00719849
0.00719849
0.00719849
0.00719848
0.00719848
0.00719849
0.00719849
0.00719849
0.00719849
0.00719848
0.00719849
0.00719849
0.00719849
0.00719849
0.00719849
0.00719849
0.00719849
0.00719849
0.00719849
0.00719849
0.00719849
0.00719849
0.00719849
0.00719849
0.00719849
0.00719849
0.00719849
0.00719849
0.00719849
0.00719849
0.00719849
0.00719849
0.00719849
0.00719849
0.00719849
0.00719849
0.00719849
0.00719849
0.00719849
0.00719849
0.00719849
0.00719849
0.00719849
0.00719849
0.00719849
0.00719849
0.00719849
0.00719849
0.00719849
0.00719849
0.00719849
0.00719849
0.00719849
0.00719849
0.00719849
0.0071985
0.00719849
0.00719849
0.00719849
0.00719849
0.0071985
0.00719849
0.00719849
0.00719849
0.00719849
0.0071985
0.0071985
0.00719849
0.00719849
0.00719849
0.0071985
0.0071985
0.00719849
0.00719849
0.00719849
0.0071985
0.0071985
0.0071985
0.00719849
0.00719849
0.0071985
0.0071985
0.0071985
0.0071985
0.00719849
0.0071985
0.0071985
0.0071985
0.0071985
0.0071985
0.0071985
0.0071985
0.0071985
0.0071985
0.0071985
0.0071985
0.0071985
0.0071985
0.0071985
0.0071985
0.0071985
0.0071985
0.0071985
0.0071985
0.0071985
0.0071985
0.0071985
0.0071985
0.0071985
0.0071985
0.0071985
0.0071985
0.0071985
0.0071985
0.0071985
0.0071985
0.0071985
0.0071985
0.0071985
0.0071985
0.0071985
0.0071985
0.0071985
0.0071985
0.0071985
0.0071985
0.0071985
0.0071985
0.0071985
0.0071985
0.0071985
0.0071985
0.0071985
0.0071985
0.0071985
0.0071985
0.0071985
0.0071985
0.0071985
0.0071985
0.0071985
0.0071985
0.0071985
0.0071985
0.0071985
0.0071985
0.0071985
0.0071985
0.0071985
0.0071985
0.0071985
0.0071985
0.0071985
0.0071985
0.0071985
0.0071985
0.0071985
0.0071985
0.0071985
0.0071985
0.0071985
0.0071985
0.0071985
0.0071985
0.0071985
0.0071985
0.0071985
0.0071985
0.0071985
0.0071985
0.0071985
0.0071985
0.0071985
0.0071985
0.0071985
0.0071985
0.0071985
0.0071985
0.0071985
0.0071985
0.0071985
0.0071985
0.0071985
0.0071985
0.0071985
0.0071985
0.0071985
0.0071985
0.0071985
0.0071985
0.0071985
0.0071985
0.0071985
0.0071985
0.0071985
0.0071985
0.0071985
0.0071985
0.0071985
0.0071985
0.0071985
0.0071985
0.0071985
0.0071985
0.0071985
0.0071985
0.0071985
0.0071985
0.0071985
0.0071985
0.0071985
0.0071985
0.0071985
0.0071985
0.0071985
0.00719851
0.0071985
0.0071985
0.0071985
0.0071985
0.00719851
0.0071985
0.0071985
0.0071985
0.0071985
0.00719851
0.0071985
0.0071985
0.0071985
0.0071985
0.0071985
0.0071985
0.0071985
0.0071985
0.0071985
0.0071985
0.0071985
0.0071985
0.0071985
0.0071985
0.00719851
0.00719851
0.0071985
0.0071985
0.0071985
0.00719851
0.00719851
0.0071985
0.0071985
0.0071985
0.00719851
0.00719851
0.0071985
0.0071985
0.0071985
0.00719851
0.00719851
0.0071985
0.0071985
0.0071985
0.00719851
0.0071985
0.0071985
0.0071985
0.0071985
0.00719851
0.00719851
0.00719851
0.0071985
0.0071985
0.00719851
0.00719851
0.00719851
0.0071985
0.0071985
0.00719851
0.00719851
0.00719851
0.0071985
0.0071985
0.00719851
0.00719851
0.0071985
0.0071985
0.0071985
0.00719851
0.00719851
0.0071985
0.0071985
0.0071985
0.00719851
0.00719851
0.00719851
0.0071985
0.0071985
0.00719851
0.00719851
0.00719851
0.0071985
0.0071985
0.00719851
0.00719851
0.00719851
0.0071985
0.0071985
0.00719851
0.00719851
0.0071985
0.0071985
0.0071985
0.00719851
0.00719851
0.0071985
0.0071985
0.0071985
0.00719851
0.00719851
0.0071985
0.0071985
0.0071985
0.00719851
0.00719851
0.0071985
0.0071985
0.0071985
0.00719851
0.00719851
0.0071985
0.0071985
0.0071985
0.00719851
0.00719851
0.0071985
0.0071985
0.0071985
0.00719851
0.00719851
0.0071985
0.0071985
0.0071985
0.00719851
0.00719851
0.0071985
0.0071985
0.0071985
0.00719851
0.00719851
0.0071985
0.0071985
0.0071985
0.00719851
0.00719851
0.0071985
0.0071985
0.0071985
0.00719851
0.00719851
0.0071985
0.0071985
0.0071985
0.00719851
0.00719851
0.0071985
0.0071985
0.0071985
)
;

boundaryField
{
    inlet
    {
        type            zeroGradient;
    }
    outlet
    {
        type            fixedValue;
        value           uniform 0;
    }
    repeat_boundary
    {
        type            zeroGradient;
    }
    procBoundary1to0
    {
        type            processor;
        value           nonuniform List<scalar> 
450
(
1.7695e-10
1.86461e-10
2.16754e-10
2.82484e-10
3.44988e-10
5.34746e-10
5.56769e-10
6.56609e-10
8.61413e-10
1.08473e-09
9.05497e-10
9.40968e-10
1.10539e-09
1.41184e-09
1.75511e-09
1.34019e-09
1.38523e-09
1.56642e-09
1.88091e-09
2.15318e-09
1.87437e-09
1.91528e-09
2.06338e-09
2.30882e-09
2.44381e-09
2.4454e-09
2.4792e-09
2.60749e-09
2.82501e-09
2.97629e-09
2.95366e-09
2.99608e-09
3.15702e-09
3.41615e-09
3.70239e-09
3.40643e-09
3.47966e-09
3.69038e-09
3.97914e-09
4.33725e-09
3.96017e-09
4.06132e-09
4.26541e-09
4.50269e-09
4.83547e-09
4.74466e-09
4.81282e-09
4.91067e-09
5.00317e-09
5.1939e-09
5.71224e-09
5.67507e-09
5.61617e-09
5.52783e-09
5.47983e-09
6.82721e-09
6.69369e-09
6.51284e-09
6.2772e-09
6.02867e-09
8.27909e-09
8.10096e-09
7.80845e-09
7.41095e-09
6.97731e-09
1.02553e-08
9.99855e-09
9.50169e-09
8.83199e-09
8.08484e-09
1.26854e-08
1.22518e-08
1.14471e-08
1.04038e-08
9.23045e-09
1.5503e-08
1.4854e-08
1.36954e-08
1.21876e-08
1.04426e-08
1.89383e-08
1.80814e-08
1.65127e-08
1.43977e-08
1.18475e-08
2.33192e-08
2.22085e-08
2.01091e-08
1.72146e-08
1.36942e-08
2.88727e-08
2.73966e-08
2.45626e-08
2.06132e-08
1.57961e-08
3.58998e-08
3.3895e-08
3.00232e-08
2.46041e-08
1.79589e-08
4.49312e-08
4.21647e-08
3.68659e-08
2.95173e-08
2.06895e-08
5.6748e-08
5.29334e-08
4.57065e-08
3.57519e-08
2.40515e-08
7.2451e-08
6.72633e-08
5.74376e-08
4.38301e-08
2.78037e-08
9.34995e-08
8.65055e-08
7.31879e-08
5.46442e-08
3.27481e-08
1.21826e-07
1.12366e-07
9.42747e-08
6.91039e-08
3.95313e-08
1.6014e-07
1.47232e-07
1.2252e-07
8.83227e-08
4.82745e-08
2.12221e-07
1.94488e-07
1.60635e-07
1.14202e-07
5.98818e-08
2.83407e-07
2.58907e-07
2.12425e-07
1.49336e-07
7.53827e-08
3.82198e-07
3.47982e-07
2.83633e-07
1.97478e-07
9.59557e-08
5.23488e-07
4.74938e-07
3.83954e-07
2.65311e-07
1.23934e-07
7.28553e-07
6.59035e-07
5.26904e-07
3.64775e-07
1.61193e-07
1.02349e-06
9.2302e-07
7.22883e-07
5.14051e-07
2.05663e-07
1.4463e-06
1.29766e-06
9.80167e-07
7.38846e-07
2.51119e-07
2.05722e-06
1.822e-06
1.31417e-06
1.06628e-06
2.95227e-07
2.92135e-06
2.50439e-06
1.72349e-06
1.51689e-06
3.39603e-07
3.81439e-06
3.22751e-06
2.16522e-06
2.07724e-06
4.22417e-07
1.05643e-05
7.72963e-06
5.60403e-06
5.61879e-06
1.76418e-06
1.60756e-06
-1.17925e-07
-2.27547e-06
-1.86552e-06
-2.58743e-06
3.74773e-05
1.56734e-05
1.1496e-05
2.03265e-05
5.31599e-06
-1.95816e-05
-4.33416e-06
-1.2439e-05
-1.5424e-05
2.35191e-06
0.000178305
-2.84843e-05
-1.74095e-05
9.12295e-05
-2.33145e-06
0.00082046
0.000910801
0.000895546
0.000511027
0.000638927
0.00129893
0.00159458
0.00182176
0.00124861
0.00185648
0.00257436
0.00225404
0.0021847
0.00257836
0.00226539
0.00409983
0.00397926
0.00342996
0.00339844
0.00335928
0.00455087
0.00469091
0.00445178
0.00435295
0.00499314
0.00473595
0.00497934
0.00478982
0.00529959
0.00520691
0.00537938
0.00547646
0.00534116
0.00543923
0.00550488
0.00600716
0.00589947
0.00614833
0.00588452
0.00638616
0.00640276
0.00616319
0.00644156
0.00661099
0.00689149
0.0069083
0.00715371
0.00681514
0.00698153
0.00699508
0.00723688
0.00724648
0.00718609
0.00721114
0.00722077
0.00719532
0.0071915
0.00718663
0.00719387
0.00720188
0.00720252
0.0072014
0.00719899
0.00719657
0.00719277
0.00719832
0.0071974
0.00719774
0.00719814
0.00719889
0.00719876
0.00719833
0.00719847
0.00719838
0.00719845
0.00719844
0.0071983
0.00719843