/*--------------------------------*- C++ -*----------------------------------*\
| =========                 |                                                 |
| \\      /  F ield         | OpenFOAM: The Open Source CFD Toolbox           |
|  \\    /   O peration     | Version:  5.x                                   |
|   \\  /    A nd           | Web:      www.OpenFOAM.org                      |
|    \\/     M anipulation  |                                                 |
\*---------------------------------------------------------------------------*/
FoamFile
{
    version     2.0;
    format      ascii;
    class       surfaceScalarField;
    location    "80000";
    object      phi;
}
// * * * * * * * * * * * * * * * * * * * * * * * * * * * * * * * * * * * * * //

dimensions      [0 3 -1 0 0 0 0];

internalField   nonuniform List<scalar> 
5825
(
-0.000123732
7.29141e-05
-1000
-0.000104225
6.57006e-05
-1000
-7.40749e-05
6.36432e-05
-1000
-3.85957e-05
6.38848e-05
-1000
6.36147e-05
-1000
-0.000129491
0.000126028
-1000
-0.000107797
0.000115656
-1000
-7.38975e-05
0.000115679
-1000
-3.80078e-05
0.000117755
-1000
0.000116905
-1000
-0.000125222
0.000166602
-1000
-0.000102101
0.000159397
-1000
-7.27315e-05
0.000161539
-1000
-3.85113e-05
0.000160517
-1000
0.000157828
-1000
-0.000131373
0.000224077
-1000
-0.000103576
0.00019821
-1000
-7.6555e-05
0.000196406
-1000
-3.98302e-05
0.000189909
-1000
0.000188279
-1000
-0.000153727
-1000
-0.000104517
-1000
-8.35622e-05
-1000
-4.77867e-05
-1000
-1000
-0.000324054
0.000195545
-1000
-0.000277189
0.000178855
-1000
-0.000195036
0.000174318
-1000
-0.00010249
0.000176153
-1000
0.000173604
-1000
-0.000335212
0.000336547
-1000
-0.000276415
0.000317499
-1000
-0.000194827
0.000319101
-1000
-0.000101942
0.00032022
-1000
0.000316102
-1000
-0.000324131
0.000461135
-1000
-0.000268455
0.000439905
-1000
-0.00019486
0.000442742
-1000
-0.000102724
0.000436723
-1000
0.000434442
-1000
-0.000321936
0.000633769
-1000
-0.000270925
0.00055217
-1000
-0.000200806
0.000533656
-1000
-0.00010887
0.000516462
-1000
0.000514928
-1000
-0.000377688
-1000
-0.000277301
-1000
-0.00020979
-1000
-0.000110942
-1000
-1000
-0.000513297
0.000333125
-1000
-0.000437642
0.000314861
-1000
-0.000315281
0.000312873
-1000
-0.000165418
0.000310569
-1000
0.000303231
-1000
-0.000517893
0.000581508
-1000
-0.000439934
0.000574381
-1000
-0.000317454
0.000570658
-1000
-0.000168426
0.000566617
-1000
0.000565603
-1000
-0.000509452
0.000810265
-1000
-0.000429022
0.000793992
-1000
-0.000317156
0.000792835
-1000
-0.000175087
0.000789627
-1000
0.000793713
-1000
-0.000494986
0.001027
-1000
-0.000429321
0.000971668
-1000
-0.000322886
0.000955573
-1000
-0.000171889
0.000947945
-1000
0.000958484
-1000
-0.000553517
-1000
-0.000448234
-1000
-0.000326519
-1000
-0.000160129
-1000
-1000
-0.000699664
0.000496085
-1000
-0.000597099
0.000487173
-1000
-0.000434754
0.00048148
-1000
-0.000238344
0.000474496
-1000
0.000465929
-1000
-0.000702764
0.000904307
-1000
-0.00060009
0.000899504
-1000
-0.000442158
0.00089085
-1000
-0.000246757
0.000890557
-1000
0.000893158
-1000
-0.000696871
0.00125615
-1000
-0.00060069
0.00124422
-1000
-0.000447595
0.00124069
-1000
-0.000244232
0.00124976
-1000
0.00126113
-1000
-0.000689939
0.00154857
-1000
-0.0006009
0.00149062
-1000
-0.000448601
0.00148571
-1000
-0.000231278
0.00149822
-1000
0.00151328
-1000
-0.000751471
-1000
-0.00061966
-1000
-0.000446598
-1000
-0.000220795
-1000
-1000
-0.000907623
0.000705277
-1000
-0.000786294
0.000704079
-1000
-0.000585544
0.00069612
-1000
-0.0003226
0.000689381
-1000
0.000684796
-1000
-0.000911745
0.00131951
-1000
-0.000795398
0.00132221
-1000
-0.000594959
0.00131683
-1000
-0.000324328
0.00132196
-1000
0.00132877
-1000
-0.00091207
0.0018228
-1000
-0.000797966
0.00182185
-1000
-0.000593594
0.00182369
-1000
-0.000313102
0.00184316
-1000
0.00185525
-1000
-0.000915284
0.00218948
-1000
-0.000793411
0.00215302
-1000
-0.00058226
0.00215876
-1000
-0.000296606
0.00218188
-1000
0.00218784
-1000
-0.000951692
-1000
-0.000798233
-1000
-0.000578679
-1000
-0.000289289
-1000
-1000
-0.00119501
0.0009912
-1000
-0.00104238
0.00099054
-1000.01
-0.000777468
0.000984508
-1000.01
-0.000417445
0.000983291
-1000.01
0.00098783
-1000.01
-0.00119763
0.00186615
-1000
-0.00105107
0.00187636
-1000
-0.000779339
0.00188046
-1000.01
-0.000410269
0.00189275
-1000.01
0.00190097
-1000.01
-0.00119504
0.00256223
-1000
-0.00104545
0.00257656
-1000
-0.000766186
0.00258842
-1000
-0.000397858
0.00261004
-1000
0.00261702
-1000
-0.00119509
0.00301203
-1000
-0.00102836
0.00301292
-1000
-0.000746276
0.00303314
-1000
-0.00038596
0.00305567
-1000
0.00305248
-1000
-0.00118687
-1000
-0.00101273
-1000
-0.000729691
-1000
-0.000383289
-1000
-1000
-0.00161319
0.00138179
-1000.01
-0.00139311
0.00137925
-1000.01
-0.00102212
0.00138043
-1000.01
-0.000535828
0.00138858
-1000.01
0.00139584
-1000.01
-0.00161809
0.00258597
-1000.01
-0.00139445
0.002606
-1000.01
-0.00101487
0.00262743
-1000.01
-0.000525688
0.00264675
-1000.01
0.00265084
-1000.01
-0.00159914
0.00354943
-1000
-0.00137444
0.00357555
-1000.01
-0.000995385
0.00360248
-1000.01
-0.000517711
0.00362342
-1000.01
0.00362332
-1000.01
-0.00157591
0.00412821
-1000
-0.00134143
0.00416984
-1000
-0.000971095
0.00421071
-1000
-0.000510225
0.00422915
-1000
0.0042222
-1000
-0.00152973
-1000
-0.00132467
-1000
-0.000958268
-1000
-0.000510729
-1000
-1000
-0.00218933
0.00190025
-1000.01
-0.00185317
0.00190386
-1000.01
-0.00133765
0.00191624
-1000.01
-0.000695358
0.00193039
-1000.01
0.00193366
-1000.01
-0.00218961
0.00355521
-1000.01
-0.00184344
0.00359342
-1000.01
-0.00132551
0.00362925
-1000.01
-0.000689592
0.00365176
-1000.01
0.00365046
-1000.01
-0.00214727
0.00489751
-1000.01
-0.00181004
0.00493487
-1000.01
-0.00130384
0.00497346
-1000.01
-0.000684656
0.00499396
-1000.01
0.00498984
-1000.01
-0.00209123
0.00571659
-1000
-0.00176642
0.0057743
-1000.01
-0.00127869
0.0058272
-1000.01
-0.000676322
0.00584319
-1000.01
0.00583888
-1000.01
-0.00201581
-1000
-0.00175411
-1000
-0.00127177
-1000
-0.000671745
-1000
-1000
-0.0029078
0.0025965
-1000.01
-0.00243287
0.002619
-1000.01
-0.00174632
0.00264074
-1000.01
-0.000913291
0.00265583
-1000.01
0.00265327
-1000.01
-0.00289193
0.00490304
-1000.01
-0.00241561
0.00495732
-1000.01
-0.001736
0.00499194
-1000.01
-0.000912608
0.00501224
-1000.01
0.0050071
-1000.01
-0.00283934
0.00676701
-1000.01
-0.00238044
0.00681434
-1000.01
-0.00171648
0.0068487
-1000.01
-0.000907326
0.00686908
-1000.01
0.00686409
-1000.01
-0.00277715
0.00798009
-1000.01
-0.00234169
0.00800552
-1000.01
-0.00169379
0.00804659
-1000.01
-0.00089517
0.00806754
-1000.01
0.00806927
-1000.01
-0.00271625
-1000
-0.00231615
-1000
-0.00167622
-1000
-0.000876749
-1000.01
-1000.01
-0.00378723
0.00357641
-1000.02
-0.00317945
0.00360842
-1000.02
-0.00229243
0.00362789
-1000.02
-0.00120854
0.00363734
-1000.02
0.00362887
-1000.02
-0.00376591
0.00679056
-1000.01
-0.00316737
0.00683288
-1000.02
-0.00228922
0.00685235
-1000.02
-0.00121164
0.00686658
-1000.02
0.00685756
-1000.02
-0.00372973
0.0093451
-1000.01
-0.00314489
0.00939033
-1000.01
-0.00227477
0.00941194
-1000.01
-0.0012057
0.00943342
-1000.01
0.00942748
-1000.02
-0.00369553
0.0110521
-1000.01
-0.00311745
0.0110306
-1000.01
-0.002253
0.0110719
-1000.01
-0.00118914
0.0111071
-1000.01
0.0111116
-1000.01
-0.00368605
-1000
-0.00306649
-1000
-0.00221507
-1000.01
-0.00115846
-1000.01
-1000.01
-0.00496477
0.00495051
-1000.02
-0.00420449
0.00495943
-1000.02
-0.00304657
0.0049665
-1000.02
-0.00161329
0.00496888
-1000.03
0.00495419
-1000.03
-0.00496927
0.00936332
-1000.02
-0.00420762
0.00937418
-1000.02
-0.00305092
0.00938283
-1000.02
-0.00161961
0.0093927
-1000.02
0.009378
-1000.02
-0.00496309
0.0128511
-1000.02
-0.00419752
0.012879
-1000.02
-0.00303982
0.0129034
-1000.02
-0.00161231
0.0129284
-1000.02
0.012919
-1000.02
-0.00494019
0.0151223
-1000.01
-0.00416974
0.015133
-1000.01
-0.00301412
0.0151885
-1000.01
-0.00159243
0.0152355
-1000.01
0.0152336
-1000.02
-0.00493421
-1000
-0.00410562
-1000.01
-0.00296024
-1000.01
-0.00155824
-1000.01
-1000.01
-0.00664292
0.00679226
-1000.03
-0.00563817
0.00677444
-1000.03
-0.00408714
0.00677555
-1000.03
-0.00216515
0.00677522
-1000.03
0.00675338
-1000.03
-0.00667656
0.01281
-1000.03
-0.00565017
0.0128122
-1000.03
-0.00409535
0.0128244
-1000.03
-0.00217424
0.0128331
-1000.03
0.0128108
-1000.03
-0.00667657
0.0175879
-1000.02
-0.00563845
0.017619
-1000.02
-0.00408506
0.0176585
-1000.03
-0.00216701
0.0176858
-1000.03
0.0176678
-1000.03
-0.00663911
0.0206693
-1000.01
-0.00559817
0.0207257
-1000.02
-0.00405542
0.020794
-1000.02
-0.00214536
0.0208407
-1000.02
0.0208215
-1000.02
-0.00658957
-1000.01
-0.00552968
-1000.01
-0.00400249
-1000.01
-0.00211537
-1000.01
-1000.01
-0.00895719
0.00923555
-1000.04
-0.00758741
0.00922666
-1000.04
-0.00549657
0.00923184
-1000.04
-0.00290965
0.00923035
-1000.05
0.00920147
-1000.05
-0.00898774
0.017481
-1000.03
-0.00759824
0.0175012
-1000.04
-0.00550819
0.0175177
-1000.04
-0.00292253
0.0175222
-1000.04
0.0174886
-1000.04
-0.00897073
0.0240509
-1000.03
-0.00758261
0.0240913
-1000.03
-0.00550208
0.0241347
-1000.03
-0.00291691
0.0241562
-1000.04
0.0241228
-1000.04
-0.00891953
0.0282991
-1000.02
-0.00753956
0.0283608
-1000.02
-0.00547671
0.028419
-1000.02
-0.0028959
0.0284506
-1000.03
0.0284017
-1000.03
-0.00885163
-1000.01
-0.00748459
-1000.01
-0.00543864
-1000.01
-0.00287829
-1000.02
-1000.02
-0.0120254
0.0125685
-1000.05
-0.0101945
0.0125793
-1000.06
-0.0073957
0.012582
-1000.06
-0.00391339
0.0125756
-1000.06
0.0125402
-1000.06
-0.0120434
0.023889
-1000.05
-0.0102124
0.0239096
-1000.05
-0.0074169
0.0239142
-1000.05
-0.00392945
0.023909
-1000.06
0.02386
-1000.06
-0.0120292
0.0328745
-1000.04
-0.0102083
0.0329085
-1000.04
-0.00742033
0.0329368
-1000.05
-0.00392477
0.0329461
-1000.05
0.0328887
-1000.05
-0.0119928
0.0386664
-1000.03
-0.0101807
0.0387178
-1000.03
-0.00740728
0.0387574
-1000.03
-0.00390843
0.038767
-1000.04
0.038677
-1000.04
-0.0119245
-1000.01
-0.0101389
-1000.02
-0.00738804
-1000.02
-0.00390896
-1000.02
-1000.02
-0.016136
0.0171623
-1000.07
-0.0137181
0.0171591
-1000.08
-0.00997038
0.0171481
-1000.08
-0.00527008
0.0171361
-1000.08
0.0170961
-1000.09
-0.0161761
0.0326339
-1000.06
-0.0137589
0.0326228
-1000.07
-0.0100038
0.0326092
-1000.07
-0.00528419
0.0325963
-1000.08
0.0325279
-1000.08
-0.0161936
0.0448613
-1000.05
-0.0137738
0.0448768
-1000.06
-0.0100142
0.044885
-1000.06
-0.00527856
0.0448805
-1000.07
0.0447879
-1000.07
-0.0161792
0.0526982
-1000.03
-0.0137666
0.0527467
-1000.04
-0.0100145
0.0527686
-1000.04
-0.00527043
0.0527564
-1000.05
0.0526221
-1000.05
-0.016121
-1000.01
-0.0137376
-1000.02
-0.0100144
-1000.03
-0.00528199
-1000.03
-1000.03
-0.0217621
0.023408
-1000.09
-0.0185198
0.0233791
-1000.1
-0.013465
0.023361
-1000.11
-0.00710447
0.0233505
-1000.11
0.0233055
-1000.12
-0.0218399
0.0444723
-1000.08
-0.018581
0.0444356
-1000.09
-0.0135049
0.0444152
-1000.1
-0.00711349
0.0444012
-1000.1
0.0443057
-1000.11
-0.0218802
0.0611315
-1000.07
-0.0186041
0.0611207
-1000.08
-0.0135144
0.061109
-1000.08
-0.00710815
0.0610901
-1000.09
0.0609512
-1000.09
-0.0218867
0.0718054
-1000.05
-0.018616
0.0718095
-1000.05
-0.0135263
0.0718002
-1000.06
-0.00710874
0.0717693
-1000.07
0.0715973
-1000.07
-0.0218731
-1000.02
-0.0186211
-1000.03
-0.0135447
-1000.03
-0.00711504
-1000.04
-1000.04
-0.0294444
0.0318483
-1000.13
-0.0250422
0.0318229
-1000.14
-0.0181989
0.0318108
-1000.15
-0.00959147
0.0318064
-1000.15
0.0317464
-1000.16
-0.0295372
0.0605014
-1000.11
-0.0251134
0.0604645
-1000.13
-0.0182424
0.0604461
-1000.13
-0.00960285
0.0604324
-1000.14
0.060296
-1000.15
-0.0295759
0.0832282
-1000.09
-0.0251347
0.0831832
-1000.1
-0.0182496
0.0831485
-1000.11
-0.0096019
0.0831141
-1000.12
0.0829179
-1000.12
-0.029612
0.0978396
-1000.06
-0.025168
0.0977512
-1000.07
-0.0182729
0.0976914
-1000.08
-0.00960878
0.097642
-1000.09
0.097419
-1000.09
-0.0296884
-1000.03
-0.0252282
-1000.04
-0.0183095
-1000.05
-0.00960779
-1000.05
-1000.06
-0.039871
0.0433049
-1000.17
-0.0338875
0.0432968
-1000.19
-0.0246194
0.0432922
-1000.2
-0.0129784
0.0432902
-1000.21
0.0431978
-1000.21
-0.0399716
0.0822589
-1000.16
-0.0339713
0.0822332
-1000.17
-0.0246746
0.0822176
-1000.18
-0.0130041
0.0822001
-1000.19
0.0820095
-1000.2
-0.0399987
0.11321
-1000.13
-0.0339893
0.113146
-1000.14
-0.0246835
0.113091
-1000.15
-0.0130075
0.11304
-1000.16
0.112771
-1000.17
-0.0400545
0.133164
-1000.08
-0.0340414
0.133006
-1000.1
-0.0247186
0.132895
-1000.11
-0.0130179
0.132813
-1000.12
0.132491
-1000.12
-0.040197
-1000.03
-0.0341521
-1000.05
-0.0247838
-1000.06
-0.0130343
-1000.07
-1000.08
-0.0540453
0.0588715
-1000.23
-0.0458958
0.0588799
-1000.25
-0.0333366
0.0588838
-1000.27
-0.0175864
0.0588809
-1000.28
0.0587485
-1000.29
-0.0541611
0.111817
-1000.21
-0.0459979
0.111813
-1000.23
-0.033411
0.111805
-1000.25
-0.0176262
0.111786
-1000.26
0.111533
-1000.27
-0.0541665
0.153911
-1000.17
-0.0460079
0.153851
-1000.19
-0.0334183
0.153786
-1000.21
-0.0176232
0.153721
-1000.22
0.153355
-1000.23
-0.0542167
0.181053
-1000.11
-0.0460695
0.180866
-1000.13
-0.0334609
0.180716
-1000.15
-0.0176335
0.180588
-1000.16
0.180122
-1000.17
-0.0543869
-1000.05
-0.046216
-1000.07
-0.0335648
-1000.08
-0.0176818
-1000.1
-1000.1
-0.0733008
0.0800128
-1000.32
-0.0621781
0.0800601
-1000.35
-0.0451462
0.0800844
-1000.37
-0.0238174
0.080091
-1000.38
0.0799253
-1000.39
-0.0734199
0.15202
-1000.29
-0.0622953
0.152046
-1000.31
-0.0452341
0.152061
-1000.34
-0.0238548
0.152057
-1000.35
0.151732
-1000.36
-0.0733924
0.209252
-1000.23
-0.0622826
0.209192
-1000.26
-0.0452205
0.209129
-1000.28
-0.0238301
0.209062
-1000.3
0.208572
-1000.31
-0.0734376
0.246078
-1000.15
-0.0623376
0.245871
-1000.18
-0.0452544
0.245695
-1000.2
-0.0238342
0.245529
-1000.22
0.244901
-1000.23
-0.0736253
-1000.06
-0.0625075
-1000.09
-0.0453859
-1000.11
-0.0238944
-1000.13
-1000.14
-0.0993969
0.108794
-1000.43
-0.0842283
0.108903
-1000.47
-0.0611058
0.108969
-1000.5
-0.0322067
0.109012
-1000.52
0.108815
-1000.53
-0.0995109
0.206738
-1000.39
-0.0843495
0.206809
-1000.43
-0.0611869
0.206876
-1000.46
-0.0322264
0.206916
-1000.48
0.206493
-1000.49
-0.0994351
0.284521
-1000.31
-0.0842794
0.284457
-1000.35
-0.0611195
0.28442
-1000.38
-0.0321703
0.284368
-1000.4
0.283715
-1000.42
-0.0994751
0.334483
-1000.21
-0.0842989
0.334259
-1000.25
-0.0611227
0.334044
-1000.28
-0.0321597
0.333844
-1000.3
0.333008
-1000.31
-0.0996743
-1000.09
-0.0845028
-1000.12
-0.0612746
-1000.15
-0.03222
-1000.18
-1000.19
-0.134828
0.14801
-1000.59
-0.114099
0.148211
-1000.64
-0.0826544
0.14837
-1000.68
-0.043503
0.148491
-1000.71
0.148247
-1000.73
-0.13492
0.281162
-1000.53
-0.114186
0.28136
-1000.58
-0.0826957
0.281552
-1000.62
-0.0435019
0.281676
-1000.65
0.281122
-1000.67
-0.134704
0.386837
-1000.43
-0.113979
0.386835
-1000.48
-0.0825264
0.386864
-1000.52
-0.043399
0.386849
-1000.55
0.385989
-1000.56
-0.134665
0.454756
-1000.29
-0.113916
0.454455
-1000.33
-0.0824698
0.45415
-1000.38
-0.0433516
0.453891
-1000.4
0.452762
-1000.42
-0.134936
-1000.12
-0.114202
-1000.17
-0.0826591
-1000.21
-0.0434216
-1000.24
-1000.25
-0.183031
0.201374
-1000.8
-0.154551
0.201806
-1000.87
-0.111745
0.202177
-1000.92
-0.058731
0.202444
-1000.96
0.202136
-1000.99
-0.182979
0.382343
-1000.72
-0.1545
0.382896
-1000.79
-0.111688
0.383368
-1000.85
-0.0586968
0.383669
-1000.89
0.382976
-1000.91
-0.18238
0.525884
-1000.58
-0.153987
0.526118
-1000.65
-0.11131
0.526316
-1000.7
-0.0584864
0.526411
-1000.74
0.525308
-1000.76
-0.182072
0.61823
-1000.39
-0.153726
0.617785
-1000.45
-0.111104
0.617388
-1000.51
-0.0583444
0.617071
-1000.55
0.615552
-1000.57
-0.182471
-1000.16
-0.154086
-1000.23
-0.111318
-1000.28
-0.0584146
-1000.32
-1000.34
-0.24859
0.274029
-1001.09
-0.209267
0.275012
-1001.18
-0.151024
0.275819
-1001.26
-0.0792298
0.276377
-1001.31
0.276028
-1001.34
-0.24809
0.520015
-1000.99
-0.208863
0.521366
-1001.08
-0.150727
0.522443
-1001.15
-0.0790968
0.523159
-1001.2
0.522364
-1001.23
-0.246637
0.714864
-1000.79
-0.207692
0.715696
-1000.88
-0.14988
0.716338
-1000.96
-0.0786405
0.716744
-1001.01
0.715366
-1001.04
-0.245673
0.840103
-1000.53
-0.206927
0.839672
-1000.62
-0.149298
0.839298
-1000.69
-0.0783026
0.838973
-1000.74
0.836934
-1000.77
-0.246024
-1000.22
-0.207228
-1000.31
-0.149469
-1000.38
-0.0783536
-1000.43
-1000.46
-0.337839
0.373198
-1001.49
-0.28321
0.375331
-1001.61
-0.204112
0.376999
-1001.71
-0.106664
0.37819
-1001.79
0.377883
-1001.83
-0.336297
0.707623
-1001.34
-0.282017
0.710639
-1001.47
-0.203233
0.712978
-1001.57
-0.106277
0.714638
-1001.64
0.713823
-1001.68
-0.333068
0.971804
-1001.08
-0.279468
0.973984
-1001.2
-0.201347
0.975635
-1001.3
-0.105338
0.976774
-1001.37
0.975089
-1001.4
-0.330645
1.1412
-1000.72
-0.277576
1.14114
-1000.84
-0.199926
1.14097
-1000.93
-0.104642
1.14075
-1001
1.13798
-1001.04
-0.330562
-1000.3
-0.277613
-1000.42
-0.199914
-1000.51
-0.104665
-1000.58
-1000.62
-0.459951
0.508964
-1002.03
-0.382854
0.513509
-1002.2
-0.276209
0.516845
-1002.34
-0.142864
0.519473
-1002.44
0.519324
-1002.49
-0.456089
0.963752
-1001.83
-0.380004
0.970309
-1002
-0.273936
0.975145
-1002.13
-0.141975
0.978912
-1002.23
0.978175
-1002.28
-0.449112
1.32123
-1001.47
-0.374702
1.3264
-1001.63
-0.269789
1.33008
-1001.76
-0.140206
1.3329
-1001.85
1.33084
-1001.9
-0.443511
1.54967
-1000.98
-0.370542
1.55066
-1001.13
-0.266533
1.55096
-1001.26
-0.138915
1.55121
-1001.35
1.54739
-1001.39
-0.442313
-1000.42
-0.36996
-1000.56
-0.265934
-1000.69
-0.138909
-1000.77
-1000.82
-0.629162
0.695522
-1002.77
-0.515425
0.705476
-1003.02
-0.3759
0.711741
-1003.19
-0.18884
0.717835
-1003.35
0.717746
-1003.39
-0.620008
1.31429
-1002.49
-0.509418
1.32881
-1002.73
-0.370301
1.33805
-1002.9
-0.187202
1.34684
-1003.04
1.34596
-1003.09
-0.604802
1.79638
-1002
-0.49911
1.8084
-1002.21
-0.36103
1.81565
-1002.37
-0.184339
1.8226
-1002.5
1.81968
-1002.55
-0.592117
2.10291
-1001.33
-0.49086
2.10684
-1001.53
-0.353559
2.10801
-1001.69
-0.182434
2.10992
-1001.8
2.10428
-1001.86
-0.587947
-1000.57
-0.489069
-1000.76
-0.351172
-1000.91
-0.18264
-1001.02
-1001.08
-0.871742
0.952729
-1003.76
-0.684348
0.976334
-1004.19
-0.520676
0.98597
-1004.34
-0.242358
1.00156
-1004.63
0.999932
-1004.64
-0.849994
1.7954
-1003.38
-0.673078
1.82968
-1003.76
-0.507052
1.84409
-1003.92
-0.239766
1.86681
-1004.17
1.86309
-1004.19
-0.815693
2.44163
-1002.7
-0.655293
2.47077
-1003.02
-0.485387
2.48193
-1003.18
-0.23616
2.50046
-1003.38
2.49357
-1003.42
-0.786403
2.85018
-1001.8
-0.64152
2.86278
-1002.07
-0.467581
2.864
-1002.24
-0.234991
2.87192
-1002.41
2.86177
-1002.46
-0.774024
-1000.78
-0.63867
-1001.01
-0.459569
-1001.19
-0.236803
-1001.33
-1001.4
-1.2428
1.30595
-1005.03
-0.884406
1.36954
-1005.91
-0.745353
1.37484
-1005.85
-0.29761
1.41931
-1006.49
1.40854
-1006.34
-1.19185
2.45507
-1004.52
-0.863104
2.54681
-1005.27
-0.714003
2.55396
-1005.25
-0.293233
2.62091
-1005.8
2.60087
-1005.68
-1.11228
3.31163
-1003.58
-0.834251
3.39062
-1004.14
-0.663624
3.39325
-1004.19
-0.289096
3.44941
-1004.59
3.42376
-1004.53
-1.04199
3.85338
-1002.41
-0.816766
3.89493
-1002.8
-0.621148
3.88646
-1002.93
-0.292468
3.91781
-1003.21
3.89283
-1003.22
-1.00507
-1001.05
-0.817561
-1001.32
-0.594878
-1001.51
-0.299883
-1001.69
-1001.75
-1.82755
1.78146
-1006.55
-1.12714
1.96512
-1008.58
-1.09952
1.93114
-1007.81
-0.348784
2.05791
-1009.3
2.01496
-1008.71
-1.71841
3.35024
-1005.89
-1.08009
3.61905
-1007.56
-1.03314
3.55515
-1006.92
-0.340367
3.75762
-1008.19
3.67681
-1007.68
-1.54602
4.45581
-1004.58
-1.0213
4.69535
-1005.74
-0.924402
4.62004
-1005.35
-0.334209
4.79791
-1006.22
4.70116
-1005.89
-1.38661
5.17868
-1003.13
-0.996339
5.32884
-1003.82
-0.835897
5.25852
-1003.73
-0.34841
5.37986
-1004.27
5.30319
-1004.17
-1.2777
-1001.36
-1.01049
-1001.65
-0.757099
-1001.78
-0.364608
-1001.98
-1002
-2.71537
2.4022
-1008.29
-1.45816
2.90343
-1012.74
-1.65144
2.74486
-1010.36
-0.384575
3.07356
-1013.64
2.94461
-1012.04
-2.49244
4.56161
-1007.51
-1.35078
5.30264
-1011.1
-1.51582
4.99704
-1009.01
-0.367981
5.5534
-1011.82
5.3001
-1010.41
-2.14546
5.88347
-1005.56
-1.2192
6.578
-1007.94
-1.28596
6.21552
-1006.5
-0.35692
6.71752
-1008.31
6.4123
-1007.36
-1.83018
6.87295
-1003.96
-1.16982
7.40538
-1005.31
-1.1349
7.08512
-1004.63
-0.403649
7.50024
-1005.79
7.2637
-1005.43
-1.56374
-1001.57
-1.17312
-1001.77
-0.918354
-1001.71
-0.414363
-1001.85
-1001.8
-4.045
3.16456
-1010.11
-1.95539
4.42565
-1019.25
-2.53239
3.97531
-1013.76
-0.372699
4.74706
-1020.55
4.42211
-1016.83
-3.58355
6.24491
-1009.53
-1.70487
8.07459
-1016.63
-2.25858
7.16574
-1011.64
-0.340721
8.54865
-1017.54
7.86353
-1014.19
-2.89377
7.54165
-1006.19
-1.40978
9.26505
-1010.61
-1.74768
8.20319
-1007.2
-0.317181
9.44148
-1010.63
8.66428
-1008.48
-2.2965
8.96756
-1005
-1.3479
10.5549
-1007.55
-1.56528
9.50697
-1005.72
-0.474312
10.6612
-1008.1
9.9868
-1007.23
-1.75172
-1001.3
-1.20804
-1001.16
-0.976202
-1000.67
-0.421464
-1000.55
-1000.46
-6.0579
4.05592
-1011.67
-2.79721
6.94303
-1029.46
-4.01522
5.90665
-1018.45
-0.258068
7.59779
-1031.9
6.85848
-1023.95
-5.07817
8.65598
-1012.33
-2.18
12.8534
-1025.44
-3.47497
10.5764
-1015.02
-0.205599
13.7962
-1027
12.049
-1019.58
-3.70998
9.42967
-1006.03
-1.52025
13.2111
-1013.16
-2.27988
10.7547
-1006.62
-0.157189
13.5672
-1012.53
11.7835
-1008.37
-2.61022
11.3997
-1006.33
-1.53146
15.3301
-1010.75
-2.25016
12.5579
-1006.81
-0.580839
15.2805
-1011.48
13.541
-1009.56
-1.52957
-999.95
-0.929196
-998.715
-0.741178
-997.678
-0.376972
-996.768
-997.099
-9.05891
5.01438
-1012.2
-4.40866
11.4049
-1045.51
-6.67583
9.2315
-1025.41
0.228537
12.9215
-1051.73
11.2452
-1034.96
-7.06225
12.0474
-1016.57
-2.83214
21.3097
-1039.57
-5.60869
16.0435
-1019.05
0.484003
23.2957
-1043.47
19.045
-1026.9
-4.28549
11.8335
-1004.9
-1.40889
19.3593
-1014.09
-2.8091
14.2728
-1003.45
0.404737
20.1551
-1012.6
16.2473
-1005.17
-2.3215
13.7062
-1007.41
-1.667
22.261
-1014.3
-3.40121
15.9687
-1006.77
-0.724216
21.8025
-1015.81
17.6919
-1011.73
-0.202151
-996.699
-0.0389144
-992.408
-0.0319448
-991.283
-0.43015
-988.261
-990.832
-13.0818
5.53499
-1009.95
-7.69703
19.6816
-1070.58
-11.5877
15.388
-1036.91
2.35374
23.1848
-1088.86
19.6242
-1052.23
-9.35347
16.6254
-1023.95
-3.68449
36.4034
-1061.96
-9.51258
24.7623
-1022.6
3.05267
40.7351
-1073.59
30.7167
-1034.94
-3.63724
15.4068
-1004.02
-0.821653
29.1181
-1009.62
-3.10794
19.2094
-995.61
1.98227
30.8725
-1007.83
22.3399
-994.807
0.0036865
15.1055
-1007.15
-1.67022
31.7856
-1015.3
-5.49046
19.1079
-1002.85
-0.846369
30.7097
-1020.29
21.5397
-1011.78
3.54033
-989.724
2.04079
-978.333
1.46594
-979.125
-0.943544
-971.033
-981.263
-13.0706
3.54569
-1003.83
-10.9309
31.5158
-1104.24
-15.2081
22.4252
-1055.06
9.41798
35.7146
-1149.2
27.9928
-1070.81
-9.53783
21.6558
-1039.33
-3.41475
60.9643
-1097.53
-13.7944
35.4981
-1025.29
10.4021
66.4621
-1128.53
43.5915
-1040.14
1.07425
21.9554
-1009.88
1.91875
45.2885
-994.787
-2.37786
26.3574
-982.172
5.61793
47.7249
-997.087
28.3272
-973.925
5.09763
14.8814
-997.899
-1.57247
43.8164
-1007.16
-9.79802
20.3338
-988.596
-0.942211
41.8505
-1023.27
21.9926
-1006.39
13.102
-973.141
5.35732
-947.12
3.32534
-957.528
-3.7023
-938.409
-971.354
-57.5702
0.680791
-958.56
-57.9557
91.1871
-1195.04
-65.0948
86.7609
-1134.68
14.9965
125.439
-1354.73
107.432
-1163.24
-35.7046
55.1645
-1086.27
-18.9742
165.484
-1188.56
-49.5917
125.579
-1033.49
22.2208
211.737
-1286.64
146.983
-1057.47
14.7262
64.8017
-1038.37
14.4732
102.502
-931.552
-12.1331
63.3323
-893.319
1.2596
116.276
-915.018
67.5298
-893.211
21.514
2.80201
-916.774
0.110227
65.0621
-948.311
-22.0324
16.443
-919.563
-4.4833
59.5326
-984.074
11.6702
-955.01
38.6188
-895.808
3.88456
-854.157
-8.89927
-905.257
-31.5673
-870.183
-1004.49
39.6863
-32.152
-904.597
-19.0221
36.1688
-1172.5
-15.2531
11.5021
-1149.95
62.5941
52.3044
-1484.88
25.6808
-1126.33
25.3867
-11.3828
-1118
14.8594
84.0806
-1225.95
-17.0237
-20.2004
-969.906
65.332
88.1562
-1404.85
-1.88346
-964.57
14.422
17.5421
-1102.08
0.35475
42.8496
-876.253
25.5354
14.5864
-953.286
50.0926
62.6266
-914.046
-16.0746
-828.928
28.6906
24.8074
-945.544
-16.6757
18.453
-878.548
-30.7922
12.5214
-903.382
8.19937
49.0107
-1009.45
-25.4152
-937.47
46.4075
-821.05
53.1005
-867.03
40.1634
-836.213
-2.13456
-778.041
-992.276
-190.709
-202.462
-428.193
-343.169
374.939
-1394.98
-313.084
462.382
-1642.42
149.995
590.665
-2538.62
538.494
-1514.83
-153.226
183.331
-1561.34
-67.9495
772.578
-1708.86
-227.739
654.764
-1002.5
208.75
1102.05
-2352.72
669.755
-887.082
258.294
492.931
-1704.81
222.369
464.617
-532.367
-44.9974
198.129
-229.285
-60.9021
470.917
-267.013
145.345
-365.421
144.323
-148.067
-69.1963
-14.5945
113.861
-368.874
-91.3825
-102.511
-525.955
-20.9496
11.9601
-620.927
-201.439
-611.635
202.198
-181.938
-129.712
-163.244
-170.922
-698.111
-323.199
-506.763
-1581.94
409.532
90.3439
-794.748
296.871
-226.507
-1055.81
259.164
-492.425
-1112.29
26.8915
-477.927
-1828.42
-413.423
-1074.51
338.502
-296.48
-1072.73
120.899
-445.467
-1272.3
173.012
-797.927
-749.109
4.93152
-868.732
-1793.83
-658.311
-637.262
-292.425
-412.68
-1356.2
-383.154
-432.015
-455.091
170.038
8.1212
-1588.53
340.874
-185.953
-1120.63
-193.374
-489.484
138.539
432.133
-1383.17
-42.4239
-313.655
-306.271
-79.5888
196.205
-676.873
64.7438
221.782
-1172.99
-7.03187
-733.233
56.8717
-575.285
460.538
-1309.65
423.874
-408.506
307.633
-248.727
-1015.4
25.1447
-52.2106
-623.23
-0.968507
-0.852077
-1028.84
-5.67346
-3.09618
-1104.49
0.0681435
-1.15112
-1833.01
-0.750786
-1073.7
3.62163
-2.38509
-1158.92
6.51768
27.2347
-1303.28
-1.54991
78.1272
-822.264
1.09469
136.042
-1933.67
4.01849
-640.937
42.2046
173.886
-1588.63
137.03
13.8477
-536.529
7.67237
-13.6962
-1367.34
-92.5783
54.4265
-938.762
-31.3014
-546.742
40.0197
38.614
-1103.31
2.87251
-82.5016
-172.775
6.80988
-41.9665
-652.54
-8.94472
-24.8863
-1077.93
-60.6431
-712.836
-24.3603
-446.111
-80.3636
-1174.03
0.0215191
-492.177
0.000427956
-259.954
-1176.06
-155.669
105.551
-490.488
-198.139
384.226
-1370.6
299.588
500.272
-2102.48
131.341
659.56
-2324.33
320.336
-1262.69
-47.7159
184.895
-1203.01
-25.1751
228.426
-1170.02
136.258
238.325
-721.751
141.181
304.099
-1583.13
233.78
-413.2
2.06669
-179.033
-1132.76
24.4036
38.1694
-368.609
-1.18116
-34.5824
-1068.85
21.434
4.20754
-661.485
75.1461
-366.674
2.94833
-1.15487
-1660.98
0.926204
-2.34965
-130.233
-4.65673
-145.766
-535.774
108.336
-56.7951
-1129.92
-303.103
-226.251
0.107312
-13.9214
-106.523
-936.781
90.7878
-1058.67
31.1736
-259.996
-1393.57
-251.546
-106.452
-488.224
135.972
310.128
-2068.24
-254.738
-55.1024
-1656.67
-68.4039
241.392
-2752.05
3.86449
-1334.96
138.836
2.19
-1902.93
11.7181
-38.4124
-694.364
84.6232
-43.2641
-806.495
11.391
-440.165
-828.341
-6.0446
-391.9
-26.7806
-1048.54
-4.3269
-136.359
-7.96063
-289.482
-390.565
49.2349
-907.146
-431.811
-106.682
-953.723
5.26921
-809.799
-581.257
-1164.39
-1836.49
-2.94764
17.9166
-734.42
-6.61985
-165.248
-317.62
201.207
118.395
-1562.82
-5.80642
-13.969
71.5398
-3151.98
5.51932
-1123.97
119.473
-1439.76
-0.763587
-5.14303
-1390.21
-34.4875
-545.386
-14.3047
142.834
647.538
-2893.1
-189.795
102.656
-1426.7
-153.351
82.667
-2871.16
-209.714
-1278.6
-388.014
-642.094
-2338.65
-82.3022
58.8329
-411.371
-115.724
163.069
-833.485
-91.0066
70.3228
-840.715
147.394
-840.014
128.629
229.578
-1471.3
60.9076
33.5491
-196.477
-102.962
-3.59732
-576.61
-559.387
199.644
-626.619
70.2751
-1292.07
-349.152
125.059
-1328.67
-52.1044
338.196
-1336.11
-320.894
116.277
-168.705
-327.699
120.068
-1476.44
342.264
-613.657
63.9916
-3397.46
-394.247
-413.063
-370.642
-1368.89
-275.397
-59.8313
-1765.64
-76.5834
125.84
-12.991
-473.47
-82.2284
-2413.99
476.249
443.42
-2819.84
59.0155
-17.0768
-2436.85
-20.3501
-1199.23
62.7549
-1173.55
-679.674
-27.8816
1.91267
-404.875
61.186
-15.8405
-463.292
-32.591
37.6204
-801.635
-45.5539
-847.401
-11.2195
-49.0164
-2847.85
-11.5484
257.055
-451.29
65.441
-20.1381
-649.301
-28.8617
-26.0746
-468.622
-62.1775
-1304.31
2.83378
320.592
-1681.34
-281.905
271.729
-1066.05
125.785
178.211
-774.744
-359.41
-262.872
-754.444
-28.7083
-1006.54
-4.71488
-3042.92
15.6368
-130.457
-165.321
-918.837
9.144
-1232.25
-1988.01
64.0741
1.99455
-10.6017
-27.9922
10.8438
-2332.77
-344.475
-147.46
-2355.89
-1169.44
-112.082
-1499.81
333.6
-2702.27
-76.5872
-240.792
-27.4384
-137.169
47.4715
-380.921
-16.7688
106.442
-837.594
-7.04084
30.9781
-954.423
289.771
-810.612
78.0431
-68.7909
-2844.03
89.2707
171.836
-586.882
5.6379
-52.1019
-407.124
-28.2681
115.197
-518.935
182.841
-1225.64
368.677
440.111
-2387.79
-53.8956
-120.789
-350.854
278.559
41.6055
-1200.91
-246.019
326.321
-440.991
225.779
-1295.49
-295.93
-2506.65
206.069
-1071.53
260.166
-929.208
232.54
-1593.88
-1650.3
-93.4765
-0.712447
-59.048
-35.5996
129.872
-2520.51
356.835
167.094
-2915.42
90.3701
-594.387
-638.958
-493.921
-2117.98
-1.65268
652.419
-811.357
166.369
112.008
-531.08
246.831
-19.2922
-731.67
103.191
-633.602
-771.567
249.797
-1451.14
-253.271
706.152
-2473.19
-151.341
-5.57195
-571.232
90.7561
263.975
-932.489
301.712
24.0302
-1387.52
-308.019
-366.116
114.429
394.574
-1871.32
-4.80458
126.424
-363.616
-69.8799
103.692
-975.547
249.678
179.908
-916.426
-173.365
-1180.47
-1174.86
-116.162
-545.353
-1647.78
323.763
-1396.73
-80.6836
-928.117
-1873.87
-214.621
221.847
-85.6332
-1315.83
35.463
-1454.77
-959.786
110.981
-3382.44
0.254371
81.6066
-1680.61
-10.3345
-2107.39
-228.926
358.891
-745.55
-93.7722
72.7597
-703.531
44.2775
118.878
-877.617
-128.279
-306.981
-210.423
-184.096
-1405.66
-131.843
-41.2627
-1942.28
-43.4361
79.6486
-666.527
100.043
200.665
-1157.76
-88.917
15.2416
-1520.79
12.0022
-651.131
-25.383
-84.6293
-1550.46
-47.063
43.1809
-305.469
149.431
47.7135
-1019.09
37.6118
171.187
-960.553
-165.286
-965.57
21.8725
-133.033
-96.6509
-1209.4
52.1818
-1440.78
-221.603
-392.831
-1530.8
236.519
13.2194
-432.352
-73.852
-91.1633
-1053.24
-440.945
59.5806
-3074.93
597.247
155.273
-2874.07
23.4785
-1533.62
-68.8347
-214.145
-43.2558
-133.086
-174.483
-555.96
-173.034
119.836
-897.927
37.4129
-12.5547
-253.042