/*--------------------------------*- C++ -*----------------------------------*\
| =========                 |                                                 |
| \\      /  F ield         | OpenFOAM: The Open Source CFD Toolbox           |
|  \\    /   O peration     | Version:  5.x                                   |
|   \\  /    A nd           | Web:      www.OpenFOAM.org                      |
|    \\/     M anipulation  |                                                 |
\*---------------------------------------------------------------------------*/
FoamFile
{
    version     2.0;
    format      ascii;
    class       volVectorField;
    location    "9000";
    object      U;
}
// * * * * * * * * * * * * * * * * * * * * * * * * * * * * * * * * * * * * * //

dimensions      [0 1 -1 0 0 0 0];

internalField   nonuniform List<vector> 
180
(
(-0.0473754 -0.030389 126.155)
(-0.051148 -0.020728 126.234)
(-0.0555403 0.00230737 126.19)
(-0.0602791 0.0119179 126.171)
(-0.0897174 0.0461852 126.252)
(-0.105417 0.0774884 126.204)
(-0.160759 0.153468 126.237)
(-0.201488 0.211221 126.312)
(-0.21882 0.258379 126.284)
(-0.203354 0.322201 126.359)
(-0.204005 0.320621 126.352)
(-0.191499 0.306508 126.442)
(-0.202611 0.31842 126.421)
(-0.209718 0.337277 126.446)
(-0.211436 0.342424 126.456)
(-0.207449 0.315439 126.551)
(-0.192239 0.13589 126.549)
(-0.194029 0.163402 126.521)
(-0.195269 0.143692 126.56)
(-0.211002 0.16169 126.595)
(-0.225953 0.126018 126.616)
(-0.22983 0.129151 126.622)
(-0.252691 0.100326 126.689)
(-0.238946 0.119928 126.666)
(-0.237238 0.0924088 126.731)
(-0.204908 0.0456016 126.734)
(-0.1699 -0.0164454 126.768)
(-0.173294 0.0283655 126.751)
(-0.169231 0.0577526 126.794)
(-0.0865717 0.0392389 126.777)
(-0.0117018 0.00408116 126.842)
(-0.0548924 0.0353095 126.746)
(-0.0930021 0.276012 126.842)
(-0.0815832 0.289412 126.821)
(-0.0890475 0.372095 126.817)
(-0.0869996 0.631285 126.918)
(-0.0793453 0.704231 126.914)
(-0.0901359 0.701713 126.883)
(-0.0794942 0.747854 126.933)
(-0.107943 0.786222 126.967)
(-0.151287 0.770705 127.039)
(-0.142395 0.735844 126.984)
(-0.145483 0.728711 126.956)
(-0.26803 0.656023 127.059)
(-0.351657 0.486154 127.04)
(-0.332655 0.429813 126.945)
(-0.390823 0.384519 127.056)
(-0.413533 0.404719 126.992)
(-0.411117 0.375172 127.001)
(-0.411586 0.371857 127.006)
(-0.412006 0.367109 126.986)
(-0.401887 0.348723 127.018)
(-0.401807 0.33588 126.978)
(-0.417235 0.350173 127.003)
(-0.46965 0.311399 127.013)
(-0.514525 0.273649 127.039)
(-0.54879 0.216867 127.059)
(-0.577412 0.188682 127.106)
(-0.597109 0.159118 127.116)
(-0.665051 0.0628709 127.217)
(-0.683965 0.0458702 127.163)
(-0.67735 0.049357 127.199)
(-0.653787 0.0456055 127.224)
(-0.610262 0.241322 127.347)
(-0.661337 0.220634 127.276)
(-0.670162 0.465413 127.36)
(-0.704047 0.668611 127.471)
(-0.726109 0.676128 127.417)
(-0.756649 0.735162 127.485)
(-0.769989 0.73226 127.559)
(-0.805769 0.724529 127.515)
(-0.849855 0.71526 127.548)
(-0.829715 0.52839 127.562)
(-0.832461 0.313201 127.525)
(-0.880909 0.221854 127.488)
(-0.916671 0.218169 127.417)
(-0.924563 0.200302 127.433)
(-0.956887 0.0979869 127.391)
(-0.994321 0.0743289 127.322)
(-1.02491 0.0244516 127.285)
(-1.23364 -0.118026 127.219)
(-1.35822 -0.212458 127.17)
(-1.47416 -0.223753 127.097)
(-1.56052 -0.248451 127.072)
(-1.86992 -0.373324 126.911)
(-2.11298 -0.484627 126.792)
(-2.16403 -0.54631 126.555)
(-2.42041 -0.528877 126.387)
(-3.02069 -0.479078 126.029)
(-3.54562 -0.544316 125.564)
(-3.81696 -0.578921 125.35)
(-3.97066 -0.577066 124.87)
(-4.13872 -0.532508 124.491)
(-4.09395 -0.594284 123.887)
(-4.04929 -0.722468 123.499)
(-4.11316 -0.586352 123.059)
(-3.70031 -0.758545 122.435)
(-3.54126 -0.946931 122.016)
(-3.12525 -1.0397 121.486)
(-2.94645 -1.03475 120.806)
(-2.84672 -1.11295 120.385)
(-2.69856 -1.10239 119.834)
(-2.14092 -0.966099 119.018)
(-1.91486 -1.08696 118.691)
(-1.58049 -1.01771 118.029)
(-1.27965 -0.927287 117.351)
(-1.08444 -0.900622 116.823)
(-1.1018 -0.944994 116.167)
(-0.889068 -0.80634 115.672)
(-0.489528 -0.526616 114.879)
(-0.438817 0.228252 114.385)
(-0.879625 0.890724 113.845)
(-1.52444 1.50282 113.357)
(-2.39086 1.6966 112.979)
(-3.13271 1.8176 112.67)
(-3.90401 1.52768 112.552)
(-4.44442 1.21911 112.413)
(-4.95256 0.560621 112.469)
(-5.22784 -0.0570379 112.481)
(-5.47299 -0.769097 112.623)
(-5.53357 -1.32372 112.688)
(-5.59482 -1.78472 112.911)
(-5.54268 -1.99038 113.019)
(-5.51536 -2.04653 113.324)
(-5.4249 -1.95445 113.533)
(-5.3888 -1.73799 113.898)
(-5.33243 -1.40284 114.165)
(-5.32346 -0.922361 114.597)
(-5.31935 -0.380449 114.948)
(-5.36111 0.209628 115.442)
(-5.42362 0.828927 115.861)
(-5.5316 1.54994 116.413)
(-5.6651 2.26563 116.904)
(-5.8314 3.09641 117.524)
(-6.01694 3.85728 118.065)
(-6.23645 4.60905 118.8)
(-6.4655 5.18373 119.422)
(-6.75449 5.7448 120.265)
(-7.06895 6.14667 120.918)
(-7.5202 6.58449 121.829)
(-8.05147 6.9049 122.488)
(-8.79159 7.40998 123.439)
(-9.67 7.96675 124.115)
(-10.8281 8.75702 125.086)
(-12.0869 9.56078 125.856)
(-13.6615 10.7043 126.864)
(-15.1971 11.7833 127.827)
(-17.0392 13.1273 128.899)
(-18.7274 14.1822 130.129)
(-20.6422 15.4277 131.288)
(-22.2532 16.2362 132.742)
(-23.9642 17.159 133.923)
(-25.2991 17.5749 135.479)
(-26.5917 18.047 136.644)
(-27.5255 18.0379 138.186)
(-28.2971 18.078 139.32)
(-28.7773 17.657 140.763)
(-29.0516 17.3491 141.823)
(-29.1321 16.6473 143.091)
(-29.0732 16.0019 144.014)
(-28.8446 15.3254 145.12)
(-28.6772 14.4117 145.871)
(-28.3647 13.7747 146.767)
(-28.1784 12.9568 147.537)
(-27.8702 12.5241 147.98)
(-27.8388 11.6936 149.066)
(-27.5792 11.6828 149.032)
(-27.68 11.3311 149.698)
(-27.4886 11.2609 150.111)
(-28.1882 10.9413 150.437)
(-28.5574 11.3667 150.856)
(-29.9762 11.4186 150.853)
(-30.6321 12.7991 151.292)
(-31.9951 13.4483 151.179)
(-32.5635 15.4484 151.67)
(-33.2905 16.557 151.46)
(-33.4523 18.7545 151.976)
(-33.2786 20.1566 151.925)
(-32.6333 21.3829 152.344)
(-31.5985 21.0631 152.063)
)
;

boundaryField
{
    inlet
    {
        type            zeroGradient;
    }
    outlet
    {
        type            zeroGradient;
    }
    repeat_boundary
    {
        type            slip;
    }
    procBoundary2to0
    {
        type            processor;
        value           nonuniform List<vector> 
180
(
(-0.0784824 -0.0302707 123.496)
(-0.0805091 -0.0204116 123.535)
(-0.085382 0.00310373 123.502)
(-0.0938153 0.0129126 123.511)
(-0.0841625 0.0191422 123.534)
(-0.076673 0.0324483 123.542)
(-0.109762 0.059991 123.523)
(-0.120654 0.107898 123.537)
(-0.255213 0.0336613 123.529)
(-0.407657 0.00495567 123.554)
(-0.729626 -0.113787 123.543)
(-0.905981 -0.131676 123.624)
(-0.960698 -0.130231 123.653)
(-1.05666 -0.0774523 123.714)
(-1.35865 -0.167253 123.879)
(-1.52261 -0.211 123.943)
(-1.57604 -0.205709 124.055)
(-1.76066 -0.128571 124.304)
(-1.8281 -0.073007 124.417)
(-1.97289 -0.0551531 124.646)
(-2.0086 -0.0304555 124.749)
(-2.03643 -0.0351255 124.828)
(-2.18759 -0.0183086 125.139)
(-2.19449 0.00783682 125.148)
(-2.27318 0.0506913 125.253)
(-2.30868 0.0363486 125.347)
(-2.25325 0.0552166 125.406)
(-2.10481 0.00523071 125.545)
(-2.07071 0.0586594 125.473)
(-2.06426 0.0638016 125.46)
(-1.87535 0.0646259 125.572)
(-1.68565 0.0837955 125.503)
(-1.53355 0.144648 125.483)
(-1.43217 0.177434 125.399)
(-1.39414 0.155812 125.325)
(-1.40614 0.0572268 125.228)
(-1.42476 -0.217083 125.098)
(-1.37953 -0.345254 125.023)
(-1.36341 -0.372163 124.939)
(-1.33149 -0.45736 124.867)
(-1.27742 -0.63655 124.717)
(-1.18337 -0.79845 124.641)
(-1.13395 -0.956313 124.566)
(-1.14657 -1.00201 124.496)
(-1.17696 -1.01799 124.439)
(-1.05261 -0.976362 124.377)
(-0.9639 -0.958868 124.301)
(-0.828014 -0.939498 124.2)
(-0.716116 -0.925918 124.132)
(-0.5779 -0.88548 124.044)
(-0.44504 -0.832181 123.952)
(-0.232046 -0.749432 123.804)
(-0.18191 -0.775893 123.715)
(-0.0236939 -0.590344 123.558)
(0.0864478 -0.54911 123.45)
(0.312137 -0.273202 123.267)
(0.395287 -0.226397 123.083)
(0.417048 -0.227113 122.974)
(0.505277 -0.102957 122.799)
(0.490506 -0.136964 122.57)
(0.49392 -0.166513 122.466)
(0.515277 -0.135048 122.349)
(0.583102 -0.0956615 122.16)
(0.586132 -0.125013 121.987)
(0.570113 -0.141268 121.895)
(0.501868 -0.252953 121.722)
(0.447612 -0.325684 121.552)
(0.314345 -0.544298 121.334)
(0.30674 -0.545391 121.274)
(0.192848 -0.761079 121.109)
(0.0638991 -0.958781 120.992)
(0.0284424 -0.984261 120.88)
(-0.0724014 -1.12352 120.852)
(-0.136052 -1.1823 120.767)
(-0.155081 -1.19291 120.707)
(-0.245148 -1.23676 120.743)
(-0.267576 -1.2175 120.673)
(-0.332417 -1.30216 120.708)
(-0.545669 -1.5235 120.621)
(-0.95222 -2.03365 120.796)
(-0.975358 -2.06324 120.768)
(-1.03089 -2.13046 120.839)
(-1.16616 -2.26516 120.99)
(-1.35432 -2.50684 121.139)
(-1.37331 -2.55671 121.104)
(-1.48908 -2.78397 121.412)
(-1.54657 -2.79784 121.443)
(-1.59584 -2.9391 121.594)
(-1.70553 -3.06086 121.846)
(-1.81822 -3.26229 121.939)
(-1.89297 -3.40096 122.195)
(-2.03589 -3.55261 122.366)
(-2.14178 -3.78008 122.596)
(-2.17784 -3.91619 122.844)
(-2.20588 -3.93185 123.117)
(-2.21107 -3.86917 123.307)
(-2.28202 -3.99847 123.576)
(-2.31709 -4.16684 123.869)
(-2.47376 -4.43639 124.16)
(-2.57824 -4.6241 124.498)
(-2.68069 -4.67354 124.778)
(-2.50144 -4.72595 125.192)
(-2.4588 -4.78471 125.499)
(-2.47591 -4.86118 125.841)
(-2.58142 -5.00948 126.209)
(-2.61097 -5.06951 126.558)
(-2.50164 -5.15545 126.907)
(-2.4315 -5.30996 127.297)
(-2.42598 -5.42577 127.577)
(-2.56937 -5.61153 128.024)
(-2.66562 -5.67615 128.341)
(-2.72837 -5.73163 128.574)
(-2.6983 -5.77588 128.898)
(-2.69236 -5.74064 129.083)
(-2.80121 -5.70049 129.283)
(-2.85523 -5.68667 129.289)
(-2.77426 -5.43974 129.528)
(-2.66367 -5.07645 129.583)
(-2.76778 -4.7749 129.652)
(-2.80881 -4.55614 129.78)
(-2.84909 -4.51235 129.796)
(-2.88066 -4.29328 129.942)
(-3.13908 -3.73946 130.057)
(-3.50598 -3.47504 130.105)
(-3.54087 -3.44573 130.046)
(-3.5283 -3.38091 130.117)
(-3.52371 -3.10242 130.06)
(-3.47328 -2.92828 129.948)
(-3.69051 -2.78286 129.678)
(-3.75647 -2.51375 129.425)
(-3.89672 -2.30193 128.983)
(-3.91185 -1.89592 128.421)
(-3.75355 -1.7036 127.927)
(-4.01975 -1.38175 127.09)
(-5.41429 -0.69303 126.298)
(-7.81757 0.264041 125.234)
(-10.0671 0.849285 124.661)
(-13.632 1.77 123.434)
(-15.2999 2.01581 123.233)
(-19.9881 2.83549 122.016)
(-21.6739 2.95143 121.758)
(-23.0345 3.135 121.392)
(-24.7548 3.16038 120.609)
(-25.4861 3.06184 120.149)
(-26.5075 3.02439 119.722)
(-26.8339 2.95894 119.094)
(-27.4532 2.97979 118.767)
(-30.0419 3.28522 117.789)
(-33.2947 3.36286 117.484)
(-36.4083 3.34246 116.872)
(-39.1044 2.92821 116.652)
(-41.1749 2.4858 116.182)
(-42.7057 1.8161 116.051)
(-43.7039 1.23743 115.739)
(-44.2467 0.530493 115.659)
(-44.448 -0.0491903 115.482)
(-44.3246 -0.761226 115.381)
(-44.0227 -1.37134 115.415)
(-43.4522 -1.99699 115.284)
(-42.8441 -2.66762 115.487)
(-42.0731 -3.21997 115.549)
(-41.199 -3.82099 115.733)
(-40.2748 -4.34066 116.116)
(-39.4895 -4.88743 116.4)
(-38.6073 -5.44183 116.9)
(-37.9955 -5.8291 117.433)
(-37.3836 -6.33958 118.022)
(-36.8755 -6.82784 118.654)
(-36.4289 -7.35158 119.366)
(-36.0495 -7.7782 120.089)
(-35.5418 -8.28996 120.701)
(-35.1785 -8.79058 121.558)
(-34.7181 -9.22008 122.095)
(-34.2227 -9.59923 122.667)
(-33.6109 -10.0817 123.238)
(-33.1734 -10.4449 123.511)
(-32.5113 -10.8134 123.795)
(-32.3453 -11.0705 123.864)
(-31.6575 -11.6544 124.062)
(-31.4529 -11.8139 123.949)
)
;
    }
    procBoundary2to3
    {
        type            processor;
        value           nonuniform List<vector> 
180
(
(-0.0435138 -0.00220214 123.021)
(-0.0439727 0.00754921 123.027)
(-0.0562368 0.0251299 123.061)
(-0.0642935 0.0499468 123.015)
(-0.0636651 0.0636897 123.009)
(-0.0885203 0.0854786 123.045)
(-0.123708 0.103418 123.01)
(-0.147092 0.189801 123.031)
(-0.14129 0.227982 123.02)
(-0.145519 0.244585 123.021)
(-0.153969 0.276326 123.02)
(-0.0790245 0.447751 123.084)
(-0.110748 0.601868 123.117)
(-0.133893 0.684221 123.127)
(-0.135067 0.71612 123.181)
(-0.12429 0.687124 123.228)
(-0.100612 0.899984 123.37)
(-0.109 1.14477 123.463)
(-0.128682 1.21675 123.468)
(-0.128667 1.34524 123.712)
(-0.149133 1.58458 123.778)
(-0.137903 1.63735 123.872)
(-0.143705 1.65001 123.998)
(-0.169449 1.62704 124.111)
(-0.165823 1.64306 124.194)
(-0.142032 1.667 124.223)
(-0.0740243 1.83546 124.341)
(-0.0281351 1.94982 124.425)
(-0.0244943 1.96295 124.429)
(0.018449 1.99982 124.445)
(0.117568 1.99281 124.587)
(0.156963 1.92198 124.704)
(0.138627 1.83811 124.628)
(0.166978 1.85663 124.66)
(0.215937 1.97158 124.721)
(0.205573 1.94521 124.771)
(0.14534 1.69147 124.807)
(0.080895 1.45881 124.781)
(0.0148711 1.35528 124.782)
(-0.0566769 1.22363 124.783)
(-0.0324057 1.14876 124.666)
(-0.0579277 1.13659 124.68)
(-0.188099 1.02105 124.673)
(-0.18322 0.977354 124.554)
(-0.158304 0.960105 124.495)
(-0.172621 0.93531 124.478)
(-0.205531 0.746276 124.376)
(-0.118303 0.63774 124.248)
(-0.0561606 0.467084 124.212)
(0.0331106 0.313868 124.087)
(-0.00648426 0.0900726 123.996)
(-0.0288952 -0.0991369 123.877)
(-0.0256652 -0.162688 123.743)
(-0.00444849 -0.20955 123.699)
(-0.0479736 -0.478468 123.542)
(-0.0941272 -0.75897 123.385)
(-0.0842054 -0.870217 123.308)
(-0.0999791 -0.912956 123.154)
(-0.0174649 -0.890678 123.041)
(-0.0353146 -1.06291 122.932)
(-0.0579098 -1.11882 122.765)
(-0.0152827 -1.14193 122.702)
(0.0174177 -1.16616 122.554)
(-0.0103756 -1.23397 122.397)
(-0.0486264 -1.28133 122.322)
(-0.0224296 -1.33024 122.144)
(0.137388 -1.32954 122.012)
(0.166072 -1.36299 121.895)
(0.273782 -1.35249 121.812)
(0.277882 -1.35963 121.661)
(0.375035 -1.40148 121.539)
(0.52282 -1.55787 121.429)
(0.640861 -1.69697 121.273)
(0.749532 -1.89303 121.181)
(0.725536 -2.04288 121.024)
(0.637002 -2.17424 120.865)
(0.596478 -2.4142 120.656)
(0.509807 -2.59481 120.525)
(0.453634 -2.81361 120.24)
(0.400671 -3.01809 120.011)
(0.273581 -3.18247 119.739)
(0.176861 -3.22339 119.437)
(0.207143 -2.97606 119.054)
(0.606544 -2.55906 118.744)
(1.37983 -1.96736 118.404)
(2.41633 -1.3571 118.136)
(3.61478 -0.632773 117.952)
(4.74459 0.115459 117.796)
(5.89691 0.81039 117.797)
(6.86986 1.53626 117.77)
(7.78227 2.11272 117.871)
(8.41156 2.71403 117.983)
(8.82861 3.18237 118.143)
(9.16215 3.48232 118.392)
(9.15074 3.74596 118.544)
(9.12768 3.985 118.891)
(9.09459 4.13303 119.058)
(8.9237 4.29555 119.361)
(8.64711 4.4268 119.686)
(8.40665 4.47092 119.92)
(8.32808 4.53171 120.319)
(8.17624 4.47142 120.526)
(8.03818 4.52923 120.996)
(7.64631 4.46521 121.205)
(7.45258 4.49308 121.725)
(7.28668 4.4507 121.87)
(7.02588 4.44877 122.566)
(7.01613 4.42577 122.654)
(6.67519 4.26216 123.18)
(6.4034 4.08476 123.644)
(6.24016 4.0041 123.998)
(6.21896 3.90334 124.369)
(5.84898 3.7424 124.722)
(5.0261 2.57624 124.986)
(3.54516 0.85425 124.861)
(2.39218 -1.01273 124.643)
(0.923409 -2.5081 123.912)
(-0.0248625 -3.52707 123.242)
(-1.24154 -3.78988 122.063)
(-2.0073 -3.37172 121.096)
(-3.0023 -2.26703 119.765)
(-3.69079 -0.621753 118.685)
(-4.48683 1.4398 117.365)
(-5.07099 3.83221 116.272)
(-5.60549 6.47889 115.113)
(-5.97623 9.19904 114.15)
(-6.21264 12.0141 113.166)
(-6.29858 14.7739 112.441)
(-6.26184 17.4649 111.587)
(-6.04936 20.07 111.018)
(-5.73457 22.5494 110.353)
(-5.26009 24.8113 109.972)
(-4.72525 26.9387 109.455)
(-4.06751 28.989 109.215)
(-3.38481 30.9103 108.905)
(-2.60708 32.7587 108.805)
(-1.83195 34.4928 108.681)
(-0.925976 36.1218 108.738)
(-0.0379649 37.5762 108.873)
(0.9742 39.1902 109.079)
(1.97878 40.5341 109.395)
(3.09258 42.0307 109.714)
(4.21089 43.226 110.202)
(5.42821 44.5435 110.613)
(6.66849 45.6193 111.255)
(7.99236 46.6849 111.645)
(9.36033 47.5081 112.454)
(10.7351 48.3715 112.749)
(12.2301 48.9805 113.713)
(13.5452 49.604 113.855)
(15.1382 49.9447 114.896)
(16.2376 50.1941 114.916)
(17.8512 50.3155 115.913)
(18.6237 50.0136 115.878)
(19.8347 49.7681 116.763)
(20.2715 49.068 116.636)
(21.2679 48.3599 117.47)
(21.3819 46.9488 117.163)
(22.3917 45.1676 118.05)
(22.0635 42.7596 117.583)
(22.7073 40.0462 118.226)
(22.1821 36.5712 117.729)
(22.5945 32.6867 118.075)
(22.143 28.048 117.438)
(22.5292 23.139 117.465)
(22.3637 17.8951 116.59)
(22.8655 12.6394 116.269)
(23.205 7.59621 115.065)
(24.0577 2.71567 114.405)
(25.0868 -1.357 112.852)
(26.4718 -5.01022 111.856)
(28.2234 -7.59223 110.173)
(30.0177 -8.90182 108.764)
(32.1699 -9.50538 107.548)
(33.7435 -8.09125 105.533)
(35.6725 -6.71387 105.464)
(36.6199 -2.48442 102.94)
(37.9153 -0.0870429 103.87)
(38.3676 2.70929 102.064)
(39.1068 4.43982 102.899)
)
;
    }
}


// ************************************************************************* //
