/*--------------------------------*- C++ -*----------------------------------*\
| =========                 |                                                 |
| \\      /  F ield         | OpenFOAM: The Open Source CFD Toolbox           |
|  \\    /   O peration     | Version:  5.x                                   |
|   \\  /    A nd           | Web:      www.OpenFOAM.org                      |
|    \\/     M anipulation  |                                                 |
\*---------------------------------------------------------------------------*/
FoamFile
{
    version     2.0;
    format      ascii;
    class       volScalarField;
    location    "200";
    object      p;
}
// * * * * * * * * * * * * * * * * * * * * * * * * * * * * * * * * * * * * * //

dimensions      [0 2 -2 0 0 0 0];

internalField   nonuniform List<scalar> 
90
(
0.126419
0.373112
0.614994
0.854851
1.09214
1.32932
1.56566
1.80166
2.03722
2.27246
2.50736
2.7419
2.97605
3.20979
3.44303
3.67573
3.90781
4.139
4.36844
4.59553
4.82024
5.04218
5.26067
5.47476
5.68335
5.88516
6.07884
6.263
6.43661
6.59877
6.74967
6.89132
7.02705
7.15767
7.28277
7.40181
7.5155
7.62756
7.74661
7.8844
8.04341
8.19555
8.31164
8.37882
8.36993
8.22593
7.9397
7.70142
7.67033
7.82283
8.10846
8.42143
8.69571
8.89925
9.01479
9.02419
8.88842
8.57747
8.07463
7.37984
6.50984
5.49173
4.33733
3.23146
2.35886
1.41142
0.215564
-0.343235
-0.699156
-0.89353
-1.43626
-3.03683
-4.61905
-6.08434
-7.1827
-7.72369
-7.60366
-6.83537
-5.54436
-3.9319
-2.31472
-0.932338
0.0806444
0.645811
0.776683
0.620719
0.36631
-0.0772148
-1.03464
-2.36137
)
;

boundaryField
{
    inlet
    {
        type            zeroGradient;
    }
    outlet
    {
        type            fixedValue;
        value           uniform 0;
    }
    repeat_boundary
    {
        type            zeroGradient;
    }
    procBoundary2to0
    {
        type            processor;
        value           nonuniform List<scalar> 
90
(
0.121022
0.369322
0.623296
0.86872
1.10482
1.33976
1.57452
1.80923
2.04364
2.2778
2.51167
2.74519
2.97823
3.21057
3.44194
3.67207
3.90054
4.127
4.35167
4.57413
4.79306
5.00722
5.21534
5.41597
5.60742
5.78772
5.95436
6.10622
6.23984
6.34893
6.42782
6.48502
6.56407
6.69137
6.8511
7.03158
7.22267
7.41195
7.58362
7.71781
7.80051
7.83584
7.81365
7.70422
7.4934
7.20221
6.88107
6.54131
6.13381
5.64209
5.11351
4.5813
4.03434
3.46344
2.88266
2.29703
1.68674
1.03052
0.320214
-0.422046
-1.13982
-1.748
-2.17004
-2.42541
-2.63536
-2.86776
-3.10411
-3.34306
-3.6128
-3.8838
-4.20555
-4.51589
-4.77202
-4.89367
-4.81533
-4.50543
-3.98187
-3.34099
-2.73768
-2.29854
-2.07565
-1.99985
-1.99141
-2.01066
-2.0128
-1.9753
-1.90357
-1.89357
-2.09092
-2.45882
)
;
    }
    procBoundary2to3
    {
        type            processor;
        value           nonuniform List<scalar> 
90
(
0.122975
0.371548
0.626766
0.873197
1.10896
1.34291
1.57683
1.81124
2.04574
2.28045
2.51531
2.75031
2.98541
3.22054
3.45567
3.69076
3.92581
4.16072
4.39543
4.62985
4.86373
5.09638
5.32723
5.55616
5.78274
6.00621
6.2256
6.43975
6.64745
6.84744
7.03853
7.21973
7.39038
7.55016
7.69942
7.83961
7.97386
8.10791
8.25061
8.41286
8.60449
8.831
9.08826
9.36539
9.64988
9.92172
10.1428
10.2727
10.2885
10.1709
9.88976
9.43546
8.82989
8.09068
7.2394
6.33837
5.48554
4.75501
4.15912
3.66685
3.21234
2.72944
2.1826
1.56282
0.892622
0.158806
-0.741073
-1.90625
-3.22107
-4.482
-5.76705
-7.27455
-8.59079
-9.08488
-8.81529
-8.02078
-6.84369
-5.56338
-4.56535
-3.96822
-3.49691
-3.041
-2.87844
-3.24674
-4.07078
-5.20536
-6.536
-7.94994
-8.86994
-8.94523
)
;
    }
}


// ************************************************************************* //
