/*--------------------------------*- C++ -*----------------------------------*\
| =========                 |                                                 |
| \\      /  F ield         | OpenFOAM: The Open Source CFD Toolbox           |
|  \\    /   O peration     | Version:  5.x                                   |
|   \\  /    A nd           | Web:      www.OpenFOAM.org                      |
|    \\/     M anipulation  |                                                 |
\*---------------------------------------------------------------------------*/
FoamFile
{
    version     2.0;
    format      ascii;
    class       volVectorField;
    location    "200";
    object      stored_U;
}
// * * * * * * * * * * * * * * * * * * * * * * * * * * * * * * * * * * * * * //

dimensions      [0 1 -1 0 0 0 0];

internalField   nonuniform List<vector> 
90
(
(0.00496493 0.00099661 -1.31761)
(0.00455496 0.00411897 -1.32415)
(0.00406579 0.0100791 -1.32153)
(0.00445083 0.0158848 -1.32564)
(0.00555514 0.0216634 -1.32316)
(0.0071221 0.027161 -1.32332)
(0.00895784 0.0324849 -1.32126)
(0.0109327 0.0376306 -1.31933)
(0.0130894 0.0426728 -1.3166)
(0.0154021 0.0475039 -1.31342)
(0.0178902 0.052162 -1.30968)
(0.0205554 0.0566612 -1.30541)
(0.023416 0.061069 -1.3006)
(0.0265061 0.0654659 -1.29523)
(0.0298833 0.0699452 -1.28928)
(0.0336449 0.0746163 -1.28271)
(0.0379292 0.0795954 -1.2755)
(0.0429253 0.085023 -1.26755)
(0.0488869 0.0910787 -1.25887)
(0.0560665 0.0980469 -1.24933)
(0.0647259 0.106258 -1.23882)
(0.0751372 0.116148 -1.2273)
(0.087455 0.128103 -1.21472)
(0.101745 0.142336 -1.20018)
(0.118236 0.159073 -1.18389)
(0.136976 0.178457 -1.16547)
(0.157862 0.200462 -1.14474)
(0.180586 0.224849 -1.12152)
(0.204675 0.251105 -1.09583)
(0.229506 0.278368 -1.06784)
(0.254318 0.305528 -1.038)
(0.278265 0.330875 -1.00683)
(0.300457 0.35264 -0.975863)
(0.320242 0.369367 -0.946021)
(0.337401 0.380861 -0.918417)
(0.351766 0.387582 -0.892599)
(0.362583 0.387469 -0.870646)
(0.369161 0.376485 -0.85569)
(0.371025 0.348828 -0.851877)
(0.369546 0.2984 -0.865188)
(0.369364 0.219883 -0.904947)
(0.378852 0.110139 -0.979433)
(0.40911 -0.0309255 -1.09526)
(0.470974 -0.200587 -1.27705)
(0.567144 -0.376022 -1.5431)
(0.695634 -0.497235 -1.87113)
(0.852357 -0.50531 -2.25307)
(1.03525 -0.382559 -2.67887)
(1.23322 -0.193049 -3.14862)
(1.41561 -0.0212115 -3.61029)
(1.56981 0.156966 -4.01689)
(1.69274 0.410817 -4.47714)
(1.73854 0.67845 -4.92235)
(1.6848 0.956133 -5.381)
(1.5022 1.1983 -5.81777)
(1.19035 1.39067 -6.24294)
(0.789997 1.51935 -6.6306)
(0.372914 1.59713 -6.99093)
(0.0280645 1.63817 -7.31201)
(-0.171326 1.66436 -7.60594)
(-0.203418 1.71206 -7.87443)
(-0.132409 1.82097 -8.13124)
(-0.00212856 1.92349 -8.37019)
(0.159778 1.94955 -8.56942)
(0.24866 1.94275 -8.72205)
(0.3766 1.89649 -8.915)
(0.667858 1.70325 -9.09206)
(0.883177 1.50867 -9.19314)
(0.900692 1.57161 -9.37897)
(0.860141 1.70729 -9.74751)
(0.913962 1.40258 -9.87384)
(0.903274 1.21885 -10.1108)
(0.867476 1.01211 -10.295)
(0.774829 0.850821 -10.4458)
(0.704437 0.667919 -10.5497)
(0.592047 0.51129 -10.6052)
(0.498939 0.357203 -10.6073)
(0.376128 0.214323 -10.5957)
(0.258458 0.0783836 -10.5838)
(0.119851 -0.0455737 -10.5673)
(-0.0123247 -0.133248 -10.5776)
(-0.140033 -0.20537 -10.606)
(-0.249286 -0.25012 -10.6869)
(-0.353802 -0.282326 -10.7993)
(-0.449649 -0.308915 -10.9516)
(-0.542647 -0.330809 -11.1138)
(-0.65613 -0.36362 -11.2772)
(-0.775927 -0.396249 -11.4476)
(-0.87877 -0.419012 -11.6468)
(-0.920535 -0.431871 -11.7528)
)
;

boundaryField
{
    inlet
    {
        type            calculated;
        value           uniform (-0.920535 -0.431871 -11.7528);
    }
    outlet
    {
        type            calculated;
        value           uniform (0.00496493 0.00099661 -1.31761);
    }
    repeat_boundary
    {
        type            calculated;
        value           nonuniform List<vector> 
180
(
(0.00496493 0 -1.31761)
(0.00455496 0 -1.32415)
(0.00406579 0 -1.32153)
(0.00445083 0 -1.32564)
(0.00555514 0 -1.32316)
(0.0071221 0 -1.32332)
(0.00895784 0 -1.32126)
(0.0109327 0 -1.31933)
(0.0130894 0 -1.3166)
(0.0154021 0 -1.31342)
(0.0178902 0 -1.30968)
(0.0205554 0 -1.30541)
(0.023416 0 -1.3006)
(0.0265061 0 -1.29523)
(0.0298833 0 -1.28928)
(0.0336449 0 -1.28271)
(0.0379292 0 -1.2755)
(0.0429253 0 -1.26755)
(0.0488869 0 -1.25887)
(0.0560665 0 -1.24933)
(0.0647259 0 -1.23882)
(0.0751372 0 -1.2273)
(0.087455 0 -1.21472)
(0.101745 0 -1.20018)
(0.118236 0 -1.18389)
(0.136976 0 -1.16547)
(0.157862 0 -1.14474)
(0.180586 0 -1.12152)
(0.204675 0 -1.09583)
(0.229506 0 -1.06784)
(0.254318 0 -1.038)
(0.278265 0 -1.00683)
(0.300457 0 -0.975863)
(0.320242 0 -0.946021)
(0.337401 0 -0.918417)
(0.351766 0 -0.892599)
(0.362583 0 -0.870646)
(0.369161 0 -0.85569)
(0.371025 0 -0.851877)
(0.369546 0 -0.865188)
(0.369364 0 -0.904947)
(0.378852 0 -0.979433)
(0.40911 0 -1.09526)
(0.470974 0 -1.27705)
(0.567144 0 -1.5431)
(0.695634 0 -1.87113)
(0.852357 0 -2.25307)
(1.03525 0 -2.67887)
(1.23322 0 -3.14862)
(1.41561 0 -3.61029)
(1.56981 0 -4.01689)
(1.69274 0 -4.47714)
(1.73854 0 -4.92235)
(1.6848 0 -5.381)
(1.5022 0 -5.81777)
(1.19035 0 -6.24294)
(0.789997 0 -6.6306)
(0.372914 0 -6.99093)
(0.0280645 0 -7.31201)
(-0.171326 0 -7.60594)
(-0.203418 0 -7.87443)
(-0.132409 0 -8.13124)
(-0.00212856 0 -8.37019)
(0.159778 0 -8.56942)
(0.24866 0 -8.72205)
(0.3766 0 -8.915)
(0.667858 0 -9.09206)
(0.883177 0 -9.19314)
(0.900692 0 -9.37897)
(0.860141 0 -9.74751)
(0.913962 0 -9.87384)
(0.903274 0 -10.1108)
(0.867476 0 -10.295)
(0.774829 0 -10.4458)
(0.704437 0 -10.5497)
(0.592047 0 -10.6052)
(0.498939 0 -10.6073)
(0.376128 0 -10.5957)
(0.258458 0 -10.5838)
(0.119851 0 -10.5673)
(-0.0123247 0 -10.5776)
(-0.140033 0 -10.606)
(-0.249286 0 -10.6869)
(-0.353802 0 -10.7993)
(-0.449649 0 -10.9516)
(-0.542647 0 -11.1138)
(-0.65613 0 -11.2772)
(-0.775927 0 -11.4476)
(-0.87877 0 -11.6468)
(-0.920535 0 -11.7528)
(0 0.00099661 -1.31761)
(0 0.00411897 -1.32415)
(0 0.0100791 -1.32153)
(0 0.0158848 -1.32564)
(0 0.0216634 -1.32316)
(0 0.027161 -1.32332)
(0 0.0324849 -1.32126)
(0 0.0376306 -1.31933)
(0 0.0426728 -1.3166)
(0 0.0475039 -1.31342)
(0 0.052162 -1.30968)
(0 0.0566612 -1.30541)
(0 0.061069 -1.3006)
(0 0.0654659 -1.29523)
(0 0.0699452 -1.28928)
(0 0.0746163 -1.28271)
(0 0.0795954 -1.2755)
(0 0.085023 -1.26755)
(0 0.0910787 -1.25887)
(0 0.0980469 -1.24933)
(0 0.106258 -1.23882)
(0 0.116148 -1.2273)
(0 0.128103 -1.21472)
(0 0.142336 -1.20018)
(0 0.159073 -1.18389)
(0 0.178457 -1.16547)
(0 0.200462 -1.14474)
(0 0.224849 -1.12152)
(0 0.251105 -1.09583)
(0 0.278368 -1.06784)
(0 0.305528 -1.038)
(0 0.330875 -1.00683)
(0 0.35264 -0.975863)
(0 0.369367 -0.946021)
(0 0.380861 -0.918417)
(0 0.387582 -0.892599)
(0 0.387469 -0.870646)
(0 0.376485 -0.85569)
(0 0.348828 -0.851877)
(0 0.2984 -0.865188)
(0 0.219883 -0.904947)
(0 0.110139 -0.979433)
(0 -0.0309255 -1.09526)
(0 -0.200587 -1.27705)
(0 -0.376022 -1.5431)
(0 -0.497235 -1.87113)
(0 -0.50531 -2.25307)
(0 -0.382559 -2.67887)
(0 -0.193049 -3.14862)
(0 -0.0212115 -3.61029)
(0 0.156966 -4.01689)
(0 0.410817 -4.47714)
(0 0.67845 -4.92235)
(0 0.956133 -5.381)
(0 1.1983 -5.81777)
(0 1.39067 -6.24294)
(0 1.51935 -6.6306)
(0 1.59713 -6.99093)
(0 1.63817 -7.31201)
(0 1.66436 -7.60594)
(0 1.71206 -7.87443)
(0 1.82097 -8.13124)
(0 1.92349 -8.37019)
(0 1.94955 -8.56942)
(0 1.94275 -8.72205)
(0 1.89649 -8.915)
(0 1.70325 -9.09206)
(0 1.50867 -9.19314)
(0 1.57161 -9.37897)
(0 1.70729 -9.74751)
(0 1.40258 -9.87384)
(0 1.21885 -10.1108)
(0 1.01211 -10.295)
(0 0.850821 -10.4458)
(0 0.667919 -10.5497)
(0 0.51129 -10.6052)
(0 0.357203 -10.6073)
(0 0.214323 -10.5957)
(0 0.0783836 -10.5838)
(0 -0.0455737 -10.5673)
(0 -0.133248 -10.5776)
(0 -0.20537 -10.606)
(0 -0.25012 -10.6869)
(0 -0.282326 -10.7993)
(0 -0.308915 -10.9516)
(0 -0.330809 -11.1138)
(0 -0.36362 -11.2772)
(0 -0.396249 -11.4476)
(0 -0.419012 -11.6468)
(0 -0.431871 -11.7528)
)
;
    }
    procBoundary2to0
    {
        type            processor;
        value           nonuniform List<vector> 
90
(
(0.00493871 -0.0190953 -1.14367)
(0.00529999 -0.0171889 -1.1468)
(0.00591449 -0.014328 -1.14202)
(0.006901 -0.0107022 -1.14716)
(0.00807041 -0.00717678 -1.14735)
(0.00964499 -0.00316301 -1.15213)
(0.0113336 0.00066882 -1.15685)
(0.0132225 0.0046587 -1.16277)
(0.0154764 0.00912336 -1.17044)
(0.0180797 0.0140306 -1.17917)
(0.0211033 0.0194551 -1.18956)
(0.0245658 0.0253861 -1.20147)
(0.0285161 0.0318552 -1.21512)
(0.0330163 0.0389034 -1.23059)
(0.0381546 0.0465912 -1.24807)
(0.0440664 0.0550016 -1.2677)
(0.0509408 0.0642549 -1.28974)
(0.0590395 0.0745164 -1.31444)
(0.0687028 0.0860322 -1.34216)
(0.0804192 0.0991053 -1.37331)
(0.0947449 0.11413 -1.40861)
(0.112312 0.131568 -1.4485)
(0.133778 0.151847 -1.49393)
(0.159768 0.175256 -1.54641)
(0.19049 0.201761 -1.60675)
(0.225952 0.231094 -1.67616)
(0.265862 0.262585 -1.75582)
(0.309548 0.295078 -1.84676)
(0.355928 0.326906 -1.94965)
(0.403507 0.35587 -2.06532)
(0.450648 0.379451 -2.19209)
(0.495198 0.394499 -2.33093)
(0.535785 0.398449 -2.47899)
(0.57399 0.392577 -2.63695)
(0.613395 0.380545 -2.80135)
(0.656825 0.366457 -2.96063)
(0.695957 0.33006 -3.13178)
(0.72595 0.260482 -3.30423)
(0.740814 0.144299 -3.47318)
(0.736538 -0.0290748 -3.62937)
(0.711594 -0.26639 -3.76133)
(0.668806 -0.568091 -3.85693)
(0.61425 -0.924953 -3.90437)
(0.556521 -1.31133 -3.88405)
(0.507749 -1.69285 -3.79187)
(0.476895 -2.03748 -3.64017)
(0.463827 -2.31207 -3.44005)
(0.457817 -2.49583 -3.21443)
(0.444783 -2.57748 -2.97651)
(0.408166 -2.5689 -2.74508)
(0.321804 -2.52311 -2.52954)
(0.161063 -2.50136 -2.31538)
(-0.0534413 -2.49545 -2.10542)
(-0.290988 -2.49403 -1.90518)
(-0.513555 -2.48054 -1.71658)
(-0.698179 -2.45197 -1.53592)
(-0.841363 -2.41471 -1.35721)
(-0.973446 -2.3841 -1.21449)
(-1.08611 -2.32801 -1.08602)
(-1.16787 -2.23688 -0.981445)
(-1.21295 -2.10936 -0.906193)
(-1.23592 -1.95324 -0.853562)
(-1.23485 -1.746 -0.836686)
(-1.20365 -1.47864 -0.871749)
(-1.14883 -1.17153 -0.99977)
(-1.09822 -0.90532 -1.14195)
(-1.05037 -0.7091 -1.29961)
(-0.991121 -0.596685 -1.45002)
(-0.905272 -0.514172 -1.58464)
(-0.800398 -0.382041 -1.72912)
(-0.680032 -0.232472 -1.86987)
(-0.546677 -0.130425 -1.99914)
(-0.396872 -0.077899 -2.11721)
(-0.218468 -0.0762797 -2.19725)
(-0.0133533 -0.128757 -2.23554)
(0.220801 -0.220865 -2.23503)
(0.50541 -0.306619 -2.22286)
(0.852121 -0.327385 -2.17637)
(1.23431 -0.267113 -2.12844)
(1.55336 -0.173003 -2.10275)
(1.70334 -0.118215 -2.0627)
(1.74258 -0.0513684 -2.03779)
(1.70683 0.0552469 -2.06699)
(1.60698 0.184126 -2.15657)
(1.44163 0.320268 -2.28716)
(1.22548 0.482932 -2.44407)
(0.99066 0.6265 -2.60097)
(0.82591 0.708482 -2.77093)
(0.775635 0.736951 -2.97371)
(0.860757 0.729637 -3.13227)
)
;
    }
    procBoundary2to3
    {
        type            processor;
        value           nonuniform List<vector> 
90
(
(0.00448602 -0.00622505 -1.2374)
(0.00398738 -0.00462165 -1.24179)
(0.00342738 -0.00198688 -1.23938)
(0.00332664 0.00170853 -1.24435)
(0.00400425 0.00686413 -1.24219)
(0.00517819 0.011902 -1.24277)
(0.00670421 0.0169932 -1.24)
(0.00839555 0.0220694 -1.23731)
(0.0102954 0.0271254 -1.23279)
(0.0123704 0.0320039 -1.22719)
(0.0146378 0.0366662 -1.22017)
(0.0170854 0.0410642 -1.2118)
(0.0197041 0.0452019 -1.202)
(0.0224857 0.0491151 -1.19076)
(0.0254281 0.0528722 -1.178)
(0.0285475 0.0565649 -1.16366)
(0.0318765 0.0603078 -1.14763)
(0.0354667 0.0642335 -1.12977)
(0.0393858 0.068494 -1.10987)
(0.0437084 0.0732539 -1.08769)
(0.0485015 0.078693 -1.06285)
(0.0538239 0.084997 -1.03502)
(0.0597135 0.092385 -1.00363)
(0.0662625 0.101028 -0.968209)
(0.0736061 0.11113 -0.928013)
(0.081869 0.122875 -0.882798)
(0.0909583 0.136265 -0.831343)
(0.100777 0.15117 -0.773094)
(0.111247 0.16743 -0.707589)
(0.122213 0.184819 -0.634471)
(0.133424 0.202968 -0.553572)
(0.144572 0.221363 -0.465054)
(0.155322 0.239375 -0.369358)
(0.165469 0.256407 -0.267334)
(0.174999 0.271862 -0.159948)
(0.184072 0.285094 -0.0484268)
(0.192728 0.294999 0.0656338)
(0.200799 0.299851 0.179756)
(0.208052 0.29741 0.290648)
(0.214503 0.285101 0.394106)
(0.220699 0.260519 0.485424)
(0.227884 0.221825 0.560373)
(0.238202 0.167892 0.615983)
(0.252929 0.0986551 0.650036)
(0.271194 0.0166545 0.663922)
(0.292283 -0.0802751 0.654738)
(0.314198 -0.189178 0.624821)
(0.335436 -0.316261 0.57576)
(0.351736 -0.406814 0.531655)
(0.381663 -0.502782 0.452694)
(0.443875 -0.564743 0.370479)
(0.539271 -0.592318 0.289394)
(0.671118 -0.585699 0.214777)
(0.837932 -0.52576 0.15547)
(1.00089 -0.436444 0.110975)
(1.1397 -0.333247 0.0845427)
(1.25255 -0.230248 0.0514362)
(1.35061 -0.144256 0.0158236)
(1.44342 -0.0741587 -0.0334678)
(1.53541 -0.00504124 -0.0953783)
(1.62262 0.100531 -0.172493)
(1.69005 0.246504 -0.219929)
(1.71699 0.391883 -0.231367)
(1.71726 0.555539 -0.229488)
(1.71366 0.713428 -0.184818)
(1.70534 0.895899 -0.0965133)
(1.7172 1.14464 0.0414011)
(1.79486 1.30365 0.277575)
(1.8995 1.45877 0.478398)
(2.08491 1.7027 0.990814)
(2.16119 1.81333 1.5233)
(2.07302 1.72958 2.01736)
(1.81443 1.41348 2.50881)
(1.39252 0.88109 2.96052)
(0.853788 0.281974 3.25449)
(0.299592 -0.192846 3.39475)
(-0.156646 -0.418399 3.27584)
(-0.43184 -0.423113 3.00621)
(-0.520986 -0.337159 2.66274)
(-0.451476 -0.21912 2.27297)
(-0.257546 -0.142671 1.89647)
(0.11385 -0.13866 1.42038)
(0.61005 -0.186206 0.959996)
(1.11917 -0.176777 0.568699)
(1.55102 -0.0132853 0.251516)
(1.87245 0.316747 0.0117724)
(2.09241 0.789411 -0.144584)
(2.19524 1.27035 -0.197479)
(2.11381 1.61526 0.240729)
(1.97097 1.8635 0.61624)
)
;
    }
}


// ************************************************************************* //
