/*--------------------------------*- C++ -*----------------------------------*\
| =========                 |                                                 |
| \\      /  F ield         | OpenFOAM: The Open Source CFD Toolbox           |
|  \\    /   O peration     | Version:  5.x                                   |
|   \\  /    A nd           | Web:      www.OpenFOAM.org                      |
|    \\/     M anipulation  |                                                 |
\*---------------------------------------------------------------------------*/
FoamFile
{
    version     2.0;
    format      ascii;
    class       volScalarField;
    location    "2000";
    object      p;
}
// * * * * * * * * * * * * * * * * * * * * * * * * * * * * * * * * * * * * * //

dimensions      [0 2 -2 0 0 0 0];

internalField   nonuniform List<scalar> 
180
(
1.71902e-07
4.66352e-07
7.13923e-07
9.63986e-07
1.21098e-06
1.45554e-06
1.69616e-06
1.93146e-06
2.1601e-06
2.38078e-06
2.59229e-06
2.7935e-06
2.9834e-06
3.16112e-06
3.32592e-06
3.47722e-06
3.61462e-06
3.73788e-06
3.84691e-06
3.94178e-06
4.02264e-06
4.08967e-06
4.14305e-06
4.18287e-06
4.209e-06
4.22105e-06
4.21829e-06
4.1995e-06
4.16282e-06
4.10563e-06
4.02435e-06
3.9143e-06
3.76957e-06
3.58284e-06
3.34523e-06
3.04613e-06
2.67303e-06
2.21123e-06
1.6437e-06
9.50808e-07
1.1007e-07
-9.04116e-07
-2.12082e-06
-3.57298e-06
-5.29786e-06
-7.3376e-06
-9.73991e-06
-1.25588e-05
-1.58556e-05
-1.97001e-05
-2.41716e-05
-2.93608e-05
-3.53718e-05
-4.23237e-05
-5.03541e-05
-5.9619e-05
-7.02953e-05
-8.25811e-05
-9.66959e-05
-0.000112875
-0.00013135
-0.000152369
-0.000176257
-0.000203371
-0.000234105
-0.000268893
-0.000308207
-0.000352561
-0.000402508
-0.00045864
-0.00052158
-0.000592012
-0.00067081
-0.000758887
-0.000857232
-0.000966987
-0.00108903
-0.00121928
-0.0013336
-0.00187529
-0.00228302
-0.00160935
0.00909323
0.0361355
0.0753016
0.124195
0.196885
0.283761
0.409061
0.598594
0.800148
1.01339
1.2438
1.47748
1.75783
2.12637
2.49165
2.8101
3.1075
3.4045
3.71377
4.00259
4.26638
4.3886
4.40006
4.39924
4.39843
4.39779
4.39721
4.39671
4.39627
4.39589
4.39555
4.39525
4.39499
4.39476
4.39456
4.39439
4.39424
4.3941
4.39398
4.39388
4.39379
4.39371
4.39364
4.39358
4.39352
4.39348
4.39344
4.3934
4.39337
4.39334
4.39332
4.3933
4.39328
4.39326
4.39325
4.39324
4.39322
4.39322
4.39321
4.3932
4.39319
4.39319
4.39318
4.39318
4.39318
4.39317
4.39317
4.39317
4.39316
4.39316
4.39316
4.39316
4.39316
4.39316
4.39316
4.39316
4.39316
4.39316
4.39316
4.39315
4.39315
4.39315
4.39315
4.39315
4.39315
4.39315
4.39315
4.39315
4.39315
4.39315
4.39315
4.39315
4.39315
4.39315
4.39315
4.39315
4.39315
4.39315
)
;

boundaryField
{
    inlet
    {
        type            zeroGradient;
    }
    outlet
    {
        type            fixedValue;
        value           uniform 0;
    }
    repeat_boundary
    {
        type            zeroGradient;
    }
    procBoundary2to0
    {
        type            processor;
        value           nonuniform List<scalar> 
180
(
1.05939e-07
2.89166e-07
4.46093e-07
6.08451e-07
7.76018e-07
9.50614e-07
1.13323e-06
1.32454e-06
1.52497e-06
1.73469e-06
1.95367e-06
2.18163e-06
2.41811e-06
2.66253e-06
2.91418e-06
3.17241e-06
3.4362e-06
3.70431e-06
3.97593e-06
4.25028e-06
4.52661e-06
4.8043e-06
5.0829e-06
5.362e-06
5.64133e-06
5.92067e-06
6.19989e-06
6.47886e-06
6.7575e-06
7.03566e-06
7.31315e-06
7.5897e-06
7.86492e-06
8.13828e-06
8.40914e-06
8.67671e-06
8.9401e-06
9.19836e-06
9.45059e-06
9.69594e-06
9.93378e-06
1.01638e-05
1.0386e-05
1.0601e-05
1.08103e-05
1.10158e-05
1.12205e-05
1.14282e-05
1.1644e-05
1.18742e-05
1.21261e-05
1.2409e-05
1.27341e-05
1.31147e-05
1.35674e-05
1.41103e-05
1.47623e-05
1.55414e-05
1.6462e-05
1.75266e-05
1.87059e-05
1.99563e-05
2.12808e-05
2.26547e-05
2.40391e-05
2.53767e-05
2.65861e-05
2.7554e-05
2.81258e-05
2.80924e-05
2.71725e-05
2.5034e-05
2.14083e-05
1.58688e-05
7.76827e-06
-3.74982e-06
-1.93675e-05
-3.76454e-05
-6.48347e-05
-0.000243189
-4.2701e-05
0.00496417
0.0242054
0.0530048
0.105026
0.187517
0.282738
0.402992
0.531914
0.67525
0.887752
1.08488
1.28473
1.51945
1.82576
2.13287
2.40305
2.72787
3.05601
3.37625
3.68538
3.98704
4.25352
4.37352
4.39177
4.3922
4.39219
4.39226
4.39233
4.39239
4.39245
4.3925
4.39255
4.3926
4.39265
4.3927
4.39274
4.39278
4.39281
4.39284
4.39287
4.3929
4.39293
4.39295
4.39297
4.39299
4.39301
4.39302
4.39304
4.39305
4.39306
4.39307
4.39308
4.39309
4.3931
4.3931
4.39311
4.39311
4.39312
4.39312
4.39312
4.39313
4.39313
4.39313
4.39313
4.39314
4.39314
4.39314
4.39314
4.39314
4.39314
4.39314
4.39314
4.39314
4.39315
4.39315
4.39315
4.39315
4.39315
4.39315
4.39315
4.39315
4.39315
4.39315
4.39315
4.39315
4.39315
4.39315
4.39315
4.39315
4.39315
4.39315
4.39315
4.39315
4.39315
4.39315
4.39315
4.39315
4.39315
4.39315
)
;
    }
    procBoundary2to3
    {
        type            processor;
        value           nonuniform List<scalar> 
180
(
1.1547e-07
3.17868e-07
4.94095e-07
6.75853e-07
8.62935e-07
1.0572e-06
1.25968e-06
1.47116e-06
1.69223e-06
1.92329e-06
2.16454e-06
2.41604e-06
2.67766e-06
2.94916e-06
3.23022e-06
3.52035e-06
3.81906e-06
4.12608e-06
4.44087e-06
4.76293e-06
5.09193e-06
5.42766e-06
5.77006e-06
6.11921e-06
6.47535e-06
6.83886e-06
7.21023e-06
7.59001e-06
7.97881e-06
8.37725e-06
8.78598e-06
9.20557e-06
9.63655e-06
1.00793e-05
1.05342e-05
1.10013e-05
1.14808e-05
1.19727e-05
1.24771e-05
1.29943e-05
1.35247e-05
1.40689e-05
1.46281e-05
1.5204e-05
1.57987e-05
1.64153e-05
1.70575e-05
1.773e-05
1.84384e-05
1.91894e-05
1.99907e-05
2.0851e-05
2.17804e-05
2.27899e-05
2.38921e-05
2.51012e-05
2.64333e-05
2.79067e-05
2.95428e-05
3.13661e-05
3.34052e-05
3.56922e-05
3.82638e-05
4.11616e-05
4.44324e-05
4.81282e-05
5.23061e-05
5.70269e-05
6.23539e-05
6.83494e-05
7.50706e-05
8.25638e-05
9.0855e-05
9.99251e-05
0.000109647
0.000119835
0.000131137
0.000147413
0.000158441
-0.000206773
-0.00016144
0.00676922
0.0491061
0.0949213
0.149147
0.211594
0.266362
0.35778
0.475473
0.581819
0.75715
0.971659
1.16508
1.36895
1.62035
1.93688
2.30761
2.64484
2.98209
3.37861
3.71574
3.99962
4.26478
4.37967
4.39571
4.39616
4.39581
4.39549
4.39521
4.39497
4.39475
4.39456
4.39439
4.39424
4.39411
4.39399
4.39389
4.3938
4.39372
4.39365
4.39359
4.39353
4.39349
4.39344
4.39341
4.39338
4.39335
4.39332
4.3933
4.39328
4.39326
4.39325
4.39324
4.39323
4.39322
4.39321
4.3932
4.39319
4.39319
4.39318
4.39318
4.39317
4.39317
4.39317
4.39317
4.39316
4.39316
4.39316
4.39316
4.39316
4.39316
4.39316
4.39315
4.39315
4.39315
4.39315
4.39315
4.39315
4.39315
4.39315
4.39315
4.39315
4.39315
4.39315
4.39315
4.39315
4.39315
4.39315
4.39315
4.39315
4.39315
4.39315
4.39315
4.39315
4.39315
4.39315
4.39315
4.39315
4.39315
4.39315
)
;
    }
}


// ************************************************************************* //
