/*--------------------------------*- C++ -*----------------------------------*\
| =========                 |                                                 |
| \\      /  F ield         | OpenFOAM: The Open Source CFD Toolbox           |
|  \\    /   O peration     | Version:  5.x                                   |
|   \\  /    A nd           | Web:      www.OpenFOAM.org                      |
|    \\/     M anipulation  |                                                 |
\*---------------------------------------------------------------------------*/
FoamFile
{
    version     2.0;
    format      ascii;
    class       surfaceScalarField;
    location    "2000";
    object      phi;
}
// * * * * * * * * * * * * * * * * * * * * * * * * * * * * * * * * * * * * * //

dimensions      [0 3 -1 0 0 0 0];

internalField   nonuniform List<scalar> 
179
(
-250.184
-250.158
-250.159
-250.157
-250.157
-250.157
-250.156
-250.156
-250.155
-250.154
-250.152
-250.151
-250.149
-250.146
-250.143
-250.14
-250.136
-250.132
-250.127
-250.121
-250.115
-250.108
-250.101
-250.092
-250.082
-250.072
-250.059
-250.045
-250.029
-250.01
-249.988
-249.962
-249.932
-249.896
-249.854
-249.804
-249.745
-249.675
-249.593
-249.496
-249.381
-249.247
-249.089
-248.905
-248.689
-248.438
-248.144
-247.803
-247.406
-246.944
-246.408
-245.784
-245.059
-244.215
-243.235
-242.095
-240.773
-239.243
-237.477
-235.453
-233.137
-230.461
-227.368
-223.798
-219.676
-214.921
-209.437
-203.116
-195.832
-187.441
-177.761
-166.517
-153.473
-138.349
-120.813
-100.487
-76.8725
-49.7847
-19.0495
16.5018
30.9189
33.0347
54.506
78.4978
109.495
153.142
202.284
241.095
296.147
296.872
313.145
335.296
327.192
320.85
327.243
328.397
289.99
225.829
190.891
189.486
200.155
211.809
215.509
180.323
144.915
101.06
62.8008
28.6457
-2.12695
-29.8361
-54.6763
-76.91
-96.7703
-114.478
-130.238
-144.245
-156.677
-167.702
-177.473
-186.112
-193.734
-200.457
-206.388
-211.622
-216.24
-220.315
-223.91
-227.082
-229.877
-232.34
-234.508
-236.415
-238.09
-239.557
-240.839
-241.961
-242.943
-243.805
-244.561
-245.225
-245.809
-246.322
-246.775
-247.173
-247.525
-247.836
-248.111
-248.354
-248.568
-248.757
-248.923
-249.068
-249.195
-249.306
-249.402
-249.485
-249.556
-249.617
-249.668
-249.712
-249.748
-249.779
-249.805
-249.827
-249.846
-249.862
-249.876
-249.888
-249.899
-249.909
-249.918
-249.926
-249.935
-249.943
-249.951
-249.959
-249.967
-249.974
-249.983
)
;

boundaryField
{
    inlet
    {
        type            calculated;
        value           uniform -249.998;
    }
    outlet
    {
        type            calculated;
        value           uniform 250.213;
    }
    repeat_boundary
    {
        type            calculated;
        value           uniform 0;
    }
    procBoundary2to0
    {
        type            processor;
        value           nonuniform List<scalar> 
180
(
0.000304172
0.000826241
0.00125681
0.00167391
0.0020605
0.00241413
0.00275512
0.00306056
0.00332362
0.00353948
0.00370455
0.00381665
0.00387518
0.00388131
0.00384205
0.00375868
0.00363864
0.00348804
0.00331575
0.00313183
0.00294722
0.00277414
0.00262509
0.00251331
0.00245024
0.00244152
0.0025032
0.00264466
0.00287298
0.00319246
0.00360407
0.00410506
0.00468832
0.00534187
0.00603538
0.0067539
0.00746804
0.00813592
0.00870488
0.00910922
0.00926753
0.0090795
0.00842202
0.00714457
0.00506344
0.00195452
-0.00245511
-0.00849851
-0.0165826
-0.0272063
-0.0409844
-0.0586801
-0.0812502
-0.109716
-0.144405
-0.185974
-0.234856
-0.290682
-0.351056
-0.408152
-0.471381
-0.570151
-0.686149
-0.822128
-0.98123
-1.16703
-1.38361
-1.63557
-1.92814
-2.2672
-2.67937
-3.23639
-3.8826
-4.63519
-5.51377
-6.54181
-7.73965
-9.1018
-10.5726
-14.5065
-9.35754
-1.70299
-3.36809
-0.560296
-2.65087
-11.3947
-20.8896
-21.1347
-23.1844
2.15542
-14.9713
-24.0093
-14.8817
-21.1976
-27.3738
-19.806
10.5696
12.7208
-1.00106
-8.939
-7.30296
-10.9795
-5.67932
18.7408
12.4499
30.2498
30.826
28.114
25.0897
22.304
19.7972
17.5508
15.5418
13.7486
12.1507
10.7295
9.46766
8.34883
7.35706
6.47894
5.70225
5.01585
4.40972
3.87485
3.40318
2.98749
2.62145
2.29938
2.01619
1.76726
1.54862
1.3567
1.18834
1.04071
0.911289
0.797842
0.698423
0.61133
0.535068
0.468322
0.409931
0.358872
0.314234
0.275228
0.241155
0.211391
0.185391
0.162675
0.142823
0.125467
0.110288
0.097005
0.0853724
0.0751717
0.0662096
0.0583186
0.0513558
0.0452001
0.0397481
0.0349107
0.0306112
0.0267828
0.0233662
0.0203165
0.0175908
0.0151463
0.0129545
0.0109897
0.0092337
0.00761533
0.00615338
0.00503084
0.00405422
0.00306198
0.00221612
0.00150217
0.000909271
0.000426799
4.40568e-05
-0.000162791
)
;
    }
    procBoundary2to3
    {
        type            processor;
        value           nonuniform List<scalar> 
180
(
9.34082e-05
0.000350189
0.000485202
0.00059365
0.000655998
0.000666216
0.000609967
0.000474036
0.000245109
-8.9093e-05
-0.000540643
-0.00111886
-0.00183121
-0.00268458
-0.00368425
-0.00483028
-0.00611985
-0.00755799
-0.00914862
-0.0108978
-0.0128122
-0.0149001
-0.017172
-0.0196423
-0.0223402
-0.0253069
-0.0285682
-0.0321534
-0.0360993
-0.0404538
-0.0452775
-0.0506444
-0.0566404
-0.0633637
-0.0709253
-0.0794368
-0.0890282
-0.0998615
-0.112123
-0.126028
-0.141822
-0.159785
-0.180241
-0.203556
-0.230152
-0.26051
-0.295182
-0.334796
-0.380073
-0.431838
-0.491033
-0.558741
-0.636197
-0.724823
-0.826218
-0.942318
-1.0752
-1.2273
-1.40141
-1.60073
-1.82885
-2.08961
-2.38773
-2.72871
-3.11875
-3.56501
-4.07567
-4.66016
-5.3293
-6.09557
-6.9734
-7.97967
-9.13488
-10.4631
-11.9929
-13.7598
-15.7969
-18.0952
-20.1121
-21.0548
-5.0733
-0.365231
-18.1097
-23.4321
-28.3545
-32.255
-28.2593
-17.675
-31.8691
-2.87985
-1.30124
1.8601
22.9889
27.5386
20.9769
18.6476
27.8305
51.4247
35.9574
10.3343
-3.32894
-0.664586
2.02119
16.3812
22.787
13.5125
7.27372
6.2583
5.81901
5.43158
5.04508
4.6614
4.28693
3.9269
3.58488
3.26337
2.96391
2.68731
2.43389
2.18413
1.94281
1.72742
1.53533
1.36417
1.21177
1.07616
0.955545
0.848321
0.753034
0.668389
0.593235
0.526547
0.467415
0.410439
0.35917
0.316971
0.281086
0.249987
0.222729
0.198676
0.177364
0.158439
0.141612
0.126646
0.113337
0.101494
0.0909448
0.0815549
0.0731986
0.0657598
0.0591308
0.0532136
0.0479194
0.0431686
0.0388895
0.0350368
0.0315474
0.0283565
0.0254467
0.0227844
0.0203402
0.01809
0.0160141
0.014096
0.0123227
0.0106824
0.0091653
0.00776275
0.00646644
0.00526747
0.00415334
0.0030975
0.00206444
0.00157912
0.00104079
0.000577347
0.000184671
-0.000148699
-0.000421002
-0.000601854
)
;
    }
}


// ************************************************************************* //
