/*--------------------------------*- C++ -*----------------------------------*\
| =========                 |                                                 |
| \\      /  F ield         | OpenFOAM: The Open Source CFD Toolbox           |
|  \\    /   O peration     | Version:  5.x                                   |
|   \\  /    A nd           | Web:      www.OpenFOAM.org                      |
|    \\/     M anipulation  |                                                 |
\*---------------------------------------------------------------------------*/
FoamFile
{
    version     2.0;
    format      ascii;
    class       volVectorField;
    location    "2000";
    object      U;
}
// * * * * * * * * * * * * * * * * * * * * * * * * * * * * * * * * * * * * * //

dimensions      [0 1 -1 0 0 0 0];

internalField   nonuniform List<vector> 
180
(
(-1.61052e-09 -5.84936e-09 -0.00100079)
(-1.86872e-12 -1.66869e-08 -0.00100068)
(-1.93742e-09 -2.5544e-08 -0.00100063)
(-4.69794e-09 -3.41271e-08 -0.00100063)
(-8.39592e-09 -4.22551e-08 -0.00100063)
(-1.31312e-08 -4.99399e-08 -0.00100063)
(-1.91687e-08 -5.70593e-08 -0.00100063)
(-2.67474e-08 -6.35388e-08 -0.00100062)
(-3.60883e-08 -6.93389e-08 -0.00100062)
(-4.73978e-08 -7.4455e-08 -0.00100062)
(-6.08685e-08 -7.89179e-08 -0.00100061)
(-7.66829e-08 -8.27938e-08 -0.00100061)
(-9.50182e-08 -8.61823e-08 -0.0010006)
(-1.16049e-07 -8.92157e-08 -0.00100059)
(-1.3995e-07 -9.20587e-08 -0.00100058)
(-1.66905e-07 -9.49072e-08 -0.00100057)
(-1.97118e-07 -9.79708e-08 -0.00100055)
(-2.30813e-07 -1.01466e-07 -0.00100054)
(-2.68243e-07 -1.05651e-07 -0.00100052)
(-3.09699e-07 -1.10797e-07 -0.0010005)
(-3.55522e-07 -1.17184e-07 -0.00100047)
(-4.06106e-07 -1.25105e-07 -0.00100045)
(-4.61917e-07 -1.34863e-07 -0.00100042)
(-5.23508e-07 -1.46763e-07 -0.00100039)
(-5.91524e-07 -1.61109e-07 -0.00100035)
(-6.66731e-07 -1.78199e-07 -0.00100031)
(-7.50032e-07 -1.9832e-07 -0.00100026)
(-8.42489e-07 -2.21745e-07 -0.00100021)
(-9.4534e-07 -2.48734e-07 -0.00100015)
(-1.06002e-06 -2.79529e-07 -0.00100008)
(-1.18819e-06 -3.14352e-07 -0.000999996)
(-1.33174e-06 -3.53401e-07 -0.000999901)
(-1.49287e-06 -3.96837e-07 -0.000999789)
(-1.6741e-06 -4.44781e-07 -0.000999657)
(-1.87831e-06 -4.97295e-07 -0.000999502)
(-2.10881e-06 -5.54364e-07 -0.000999318)
(-2.36938e-06 -6.15886e-07 -0.0009991)
(-2.66434e-06 -6.81649e-07 -0.000998843)
(-2.99863e-06 -7.51308e-07 -0.000998539)
(-3.37788e-06 -8.24346e-07 -0.00099818)
(-3.80851e-06 -9.00032e-07 -0.000997758)
(-4.29788e-06 -9.7737e-07 -0.00099726)
(-4.85441e-06 -1.05503e-06 -0.000996677)
(-5.48773e-06 -1.13128e-06 -0.000995993)
(-6.20887e-06 -1.20389e-06 -0.000995193)
(-7.03047e-06 -1.26999e-06 -0.00099426)
(-7.96702e-06 -1.32598e-06 -0.000993171)
(-9.03515e-06 -1.36732e-06 -0.000991903)
(-1.02539e-05 -1.38833e-06 -0.000990428)
(-1.16453e-05 -1.38201e-06 -0.000988712)
(-1.32344e-05 -1.33967e-06 -0.000986718)
(-1.50501e-05 -1.25066e-06 -0.000984399)
(-1.71258e-05 -1.10187e-06 -0.000981704)
(-1.94998e-05 -8.77248e-07 -0.00097857)
(-2.22162e-05 -5.57208e-07 -0.000974925)
(-2.53258e-05 -1.18285e-07 -0.000970688)
(-2.88867e-05 4.6736e-07 -0.00096577)
(-3.29654e-05 1.23239e-06 -0.00096007)
(-3.76379e-05 2.21444e-06 -0.000953482)
(-4.299e-05 3.45543e-06 -0.00094591)
(-4.91172e-05 4.99867e-06 -0.00093724)
(-5.61283e-05 6.89301e-06 -0.000927264)
(-6.41524e-05 9.20475e-06 -0.000915738)
(-7.33376e-05 1.20132e-05 -0.000902426)
(-8.38534e-05 1.54113e-05 -0.000887057)
(-9.58945e-05 1.95074e-05 -0.000869322)
(-0.000109683 2.44281e-05 -0.000848865)
(-0.000125476 3.03213e-05 -0.000825278)
(-0.000143564 3.73587e-05 -0.000798096)
(-0.000164283 4.57404e-05 -0.000766783)
(-0.000188018 5.56984e-05 -0.000730686)
(-0.000215212 6.75103e-05 -0.000688889)
(-0.000246389 8.15298e-05 -0.000640322)
(-0.000282153 9.81705e-05 -0.000583835)
(-0.000323197 0.000117923 -0.000518591)
(-0.000370341 0.000141385 -0.000446925)
(-0.000424325 0.000169102 -0.000377286)
(-0.000483626 0.000200879 -0.000307157)
(-0.000534802 0.00023552 0.000536114)
(-0.000556212 0.000317556 -0.00120733)
(-0.000169312 0.000257232 0.000887343)
(-6.15591e-05 4.74744e-05 4.91635e-05)
(-0.000499587 -0.000574429 -0.000292154)
(-0.00105763 -0.000876104 0.00327105)
(-0.00181312 -0.000247333 -0.00259539)
(-0.00177499 0.00101643 0.00272965)
(-0.0015296 0.00142189 0.00238387)
(-0.00229123 0.00142077 -0.00327238)
(-0.00218119 -0.00019769 0.00600574)
(-0.000877422 -0.00178117 0.00956455)
(-0.000844578 -0.000198952 -0.00115344)
(-0.00137874 0.00115791 0.00744127)
(-7.54814e-05 0.000740513 0.00250472)
(-2.45637e-05 0.0019852 -0.00428957)
(-0.00146392 0.00294309 0.00631617)
(-0.00158378 0.00207737 0.0163925)
(-0.000145991 0.00106273 -0.00057119)
(0.00152387 0.00114598 0.00288953)
(0.00203074 0.00138713 -0.00224382)
(0.00093038 0.00104911 0.00340769)
(-6.14631e-06 0.00075662 0.00688339)
(0.00263636 -3.31585e-05 -0.00190668)
(0.00259138 -1.27383e-05 0.027941)
(-5.17024e-05 0.000505558 -0.00436587)
(0.000604963 -0.000205109 -0.00861238)
(0.000229681 -0.000676426 0.000615644)
(0.000130652 -0.000653074 0.000416439)
(0.000113247 -0.000589551 0.000188478)
(0.000108007 -0.000526264 5.12634e-05)
(0.000103325 -0.00046825 -6.47828e-05)
(9.79416e-05 -0.000415887 -0.000169307)
(9.20016e-05 -0.000368845 -0.000263349)
(8.57582e-05 -0.000326697 -0.000347535)
(7.94212e-05 -0.000289018 -0.000422664)
(7.31486e-05 -0.000255408 -0.000489587)
(6.7056e-05 -0.000225491 -0.000549109)
(6.12254e-05 -0.000198913 -0.000601973)
(5.57128e-05 -0.000175338 -0.000648877)
(5.05544e-05 -0.000154442 -0.000690459)
(4.57711e-05 -0.000135945 -0.000727271)
(4.13642e-05 -0.000119591 -0.000759782)
(3.73213e-05 -0.000105145 -0.000788462)
(3.3626e-05 -9.23942e-05 -0.000813762)
(3.02591e-05 -8.11489e-05 -0.000836084)
(2.71997e-05 -7.12378e-05 -0.000855781)
(2.44263e-05 -6.25077e-05 -0.000873162)
(2.19174e-05 -5.48247e-05 -0.000888497)
(1.96518e-05 -4.80684e-05 -0.000902026)
(1.76091e-05 -4.21311e-05 -0.000913955)
(1.577e-05 -3.69167e-05 -0.000924468)
(1.41163e-05 -3.23395e-05 -0.000933726)
(1.26312e-05 -2.83236e-05 -0.000941872)
(1.12991e-05 -2.48021e-05 -0.000949034)
(1.01058e-05 -2.17154e-05 -0.000955316)
(9.03624e-06 -1.90104e-05 -0.000960811)
(8.07672e-06 -1.664e-05 -0.000965616)
(7.21592e-06 -1.45633e-05 -0.000969823)
(6.44414e-06 -1.27444e-05 -0.000973511)
(5.75282e-06 -1.11521e-05 -0.000976745)
(5.13422e-06 -9.75866e-06 -0.000979584)
(4.58132e-06 -8.53982e-06 -0.000982078)
(4.08767e-06 -7.47415e-06 -0.000984271)
(3.64739e-06 -6.54277e-06 -0.000986201)
(3.25507e-06 -5.72903e-06 -0.000987903)
(2.90575e-06 -5.01825e-06 -0.000989403)
(2.59492e-06 -4.39751e-06 -0.000990729)
(2.31844e-06 -3.85545e-06 -0.000991899)
(2.07257e-06 -3.3821e-06 -0.000992934)
(1.8539e-06 -2.96867e-06 -0.000993847)
(1.65936e-06 -2.60748e-06 -0.000994652)
(1.48618e-06 -2.29177e-06 -0.000995361)
(1.33187e-06 -2.01564e-06 -0.000995984)
(1.19423e-06 -1.77392e-06 -0.000996529)
(1.07127e-06 -1.56211e-06 -0.000997004)
(9.6123e-07 -1.37626e-06 -0.000997418)
(8.62535e-07 -1.21295e-06 -0.000997775)
(7.73806e-07 -1.06919e-06 -0.000998083)
(6.93856e-07 -9.42386e-07 -0.000998346)
(6.21674e-07 -8.30287e-07 -0.000998571)
(5.56258e-07 -7.30942e-07 -0.000998761)
(4.96762e-07 -6.42672e-07 -0.000998921)
(4.4246e-07 -5.64031e-07 -0.000999057)
(3.92732e-07 -4.93769e-07 -0.00099917)
(3.47061e-07 -4.30822e-07 -0.000999266)
(3.05032e-07 -3.74285e-07 -0.000999347)
(2.66302e-07 -3.23397e-07 -0.000999416)
(2.30595e-07 -2.77534e-07 -0.000999475)
(1.97691e-07 -2.3618e-07 -0.000999527)
(1.6742e-07 -1.98913e-07 -0.000999573)
(1.39658e-07 -1.6538e-07 -0.000999615)
(1.14315e-07 -1.35269e-07 -0.000999653)
(9.12928e-08 -1.08306e-07 -0.000999689)
(7.0535e-08 -8.43574e-08 -0.000999722)
(5.1955e-08 -6.32708e-08 -0.000999755)
(3.56162e-08 -4.49531e-08 -0.000999788)
(2.15324e-08 -2.93261e-08 -0.00099982)
(9.70378e-09 -1.63135e-08 -0.000999851)
(-1.79143e-10 -5.54659e-09 -0.000999882)
(-7.95246e-09 2.83844e-09 -0.000999916)
(-1.21721e-08 7.35445e-09 -0.000999962)
)
;

boundaryField
{
    inlet
    {
        type            zeroGradient;
    }
    outlet
    {
        type            zeroGradient;
    }
    repeat_boundary
    {
        type            slip;
    }
    procBoundary2to0
    {
        type            processor;
        value           nonuniform List<vector> 
180
(
(-7.946e-09 -5.847e-09 -0.00100057)
(-2.06929e-08 -1.66895e-08 -0.00100049)
(-3.19793e-08 -2.55372e-08 -0.00100046)
(-4.32211e-08 -3.4124e-08 -0.00100046)
(-5.41694e-08 -4.2254e-08 -0.00100047)
(-6.48641e-08 -4.99397e-08 -0.00100048)
(-7.52305e-08 -5.70593e-08 -0.00100049)
(-8.52449e-08 -6.35388e-08 -0.0010005)
(-9.49224e-08 -6.93389e-08 -0.00100051)
(-1.04319e-07 -7.4455e-08 -0.00100052)
(-1.13534e-07 -7.89179e-08 -0.00100053)
(-1.22711e-07 -8.27938e-08 -0.00100053)
(-1.3204e-07 -8.61823e-08 -0.00100053)
(-1.41758e-07 -8.92157e-08 -0.00100053)
(-1.52155e-07 -9.20587e-08 -0.00100052)
(-1.63573e-07 -9.49072e-08 -0.00100051)
(-1.7637e-07 -9.79707e-08 -0.00100049)
(-1.90913e-07 -1.01466e-07 -0.00100046)
(-2.07652e-07 -1.05651e-07 -0.00100042)
(-2.2708e-07 -1.10797e-07 -0.00100038)
(-2.49721e-07 -1.17184e-07 -0.00100033)
(-2.76158e-07 -1.25105e-07 -0.00100027)
(-3.07028e-07 -1.34863e-07 -0.0010002)
(-3.43013e-07 -1.46763e-07 -0.00100012)
(-3.84846e-07 -1.61108e-07 -0.00100003)
(-4.33322e-07 -1.78198e-07 -0.000999935)
(-4.89302e-07 -1.9832e-07 -0.000999825)
(-5.53724e-07 -2.21745e-07 -0.000999703)
(-6.27611e-07 -2.48734e-07 -0.000999568)
(-7.12084e-07 -2.79529e-07 -0.000999419)
(-8.08378e-07 -3.14352e-07 -0.000999255)
(-9.17853e-07 -3.534e-07 -0.000999073)
(-1.04201e-06 -3.96836e-07 -0.000998872)
(-1.18252e-06 -4.44781e-07 -0.00099865)
(-1.34123e-06 -4.97294e-07 -0.000998403)
(-1.52018e-06 -5.54363e-07 -0.000998128)
(-1.72165e-06 -6.15884e-07 -0.000997824)
(-1.94816e-06 -6.81647e-07 -0.000997485)
(-2.20253e-06 -7.51306e-07 -0.000997107)
(-2.48785e-06 -8.24343e-07 -0.000996688)
(-2.80758e-06 -9.00029e-07 -0.000996221)
(-3.16553e-06 -9.77365e-07 -0.000995704)
(-3.56594e-06 -1.05503e-06 -0.00099513)
(-4.01347e-06 -1.13128e-06 -0.000994496)
(-4.51327e-06 -1.20388e-06 -0.000993797)
(-5.07098e-06 -1.26998e-06 -0.000993029)
(-5.69278e-06 -1.32597e-06 -0.000992187)
(-6.38544e-06 -1.3673e-06 -0.000991267)
(-7.15631e-06 -1.38831e-06 -0.000990267)
(-8.01341e-06 -1.38198e-06 -0.000989184)
(-8.96541e-06 -1.33964e-06 -0.000988015)
(-1.00217e-05 -1.25062e-06 -0.00098676)
(-1.11922e-05 -1.10182e-06 -0.000985419)
(-1.24878e-05 -8.77183e-07 -0.000983996)
(-1.39198e-05 -5.57127e-07 -0.000982493)
(-1.55004e-05 -1.18183e-07 -0.000980911)
(-1.72427e-05 4.67489e-07 -0.000979253)
(-1.91609e-05 1.23255e-06 -0.000977516)
(-2.12708e-05 2.21465e-06 -0.000975687)
(-2.35905e-05 3.45569e-06 -0.000973727)
(-2.61429e-05 4.99901e-06 -0.000971591)
(-2.89549e-05 6.89345e-06 -0.000969303)
(-3.20519e-05 9.20534e-06 -0.00096692)
(-3.54581e-05 1.2014e-05 -0.000964475)
(-3.91995e-05 1.54123e-05 -0.000961988)
(-4.3303e-05 1.95088e-05 -0.000959488)
(-4.77975e-05 2.44301e-05 -0.000957013)
(-5.27127e-05 3.03239e-05 -0.000954608)
(-5.80796e-05 3.73624e-05 -0.00095233)
(-6.39305e-05 4.57454e-05 -0.000950247)
(-7.02982e-05 5.57053e-05 -0.000948485)
(-7.72119e-05 6.752e-05 -0.000947346)
(-8.46844e-05 8.15436e-05 -0.000947121)
(-9.27196e-05 9.81906e-05 -0.00094803)
(-0.000101307 0.000117954 -0.000951071)
(-0.000110405 0.000141439 -0.000959757)
(-0.000119949 0.000169246 -0.000975918)
(-0.000130357 0.000201424 -0.000980872)
(-0.000147165 0.000238852 -0.000601647)
(-0.000183993 0.000341766 -0.00236939)
(-3.86724e-05 0.000642296 -0.000846577)
(1.4238e-05 0.000539239 -0.000941389)
(-0.00102456 0.000427727 -0.00452332)
(-0.00148687 0.000358749 -0.00225171)
(-0.000978528 -0.00040743 -0.0031679)
(-0.000672991 -0.000741621 0.0024381)
(-0.00145114 -0.000564253 -0.00999312)
(-0.000322252 -0.00102861 0.00994816)
(0.000453198 -9.88886e-05 -0.0153609)
(0.000603551 -0.00117233 0.00268966)
(4.85281e-05 0.000438862 0.00594634)
(-0.000617576 0.000934712 -0.0134539)
(-0.00237203 0.000854936 0.00169795)
(-0.00366233 0.000706584 -0.0157201)
(-0.0029952 0.00165607 0.0292704)
(-0.00205113 0.00189249 -0.0211619)
(-0.00117919 0.000203205 -0.00217654)
(0.000587393 -0.000480908 0.00743858)
(0.00126654 0.000839912 -0.00967996)
(0.000204847 0.00198197 0.00552523)
(2.35614e-05 0.00189992 -0.010023)
(0.000315868 0.00288585 0.0115233)
(0.00331561 0.00165924 0.00991833)
(0.000981218 -0.00199435 -0.00143865)
(0.00106544 0.000489813 -0.0136679)
(0.00102676 -0.000461385 -0.00141881)
(0.000762023 -0.000626851 -0.00102604)
(0.00063053 -0.000587121 -0.00116326)
(0.000536152 -0.000526086 -0.00117715)
(0.000458421 -0.000468233 -0.00117114)
(0.000392625 -0.000415878 -0.0011638)
(0.000336656 -0.000368837 -0.00115541)
(0.000288972 -0.00032669 -0.00114594)
(0.000248301 -0.000289012 -0.00113569)
(0.000213564 -0.000255403 -0.00112499)
(0.000183843 -0.000225487 -0.00111419)
(0.000158375 -0.00019891 -0.00110363)
(0.000136524 -0.000175336 -0.0010937)
(0.000117795 -0.00015444 -0.00108451)
(0.000101727 -0.000135944 -0.00107589)
(8.79323e-05 -0.00011959 -0.00106789)
(7.60784e-05 -0.000105144 -0.00106052)
(6.58845e-05 -9.23936e-05 -0.00105381)
(5.71114e-05 -8.11485e-05 -0.00104773)
(4.95559e-05 -7.12375e-05 -0.00104227)
(4.3045e-05 -6.25074e-05 -0.00103736)
(3.74255e-05 -5.48245e-05 -0.00103295)
(3.25684e-05 -4.80682e-05 -0.00102902)
(2.8365e-05 -4.2131e-05 -0.00102552)
(2.47232e-05 -3.69166e-05 -0.00102243)
(2.15646e-05 -3.23394e-05 -0.0010197)
(1.88224e-05 -2.83236e-05 -0.00101728)
(1.64394e-05 -2.4802e-05 -0.00101515)
(1.43666e-05 -2.17154e-05 -0.00101326)
(1.2562e-05 -1.90104e-05 -0.00101159)
(1.09893e-05 -1.664e-05 -0.00101011)
(9.61737e-06 -1.45633e-05 -0.0010088)
(8.41946e-06 -1.27444e-05 -0.00100764)
(7.3725e-06 -1.11521e-05 -0.00100662)
(6.45664e-06 -9.75865e-06 -0.00100572)
(5.65477e-06 -8.53981e-06 -0.00100494)
(4.95214e-06 -7.47414e-06 -0.00100426)
(4.33603e-06 -6.54276e-06 -0.00100367)
(3.79549e-06 -5.72902e-06 -0.00100316)
(3.32106e-06 -5.01824e-06 -0.00100273)
(2.90451e-06 -4.3975e-06 -0.00100237)
(2.53875e-06 -3.85545e-06 -0.00100206)
(2.21758e-06 -3.38209e-06 -0.00100181)
(1.93562e-06 -2.96867e-06 -0.0010016)
(1.68819e-06 -2.60748e-06 -0.00100143)
(1.47119e-06 -2.29177e-06 -0.00100129)
(1.28106e-06 -2.01564e-06 -0.00100117)
(1.11468e-06 -1.77392e-06 -0.00100107)
(9.69308e-07 -1.56211e-06 -0.00100099)
(8.42535e-07 -1.37626e-06 -0.00100091)
(7.3225e-07 -1.21295e-06 -0.00100085)
(6.36582e-07 -1.06919e-06 -0.00100079)
(5.53842e-07 -9.42386e-07 -0.00100074)
(4.82489e-07 -8.30287e-07 -0.00100069)
(4.21263e-07 -7.30941e-07 -0.00100064)
(3.69009e-07 -6.42672e-07 -0.00100059)
(3.247e-07 -5.64031e-07 -0.00100055)
(2.87423e-07 -4.93769e-07 -0.0010005)
(2.56356e-07 -4.30822e-07 -0.00100046)
(2.30751e-07 -3.74285e-07 -0.00100042)
(2.09924e-07 -3.23397e-07 -0.00100038)
(1.93245e-07 -2.77534e-07 -0.00100035)
(1.80131e-07 -2.3618e-07 -0.00100031)
(1.70056e-07 -1.98912e-07 -0.00100028)
(1.62558e-07 -1.65379e-07 -0.00100025)
(1.57233e-07 -1.35262e-07 -0.00100022)
(1.53712e-07 -1.08302e-07 -0.0010002)
(1.51631e-07 -8.43531e-08 -0.00100017)
(1.50686e-07 -6.32655e-08 -0.00100015)
(1.50641e-07 -4.49526e-08 -0.00100013)
(1.51283e-07 -2.93261e-08 -0.00100011)
(1.52441e-07 -1.63134e-08 -0.00100009)
(1.54289e-07 -5.54643e-09 -0.00100007)
(1.56551e-07 2.83848e-09 -0.00100005)
(1.5752e-07 7.35446e-09 -0.00100002)
)
;
    }
    procBoundary2to3
    {
        type            processor;
        value           nonuniform List<vector> 
180
(
(-1.61317e-09 4.86254e-10 -0.00100078)
(7.94498e-12 4.01131e-09 -0.00100071)
(-1.94492e-09 4.49687e-09 -0.00100069)
(-4.70068e-09 4.39629e-09 -0.0010007)
(-8.39686e-09 3.51852e-09 -0.00100071)
(-1.31314e-08 1.79301e-09 -0.00100074)
(-1.91688e-08 -9.97514e-10 -0.00100076)
(-2.67474e-08 -5.04125e-09 -0.00100079)
(-3.60884e-08 -1.05049e-08 -0.00100083)
(-4.73979e-08 -1.75339e-08 -0.00100087)
(-6.08685e-08 -2.62527e-08 -0.00100091)
(-7.66829e-08 -3.67656e-08 -0.00100095)
(-9.50182e-08 -4.91602e-08 -0.00100099)
(-1.16048e-07 -6.35056e-08 -0.00100104)
(-1.3995e-07 -7.98532e-08 -0.00100109)
(-1.66913e-07 -9.82461e-08 -0.00100114)
(-1.97109e-07 -1.18711e-07 -0.00100119)
(-2.30812e-07 -1.41365e-07 -0.00100125)
(-2.68242e-07 -1.6624e-07 -0.00100131)
(-3.09699e-07 -1.93416e-07 -0.00100137)
(-3.55522e-07 -2.22985e-07 -0.00100144)
(-4.06106e-07 -2.55053e-07 -0.00100151)
(-4.61918e-07 -2.89752e-07 -0.00100159)
(-5.23508e-07 -3.27258e-07 -0.00100168)
(-5.91525e-07 -3.67786e-07 -0.00100178)
(-6.66731e-07 -4.11607e-07 -0.0010019)
(-7.50032e-07 -4.59049e-07 -0.00100202)
(-8.42489e-07 -5.1051e-07 -0.00100217)
(-9.45341e-07 -5.66464e-07 -0.00100233)
(-1.06002e-06 -6.27466e-07 -0.00100251)
(-1.18819e-06 -6.9416e-07 -0.00100272)
(-1.33174e-06 -7.67287e-07 -0.00100296)
(-1.49287e-06 -8.47697e-07 -0.00100322)
(-1.6741e-06 -9.36359e-07 -0.00100352)
(-1.87831e-06 -1.03437e-06 -0.00100386)
(-2.10881e-06 -1.14299e-06 -0.00100424)
(-2.36939e-06 -1.26361e-06 -0.00100467)
(-2.66435e-06 -1.39783e-06 -0.00100515)
(-2.99864e-06 -1.54742e-06 -0.00100569)
(-3.37789e-06 -1.71438e-06 -0.0010063)
(-3.80852e-06 -1.90097e-06 -0.00100698)
(-4.2979e-06 -2.10972e-06 -0.00100775)
(-4.85444e-06 -2.34351e-06 -0.0010086)
(-5.48777e-06 -2.60555e-06 -0.00100957)
(-6.20892e-06 -2.89951e-06 -0.00101066)
(-7.03053e-06 -3.22951e-06 -0.00101188)
(-7.9671e-06 -3.60025e-06 -0.00101327)
(-9.03525e-06 -4.01707e-06 -0.00101483)
(-1.02541e-05 -4.48601e-06 -0.00101659)
(-1.16454e-05 -5.01395e-06 -0.00101858)
(-1.32346e-05 -5.60873e-06 -0.00102084)
(-1.50504e-05 -6.27924e-06 -0.0010234)
(-1.71262e-05 -7.03564e-06 -0.0010263)
(-1.95002e-05 -7.88948e-06 -0.00102959)
(-2.22168e-05 -8.85395e-06 -0.00103331)
(-2.53265e-05 -9.94411e-06 -0.00103754)
(-2.88877e-05 -1.11772e-05 -0.00104233)
(-3.29667e-05 -1.25729e-05 -0.00104777)
(-3.76396e-05 -1.41537e-05 -0.00105394)
(-4.29922e-05 -1.59455e-05 -0.00106095)
(-4.91201e-05 -1.79775e-05 -0.0010689)
(-5.61321e-05 -2.02828e-05 -0.00107794)
(-6.41574e-05 -2.2899e-05 -0.0010882)
(-7.33441e-05 -2.58705e-05 -0.00109986)
(-8.38621e-05 -2.92485e-05 -0.00111311)
(-9.59058e-05 -3.30919e-05 -0.00112818)
(-0.000109698 -3.74683e-05 -0.00114532)
(-0.000125496 -4.24559e-05 -0.00116482)
(-0.00014359 -4.81444e-05 -0.00118703)
(-0.000164318 -5.46376e-05 -0.00121231)
(-0.000188064 -6.2055e-05 -0.00124112)
(-0.000215273 -7.05348e-05 -0.00127395)
(-0.000246471 -8.02367e-05 -0.00131132)
(-0.000282265 -9.13471e-05 -0.00135382)
(-0.000323356 -0.000104086 -0.00140314)
(-0.000370567 -0.000118741 -0.00146474)
(-0.000424531 -0.000135638 -0.00153777)
(-0.00048306 -0.000153333 -0.00155089)
(-0.000529233 -0.000158965 -0.00100888)
(-0.00051834 -0.000119869 -0.00387339)
(-0.000138022 -0.000561223 -0.00158622)
(7.64563e-05 -0.000446027 -0.00607423)
(-0.00190777 -0.00083887 -0.00380866)
(-0.00187519 -0.000719809 -0.00794905)
(-0.00102681 -0.000315075 -0.00252211)
(-0.000884632 1.69166e-05 -0.004066)
(-0.000428862 0.00135719 -0.0192899)
(0.000805394 -0.000730512 0.0173589)
(-0.00134357 0.00033726 -0.0228924)
(-0.000465971 0.000404352 -0.00675505)
(-0.00104496 -0.000696055 0.00753322)
(5.51575e-06 0.000334483 -0.00654168)
(0.00112606 0.0032286 -0.0107693)
(0.000771916 0.00435983 -0.0058064)
(0.000978824 0.00368962 -0.00130338)
(-0.000479012 0.0038631 -0.000488714)
(0.000159991 0.00330894 0.0139143)
(0.00214411 0.00483441 -0.0170939)
(0.00110735 0.0029975 0.0109589)
(0.000435611 0.000807317 0.012447)
(-0.000515424 -0.00155622 -0.00227852)
(-0.00272253 0.000798006 -0.000523162)
(-0.00214184 -0.000986727 0.0284038)
(0.0017305 -0.00225309 -0.00451387)
(0.000867483 -0.00157501 -0.0092526)
(0.000373442 -0.0014957 -6.88703e-05)
(0.00014048 -0.00127884 0.000314999)
(0.000113971 -0.00110568 0.000157053)
(0.000108151 -0.000954392 -1.9845e-05)
(0.000103391 -0.000823432 -0.000162079)
(9.79811e-05 -0.000710647 -0.000282265)
(9.20268e-05 -0.000613558 -0.000385227)
(8.57745e-05 -0.000529956 -0.000473402)
(7.94316e-05 -0.000457932 -0.000548819)
(7.31552e-05 -0.000395849 -0.000613295)
(6.706e-05 -0.000342297 -0.000668394)
(6.12278e-05 -0.000296076 -0.000715458)
(5.57142e-05 -0.000256161 -0.000755638)
(5.05552e-05 -0.00022169 -0.000789928)
(4.57714e-05 -0.000191907 -0.000819224)
(4.13642e-05 -0.000166163 -0.000844329)
(3.73213e-05 -0.000143905 -0.000865891)
(3.36259e-05 -0.000124655 -0.00088443)
(3.02589e-05 -0.000108003 -0.000900391)
(2.71995e-05 -9.35952e-05 -0.000914149)
(2.44262e-05 -8.11272e-05 -0.000926023)
(2.19173e-05 -7.03333e-05 -0.000936279)
(1.96517e-05 -6.09855e-05 -0.000945143)
(1.7609e-05 -5.28874e-05 -0.000952804)
(1.57699e-05 -4.58701e-05 -0.000959424)
(1.41163e-05 -3.97878e-05 -0.00096514)
(1.26312e-05 -3.45149e-05 -0.000970068)
(1.12991e-05 -2.99424e-05 -0.000974311)
(1.01057e-05 -2.59763e-05 -0.000977965)
(9.0362e-06 -2.25362e-05 -0.000981119)
(8.07669e-06 -1.95526e-05 -0.000983835)
(7.21589e-06 -1.69648e-05 -0.000986164)
(6.44412e-06 -1.47198e-05 -0.000988156)
(5.75281e-06 -1.27718e-05 -0.000989857)
(5.13421e-06 -1.10811e-05 -0.00099131)
(4.58131e-06 -9.61327e-06 -0.000992553)
(4.08767e-06 -8.33861e-06 -0.000993619)
(3.64739e-06 -7.23141e-06 -0.000994535)
(3.25507e-06 -6.26945e-06 -0.000995326)
(2.90575e-06 -5.43355e-06 -0.000996012)
(2.59491e-06 -4.7071e-06 -0.000996608)
(2.31844e-06 -4.07576e-06 -0.000997128)
(2.07257e-06 -3.52711e-06 -0.000997584)
(1.8539e-06 -3.05039e-06 -0.000997983)
(1.65935e-06 -2.63631e-06 -0.000998333)
(1.48617e-06 -2.27679e-06 -0.000998639)
(1.33187e-06 -1.96483e-06 -0.000998906)
(1.19423e-06 -1.69437e-06 -0.000999138)
(1.07127e-06 -1.46014e-06 -0.000999337)
(9.6123e-07 -1.25756e-06 -0.000999507)
(8.62535e-07 -1.08266e-06 -0.000999652)
(7.73806e-07 -9.31965e-07 -0.000999772)
(6.93856e-07 -8.02372e-07 -0.000999869)
(6.21674e-07 -6.91101e-07 -0.000999948)
(5.56258e-07 -5.95946e-07 -0.00100001)
(4.96762e-07 -5.14919e-07 -0.00100006)
(4.4246e-07 -4.46271e-07 -0.0010001)
(3.92732e-07 -3.8846e-07 -0.00100013)
(3.47061e-07 -3.40117e-07 -0.00100014)
(3.05032e-07 -3.00004e-07 -0.00100016)
(2.66302e-07 -2.67019e-07 -0.00100016)
(2.30595e-07 -2.40184e-07 -0.00100016)
(1.97691e-07 -2.1862e-07 -0.00100016)
(1.67419e-07 -2.01549e-07 -0.00100015)
(1.39656e-07 -1.8828e-07 -0.00100015)
(1.14308e-07 -1.78186e-07 -0.00100014)
(9.12872e-08 -1.70727e-07 -0.00100013)
(7.05296e-08 -1.65455e-07 -0.00100012)
(5.19487e-08 -1.62003e-07 -0.0010001)
(3.56153e-08 -1.59978e-07 -0.00100009)
(2.15323e-08 -1.59077e-07 -0.00100008)
(9.70371e-09 -1.59051e-07 -0.00100007)
(-1.79232e-10 -1.60015e-07 -0.00100005)
(-7.95255e-09 -1.61665e-07 -0.00100004)
(-1.21721e-08 -1.62337e-07 -0.00100001)
)
;
    }
}


// ************************************************************************* //
