FoamFile
{version 2.0; format ascii;class Cloud<passiveParticle>; location 0;object  positions;}
356
(
( -1685.58 4046.76 499.024 ) 0 
( -3954.88 2494.45 498.552 ) 0 
( -3881.81 4223.55 498.765 ) 0 
( -4880.01 4266.96 498.814 ) 0 
( -2189.98 4909.84 499.529 ) 0 
( -3490.64 1609.39 498.734 ) 0 
( -2876.62 820.922 496.627 ) 0 
( -976.903 2179.89 499.024 ) 0 
( -2363.36 3286.96 497.765 ) 0 
( -4866.48 725.653 498.914 ) 0 
( -291.053 2917.65 498.312 ) 0 
( -551.889 141.937 498.777 ) 0 
( -4953.37 2535.61 497.702 ) 0 
( -1006.24 4782.12 497.211 ) 0 
( -3419.56 3338.38 498.33 ) 0 
( -1958.63 2373.93 496.974 ) 0 
( -4417.84 3380.08 498.551 ) 0 
( -605.822 3866.47 498.798 ) 0 
( -2518.78 1656.68 906.922 ) 0 
( -1110.1 4200.2 1300.96 ) 0 
( -4489.28 1650.39 497.771 ) 0 
( -1283.68 3131.38 499.66 ) 0 
( -1862.54 2959.58 1296.73 ) 0 
( -1509.26 438.503 496.883 ) 0 
( -3866.67 683.991 499.095 ) 0 
( -1636.43 1428.96 497.926 ) 0 
( -2850.1 4159.49 498.149 ) 0 
( -2956.46 2453.62 497.24 ) 0 
( -2794.41 4750.5 1300.46 ) 0 
( -437.915 4943.09 1303.74 ) 0 
( -3089.4 295.057 1316.37 ) 0 
( -4006.72 1282.76 1290.42 ) 0 
( -4469.5 2224.39 1314.65 ) 0 
( -562.564 1140.98 498.816 ) 0 
( -3857.36 4797.32 1315.57 ) 0 
( -715.173 3283.73 1324.78 ) 0 
( -2904.06 3042.9 1300.83 ) 0 
( -1181.52 983.289 1266.52 ) 0 
( -12.0733 1401.95 1323.41 ) 0 
( -437.05 2308.84 1329.47 ) 0 
( -1678.15 1951.97 1357.68 ) 0 
( -4204.08 305.339 1360.03 ) 0 
( -4960.05 2531.82 2128.05 ) 0 
( -3471.13 2183.09 1315.81 ) 0 
( -4369.12 4531.92 2131.09 ) 0 
( -2280.31 3893.08 1288.11 ) 0 
( -30.3829 4030.42 1298.26 ) 0 
( -1524.64 3599.34 1981.25 ) 0 
( -4931.07 3110.78 1312.91 ) 0 
( -2566.53 2208.29 1737.57 ) 0 
( -1034.6 4803.07 2093 ) 0 
( -4855.69 4848.34 1310.7 ) 0 
( -3069 1243.94 1628.85 ) 0 
( -2153.99 768.876 1183.2 ) 0 
( -3930.65 3070.29 1313.93 ) 0 
( -342.581 464.458 1420.73 ) 0 
( -1798.41 1153.19 2032.69 ) 0 
( -4395.14 3955.09 1315.47 ) 0 
( -3381.21 3920 1309.47 ) 0 
( -4463.62 1622.17 2112.29 ) 0 
( -2783.56 510.833 2242.77 ) 0 
( -1056 490.786 2126.01 ) 0 
( -939.389 1657.87 1960.97 ) 0 
( -2372.93 3100.1 2142.9 ) 0 
( -4785.33 640.175 2100.19 ) 0 
( -3410.15 2929.75 2154.18 ) 0 
( -2060.12 4598.19 1961.7 ) 0 
( -1897.81 175.763 2563.67 ) 0 
( -26.5437 1470 2319.02 ) 0 
( -248.524 2970.63 2173 ) 0 
( -3507.35 1876.52 2266.49 ) 0 
( -3800.33 802.026 2146.68 ) 0 
( -2625.46 1464.54 2495.02 ) 0 
( -1841.03 2077.2 2410.58 ) 0 
( -4420.9 3372.73 2129.91 ) 0 
( -1159.83 2633.62 1938.08 ) 0 
( -586.759 3909.97 2117.45 ) 0 
( -1533.5 4205.24 2772.55 ) 0 
( -599.8 2196.49 2728.63 ) 0 
( -4140.07 2518.41 2698.3 ) 0 
( -2965.83 4884.47 2274.96 ) 0 
( -2490.08 740.504 3169.23 ) 0 
( -238.862 542.058 2697.17 ) 0 
( -3413.2 1134.41 3010.52 ) 0 
( -2981.19 3887.23 2223.87 ) 0 
( -1600.97 2982.92 2763.37 ) 0 
( -1510.37 403.324 3455.28 ) 0 
( -3721.65 4869.63 2988.49 ) 0 
( -3838.93 3912.08 2734.27 ) 0 
( -4921.69 3998.06 2768.94 ) 0 
( -1413.51 2167.12 3307.8 ) 0 
( -2784.98 2417.98 2741.48 ) 0 
( -1183.85 1200.09 2819 ) 0 
( -4285.71 1612.67 3095.24 ) 0 
( -1170.16 4167.13 3702.62 ) 0 
( -468.194 4568.86 2879.18 ) 0 
( -2417.97 4578.58 3052.19 ) 0 
( -2386.77 3580.83 3017.09 ) 0 
( -3366.02 137.783 2963.36 ) 0 
( -198.118 3951.53 3613.93 ) 0 
( -2308.51 1734.29 3402.26 ) 0 
( -3375.99 3121.8 3133.47 ) 0 
( -713.729 3394.76 2963.6 ) 0 
( -3504.76 2163.52 3382.59 ) 0 
( -3162.89 448.227 3888.86 ) 0 
( -510.243 2221.15 3727.4 ) 0 
( -1303.43 3090.35 3709.73 ) 0 
( -2218.94 2724.84 3505.4 ) 0 
( -4623.67 4720.85 3390.07 ) 0 
( -306.551 1356.78 3270.87 ) 0 
( -503.77 211.495 3600.12 ) 0 
( -1384.54 1318.12 3832.93 ) 0 
( -4203.35 662.803 3397.2 ) 0 
( -4916.02 3040.69 3049.38 ) 0 
( -2912.31 3237.56 4010.71 ) 0 
( -2837.68 2175.4 4124.77 ) 0 
( -1653.83 137.058 4406.83 ) 0 
( -1637.34 1067.17 4771.24 ) 0 
( -4206.59 2795.59 3706.83 ) 0 
( -2390.91 1039.97 4116.54 ) 0 
( -2273.43 4000.59 3915.8 ) 0 
( -1843.95 2121.16 4208.08 ) 0 
( -83.2477 3062.4 4053.62 ) 0 
( -3853.45 4515.79 3990.7 ) 0 
( -4551.52 1356.67 4024.12 ) 0 
( -501.124 1018.25 4190.6 ) 0 
( -4025.19 581.745 4376.03 ) 0 
( -2741.56 4881.6 3977.4 ) 0 
( -3551.56 1363.43 3975.6 ) 0 
( -3158.28 4042.18 3453.8 ) 0 
( -4368.44 3771.49 3568.93 ) 0 
( -673.768 3762.76 4470.29 ) 0 
( -3612.99 2725.7 4506.27 ) 0 
( -315.383 4715.98 4549.17 ) 0 
( -984.439 1804.88 4607.98 ) 0 
( -4816.06 4313.17 4281.77 ) 0 
( -3412.15 1812.27 4856.21 ) 0 
( -1762.82 4820.65 4172.4 ) 0 
( -3093.89 4097.01 4486.91 ) 0 
( -2424.81 1670.13 4890.4 ) 0 
( -1628.61 3969.13 4677.27 ) 0 
( -89.8587 2248.25 4632.52 ) 0 
( -2011.11 3084.31 4414.3 ) 0 
( -4993.42 3332.67 4211.95 ) 0 
( -3162.34 847.223 4803.94 ) 0 
( -920.984 2801.13 4584.73 ) 0 
( -1093.9 393.894 5269.22 ) 0 
( -1364.56 4839.87 5088.59 ) 0 
( -4807.58 173.976 4844.3 ) 0 
( -1298.6 1527.93 5590.92 ) 0 
( -2464.76 3636.11 5112.02 ) 0 
( -4515.75 2990.29 5017.96 ) 0 
( -4751.38 2275 4362.09 ) 0 
( -2732.8 2683.22 4977.25 ) 0 
( -2391.45 269.495 5067.32 ) 0 
( -4875.6 4595.8 5299.99 ) 0 
( -2368.78 4614.81 4939.15 ) 0 
( -3928.14 4544.51 4985.78 ) 0 
( -3989.18 3652.61 4485.88 ) 0 
( -459.037 1173.58 5176.96 ) 0 
( -4286.31 1348.41 4986.42 ) 0 
( -2180.06 1059.06 5642.77 ) 0 
( -2960.51 2094.18 5751.52 ) 0 
( -3414.51 3359.31 5252.67 ) 0 
( -367.386 3260.93 5276.99 ) 0 
( -3643.49 1364.76 5751.04 ) 0 
( -627.809 4221.64 5358.05 ) 0 
( -3881.29 2399.7 5511.16 ) 0 
( -246.724 434.58 5815.02 ) 0 
( -3970.91 411.706 5357.64 ) 0 
( -1795.47 2393.58 5167.85 ) 0 
( -4563.44 1926.38 6166.2 ) 0 
( -4261.47 3793.89 5553.97 ) 0 
( -2016.08 2032.48 6072.67 ) 0 
( -1286.25 719.69 6193.86 ) 0 
( -4672.2 953.339 5818.02 ) 0 
( -641.905 163.027 6716.17 ) 0 
( -3118.57 4278.94 5507.96 ) 0 
( -1782.19 4128.27 5651.62 ) 0 
( -165.3 2785.18 6132.03 ) 0 
( -2288.41 2961.54 5826.79 ) 0 
( -501.004 1335.73 6162.16 ) 0 
( -4220.65 204.378 6301.51 ) 0 
( -3063.7 550.848 5752.16 ) 0 
( -1362.93 3275.65 5344.53 ) 0 
( -856.061 2420.24 5506.33 ) 0 
( -754.801 3602.98 6131.47 ) 0 
( -4211.07 3037.2 6204.84 ) 0 
( -4852.95 2607.68 6838.25 ) 0 
( -3660.38 2230.04 6468.63 ) 0 
( -4103.86 1159.65 6613.84 ) 0 
( -200.21 2042.91 6800.28 ) 0 
( -3118.6 3368.43 6207.1 ) 0 
( -2855.2 1312.26 6365.26 ) 0 
( -1227.44 4910.71 6075.33 ) 0 
( -2389.87 431.214 6478.56 ) 0 
( -3921.61 4626.41 5989.97 ) 0 
( -235.356 4922.86 5952.07 ) 0 
( -4691.95 4628.96 6626.01 ) 0 
( -1173.33 1931.02 6600.74 ) 0 
( -1388.46 2838.15 6241.14 ) 0 
( -2449.67 4274.92 7246.59 ) 0 
( -700.388 3021.5 6941.39 ) 0 
( -4229.87 1934.2 7232.89 ) 0 
( -1423.43 4123.91 6659.78 ) 0 
( -2205.69 3501.82 6662.75 ) 0 
( -185.679 4226 6666.48 ) 0 
( -2720.13 2530.91 6618.1 ) 0 
( -1921.86 1279.96 6722.07 ) 0 
( -2199.93 4681.2 6369.77 ) 0 
( -3121.91 4322.21 6506.84 ) 0 
( -2424.42 769.735 7417.66 ) 0 
( -4012.11 3898.64 6668.53 ) 0 
( -3371.21 692.197 7107.66 ) 0 
( -3603.6 3058.8 7024.31 ) 0 
( -1594.22 163.509 7020.16 ) 0 
( -530.386 3820.43 7516.73 ) 0 
( -3806.16 4800.64 7056.61 ) 0 
( -4907.46 3755.89 7088.17 ) 0 
( -3263.05 1680.79 7201.37 ) 0 
( -864.365 4876.45 7005.37 ) 0 
( -1503.65 3429.85 7373.83 ) 0 
( -1496.98 1704.13 7520.32 ) 0 
( -1834.64 2534.12 7080.19 ) 0 
( -4996.29 1324.14 7424.27 ) 0 
( -3986.78 1124.23 7765.18 ) 0 
( -4512.39 475.335 7216.75 ) 0 
( -887.3 1073.12 7044.91 ) 0 
( -2694.45 3102.28 7437.95 ) 0 
( -984.311 2527.2 7760.84 ) 0 
( -3974.71 108.094 7974.55 ) 0 
( -4421.78 3060.04 7616.8 ) 0 
( -3374.14 3947.2 7435.76 ) 0 
( -2989.42 253.391 8059.32 ) 0 
( -12.0334 2656.02 7566.03 ) 0 
( -3631.79 2152.72 8001.67 ) 0 
( -4017.42 4996.14 8080.46 ) 0 
( -4808.63 4596.75 7618.17 ) 0 
( -2190.79 3723.62 8037.79 ) 0 
( -2439.78 1999.76 7668.72 ) 0 
( -3080.7 4844.13 7770.61 ) 0 
( -72.8864 1379.23 7536.76 ) 0 
( -902.513 295.545 7728.84 ) 0 
( -4872.82 3762.9 8165.23 ) 0 
( -1530.59 4434.1 7604.04 ) 0 
( -299.931 2013.27 8275.54 ) 0 
( -2395.19 4555.24 8553.04 ) 0 
( -1220.31 3760.2 8273.42 ) 0 
( -4404.87 2893.48 8602.38 ) 0 
( -1439.84 4916.65 8474.57 ) 0 
( -2992.06 1270.17 8070.64 ) 0 
( -2813.97 2550.16 8413.85 ) 0 
( -607.776 4713.03 7959.45 ) 0 
( -779.704 4341.43 8956.7 ) 0 
( -4816.43 2219.45 7990.03 ) 0 
( -3913.37 4021.63 8273.85 ) 0 
( -876.979 1210.8 8129.29 ) 0 
( -3510.3 3144.62 8015.55 ) 0 
( -429.52 3152.25 8326.01 ) 0 
( -1910.24 2764.93 8048.71 ) 0 
( -1860.14 173.894 7987.9 ) 0 
( -3610.57 754.051 8660.97 ) 0 
( -398.747 2542.9 9117.64 ) 0 
( -3007.54 3768.18 8612.65 ) 0 
( -3270.23 4997.99 8743.74 ) 0 
( -2006.16 1200.43 8216.35 ) 0 
( -1154.7 443.405 8706.1 ) 0 
( -1273.39 2911.92 8804.36 ) 0 
( -3493.13 2986.12 9002.46 ) 0 
( -2382.6 91.0549 8835.99 ) 0 
( -1415.41 1978.7 8477.1 ) 0 
( -4183.08 1597.2 8622.7 ) 0 
( -2225.64 3202.35 8889.53 ) 0 
( -180.623 789.727 8710.16 ) 0 
( -331.958 51.4557 9375.12 ) 0 
( -2635.55 1047.51 8977.34 ) 0 
( -3148.43 322.645 9434.94 ) 0 
( -4187.27 3684.07 9173.72 ) 0 
( -3263.48 1827.82 8937.18 ) 0 
( -4063.05 1271.09 9559.56 ) 0 
( -704.223 3453.14 9421.6 ) 0 
( -4078.76 2260.79 9362.44 ) 0 
( -1648.31 1191.61 9148.83 ) 0 
( -721.425 1554.72 9057.41 ) 0 
( -4189.55 4669.15 9008.34 ) 0 
( -2260.24 1972.51 9011.01 ) 0 
( -4579.27 722.398 8901.01 ) 0 
( -1724.78 4043.84 9087.91 ) 0 
( -1393.22 2171.7 9465.08 ) 0 
( -2739.9 3713.89 9575.93 ) 0 
( -1649.8 4972.58 9450.02 ) 0 
( -2169.13 542.734 9703.08 ) 0 
( -3559.64 3285.83 9953.54 ) 0 
( -2730.45 2661.57 9561.41 ) 0 
( -3115.47 1423.66 9838.44 ) 0 
( -2675.76 4707.71 9500.64 ) 0 
( -178.068 4237.15 9748 ) 0 
( -4774.95 1899.66 9984.06 ) 0 
( -905.77 804.633 9694.09 ) 0 
( -135.2 2138.52 9992.82 ) 0 
( -4667.21 4417.73 9849.58 ) 0 
( -3460.67 2309.97 10146.3 ) 0 
( -3637.73 668.173 10234.8 ) 0 
( -3559.75 4276.33 9677.48 ) 0 
( -981.24 1654.46 10214.2 ) 0 
( -4439.14 2834.22 10097.5 ) 0 
( -4002.05 1555.3 10516.1 ) 0 
( -1292.65 90.0002 10275.9 ) 0 
( -300.462 30.9275 10377.1 ) 0 
( -922.285 2735.69 10142.2 ) 0 
( -1165.62 4220.76 9896.61 ) 0 
( -1651.07 3261.53 9705.04 ) 0 
( -4623.53 622.47 10073.7 ) 0 
( -2133.89 1590.6 9925.97 ) 0 
( -175.875 1021.68 10341.5 ) 0 
( -2124.28 4221.55 10178 ) 0 
( -1338.51 3543.73 10611.5 ) 0 
( -2268 3833.74 11088 ) 0 
( -2666.37 1998.35 10667.2 ) 0 
( -1504.33 1912.19 11025.6 ) 0 
( -358.837 3514.66 10414.6 ) 0 
( -2081.74 126.162 10888 ) 0 
( -2689.95 826.375 10516.5 ) 0 
( -1878.06 2484.86 10291.7 ) 0 
( -2589.38 3177.69 10405.6 ) 0 
( -558.276 4560.04 10614.2 ) 0 
( -3937.42 4737.28 10479.7 ) 0 
( -4273.73 3747.98 10478.7 ) 0 
( -1652.4 980.176 10553.9 ) 0 
( -3052.73 4060.44 10511.2 ) 0 
( -3429.34 3241.62 10943.6 ) 0 
( -3256.58 1352.34 11150.3 ) 0 
( -2499.25 2750.75 11304.8 ) 0 
( -2826.91 515.934 11489.8 ) 0 
( -825.919 622.667 10987.9 ) 0 
( -2265.26 1315.31 11277.7 ) 0 
( -4796.37 1805.36 11069 ) 0 
( -540.38 2777.42 11064.9 ) 0 
( -1428.24 4370.83 11165.7 ) 0 
( -4051.78 2459.59 10939.3 ) 0 
( -343.52 1777.53 10973.9 ) 0 
( -1506.19 2865.42 11326.2 ) 0 
( -4867.61 3103.14 10959.4 ) 0 
( -4938.85 503.228 11041.5 ) 0 
( -3318.11 2250.48 11585.3 ) 0 
( -857.367 2128.6 11756.4 ) 0 
( -4000.96 707.486 11321 ) 0 
( -1655.21 3693.93 11865.5 ) 0 
( -253.765 1070.18 11674.7 ) 0 
( -3190.62 4761.89 11209.9 ) 0 
( -2863.34 1496.02 12058.2 ) 0 
( -2014.6 2082.12 11868.3 ) 0 
( -4169.87 3466.13 11576.5 ) 0 
( -3095.74 3868.08 11647.7 ) 0 
( -584.841 3858.18 11325.7 ) 0 
( -4461.21 4363.02 11244.5 ) 0 
)
