FoamFile
{version 2.0; format ascii;class vectorField; location 0;object  v;}
356
(
( 1.46104e-06 -1.44666e-08 7.21488e-07 )  
( 3.03394e-06 -1.50583e-06 -5.52709e-07 )  
( 3.20734e-06 -1.03962e-06 -1.82467e-07 )  
( 2.52178e-06 -1.81125e-06 5.85046e-07 )  
( 3.8734e-07 -1.95648e-07 5.01334e-07 )  
( 3.7826e-06 -8.35213e-07 -3.66211e-07 )  
( 4.57023e-06 -4.71607e-07 -8.09104e-07 )  
( 6.16702e-06 -2.22539e-06 1.06451e-07 )  
( 2.97139e-06 -1.66279e-06 -9.87915e-07 )  
( 3.32107e-06 -2.68081e-06 -4.49795e-07 )  
( 8.9189e-07 -5.90404e-07 -7.91328e-08 )  
( 6.51867e-06 -1.98386e-06 -6.36955e-08 )  
( 3.53976e-06 -2.83295e-06 -1.39575e-07 )  
( 2.33075e-06 -1.92282e-06 -1.08894e-07 )  
( 2.62187e-06 -1.05001e-06 -7.10366e-07 )  
( 5.21695e-06 -8.54715e-07 -1.62272e-07 )  
( 2.56054e-06 -1.90877e-06 -4.49652e-07 )  
( 2.73869e-06 -6.18701e-08 -7.94072e-07 )  
( 6.5859e-06 -9.97467e-07 -6.67138e-07 )  
( 4.07802e-06 -2.41725e-06 6.66686e-07 )  
( 4.1663e-06 -2.58463e-06 -9.55603e-07 )  
( 2.86834e-06 1.36707e-07 1.26088e-06 )  
( 6.27372e-06 2.79229e-07 -2.79526e-06 )  
( 5.52706e-06 -9.85555e-07 -4.64973e-07 )  
( 2.82095e-06 -4.36016e-07 6.05508e-07 )  
( 5.06679e-06 -6.92829e-07 2.48119e-07 )  
( 3.82573e-06 -2.12415e-06 -5.67624e-07 )  
( 3.33243e-06 -6.07004e-07 -1.23778e-06 )  
( 1.17012e-05 -4.07799e-06 1.22193e-06 )  
( 8.89458e-06 -2.60524e-06 1.49193e-06 )  
( 9.35098e-06 -9.34266e-07 -2.50514e-06 )  
( 7.6069e-06 -1.80618e-06 -4.56148e-07 )  
( 5.97128e-06 -3.50734e-06 -1.87374e-06 )  
( 4.7065e-06 -1.55545e-06 5.87289e-07 )  
( 8.75105e-06 -2.27086e-06 -1.24374e-06 )  
( 2.02668e-06 -5.25206e-06 5.31067e-08 )  
( 5.14739e-06 -1.76581e-06 -2.1226e-06 )  
( 8.76682e-06 -2.50437e-06 -4.10335e-07 )  
( 1.0679e-05 -6.09661e-06 2.28581e-06 )  
( 5.85587e-06 -1.91849e-05 5.85096e-06 )  
( 5.98624e-06 -2.75442e-06 4.17358e-06 )  
( 1.33037e-05 -1.29374e-06 2.12069e-06 )  
( 7.48187e-06 -3.85525e-06 -4.09011e-06 )  
( 5.57787e-06 -2.17807e-06 -9.92943e-07 )  
( 6.91431e-06 -7.61105e-06 -5.35849e-06 )  
( 1.16185e-05 -2.90466e-06 -3.12939e-07 )  
( 3.25852e-06 -3.6202e-06 -1.45081e-06 )  
( 3.21169e-06 -1.02109e-06 -2.39707e-06 )  
( 5.42694e-06 -4.78278e-06 -1.43552e-06 )  
( 5.94106e-06 -3.064e-06 -1.55001e-06 )  
( 7.53607e-06 -1.19682e-06 -1.57275e-06 )  
( 6.85426e-06 -3.37616e-06 6.44494e-08 )  
( 7.83762e-06 -4.9994e-07 -8.9324e-07 )  
( 8.89959e-06 -1.37789e-06 -8.04698e-07 )  
( 4.79381e-06 -2.16255e-06 -1.6219e-06 )  
( 1.00078e-05 -5.51197e-06 7.52081e-07 )  
( 8.30629e-06 -5.17288e-06 5.90883e-08 )  
( 6.63751e-06 -2.13464e-06 -2.03987e-06 )  
( 8.22061e-06 -4.54422e-07 -1.05651e-06 )  
( 7.43857e-06 -4.22287e-06 -3.46881e-06 )  
( 1.08345e-05 -6.93505e-07 -3.88868e-06 )  
( 1.02598e-05 -4.30706e-06 -2.79835e-06 )  
( 9.88103e-06 -8.05099e-06 1.59875e-06 )  
( 6.27786e-06 -2.17579e-06 -4.40706e-06 )  
( 1.24864e-05 -4.52596e-06 1.94666e-06 )  
( 6.63123e-06 -1.5631e-06 -5.10432e-06 )  
( 1.41988e-05 -6.49368e-06 3.83288e-06 )  
( 1.21641e-05 -2.35261e-06 -3.50646e-06 )  
( 1.07591e-05 -8.05514e-06 3.57941e-08 )  
( 2.29419e-06 -6.95668e-06 -1.63519e-06 )  
( 1.01547e-05 2.81391e-07 -1.01401e-06 )  
( 1.46406e-05 -4.50278e-06 7.28262e-06 )  
( 9.3222e-06 -9.77099e-07 -3.43808e-06 )  
( 5.7424e-06 -2.87357e-06 -2.80234e-06 )  
( 7.42453e-06 -2.26985e-06 -3.4331e-06 )  
( 4.39368e-06 -7.21925e-06 -2.67832e-06 )  
( 2.88561e-06 -2.38298e-06 -3.82767e-06 )  
( 4.25487e-06 -2.91136e-06 -2.44602e-06 )  
( 6.41757e-06 -7.95752e-06 -7.51773e-07 )  
( 7.26496e-06 -8.44917e-07 -7.25951e-06 )  
( 1.32341e-05 -9.4861e-07 -1.89118e-06 )  
( 9.04614e-06 3.57979e-06 -3.91801e-06 )  
( 9.38051e-06 -3.74239e-06 -2.21058e-06 )  
( 9.29494e-06 -8.92617e-07 -7.37711e-06 )  
( 9.10873e-06 -1.93424e-06 -2.76717e-06 )  
( 4.3479e-06 -7.03964e-07 -8.95253e-06 )  
( 1.60532e-05 3.07422e-06 -1.01453e-05 )  
( 1.36224e-05 -2.35628e-06 -5.29241e-06 )  
( 1.09878e-05 -1.64813e-06 -8.4305e-06 )  
( 6.9394e-06 -5.55812e-06 -1.26205e-05 )  
( 3.93056e-06 5.66449e-07 -9.95485e-06 )  
( 8.01274e-06 -3.36782e-07 -6.4401e-06 )  
( 6.90286e-06 -1.829e-05 4.12142e-06 )  
( 6.93068e-06 -1.07467e-06 -9.52501e-06 )  
( 5.51268e-06 6.26203e-06 -8.48411e-06 )  
( 5.04234e-06 -1.69904e-06 -8.44916e-06 )  
( 1.1186e-05 5.58009e-07 -4.3575e-06 )  
( 8.95308e-06 3.57932e-07 -7.81898e-06 )  
( 1.29869e-05 -1.79427e-06 -1.01962e-05 )  
( 5.96199e-06 2.25742e-06 -1.51611e-05 )  
( 5.96758e-06 1.85138e-06 -8.43785e-06 )  
( 1.02402e-05 1.2215e-07 -9.58101e-06 )  
( 3.37244e-06 -2.22665e-06 -9.96874e-06 )  
( 6.85658e-06 8.65437e-08 -1.31154e-05 )  
( 6.39002e-06 1.41306e-06 -1.86117e-05 )  
( -1.36479e-06 -1.09247e-06 -1.02981e-05 )  
( 5.74471e-06 -3.41606e-07 -1.69023e-05 )  
( 7.84964e-06 2.97619e-06 -1.11177e-05 )  
( 1.10274e-05 -4.71187e-06 -2.09421e-05 )  
( 6.849e-06 -4.43576e-06 -4.8586e-06 )  
( 4.83083e-06 -1.9994e-06 -1.07567e-05 )  
( 7.83961e-06 4.30995e-06 -1.47195e-05 )  
( 7.16979e-06 8.06563e-07 -1.69535e-05 )  
( 6.03215e-06 -3.67153e-06 -1.2069e-05 )  
( 8.93091e-06 5.86949e-06 -1.76369e-05 )  
( 7.22627e-06 3.20462e-06 -2.06089e-05 )  
( -1.80966e-06 5.40195e-06 -2.17559e-05 )  
( -7.24159e-06 9.33382e-06 -1.65827e-05 )  
( 5.17981e-06 1.08815e-06 -1.5082e-05 )  
( -1.30434e-06 5.71315e-06 -9.05424e-06 )  
( 1.02979e-05 5.58768e-06 -1.40701e-05 )  
( 3.75691e-06 4.60862e-06 -1.78039e-05 )  
( -6.14576e-07 1.47697e-06 -1.67195e-05 )  
( 7.93259e-06 4.76296e-06 -2.44723e-05 )  
( 1.32584e-06 2.468e-06 -2.63644e-05 )  
( 2.11005e-06 1.75851e-06 -1.0376e-05 )  
( 3.63187e-06 7.77628e-06 -2.87009e-05 )  
( 1.13904e-05 6.0395e-06 -9.10023e-06 )  
( 8.57931e-06 1.60099e-06 -2.57163e-05 )  
( 1.066e-05 -7.33389e-07 -1.01551e-05 )  
( 8.8439e-06 1.24206e-06 -1.59876e-05 )  
( 8.28867e-06 7.22601e-06 -2.38189e-05 )  
( 6.43746e-06 2.85139e-06 -2.60165e-05 )  
( 4.03767e-06 7.08301e-06 -2.4149e-05 )  
( -1.3212e-06 6.31909e-06 -1.54884e-05 )  
( 1.51286e-05 -1.24313e-06 -2.5712e-05 )  
( -1.49978e-06 2.28302e-06 -3.21544e-05 )  
( 1.07143e-05 8.46559e-06 -1.85052e-05 )  
( 9.63912e-06 8.62396e-06 -1.99361e-05 )  
( -2.42979e-06 9.33017e-06 -1.42399e-05 )  
( 1.01789e-05 1.21971e-05 -2.35179e-05 )  
( -2.50247e-06 3.5873e-06 -2.18123e-05 )  
( 8.96295e-06 7.68094e-06 -2.19703e-05 )  
( 3.77355e-06 2.07387e-06 -2.45417e-05 )  
( -5.7682e-06 4.7636e-06 -2.84757e-05 )  
( 2.11886e-06 5.14384e-06 -2.74692e-05 )  
( -1.9045e-05 6.7402e-07 -4.17383e-05 )  
( 3.89213e-06 1.29038e-05 -2.86279e-05 )  
( 6.69959e-06 3.76602e-06 -2.99576e-05 )  
( 2.93152e-06 6.1408e-06 -2.87267e-05 )  
( 9.31903e-06 1.01557e-05 -3.4854e-05 )  
( 4.97877e-06 4.59426e-06 -3.8358e-05 )  
( 1.39473e-06 1.46038e-06 -2.69777e-05 )  
( 6.06132e-06 1.12107e-05 -3.81939e-05 )  
( -4.54724e-06 5.75652e-06 -3.39091e-05 )  
( 1.45224e-05 4.25022e-06 -4.69942e-05 )  
( 1.12607e-05 1.20466e-05 -2.73958e-05 )  
( 1.13903e-05 8.60293e-06 -3.95284e-05 )  
( 4.21916e-06 4.84663e-06 -2.02885e-05 )  
( 1.08786e-06 4.19365e-06 -2.76073e-05 )  
( -1.82964e-06 3.04014e-07 -4.86312e-05 )  
( 4.07489e-06 -8.0839e-07 -2.18983e-05 )  
( 1.0122e-07 6.53277e-06 -6.09793e-05 )  
( 1.06841e-05 9.17139e-06 -4.11409e-05 )  
( 4.38364e-06 5.78616e-06 -4.08113e-05 )  
( -1.79853e-06 3.64035e-06 -6.25559e-05 )  
( 2.95088e-06 8.19886e-06 -3.85943e-05 )  
( 3.30291e-06 1.08597e-05 -6.19976e-05 )  
( -8.07896e-06 5.06227e-06 -2.85303e-05 )  
( -3.0187e-06 1.09764e-06 -4.88337e-05 )  
( 9.18211e-07 1.49678e-05 -3.7949e-05 )  
( 1.25595e-06 2.40713e-06 -7.08483e-05 )  
( 1.86506e-05 9.04986e-06 -5.10225e-05 )  
( -1.28973e-06 1.25617e-05 -6.06147e-05 )  
( -2.26567e-06 5.32933e-06 -5.89355e-05 )  
( -6.68106e-07 1.55554e-06 -6.28617e-05 )  
( -1.92089e-06 1.02224e-05 -8.00632e-05 )  
( 1.05982e-05 1.14032e-05 -4.39524e-05 )  
( -2.20201e-06 1.5066e-05 -3.50546e-05 )  
( -6.77976e-06 9.67384e-06 -5.5341e-05 )  
( 1.97855e-06 7.58107e-06 -5.5626e-05 )  
( -1.23121e-06 6.89694e-06 -5.298e-05 )  
( -9.03099e-07 -6.36204e-07 -6.82683e-05 )  
( -7.42201e-06 2.04123e-06 -5.21937e-05 )  
( 6.40166e-06 1.21861e-05 -3.77008e-05 )  
( 1.58054e-06 1.10428e-05 -3.85932e-05 )  
( -3.08565e-06 1.26748e-05 -5.90652e-05 )  
( 2.45809e-05 1.29661e-05 -7.20525e-05 )  
( 1.32162e-05 6.94786e-07 -0.000106266 )  
( 9.59505e-07 9.98274e-06 -9.06536e-05 )  
( -2.28306e-06 3.22245e-06 -8.22159e-05 )  
( -1.29613e-05 1.16884e-05 -6.73211e-05 )  
( 5.67587e-06 1.0288e-05 -5.17278e-05 )  
( 3.92015e-06 6.99052e-06 -6.51314e-05 )  
( -1.14966e-06 1.70776e-05 -5.17614e-05 )  
( -6.28248e-06 9.01291e-06 -7.98686e-05 )  
( 4.07732e-06 6.43471e-06 -6.18908e-05 )  
( -1.44426e-07 7.37657e-06 -4.81273e-05 )  
( -3.9301e-06 -5.9013e-06 -9.19439e-05 )  
( -7.14781e-06 8.4569e-06 -6.21552e-05 )  
( -2.91514e-06 1.18227e-05 -6.29455e-05 )  
( -1.31762e-05 1.2547e-05 -9.65545e-05 )  
( -9.47872e-06 1.24387e-05 -7.45379e-05 )  
( 1.22114e-06 -1.5973e-06 -0.000107664 )  
( -9.43265e-06 1.11952e-05 -7.89775e-05 )  
( -1.7268e-05 1.79121e-05 -8.48479e-05 )  
( -8.87801e-06 7.51943e-06 -5.75926e-05 )  
( -5.95009e-06 1.56803e-05 -7.38577e-05 )  
( -3.92515e-06 8.75612e-06 -8.81616e-05 )  
( -5.14321e-06 2.28766e-05 -5.66607e-05 )  
( -4.7871e-06 2.43297e-05 -5.12373e-05 )  
( -1.03416e-06 1.12545e-05 -0.000112181 )  
( -7.26254e-07 7.05639e-06 -8.31872e-05 )  
( -2.0638e-06 4.55023e-06 -0.000102358 )  
( -1.41531e-05 3.44482e-06 -8.2429e-05 )  
( -8.60944e-06 3.75051e-06 -8.80112e-05 )  
( 4.05107e-06 1.98781e-05 -8.9455e-05 )  
( -3.0392e-05 -1.14342e-05 -5.75203e-05 )  
( -3.32034e-07 -1.05837e-05 -9.63248e-05 )  
( -3.03628e-07 2.63273e-06 -0.000119282 )  
( -1.38672e-05 9.53016e-06 -6.28316e-05 )  
( -7.8946e-06 5.67372e-07 -0.000101911 )  
( -1.0129e-05 3.24042e-06 -0.00011629 )  
( -1.46063e-06 3.89184e-06 -0.000101188 )  
( 3.06636e-06 -2.34584e-07 -0.000100551 )  
( 6.40527e-06 8.39174e-06 -0.000115614 )  
( 1.08445e-05 4.14006e-06 -9.77377e-05 )  
( -1.14635e-05 2.64158e-06 -8.05904e-05 )  
( -3.1702e-06 4.89468e-06 -9.27371e-05 )  
( -5.05869e-06 6.65998e-07 -0.000111585 )  
( 4.42842e-06 2.31903e-05 -0.000116615 )  
( -7.6666e-06 -1.0343e-05 -0.000106612 )  
( -1.5635e-05 1.22264e-05 -0.000101411 )  
( 4.05503e-06 1.66443e-05 -0.000126479 )  
( -6.69223e-06 2.06713e-05 -0.000107006 )  
( 9.75105e-07 6.34285e-06 -0.000134774 )  
( -8.88481e-06 -1.05232e-05 -0.000132774 )  
( -5.44647e-07 -5.77677e-06 -0.000128372 )  
( -1.10382e-05 -6.33816e-06 -0.000135385 )  
( -1.93446e-06 2.8335e-06 -0.000124222 )  
( -9.00102e-06 1.25663e-05 -0.00010795 )  
( -8.50088e-06 1.08006e-05 -0.000100622 )  
( -1.68001e-06 -3.64621e-07 -0.000121714 )  
( -9.72862e-06 -5.21982e-06 -0.000138062 )  
( -2.44886e-05 -1.02039e-05 -0.00010599 )  
( -7.29146e-06 3.79809e-06 -0.000128753 )  
( -1.91445e-05 -3.76361e-06 -0.000160737 )  
( -1.71056e-05 8.97537e-07 -0.000135536 )  
( 1.87019e-05 -9.41089e-06 -0.00012295 )  
( -3.06423e-05 -1.57705e-05 -0.000152786 )  
( -4.26017e-06 7.34956e-06 -0.000129079 )  
( -3.86907e-06 3.73101e-06 -0.000147822 )  
( -2.35178e-05 1.70972e-05 -0.000108461 )  
( -1.66597e-05 1.55016e-05 -0.000181563 )  
( 9.61558e-06 -7.70359e-07 -0.000110731 )  
( -8.60645e-06 -5.43824e-06 -0.000126664 )  
( 5.24349e-06 3.28872e-07 -0.000140346 )  
( -5.94587e-06 -6.62063e-07 -0.000125099 )  
( -1.20987e-05 9.42418e-06 -0.000132359 )  
( -4.16873e-06 -7.75788e-06 -0.000130533 )  
( 1.72355e-06 7.78851e-06 -0.000123884 )  
( -1.18291e-06 7.51709e-06 -0.000142516 )  
( -1.2794e-05 -8.00969e-06 -0.00015958 )  
( 9.22588e-07 -6.29873e-06 -0.000137051 )  
( -1.70228e-06 9.41668e-06 -0.00016192 )  
( -1.2046e-05 1.62899e-05 -0.00012639 )  
( -1.63204e-05 -2.95679e-06 -0.000158336 )  
( -1.36645e-05 -1.686e-06 -0.000147777 )  
( 3.24696e-06 -1.62887e-06 -0.000167397 )  
( -3.54633e-06 2.97161e-06 -0.000149945 )  
( -8.96243e-06 -7.31336e-08 -0.000148284 )  
( -3.26906e-06 1.00723e-05 -0.000158291 )  
( -1.17318e-05 5.46028e-06 -0.000165554 )  
( -1.4297e-07 -4.87884e-06 -0.000170879 )  
( -8.10882e-06 -2.89232e-06 -0.000185092 )  
( -1.61291e-06 4.47209e-06 -0.000135167 )  
( 6.43748e-06 -6.39068e-06 -0.000154166 )  
( -7.60305e-06 -6.52984e-06 -0.000156199 )  
( 2.61541e-06 -6.78228e-06 -0.000187105 )  
( 1.7432e-05 -2.2188e-05 -0.00020592 )  
( -2.65352e-05 3.79564e-05 -0.000192963 )  
( 6.01906e-07 2.21781e-06 -0.000191124 )  
( -2.15887e-06 6.0389e-07 -0.00016322 )  
( -7.26534e-06 -7.64733e-06 -0.000171309 )  
( -2.37478e-05 -1.14088e-05 -0.000159066 )  
( 2.5932e-07 1.85473e-06 -0.000161074 )  
( 2.80789e-06 8.19035e-07 -0.000153585 )  
( -1.35978e-05 1.25695e-05 -0.000171627 )  
( -7.57346e-06 -1.43139e-05 -0.000175664 )  
( -1.06741e-05 6.71465e-06 -0.000211909 )  
( -1.03235e-05 4.04723e-06 -0.0001874 )  
( 1.07015e-05 -8.33417e-06 -0.000156308 )  
( 9.85822e-07 -3.09432e-06 -0.000206657 )  
( -3.48715e-06 8.2493e-06 -0.000184511 )  
( 3.15947e-05 -2.78613e-05 -0.000223315 )  
( -1.65108e-05 5.36182e-06 -0.000210877 )  
( -6.32701e-06 2.29315e-05 -0.000234288 )  
( 1.90556e-05 -1.71529e-05 -0.000193869 )  
( -5.50702e-06 -1.42668e-05 -0.000204445 )  
( -9.30294e-06 -2.48946e-05 -0.000202096 )  
( -8.77098e-06 -1.88189e-05 -0.000183246 )  
( 1.0324e-05 -2.73299e-05 -0.000219021 )  
( 5.08156e-06 -4.18765e-05 -0.000180447 )  
( -8.02919e-06 1.22308e-06 -0.000194632 )  
( 2.01598e-06 -2.68153e-05 -0.000209295 )  
( 1.71908e-05 -1.58064e-05 -0.000206526 )  
( 2.69063e-05 -3.54294e-05 -0.000220292 )  
( -2.0127e-06 -1.98283e-05 -0.000216484 )  
( -7.92327e-06 -2.16057e-05 -0.000223528 )  
( 5.78395e-06 -7.44646e-07 -0.000221084 )  
( -4.68236e-06 5.19445e-06 -0.000214112 )  
( -5.25065e-06 3.39408e-06 -0.00019683 )  
( 1.19848e-05 4.61183e-06 -0.000206041 )  
( 2.06927e-05 2.3337e-07 -0.000179896 )  
( -2.30524e-06 -2.35704e-05 -0.000221528 )  
( -3.54897e-06 6.67814e-06 -0.000219978 )  
( 3.82639e-05 -8.24515e-06 -0.000229618 )  
( 9.34879e-06 6.37297e-06 -0.000240054 )  
( 2.06137e-06 -4.88607e-06 -0.000224053 )  
( 3.10445e-06 -8.15895e-06 -0.000241129 )  
( 1.58401e-05 1.09984e-05 -0.000264036 )  
( 5.73497e-06 -2.66841e-05 -0.00023008 )  
( 1.55347e-05 -2.07933e-05 -0.000237128 )  
( 3.4979e-07 1.52532e-05 -0.000199286 )  
( -6.91884e-06 2.30652e-05 -0.000229177 )  
( 1.61485e-06 5.8695e-06 -0.00024184 )  
( -2.10888e-06 7.38396e-06 -0.00020837 )  
( 1.74131e-05 -4.52561e-06 -0.000213962 )  
( 6.5851e-06 -2.14016e-05 -0.000195287 )  
( 4.93717e-06 1.0827e-05 -0.000228244 )  
( 2.92555e-06 1.12258e-05 -0.000220202 )  
( 3.22524e-05 -8.03358e-06 -0.000232367 )  
( 1.15612e-05 1.70229e-05 -0.00027595 )  
( 1.99275e-05 -1.48429e-05 -0.000254672 )  
( 5.31982e-06 -3.2293e-05 -0.000234412 )  
( 6.8867e-06 -8.72574e-06 -0.00025611 )  
( 2.49538e-05 -5.99261e-06 -0.000239108 )  
( -6.48249e-06 -1.92664e-06 -0.000262949 )  
( 1.81979e-05 -2.36909e-06 -0.000237364 )  
( 2.45543e-05 -1.48434e-05 -0.000240517 )  
( -6.41938e-06 -2.65696e-05 -0.00021971 )  
( 3.0074e-05 -5.10439e-06 -0.000237325 )  
( -4.99199e-06 3.1238e-06 -0.000251327 )  
( -2.84071e-06 -8.16334e-06 -0.000233393 )  
( 3.36509e-05 -6.17037e-06 -0.00025843 )  
( -1.69667e-06 3.97513e-05 -0.000245809 )  
( 9.72658e-06 -7.38123e-06 -0.000241515 )  
( 1.12243e-05 -2.46711e-06 -0.000252202 )  
( -7.58443e-06 -4.35904e-05 -0.000237765 )  
( -4.40105e-06 8.1766e-06 -0.000254521 )  
( -3.86249e-06 -4.56234e-05 -0.000251152 )  
( -2.41949e-05 3.10862e-05 -0.000290705 )  
( -1.65417e-05 -1.68157e-06 -0.000229367 )  
( 3.37814e-06 2.94071e-05 -0.00023895 )  
( 3.87934e-05 1.56924e-06 -0.000264624 )  
( -1.91271e-05 -8.10289e-06 -0.000236026 )  
)
