/*--------------------------------*- C++ -*----------------------------------*\
| =========                 |                                                 |
| \\      /  F ield         | OpenFOAM: The Open Source CFD Toolbox           |
|  \\    /   O peration     | Version:  5.x                                   |
|   \\  /    A nd           | Web:      www.OpenFOAM.org                      |
|    \\/     M anipulation  |                                                 |
\*---------------------------------------------------------------------------*/
FoamFile
{
    version     2.0;
    format      ascii;
    class       volVectorField;
    location    "0.02";
    object      stored_U;
}
// * * * * * * * * * * * * * * * * * * * * * * * * * * * * * * * * * * * * * //

dimensions      [0 1 -1 0 0 0 0];

internalField   nonuniform List<vector> 
2250
(
(-1.37328e-10 -1.70056e-10 -0.001)
(-5.83757e-11 -1.56703e-10 -0.001)
(-8.08504e-11 -1.61597e-10 -0.001)
(-6.53762e-11 -1.62681e-10 -0.001)
(-2.43095e-11 -1.60718e-10 -0.001)
(-1.26757e-10 -8.74959e-11 -0.001)
(-1.07576e-10 -1.38693e-10 -0.001)
(-9.11733e-11 -1.575e-10 -0.001)
(-6.07983e-11 -1.57745e-10 -0.001)
(-2.07964e-11 -1.5316e-10 -0.001)
(-1.34915e-10 -9.65469e-11 -0.001)
(-1.28349e-10 -1.14563e-10 -0.001)
(-9.98872e-11 -1.24827e-10 -0.001)
(-6.13878e-11 -1.2573e-10 -0.001)
(-2.00971e-11 -1.23839e-10 -0.001)
(-1.41673e-10 -7.20015e-11 -0.001)
(-1.35839e-10 -7.71129e-11 -0.001)
(-1.02342e-10 -7.92452e-11 -0.001)
(-6.00844e-11 -7.75832e-11 -0.001)
(-1.91799e-11 -7.5674e-11 -0.001)
(-1.43376e-10 -2.70667e-11 -0.001)
(-1.35286e-10 -2.75241e-11 -0.001)
(-1.00134e-10 -2.68179e-11 -0.001)
(-5.78513e-11 -2.55442e-11 -0.001)
(-1.83093e-11 -2.46614e-11 -0.001)
(-4.3142e-10 -5.18945e-10 -0.001)
(-2.28768e-10 -4.84877e-10 -0.001)
(-2.37739e-10 -4.83919e-10 -0.001)
(-1.65806e-10 -4.8364e-10 -0.001)
(-5.52928e-11 -4.82963e-10 -0.001)
(-4.00991e-10 -3.22851e-10 -0.001)
(-3.20597e-10 -4.19124e-10 -0.001)
(-2.58143e-10 -4.55922e-10 -0.001)
(-1.63448e-10 -4.60216e-10 -0.001)
(-5.34104e-11 -4.57793e-10 -0.001)
(-4.03004e-10 -3.0895e-10 -0.001)
(-3.61897e-10 -3.40113e-10 -0.001)
(-2.78866e-10 -3.61201e-10 -0.001)
(-1.68675e-10 -3.66164e-10 -0.001)
(-5.38665e-11 -3.64471e-10 -0.001)
(-4.07315e-10 -2.18923e-10 -0.001)
(-3.7288e-10 -2.21791e-10 -0.001)
(-2.84197e-10 -2.24124e-10 -0.001)
(-1.67471e-10 -2.21975e-10 -0.001)
(-5.24565e-11 -2.18191e-10 -0.001)
(-4.04654e-10 -7.88806e-11 -0.001)
(-3.663e-10 -7.58968e-11 -0.001)
(-2.78458e-10 -7.31026e-11 -0.001)
(-1.62848e-10 -7.07522e-11 -0.001)
(-5.04202e-11 -6.8681e-11 -0.001)
(-6.47241e-10 -7.81399e-10 -0.000999999)
(-5.73868e-10 -8.22446e-10 -0.001)
(-4.15931e-10 -8.30566e-10 -0.001)
(-2.56092e-10 -8.3728e-10 -0.001)
(-8.23871e-11 -8.44745e-10 -0.001)
(-6.90243e-10 -7.41942e-10 -0.001)
(-5.71382e-10 -7.37941e-10 -0.001)
(-4.36407e-10 -7.68176e-10 -0.001)
(-2.71371e-10 -7.85422e-10 -0.001)
(-9.06217e-11 -7.93465e-10 -0.001)
(-6.91333e-10 -5.65153e-10 -0.001)
(-6.00089e-10 -5.77e-10 -0.001)
(-4.63432e-10 -5.99965e-10 -0.001)
(-2.83033e-10 -6.13062e-10 -0.001)
(-9.20054e-11 -6.11362e-10 -0.001)
(-6.88238e-10 -3.66608e-10 -0.001)
(-6.0616e-10 -3.59395e-10 -0.001)
(-4.7247e-10 -3.63353e-10 -0.001)
(-2.84002e-10 -3.65341e-10 -0.001)
(-9.0131e-11 -3.59091e-10 -0.001)
(-6.82818e-10 -1.24997e-10 -0.001)
(-5.95595e-10 -1.17906e-10 -0.001)
(-4.68425e-10 -1.15657e-10 -0.001)
(-2.7894e-10 -1.14805e-10 -0.001)
(-8.63087e-11 -1.1093e-10 -0.001)
(-8.80988e-10 -1.04689e-09 -0.001)
(-9.70741e-10 -1.17185e-09 -0.001)
(-6.44379e-10 -1.20554e-09 -0.001)
(-3.92012e-10 -1.22366e-09 -0.001)
(-1.3289e-10 -1.23298e-09 -0.001)
(-1.00627e-09 -1.18262e-09 -0.001)
(-8.78704e-10 -1.0824e-09 -0.001)
(-6.62888e-10 -1.10274e-09 -0.001)
(-4.17162e-10 -1.13161e-09 -0.001)
(-1.43864e-10 -1.13945e-09 -0.001)
(-1.02691e-09 -8.24551e-10 -0.001)
(-8.90865e-10 -8.19722e-10 -0.001)
(-6.93616e-10 -8.45937e-10 -0.001)
(-4.31035e-10 -8.67028e-10 -0.001)
(-1.42987e-10 -8.61936e-10 -0.001)
(-1.02885e-09 -4.98324e-10 -0.001)
(-9.00064e-10 -4.96053e-10 -0.001)
(-7.10195e-10 -5.08181e-10 -0.001)
(-4.349e-10 -5.16165e-10 -0.001)
(-1.40496e-10 -5.07456e-10 -0.001)
(-1.03283e-09 -1.61693e-10 -0.001)
(-8.98955e-10 -1.60426e-10 -0.001)
(-7.12312e-10 -1.62305e-10 -0.001)
(-4.30452e-10 -1.63921e-10 -0.001)
(-1.35026e-10 -1.58409e-10 -0.001)
(-1.24768e-09 -1.41497e-09 -0.001)
(-1.37162e-09 -1.58431e-09 -0.001)
(-9.56975e-10 -1.62946e-09 -0.001)
(-6.04741e-10 -1.64663e-09 -0.001)
(-2.11775e-10 -1.64806e-09 -0.001)
(-1.41999e-09 -1.5542e-09 -0.001)
(-1.2687e-09 -1.44759e-09 -0.001)
(-9.70313e-10 -1.46862e-09 -0.001)
(-6.17393e-10 -1.49443e-09 -0.001)
(-2.13341e-10 -1.4891e-09 -0.001)
(-1.46341e-09 -1.08093e-09 -0.001)
(-1.28603e-09 -1.08728e-09 -0.001)
(-1.00386e-09 -1.12153e-09 -0.001)
(-6.28277e-10 -1.14389e-09 -0.001)
(-2.09479e-10 -1.1345e-09 -0.001)
(-1.48093e-09 -6.46394e-10 -0.001)
(-1.30926e-09 -6.64378e-10 -0.001)
(-1.02693e-09 -6.85153e-10 -0.001)
(-6.32666e-10 -6.93777e-10 -0.001)
(-2.06242e-10 -6.81743e-10 -0.001)
(-1.4974e-09 -2.09449e-10 -0.001)
(-1.32207e-09 -2.19585e-10 -0.001)
(-1.03116e-09 -2.24898e-10 -0.001)
(-6.2498e-10 -2.25893e-10 -0.001)
(-1.98416e-10 -2.18028e-10 -0.001)
(-1.81781e-09 -1.95976e-09 -0.001)
(-1.91384e-09 -2.1343e-09 -0.001)
(-1.39349e-09 -2.15987e-09 -0.001)
(-8.80896e-10 -2.16276e-09 -0.001)
(-3.03222e-10 -2.15674e-09 -0.001)
(-2.00049e-09 -2.026e-09 -0.001)
(-1.7977e-09 -1.91826e-09 -0.001)
(-1.38177e-09 -1.92241e-09 -0.001)
(-8.72854e-10 -1.93064e-09 -0.001)
(-2.96514e-10 -1.91571e-09 -0.001)
(-2.04318e-09 -1.4448e-09 -0.001)
(-1.81026e-09 -1.4553e-09 -0.001)
(-1.40592e-09 -1.48401e-09 -0.001)
(-8.78149e-10 -1.49741e-09 -0.001)
(-2.9224e-10 -1.48603e-09 -0.001)
(-2.0664e-09 -8.87628e-10 -0.001)
(-1.83685e-09 -9.11466e-10 -0.001)
(-1.42388e-09 -9.28781e-10 -0.001)
(-8.77868e-10 -9.29033e-10 -0.001)
(-2.8811e-10 -9.1522e-10 -0.001)
(-2.08082e-09 -2.98227e-10 -0.001)
(-1.84762e-09 -3.09553e-10 -0.001)
(-1.42063e-09 -3.12731e-10 -0.001)
(-8.64687e-10 -3.09135e-10 -0.001)
(-2.79693e-10 -3.00676e-10 -0.001)
(-2.67112e-09 -2.80583e-09 -0.001)
(-2.63849e-09 -2.8966e-09 -0.001)
(-1.9529e-09 -2.88963e-09 -0.001)
(-1.21186e-09 -2.88211e-09 -0.001)
(-4.0756e-10 -2.87651e-09 -0.001)
(-2.77492e-09 -2.72765e-09 -0.001)
(-2.49341e-09 -2.59492e-09 -0.001)
(-1.91219e-09 -2.56538e-09 -0.001)
(-1.19882e-09 -2.55767e-09 -0.001)
(-4.03555e-10 -2.54457e-09 -0.001)
(-2.79194e-09 -2.01615e-09 -0.001)
(-2.47622e-09 -1.99814e-09 -0.001)
(-1.91572e-09 -2.00355e-09 -0.001)
(-1.19626e-09 -2.00095e-09 -0.001)
(-3.99623e-10 -1.99026e-09 -0.001)
(-2.80096e-09 -1.27073e-09 -0.001)
(-2.48072e-09 -1.26914e-09 -0.001)
(-1.915e-09 -1.26971e-09 -0.001)
(-1.18952e-09 -1.25991e-09 -0.001)
(-3.96827e-10 -1.2531e-09 -0.001)
(-2.79634e-09 -4.37158e-10 -0.001)
(-2.4701e-09 -4.34287e-10 -0.001)
(-1.90266e-09 -4.31607e-10 -0.001)
(-1.1798e-09 -4.25755e-10 -0.001)
(-3.9451e-10 -4.2338e-10 -0.001)
(-3.79304e-09 -3.96376e-09 -0.001)
(-3.49281e-09 -3.94358e-09 -0.001)
(-2.64768e-09 -3.91822e-09 -0.001)
(-1.64747e-09 -3.91197e-09 -0.001)
(-5.55916e-10 -3.90434e-09 -0.001)
(-3.78239e-09 -3.64123e-09 -0.001)
(-3.3788e-09 -3.53158e-09 -0.001)
(-2.61136e-09 -3.48888e-09 -0.001)
(-1.64268e-09 -3.4765e-09 -0.001)
(-5.55827e-10 -3.46591e-09 -0.001)
(-3.76874e-09 -2.80167e-09 -0.001)
(-3.34046e-09 -2.75812e-09 -0.001)
(-2.5927e-09 -2.73736e-09 -0.001)
(-1.63152e-09 -2.72103e-09 -0.00100001)
(-5.52261e-10 -2.71599e-09 -0.00100001)
(-3.75473e-09 -1.78815e-09 -0.001)
(-3.31438e-09 -1.75413e-09 -0.001)
(-2.57428e-09 -1.73985e-09 -0.00100001)
(-1.62673e-09 -1.73158e-09 -0.00100001)
(-5.56168e-10 -1.74053e-09 -0.00100001)
(-3.72975e-09 -6.15579e-10 -0.001)
(-3.28544e-09 -5.97938e-10 -0.001)
(-2.56501e-09 -5.93346e-10 -0.00100001)
(-1.63241e-09 -5.93764e-10 -0.00100001)
(-5.63529e-10 -6.01048e-10 -0.00100001)
(-5.17531e-09 -5.42794e-09 -0.001)
(-4.61928e-09 -5.37591e-09 -0.001)
(-3.58041e-09 -5.34465e-09 -0.001)
(-2.27642e-09 -5.33589e-09 -0.001)
(-7.81498e-10 -5.31409e-09 -0.00100001)
(-5.12736e-09 -4.85505e-09 -0.001)
(-4.55715e-09 -4.7887e-09 -0.001)
(-3.57014e-09 -4.7646e-09 -0.00100001)
(-2.26963e-09 -4.75053e-09 -0.00100001)
(-7.74826e-10 -4.73396e-09 -0.00100001)
(-5.09335e-09 -3.81046e-09 -0.001)
(-4.52883e-09 -3.77365e-09 -0.00100001)
(-3.54237e-09 -3.74514e-09 -0.00100001)
(-2.25532e-09 -3.72556e-09 -0.00100001)
(-7.74367e-10 -3.72887e-09 -0.00100001)
(-5.06323e-09 -2.44392e-09 -0.001)
(-4.4917e-09 -2.40383e-09 -0.00100001)
(-3.52204e-09 -2.38918e-09 -0.00100001)
(-2.26081e-09 -2.39292e-09 -0.00100001)
(-7.85527e-10 -2.41106e-09 -0.00100001)
(-5.02965e-09 -8.37352e-10 -0.00100001)
(-4.46506e-09 -8.19708e-10 -0.00100001)
(-3.52444e-09 -8.19642e-10 -0.00100001)
(-2.27748e-09 -8.29052e-10 -0.00100001)
(-7.95689e-10 -8.39125e-10 -0.00100001)
(-6.99211e-09 -7.36123e-09 -0.001)
(-6.24268e-09 -7.33447e-09 -0.001)
(-4.91443e-09 -7.29445e-09 -0.00100001)
(-3.17039e-09 -7.26904e-09 -0.00100001)
(-1.09683e-09 -7.22844e-09 -0.00100001)
(-6.95743e-09 -6.55756e-09 -0.001)
(-6.20525e-09 -6.51674e-09 -0.00100001)
(-4.90356e-09 -6.50418e-09 -0.00100001)
(-3.14181e-09 -6.47792e-09 -0.00100001)
(-1.07768e-09 -6.44831e-09 -0.00100001)
(-6.91002e-09 -5.17203e-09 -0.00100001)
(-6.1893e-09 -5.15176e-09 -0.00100001)
(-4.87579e-09 -5.1283e-09 -0.00100001)
(-3.1275e-09 -5.10934e-09 -0.00100001)
(-1.08009e-09 -5.11178e-09 -0.00100001)
(-6.87589e-09 -3.31996e-09 -0.00100001)
(-6.16133e-09 -3.29833e-09 -0.00100001)
(-4.86113e-09 -3.28824e-09 -0.00100001)
(-3.1355e-09 -3.29589e-09 -0.00100001)
(-1.09024e-09 -3.3051e-09 -0.00100001)
(-6.84132e-09 -1.13793e-09 -0.00100001)
(-6.14527e-09 -1.13168e-09 -0.00100001)
(-4.86367e-09 -1.134e-09 -0.00100001)
(-3.14469e-09 -1.14381e-09 -0.00100001)
(-1.09367e-09 -1.14713e-09 -0.00100001)
(-9.43078e-09 -9.99789e-09 -0.001)
(-8.56278e-09 -1.00106e-08 -0.00100001)
(-6.76213e-09 -9.95805e-09 -0.00100001)
(-4.37271e-09 -9.91201e-09 -0.00100001)
(-1.51002e-09 -9.85694e-09 -0.00100001)
(-9.4209e-09 -9.01813e-09 -0.00100001)
(-8.46934e-09 -8.92885e-09 -0.00100001)
(-6.71325e-09 -8.89854e-09 -0.00100001)
(-4.3145e-09 -8.84776e-09 -0.00100001)
(-1.481e-09 -8.80001e-09 -0.00100001)
(-9.36265e-09 -7.08742e-09 -0.00100001)
(-8.44318e-09 -7.06367e-09 -0.00100001)
(-6.68129e-09 -7.03918e-09 -0.00100001)
(-4.2919e-09 -7.0106e-09 -0.00100002)
(-1.47983e-09 -6.99755e-09 -0.00100002)
(-9.3304e-09 -4.55218e-09 -0.00100001)
(-8.42084e-09 -4.54296e-09 -0.00100001)
(-6.66018e-09 -4.525e-09 -0.00100002)
(-4.28681e-09 -4.51934e-09 -0.00100002)
(-1.48179e-09 -4.50986e-09 -0.00100002)
(-9.28856e-09 -1.56728e-09 -0.00100001)
(-8.39919e-09 -1.5662e-09 -0.00100001)
(-6.64445e-09 -1.5622e-09 -0.00100002)
(-4.27723e-09 -1.56359e-09 -0.00100002)
(-1.47633e-09 -1.55797e-09 -0.00100002)
(-1.27714e-08 -1.36957e-08 -0.001)
(-1.1594e-08 -1.36702e-08 -0.00100001)
(-9.21748e-09 -1.36111e-08 -0.00100001)
(-5.94901e-09 -1.35511e-08 -0.00100001)
(-2.04828e-09 -1.34837e-08 -0.00100001)
(-1.27169e-08 -1.23656e-08 -0.00100001)
(-1.14939e-08 -1.22741e-08 -0.00100001)
(-9.12726e-09 -1.22105e-08 -0.00100001)
(-5.86861e-09 -1.21326e-08 -0.00100002)
(-2.01415e-09 -1.20653e-08 -0.00100002)
(-1.26491e-08 -9.77055e-09 -0.00100001)
(-1.14389e-08 -9.7222e-09 -0.00100002)
(-9.07632e-09 -9.6774e-09 -0.00100002)
(-5.82804e-09 -9.62824e-09 -0.00100002)
(-2.0049e-09 -9.59394e-09 -0.00100002)
(-1.26107e-08 -6.28514e-09 -0.00100001)
(-1.14004e-08 -6.25968e-09 -0.00100002)
(-9.0333e-09 -6.22081e-09 -0.00100002)
(-5.80418e-09 -6.19471e-09 -0.00100002)
(-1.99875e-09 -6.17219e-09 -0.00100002)
(-1.25487e-08 -2.17147e-09 -0.00100002)
(-1.13518e-08 -2.15897e-09 -0.00100002)
(-8.9935e-09 -2.14529e-09 -0.00100002)
(-5.7802e-09 -2.1369e-09 -0.00100002)
(-1.99057e-09 -2.12845e-09 -0.00100003)
(-1.7354e-08 -1.88339e-08 -0.00100001)
(-1.56281e-08 -1.87e-08 -0.00100001)
(-1.24719e-08 -1.86207e-08 -0.00100001)
(-8.03821e-09 -1.85472e-08 -0.00100002)
(-2.76444e-09 -1.84659e-08 -0.00100002)
(-1.72003e-08 -1.69331e-08 -0.00100001)
(-1.55438e-08 -1.68527e-08 -0.00100002)
(-1.23679e-08 -1.6764e-08 -0.00100002)
(-7.9533e-09 -1.66686e-08 -0.00100002)
(-2.73206e-09 -1.65864e-08 -0.00100003)
(-1.71042e-08 -1.34544e-08 -0.00100002)
(-1.5459e-08 -1.33748e-08 -0.00100002)
(-1.22883e-08 -1.32965e-08 -0.00100003)
(-7.89382e-09 -1.32254e-08 -0.00100003)
(-2.71503e-09 -1.31719e-08 -0.00100003)
(-1.70362e-08 -8.66493e-09 -0.00100002)
(-1.53855e-08 -8.60187e-09 -0.00100002)
(-1.22185e-08 -8.53999e-09 -0.00100003)
(-7.85468e-09 -8.49739e-09 -0.00100003)
(-2.70437e-09 -8.47169e-09 -0.00100003)
(-1.69487e-08 -2.99264e-09 -0.00100002)
(-1.53035e-08 -2.96167e-09 -0.00100003)
(-1.21597e-08 -2.94084e-09 -0.00100003)
(-7.8268e-09 -2.92673e-09 -0.00100003)
(-2.7006e-09 -2.92252e-09 -0.00100004)
(-2.36627e-08 -2.58692e-08 -0.00100001)
(-2.11754e-08 -2.5599e-08 -0.00100001)
(-1.68885e-08 -2.54565e-08 -0.00100002)
(-1.08696e-08 -2.53512e-08 -0.00100002)
(-3.73759e-09 -2.52484e-08 -0.00100003)
(-2.33884e-08 -2.31762e-08 -0.00100002)
(-2.10769e-08 -2.30706e-08 -0.00100002)
(-1.67774e-08 -2.29543e-08 -0.00100003)
(-1.07898e-08 -2.28483e-08 -0.00100003)
(-3.71112e-09 -2.27523e-08 -0.00100004)
(-2.32237e-08 -1.84459e-08 -0.00100002)
(-2.09535e-08 -1.83224e-08 -0.00100003)
(-1.66668e-08 -1.82079e-08 -0.00100004)
(-1.07129e-08 -1.81175e-08 -0.00100004)
(-3.68642e-09 -1.80463e-08 -0.00100004)
(-2.3096e-08 -1.18683e-08 -0.00100003)
(-2.08382e-08 -1.17677e-08 -0.00100003)
(-1.65725e-08 -1.16854e-08 -0.00100004)
(-1.06639e-08 -1.16338e-08 -0.00100004)
(-3.67534e-09 -1.1603e-08 -0.00100005)
(-2.29825e-08 -4.08761e-09 -0.00100003)
(-2.07292e-08 -4.04587e-09 -0.00100004)
(-1.65002e-08 -4.01949e-09 -0.00100004)
(-1.06325e-08 -4.00588e-09 -0.00100005)
(-3.67118e-09 -4.00106e-09 -0.00100005)
(-3.21854e-08 -3.52603e-08 -0.00100001)
(-2.89188e-08 -3.49411e-08 -0.00100002)
(-2.29729e-08 -3.47103e-08 -0.00100003)
(-1.47599e-08 -3.45474e-08 -0.00100003)
(-5.07521e-09 -3.44052e-08 -0.00100004)
(-3.18708e-08 -3.17123e-08 -0.00100002)
(-2.87012e-08 -3.14796e-08 -0.00100003)
(-2.28189e-08 -3.12997e-08 -0.00100004)
(-1.46648e-08 -3.11659e-08 -0.00100004)
(-5.04613e-09 -3.10424e-08 -0.00100005)
(-3.16214e-08 -2.51817e-08 -0.00100003)
(-2.85062e-08 -2.49903e-08 -0.00100004)
(-2.26601e-08 -2.48246e-08 -0.00100005)
(-1.45646e-08 -2.47111e-08 -0.00100005)
(-5.01291e-09 -2.46155e-08 -0.00100006)
(-3.14181e-08 -1.6172e-08 -0.00100004)
(-2.83432e-08 -1.6038e-08 -0.00100005)
(-2.25396e-08 -1.59317e-08 -0.00100005)
(-1.45044e-08 -1.58707e-08 -0.00100006)
(-4.99902e-09 -1.58166e-08 -0.00100006)
(-3.12689e-08 -5.55835e-09 -0.00100004)
(-2.82095e-08 -5.51262e-09 -0.00100005)
(-2.24484e-08 -5.48031e-09 -0.00100006)
(-1.44522e-08 -5.46552e-09 -0.00100006)
(-4.98009e-09 -5.44566e-09 -0.00100007)
(-4.37266e-08 -4.786e-08 -0.00100001)
(-3.95638e-08 -4.75344e-08 -0.00100003)
(-3.13447e-08 -4.72031e-08 -0.00100004)
(-2.01103e-08 -4.69557e-08 -0.00100005)
(-6.91537e-09 -4.67465e-08 -0.00100005)
(-4.33986e-08 -4.32867e-08 -0.00100003)
(-3.91551e-08 -4.28646e-08 -0.00100004)
(-3.10779e-08 -4.2557e-08 -0.00100005)
(-1.99529e-08 -4.23541e-08 -0.00100006)
(-6.86455e-09 -4.21741e-08 -0.00100007)
(-4.30573e-08 -3.43142e-08 -0.00100004)
(-3.88341e-08 -3.40121e-08 -0.00100005)
(-3.08352e-08 -3.37626e-08 -0.00100007)
(-1.98118e-08 -3.36045e-08 -0.00100007)
(-6.81875e-09 -3.34636e-08 -0.00100008)
(-4.27719e-08 -2.20194e-08 -0.00100005)
(-3.86024e-08 -2.18328e-08 -0.00100006)
(-3.06703e-08 -2.16861e-08 -0.00100007)
(-1.97202e-08 -2.15933e-08 -0.00100008)
(-6.78962e-09 -2.1496e-08 -0.00100009)
(-4.25621e-08 -7.56806e-09 -0.00100005)
(-3.84239e-08 -7.51017e-09 -0.00100007)
(-3.05351e-08 -7.4655e-09 -0.00100008)
(-1.96254e-08 -7.43514e-09 -0.00100009)
(-6.75053e-09 -7.39477e-09 -0.00100009)
(-5.95084e-08 -6.50642e-08 -0.00100002)
(-5.40295e-08 -6.46272e-08 -0.00100004)
(-4.27667e-08 -6.4139e-08 -0.00100005)
(-2.74232e-08 -6.37701e-08 -0.00100006)
(-9.42932e-09 -6.34598e-08 -0.00100007)
(-5.90563e-08 -5.90104e-08 -0.00100004)
(-5.3366e-08 -5.83419e-08 -0.00100006)
(-4.23168e-08 -5.7844e-08 -0.00100007)
(-2.71578e-08 -5.75188e-08 -0.00100008)
(-9.34145e-09 -5.72451e-08 -0.00100009)
(-5.85599e-08 -4.67634e-08 -0.00100006)
(-5.28631e-08 -4.62939e-08 -0.00100007)
(-4.19452e-08 -4.59171e-08 -0.00100009)
(-2.6939e-08 -4.56653e-08 -0.0010001)
(-9.26904e-09 -4.54479e-08 -0.00100011)
(-5.81684e-08 -3.00202e-08 -0.00100007)
(-5.25181e-08 -2.97378e-08 -0.00100009)
(-4.16882e-08 -2.95104e-08 -0.0010001)
(-2.67788e-08 -2.93472e-08 -0.00100011)
(-9.21387e-09 -2.91955e-08 -0.00100012)
(-5.78628e-08 -1.0327e-08 -0.00100008)
(-5.22487e-08 -1.02367e-08 -0.00100009)
(-4.14723e-08 -1.01609e-08 -0.00100011)
(-2.66292e-08 -1.01027e-08 -0.00100012)
(-9.1569e-09 -1.00439e-08 -0.00100012)
(-8.11268e-08 -8.87274e-08 -0.00100003)
(-7.3585e-08 -8.79564e-08 -0.00100005)
(-5.82697e-08 -8.71973e-08 -0.00100007)
(-3.73735e-08 -8.66423e-08 -0.00100009)
(-1.28499e-08 -8.61808e-08 -0.0010001)
(-8.03452e-08 -8.04111e-08 -0.00100005)
(-7.26058e-08 -7.94337e-08 -0.00100008)
(-5.75729e-08 -7.86848e-08 -0.0010001)
(-3.69561e-08 -7.81677e-08 -0.00100011)
(-1.27109e-08 -7.77531e-08 -0.00100012)
(-7.95729e-08 -6.37405e-08 -0.00100008)
(-7.18587e-08 -6.30356e-08 -0.0010001)
(-5.70059e-08 -6.24651e-08 -0.00100012)
(-3.65978e-08 -6.20494e-08 -0.00100014)
(-1.25897e-08 -6.17185e-08 -0.00100014)
(-7.90093e-08 -4.09379e-08 -0.00100009)
(-7.13283e-08 -4.05011e-08 -0.00100012)
(-5.65867e-08 -4.01305e-08 -0.00100014)
(-3.63323e-08 -3.98611e-08 -0.00100015)
(-1.25022e-08 -3.96436e-08 -0.00100016)
(-7.85582e-08 -1.40892e-08 -0.0010001)
(-7.09091e-08 -1.39406e-08 -0.00100013)
(-5.62541e-08 -1.38106e-08 -0.00100015)
(-3.61179e-08 -1.37193e-08 -0.00100016)
(-1.2426e-08 -1.36406e-08 -0.00100017)
(-1.10626e-07 -1.21123e-07 -0.00100004)
(-1.00093e-07 -1.1977e-07 -0.00100007)
(-7.93364e-08 -1.18571e-07 -0.0010001)
(-5.0921e-08 -1.17709e-07 -0.00100012)
(-1.75145e-08 -1.17011e-07 -0.00100013)
(-1.09286e-07 -1.09533e-07 -0.00100007)
(-9.86937e-08 -1.08137e-07 -0.00100011)
(-7.82826e-08 -1.07017e-07 -0.00100014)
(-5.02621e-08 -1.06201e-07 -0.00100016)
(-1.72885e-08 -1.0557e-07 -0.00100017)
(-1.08078e-07 -8.68419e-08 -0.00100011)
(-9.75776e-08 -8.57861e-08 -0.00100014)
(-7.74029e-08 -8.49049e-08 -0.00100017)
(-4.96862e-08 -8.42471e-08 -0.00100019)
(-1.70944e-08 -8.37529e-08 -0.0010002)
(-1.07215e-07 -5.57687e-08 -0.00100013)
(-9.67538e-08 -5.5091e-08 -0.00100016)
(-7.67436e-08 -5.45045e-08 -0.00100019)
(-4.92769e-08 -5.40928e-08 -0.00100021)
(-1.69604e-08 -5.37817e-08 -0.00100022)
(-1.0654e-07 -1.91911e-08 -0.00100014)
(-9.61202e-08 -1.89518e-08 -0.00100017)
(-7.62529e-08 -1.87486e-08 -0.0010002)
(-4.89729e-08 -1.86122e-08 -0.00100022)
(-1.68564e-08 -1.8505e-08 -0.00100023)
(-1.50829e-07 -1.65247e-07 -0.00100005)
(-1.36181e-07 -1.63006e-07 -0.0010001)
(-1.08023e-07 -1.6111e-07 -0.00100014)
(-6.93637e-08 -1.59739e-07 -0.00100017)
(-2.38668e-08 -1.58689e-07 -0.00100018)
(-1.48616e-07 -1.49103e-07 -0.0010001)
(-1.34132e-07 -1.47058e-07 -0.00100015)
(-1.06408e-07 -1.45339e-07 -0.00100019)
(-6.83229e-08 -1.44069e-07 -0.00100021)
(-2.3504e-08 -1.43123e-07 -0.00100023)
(-1.46731e-07 -1.18218e-07 -0.00100014)
(-1.32417e-07 -1.16607e-07 -0.00100019)
(-1.05038e-07 -1.15236e-07 -0.00100023)
(-6.74365e-08 -1.14234e-07 -0.00100025)
(-2.32067e-08 -1.13499e-07 -0.00100027)
(-1.45369e-07 -7.58834e-08 -0.00100018)
(-1.31147e-07 -7.4836e-08 -0.00100022)
(-1.04035e-07 -7.39414e-08 -0.00100026)
(-6.68127e-08 -7.33203e-08 -0.00100028)
(-2.29954e-08 -7.28524e-08 -0.0010003)
(-1.44354e-07 -2.61033e-08 -0.00100019)
(-1.30212e-07 -2.57338e-08 -0.00100024)
(-1.03316e-07 -2.54291e-08 -0.00100027)
(-6.63604e-08 -2.52204e-08 -0.0010003)
(-2.28383e-08 -2.50588e-08 -0.00100031)
(-2.05575e-07 -2.25194e-07 -0.00100007)
(-1.85374e-07 -2.21641e-07 -0.00100013)
(-1.47091e-07 -2.18665e-07 -0.00100019)
(-9.44382e-08 -2.16498e-07 -0.00100023)
(-3.24886e-08 -2.14946e-07 -0.00100025)
(-2.02036e-07 -2.02851e-07 -0.00100014)
(-1.82272e-07 -1.99752e-07 -0.0010002)
(-1.44607e-07 -1.97086e-07 -0.00100025)
(-9.28502e-08 -1.95144e-07 -0.00100029)
(-3.19476e-08 -1.93758e-07 -0.00100031)
(-1.99088e-07 -1.60829e-07 -0.0010002)
(-1.79608e-07 -1.58344e-07 -0.00100026)
(-1.42489e-07 -1.56219e-07 -0.00100031)
(-9.15018e-08 -1.54694e-07 -0.00100035)
(-3.14906e-08 -1.53592e-07 -0.00100036)
(-1.96938e-07 -1.03197e-07 -0.00100024)
(-1.77656e-07 -1.01587e-07 -0.0010003)
(-1.40958e-07 -1.00227e-07 -0.00100035)
(-9.05306e-08 -9.92637e-08 -0.00100039)
(-3.11522e-08 -9.85494e-08 -0.0010004)
(-1.95414e-07 -3.54881e-08 -0.00100026)
(-1.76281e-07 -3.49293e-08 -0.00100032)
(-1.39886e-07 -3.44663e-08 -0.00100037)
(-8.98421e-08 -3.41361e-08 -0.00100041)
(-3.09114e-08 -3.38894e-08 -0.00100042)
(-2.80061e-07 -3.06667e-07 -0.0010001)
(-2.52474e-07 -3.01156e-07 -0.00100018)
(-2.00328e-07 -2.96514e-07 -0.00100025)
(-1.28589e-07 -2.93141e-07 -0.00100031)
(-4.42263e-08 -2.90823e-07 -0.00100033)
(-2.7455e-07 -2.76026e-07 -0.00100019)
(-2.47636e-07 -2.71186e-07 -0.00100027)
(-1.96486e-07 -2.67037e-07 -0.00100034)
(-1.2617e-07 -2.64055e-07 -0.00100039)
(-4.34169e-08 -2.62005e-07 -0.00100042)
(-2.69929e-07 -2.18773e-07 -0.00100027)
(-2.43485e-07 -2.14909e-07 -0.00100035)
(-1.93204e-07 -2.11615e-07 -0.00100042)
(-1.24088e-07 -2.09253e-07 -0.00100047)
(-4.27028e-08 -2.07593e-07 -0.00100049)
(-2.66563e-07 -1.40341e-07 -0.00100033)
(-2.4047e-07 -1.37856e-07 -0.00100041)
(-1.9083e-07 -1.35757e-07 -0.00100047)
(-1.22565e-07 -1.34241e-07 -0.00100052)
(-4.21727e-08 -1.33168e-07 -0.00100055)
(-2.64276e-07 -4.82549e-08 -0.00100036)
(-2.38418e-07 -4.74008e-08 -0.00100043)
(-1.89209e-07 -4.66828e-08 -0.0010005)
(-1.21522e-07 -4.61588e-08 -0.00100055)
(-4.18138e-08 -4.57919e-08 -0.00100057)
(-3.8136e-07 -4.1748e-07 -0.00100013)
(-3.43954e-07 -4.08985e-07 -0.00100025)
(-2.72878e-07 -4.01775e-07 -0.00100035)
(-1.75172e-07 -3.96551e-07 -0.00100042)
(-6.02514e-08 -3.93035e-07 -0.00100046)
(-3.72878e-07 -3.75699e-07 -0.00100026)
(-3.36315e-07 -3.68062e-07 -0.00100037)
(-2.66882e-07 -3.61597e-07 -0.00100047)
(-1.71393e-07 -3.56954e-07 -0.00100054)
(-5.89763e-08 -3.5385e-07 -0.00100057)
(-3.65675e-07 -2.97559e-07 -0.00100037)
(-3.29853e-07 -2.9154e-07 -0.00100048)
(-2.6178e-07 -2.86427e-07 -0.00100057)
(-1.68144e-07 -2.82733e-07 -0.00100064)
(-5.78613e-08 -2.80237e-07 -0.00100067)
(-3.60448e-07 -1.90814e-07 -0.00100044)
(-3.25174e-07 -1.86967e-07 -0.00100055)
(-2.58076e-07 -1.83702e-07 -0.00100064)
(-1.65767e-07 -1.81325e-07 -0.00100071)
(-5.70442e-08 -1.79713e-07 -0.00100074)
(-3.57004e-07 -6.55977e-08 -0.00100048)
(-3.22086e-07 -6.4281e-08 -0.00100059)
(-2.55623e-07 -6.31604e-08 -0.00100068)
(-1.64186e-07 -6.23426e-08 -0.00100075)
(-5.64982e-08 -6.1786e-08 -0.00100078)
(-5.19068e-07 -5.68144e-07 -0.00100018)
(-4.68399e-07 -5.55094e-07 -0.00100034)
(-3.71625e-07 -5.43949e-07 -0.00100047)
(-2.38627e-07 -5.35864e-07 -0.00100057)
(-8.20994e-08 -5.3054e-07 -0.00100062)
(-5.06052e-07 -5.11121e-07 -0.00100035)
(-4.56499e-07 -4.99241e-07 -0.0010005)
(-3.62287e-07 -4.89212e-07 -0.00100063)
(-2.32689e-07 -4.81969e-07 -0.00100073)
(-8.00669e-08 -4.77228e-07 -0.00100078)
(-4.94925e-07 -4.04516e-07 -0.0010005)
(-4.46491e-07 -3.95178e-07 -0.00100065)
(-3.54366e-07 -3.87252e-07 -0.00100077)
(-2.27617e-07 -3.8149e-07 -0.00100086)
(-7.83272e-08 -3.77714e-07 -0.00100091)
(-4.86853e-07 -2.59284e-07 -0.0010006)
(-4.39222e-07 -2.53314e-07 -0.00100075)
(-3.486e-07 -2.48236e-07 -0.00100087)
(-2.23914e-07 -2.44534e-07 -0.00100096)
(-7.70545e-08 -2.42103e-07 -0.00100101)
(-4.81648e-07 -8.91092e-08 -0.00100066)
(-4.34555e-07 -8.70666e-08 -0.0010008)
(-3.44887e-07 -8.53253e-08 -0.00100092)
(-2.21525e-07 -8.40525e-08 -0.00100101)
(-7.62325e-08 -8.32166e-08 -0.00100105)
(-7.06423e-07 -7.73053e-07 -0.00100025)
(-6.37548e-07 -7.52939e-07 -0.00100046)
(-5.05924e-07 -7.35732e-07 -0.00100064)
(-3.24967e-07 -7.23179e-07 -0.00100078)
(-1.11842e-07 -7.15121e-07 -0.00100085)
(-6.86344e-07 -6.94825e-07 -0.00100048)
(-6.19234e-07 -6.76544e-07 -0.00100069)
(-4.91458e-07 -6.61036e-07 -0.00100086)
(-3.15679e-07 -6.49776e-07 -0.00100099)
(-1.08628e-07 -6.42528e-07 -0.00100106)
(-6.69184e-07 -5.49496e-07 -0.00100068)
(-6.03759e-07 -5.35042e-07 -0.00100088)
(-4.79174e-07 -5.22761e-07 -0.00100105)
(-3.07775e-07 -5.13808e-07 -0.00100117)
(-1.05906e-07 -5.08074e-07 -0.00100123)
(-6.56709e-07 -3.5202e-07 -0.00100082)
(-5.9248e-07 -3.4274e-07 -0.00100101)
(-4.70225e-07 -3.34859e-07 -0.00100118)
(-3.02025e-07 -3.29112e-07 -0.0010013)
(-1.03928e-07 -3.25455e-07 -0.00100136)
(-6.48831e-07 -1.20945e-07 -0.00100089)
(-5.85396e-07 -1.1776e-07 -0.00100109)
(-4.64601e-07 -1.15056e-07 -0.00100125)
(-2.98426e-07 -1.13082e-07 -0.00100136)
(-1.02703e-07 -1.11839e-07 -0.00100142)
(-9.6139e-07 -1.05171e-06 -0.00100034)
(-8.67524e-07 -1.02058e-06 -0.00100063)
(-6.8858e-07 -9.93945e-07 -0.00100088)
(-4.42381e-07 -9.74392e-07 -0.00100106)
(-1.52269e-07 -9.62129e-07 -0.00100115)
(-9.30285e-07 -9.43842e-07 -0.00100065)
(-8.3934e-07 -9.15697e-07 -0.00100093)
(-6.66161e-07 -8.91709e-07 -0.00100117)
(-4.27895e-07 -8.74205e-07 -0.00100134)
(-1.47241e-07 -8.63175e-07 -0.00100143)
(-9.03759e-07 -7.45669e-07 -0.00100092)
(-8.15391e-07 -7.2331e-07 -0.00100119)
(-6.47113e-07 -7.04282e-07 -0.00100142)
(-4.15624e-07 -6.90402e-07 -0.00100158)
(-1.43012e-07 -6.8173e-07 -0.00100167)
(-8.8443e-07 -4.77327e-07 -0.00100112)
(-7.97929e-07 -4.62952e-07 -0.00100137)
(-6.33254e-07 -4.50732e-07 -0.0010016)
(-4.06734e-07 -4.41847e-07 -0.00100176)
(-1.39965e-07 -4.36319e-07 -0.00100184)
(-8.72501e-07 -1.63937e-07 -0.00100121)
(-7.87171e-07 -1.58998e-07 -0.00100147)
(-6.24731e-07 -1.54799e-07 -0.00100169)
(-4.01281e-07 -1.51756e-07 -0.00100184)
(-1.38095e-07 -1.49863e-07 -0.00100192)
(-1.30799e-06 -1.43014e-06 -0.00100046)
(-1.18012e-06 -1.38202e-06 -0.00100086)
(-9.36882e-07 -1.34075e-06 -0.0010012)
(-6.01954e-07 -1.31032e-06 -0.00100145)
(-2.07181e-07 -1.29162e-06 -0.00100157)
(-1.25992e-06 -1.28091e-06 -0.00100089)
(-1.13664e-06 -1.23749e-06 -0.00100127)
(-9.02114e-07 -1.20037e-06 -0.00100159)
(-5.79444e-07 -1.1732e-06 -0.00100182)
(-1.99391e-07 -1.15648e-06 -0.00100194)
(-1.2189e-06 -1.01051e-06 -0.00100125)
(-1.09958e-06 -9.75946e-07 -0.00100161)
(-8.72616e-07 -9.46482e-07 -0.00100192)
(-5.60466e-07 -9.25017e-07 -0.00100214)
(-1.92861e-07 -9.11887e-07 -0.00100225)
(-1.18893e-06 -6.4621e-07 -0.00100151)
(-1.07257e-06 -6.23977e-07 -0.00100186)
(-8.51185e-07 -6.05057e-07 -0.00100216)
(-5.46722e-07 -5.91321e-07 -0.00100237)
(-1.88142e-07 -5.82921e-07 -0.00100248)
(-1.17078e-06 -2.21838e-07 -0.00100165)
(-1.05623e-06 -2.14192e-07 -0.00100199)
(-8.38236e-07 -2.07686e-07 -0.00100227)
(-5.38421e-07 -2.02975e-07 -0.00100248)
(-1.85284e-07 -2.00087e-07 -0.00100259)
(-1.77884e-06 -1.94347e-06 -0.00100064)
(-1.60473e-06 -1.86933e-06 -0.00100118)
(-1.27415e-06 -1.80538e-06 -0.00100164)
(-8.18784e-07 -1.75809e-06 -0.00100197)
(-2.81814e-07 -1.72947e-06 -0.00100215)
(-1.70476e-06 -1.73622e-06 -0.00100122)
(-1.5376e-06 -1.66921e-06 -0.00100173)
(-1.22029e-06 -1.6118e-06 -0.00100216)
(-7.83861e-07 -1.56972e-06 -0.00100248)
(-2.69747e-07 -1.54433e-06 -0.00100264)
(-1.64135e-06 -1.36706e-06 -0.00100171)
(-1.48031e-06 -1.31357e-06 -0.00100219)
(-1.17471e-06 -1.26801e-06 -0.0010026)
(-7.5453e-07 -1.23483e-06 -0.00100289)
(-2.59651e-07 -1.21489e-06 -0.00100304)
(-1.59488e-06 -8.73165e-07 -0.00100205)
(-1.4385e-06 -8.38667e-07 -0.00100251)
(-1.14155e-06 -8.09378e-07 -0.00100291)
(-7.33251e-07 -7.88112e-07 -0.00100319)
(-2.52331e-07 -7.75344e-07 -0.00100333)
(-1.56709e-06 -2.99596e-07 -0.00100223)
(-1.41357e-06 -2.87696e-07 -0.00100268)
(-1.12183e-06 -2.7762e-07 -0.00100306)
(-7.20606e-07 -2.70313e-07 -0.00100334)
(-2.47984e-07 -2.65929e-07 -0.00100348)
(-2.41831e-06 -2.63902e-06 -0.00100088)
(-2.18103e-06 -2.52508e-06 -0.00100162)
(-1.73187e-06 -2.42609e-06 -0.00100224)
(-1.11319e-06 -2.35246e-06 -0.0010027)
(-3.83179e-07 -2.30841e-06 -0.00100293)
(-2.30445e-06 -2.34931e-06 -0.00100167)
(-2.07742e-06 -2.24591e-06 -0.00100235)
(-1.64851e-06 -2.15728e-06 -0.00100293)
(-1.059e-06 -2.09218e-06 -0.00100336)
(-3.64438e-07 -2.05354e-06 -0.00100357)
(-2.20643e-06 -1.845e-06 -0.00100232)
(-1.98899e-06 -1.76219e-06 -0.00100296)
(-1.5782e-06 -1.6918e-06 -0.00100351)
(-1.01378e-06 -1.64058e-06 -0.0010039)
(-3.48876e-07 -1.61033e-06 -0.0010041)
(-2.13422e-06 -1.17683e-06 -0.00100278)
(-1.92416e-06 -1.12316e-06 -0.00100339)
(-1.5269e-06 -1.07778e-06 -0.00100391)
(-9.80888e-07 -1.04487e-06 -0.00100429)
(-3.37579e-07 -1.02553e-06 -0.00100448)
(-2.09153e-06 -4.03604e-07 -0.00100302)
(-1.88595e-06 -3.85025e-07 -0.00100361)
(-1.49679e-06 -3.69387e-07 -0.00100412)
(-9.61658e-07 -3.58073e-07 -0.00100448)
(-3.31e-07 -3.51452e-07 -0.00100467)
(-3.28684e-06 -3.57998e-06 -0.00100124)
(-2.96194e-06 -3.40523e-06 -0.00100223)
(-2.35205e-06 -3.25211e-06 -0.00100307)
(-1.51228e-06 -3.13716e-06 -0.00100369)
(-5.20572e-07 -3.06908e-06 -0.00100401)
(-3.11217e-06 -3.17081e-06 -0.00100229)
(-2.80233e-06 -3.01139e-06 -0.00100321)
(-2.22323e-06 -2.87485e-06 -0.00100398)
(-1.42831e-06 -2.77454e-06 -0.00100455)
(-4.915e-07 -2.71599e-06 -0.00100484)
(-2.96059e-06 -2.48186e-06 -0.00100315)
(-2.66597e-06 -2.35345e-06 -0.001004)
(-2.11527e-06 -2.2449e-06 -0.00100473)
(-1.35918e-06 -2.1661e-06 -0.00100525)
(-4.67829e-07 -2.12055e-06 -0.00100552)
(-2.84797e-06 -1.5811e-06 -0.00100377)
(-2.56528e-06 -1.49719e-06 -0.00100457)
(-2.03587e-06 -1.42681e-06 -0.00100525)
(-1.30843e-06 -1.37595e-06 -0.00100575)
(-4.50465e-07 -1.34677e-06 -0.001006)
(-2.78175e-06 -5.42261e-07 -0.00100409)
(-2.50635e-06 -5.1302e-07 -0.00100486)
(-1.98983e-06 -4.88703e-07 -0.00100551)
(-1.27929e-06 -4.71232e-07 -0.00100599)
(-4.40594e-07 -4.61319e-07 -0.00100624)
(-4.46699e-06 -4.85024e-06 -0.00100176)
(-4.01698e-06 -4.58235e-06 -0.0010031)
(-3.19001e-06 -4.34559e-06 -0.00100423)
(-2.05188e-06 -4.16544e-06 -0.00100506)
(-7.06073e-07 -4.06004e-06 -0.00100549)
(-4.19958e-06 -4.26355e-06 -0.00100316)
(-3.77147e-06 -4.01744e-06 -0.00100438)
(-2.99159e-06 -3.8083e-06 -0.00100541)
(-1.92214e-06 -3.65497e-06 -0.00100617)