FoamFile
{version 2.0; format ascii;class Cloud<passiveParticle>; location 0;object  positions;}
350
(
( -3.38126 1.96381 0.499817 ) 0 
( -2.40599 2.2424 0.499618 ) 0 
( -4.23798 3.81186 0.499973 ) 0 
( -2.25727 4.04582 0.49974 ) 0 
( -2.75331 4.92879 0.499611 ) 0 
( -1.45321 1.4958 0.49957 ) 0 
( -0.599424 2.12631 0.499903 ) 0 
( -0.869592 4.25679 0.499624 ) 0 
( -4.46854 1.09266 0.499975 ) 0 
( -0.311792 3.39037 0.499741 ) 0 
( -2.71286 0.280717 0.499599 ) 0 
( -1.3112 3.3599 0.499723 ) 0 
( -0.504187 1.13005 0.499662 ) 0 
( -4.35582 2.20543 0.499705 ) 0 
( -4.7057 0.121193 0.499638 ) 0 
( -3.75782 4.69802 0.499831 ) 0 
( -4.75025 4.81973 0.499523 ) 0 
( -3.70742 0.177772 0.499856 ) 0 
( -4.6139 1.9102 1.41942 ) 0 
( -2.42115 1.23925 0.499787 ) 0 
( -1.2175 0.689059 1.04368 ) 0 
( -1.74353 0.0355204 0.499786 ) 0 
( -4.88807 3.05202 0.499758 ) 0 
( -1.48629 2.43339 0.845014 ) 0 
( -3.23666 3.84478 0.51613 ) 0 
( -1.67103 4.85617 0.499782 ) 0 
( -0.00726519 4.19921 1.00237 ) 0 
( -3.63954 2.92974 0.499569 ) 0 
( -4.87474 0.65969 1.32493 ) 0 
( -4.46763 4.33809 1.32871 ) 0 
( -3.3309 1.03187 0.858703 ) 0 
( -1.60584 4.19157 1.24399 ) 0 
( -2.19595 3.13484 0.906989 ) 0 
( -1.38809 3.24727 1.49009 ) 0 
( -0.536279 2.77694 1.25655 ) 0 
( -0.575903 0.221217 1.75095 ) 0 
( -2.14357 1.73695 1.32126 ) 0 
( -4.27402 2.8411 1.26692 ) 0 
( -0.728592 4.81652 1.31576 ) 0 
( -3.00161 2.624 1.2059 ) 0 
( -2.19031 0.643963 1.27029 ) 0 
( -0.00919129 3.49455 1.71142 ) 0 
( -0.878043 1.60823 1.30921 ) 0 
( -2.69384 4.40101 1.34651 ) 0 
( -3.62283 1.78344 1.45305 ) 0 
( -4.83914 3.51277 1.75335 ) 0 
( -3.90309 0.454352 1.44056 ) 0 
( -4.27616 1.71282 2.3394 ) 0 
( -3.588 4.4441 1.79208 ) 0 
( -0.845292 3.10151 2.31705 ) 0 
( -2.49657 2.36596 2.02917 ) 0 
( -2.61404 3.48711 1.74388 ) 0 
( -1.55998 1.13766 1.86869 ) 0 
( -2.86882 1.19868 1.75114 ) 0 
( -0.542176 2.17942 2.05799 ) 0 
( -1.51582 2.31876 1.83793 ) 0 
( -0.856223 3.99985 1.87827 ) 0 
( -4.42249 0.0996077 2.21782 ) 0 
( -2.04695 0.0533851 2.06439 ) 0 
( -4.66984 2.61346 2.15634 ) 0 
( -3.55532 3.52133 1.40876 ) 0 
( -0.497094 1.18326 2.12989 ) 0 
( -2.23837 4.28627 2.22913 ) 0 
( -1.25114 1.73697 2.60682 ) 0 
( -3.61963 2.62598 1.99145 ) 0 
( -0.619142 2.43039 3.02278 ) 0 
( -2.77407 0.601084 2.5471 ) 0 
( -4.00361 3.49498 2.30213 ) 0 
( -2.25877 1.5064 2.481 ) 0 
( -3.70097 0.895325 2.31467 ) 0 
( -1.50632 4.90431 1.93794 ) 0 
( -4.92231 0.950782 2.37729 ) 0 
( -1.13381 0.529373 2.53752 ) 0 
( -0.403492 4.53265 2.64399 ) 0 
( -4.43836 4.23673 2.81197 ) 0 
( -4.86644 3.33316 2.82196 ) 0 
( -1.87954 1.70802 3.38377 ) 0 
( -4.31892 1.13634 3.15517 ) 0 
( -1.94261 0.75502 3.08044 ) 0 
( -2.44832 3.19628 2.68579 ) 0 
( -1.61324 2.65364 2.77487 ) 0 
( -3.12717 3.92728 2.51352 ) 0 
( -3.28468 1.79602 2.43675 ) 0 
( -1.37444 4.3111 2.7317 ) 0 
( -3.51446 0.546354 3.23284 ) 0 
( -0.21786 3.47743 3.13821 ) 0 
( -3.91656 2.73027 2.9403 ) 0 
( -2.62541 0.0968547 3.39773 ) 0 
( -0.834723 0.312135 3.46637 ) 0 
( -3.86031 4.54774 3.56594 ) 0 
( -1.26246 2.78303 3.70202 ) 0 
( -2.89538 1.33159 3.23178 ) 0 
( -4.47706 0.1509 3.21476 ) 0 
( -2.62136 2.26878 3.01643 ) 0 
( -3.50243 4.87316 2.69106 ) 0 
( -1.75359 3.57757 3.29526 ) 0 
( -2.58106 4.73531 3.05419 ) 0 
( -3.18426 3.2671 3.35877 ) 0 
( -0.690663 1.30405 3.31243 ) 0 
( -0.713533 2.01013 4.01999 ) 0 
( -0.869357 4.66505 3.51857 ) 0 
( -2.25925 2.8443 3.74929 ) 0 
( -4.13713 3.54821 3.47128 ) 0 
( -1.42871 0.984922 3.90663 ) 0 
( -2.61298 3.99364 3.74021 ) 0 
( -4.38348 2.06443 3.52165 ) 0 
( -3.65187 1.29222 3.88449 ) 0 
( -4.65913 4.18121 4.04265 ) 0 
( -0.0427583 0.443107 4.06238 ) 0 
( -0.290875 2.95096 4.00205 ) 0 
( -0.912179 3.71229 3.81813 ) 0 
( -1.97402 1.98202 4.34048 ) 0 
( -2.41348 1.057 4.06341 ) 0 
( -1.69423 4.31822 3.96442 ) 0 
( -0.197751 1.26779 4.60607 ) 0 
( -3.40408 2.22893 3.63722 ) 0 
( -4.74852 1.29437 4.04412 ) 0 
( -3.7079 3.89355 4.30638 ) 0 
( -4.88165 2.90689 3.72634 ) 0 
( -3.06251 4.66878 4.32498 ) 0 
( -1.6947 3.39974 4.35971 ) 0 
( -3.95357 2.86545 4.17837 ) 0 
( -3.21076 0.537155 4.36949 ) 0 
( -0.299572 4.75829 4.33499 ) 0 
( -1.23369 1.46049 4.76405 ) 0 
( -2.9282 2.22301 4.5165 ) 0 
( -2.98373 3.20486 4.33618 ) 0 
( -4.10021 1.93277 4.5078 ) 0 
( -2.15377 0.570303 4.89712 ) 0 
( -2.41497 3.72751 4.97083 ) 0 
( -0.517995 2.01573 5.18737 ) 0 
( -0.661955 3.74168 4.78557 ) 0 
( -4.10408 0.864783 4.67612 ) 0 
( -1.00237 2.71966 4.66518 ) 0 
( -4.5085 3.48888 4.74807 ) 0 
( -2.1287 4.66879 4.79386 ) 0 
( -0.87553 0.53393 4.65022 ) 0 
( -2.19258 2.75335 4.93785 ) 0 
( -2.02746 1.37796 5.47261 ) 0 
( -2.96334 0.486584 5.47796 ) 0 
( -3.35167 3.95197 5.23874 ) 0 
( -3.5814 2.96575 5.10105 ) 0 
( -0.670079 2.92761 5.58482 ) 0 
( -4.706 1.44595 5.22368 ) 0 
( -2.58107 4.43737 5.65497 ) 0 
( -1.47979 2.2091 5.37997 ) 0 
( -4.0834 4.77069 4.60889 ) 0 
( -1.3808 0.432647 5.51612 ) 0 
( -0.618524 4.60532 5.28733 ) 0 
( -2.86678 1.30933 4.91813 ) 0 
( -0.401509 0.616048 5.59969 ) 0 
( -4.50442 2.59163 5.18913 ) 0 
( -4.91726 0.137637 4.90108 ) 0 
( -2.46589 2.24042 5.75152 ) 0 
( -1.49023 3.58382 5.32272 ) 0 
( -4.05376 3.50825 5.79538 ) 0 
( -3.75286 0.266567 6.07705 ) 0 
( -4.74863 2.81063 6.13359 ) 0 
( -0.738402 2.16504 6.22772 ) 0 
( -4.42643 4.39335 5.469 ) 0 
( -3.80869 1.13856 5.59111 ) 0 
( -3.39483 2.02324 5.37775 ) 0 
( -1.06465 1.35355 5.74346 ) 0 
( -2.78202 3.18868 5.72869 ) 0 
( -3.33436 4.95195 5.24577 ) 0 
( -2.90443 1.36469 5.9524 ) 0 
( -4.2372 1.97586 5.9302 ) 0 
( -0.0327492 2.88731 6.39697 ) 0 
( -1.00018 0.397979 6.44035 ) 0 
( -1.78215 2.92166 6.01272 ) 0 
( -1.91449 3.89992 6.17115 ) 0 
( -4.49232 4.80003 6.41025 ) 0 
( -0.399641 3.8393 5.8934 ) 0 
( -2.17745 0.733481 6.22222 ) 0 
( -3.62268 4.45102 6.06162 ) 0 
( -3.58272 1.6688 6.62102 ) 0 
( -4.64233 0.623738 5.78931 ) 0 
( -3.55274 2.68135 6.11364 ) 0 
( -0.91873 4.62007 6.24098 ) 0 
( -2.63254 1.97061 6.69983 ) 0 
( -0.439611 1.22274 6.5127 ) 0 
( -0.405947 0.533998 7.23655 ) 0 
( -2.0081 2.70603 6.96246 ) 0 
( -4.17135 2.44052 6.86117 ) 0 
( -2.88417 3.88955 6.43445 ) 0 
( -1.54897 4.36837 6.97525 ) 0 
( -2.98586 0.893285 6.8303 ) 0 
( -0.575736 4.03833 6.97836 ) 0 
( -0.958662 3.25707 6.48371 ) 0 
( -4.48252 0.416395 6.75428 ) 0 
( -1.70829 1.88201 6.29682 ) 0 
( -3.85557 3.42788 6.77196 ) 0 
( -1.71312 0.630361 7.10164 ) 0 
( -0.0758309 2.06918 6.97019 ) 0 
( -4.69884 1.37789 6.58533 ) 0 
( -1.85572 1.69147 7.26725 ) 0 
( -4.68563 2.81867 7.63053 ) 0 
( -0.390875 3.11092 7.30329 ) 0 
( -1.07345 2.39867 7.1403 ) 0 
( -3.35432 2.2471 7.40412 ) 0 
( -3.86558 0.987488 7.29607 ) 0 
( -3.82987 4.3914 7.03795 ) 0 
( -4.4784 1.74724 7.51291 ) 0 
( -2.85462 4.57192 7.16463 ) 0 
( -0.202896 4.96645 7.04566 ) 0 
( -1.34703 3.47598 7.37876 ) 0 
( -0.901388 1.41444 7.37856 ) 0 
( -2.96178 2.98805 6.85963 ) 0 
( -1.84128 2.81399 7.94227 ) 0 
( -0.938319 4.71941 7.68489 ) 0 
( -4.6834 3.87551 7.10985 ) 0 
( -0.0721132 1.88002 7.95187 ) 0 
( -2.30168 3.73508 7.2324 ) 0 
( -4.81032 4.83595 7.35762 ) 0 
( -3.30626 0.585972 8.05811 ) 0 
( -4.52375 0.389202 7.7529 ) 0 
( -1.18748 2.06968 8.07758 ) 0 
( -3.16907 4.90805 8.05218 ) 0 
( -3.73776 3.12455 7.71727 ) 0 
( -2.46036 0.960058 7.67827 ) 0 
( -0.890355 3.02733 8.1654 ) 0 
( -1.13501 0.604941 7.91706 ) 0 
( -1.44378 0.312881 8.82203 ) 0 
( -4.07311 4.37151 8.00754 ) 0 
( -2.07448 2.6831 8.9057 ) 0 
( -3.15824 3.92589 7.8648 ) 0 
( -4.07555 2.37593 8.2875 ) 0 
( -1.98938 4.43925 7.87005 ) 0 
( -0.719826 1.29729 8.50713 ) 0 
( -2.48698 1.90156 8.01367 ) 0 
( -3.99058 0.0152536 8.51159 ) 0 
( -2.3901 0.517811 8.57225 ) 0 
( -1.21138 3.96687 8.28399 ) 0 
( -0.0986833 4.50347 8.18293 ) 0 
( -2.83599 2.83813 8.04007 ) 0 
( -3.5253 1.56009 8.11008 ) 0 
( -1.75657 1.28152 8.31163 ) 0 
( -3.43399 4.25556 8.7677 ) 0 
( -0.488433 2.32029 8.74715 ) 0 
( -4.32066 3.32045 8.50571 ) 0 
( -3.07256 1.16601 8.9098 ) 0 
( -2.33899 3.64313 8.3635 ) 0 
( -1.30751 2.21009 9.33913 ) 0 
( -1.52971 4.83325 8.82932 ) 0 
( -2.22316 0.0127993 9.41898 ) 0 
( -4.7198 2.30236 9.06041 ) 0 
( -4.87376 0.395324 8.78631 ) 0 
( -4.90181 4.67798 8.47561 ) 0 
( -3.07242 2.19581 8.76896 ) 0 
( -0.345858 3.67874 8.69346 ) 0 
( -1.07725 3.16214 9.13838 ) 0 
( -0.35873 0.423601 8.83286 ) 0 
( -4.43085 1.19129 8.3427 ) 0 
( -3.04494 2.48849 9.72469 ) 0 
( -3.10833 0.50319 9.73653 ) 0 
( -1.74769 3.90378 9.12645 ) 0 
( -2.49407 4.59322 8.71931 ) 0 
( -4.39163 4.10294 9.12413 ) 0 
( -3.91222 1.71423 9.01904 ) 0 
( -2.24977 1.71203 9.0674 ) 0 
( -0.51315 1.62704 9.50892 ) 0 
( -2.3056 3.16115 9.75295 ) 0 
( -3.92403 0.732004 9.20548 ) 0 
( -0.826451 4.08761 9.46917 ) 0 
( -2.9745 3.16974 8.97319 ) 0 
( -1.39252 1.21851 9.24275 ) 0 
( -1.99992 1.94037 10.0083 ) 0 
( -3.58643 3.68406 9.57388 ) 0 
( -2.87405 1.94797 10.5484 ) 0 
( -3.86146 2.78624 9.23019 ) 0 
( -0.532363 0.8734 10.1658 ) 0 
( -0.465234 2.60951 9.7039 ) 0 
( -4.80122 1.32631 9.26167 ) 0 
( -1.39129 0.399693 9.81672 ) 0 
( -4.0785 0.223944 10.0527 ) 0 
( -2.6654 4.07301 9.55582 ) 0 
( -1.61791 4.15755 10.0849 ) 0 
( -2.22482 0.971371 9.73873 ) 0 
( -1.51854 1.16571 10.4466 ) 0 
( -4.26742 4.97693 9.59373 ) 0 
( -1.3839 2.92443 10.0599 ) 0 
( -3.36147 1.47068 9.81731 ) 0 
( -3.09319 3.29832 10.3535 ) 0 
( -2.4374 4.68977 10.3091 ) 0 
( -4.06292 3.09196 10.2237 ) 0 
( -4.08318 1.31973 10.4928 ) 0 
( -0.97059 4.18873 10.8464 ) 0 
( -1.14725 0.173415 10.7596 ) 0 
( -2.20182 3.60918 10.6833 ) 0 
( -0.365898 3.50316 10.1413 ) 0 
( -1.02358 2.01975 10.2872 ) 0 
( -4.87232 0.82765 10.1254 ) 0 
( -0.0860896 4.41574 10.439 ) 0 
( -4.18871 2.11309 9.89326 ) 0 
( -3.41191 4.53544 10.0684 ) 0 
( -2.14972 2.61191 10.7339 ) 0 
( -4.7513 3.19688 9.50612 ) 0 
( -2.83679 3.1569 11.3096 ) 0 
( -4.97093 2.77862 10.5015 ) 0 
( -3.83793 3.22263 11.1892 ) 0 
( -0.14556 2.57932 10.6508 ) 0 
( -2.78266 0.952385 10.5684 ) 0 
( -4.28781 4.06517 10.1761 ) 0 
( -4.38912 0.377426 10.9907 ) 0 
( -3.52324 1.65514 11.2503 ) 0 
( -2.07948 1.68165 11.0939 ) 0 
( -1.89532 4.45678 11.1164 ) 0 
( -4.15596 2.33038 10.8687 ) 0 
( -3.02536 4.1339 10.8986 ) 0 
( -0.926829 3.19166 10.9082 ) 0 
( -1.31339 2.31593 11.1972 ) 0 
( -0.789454 1.03544 11.1185 ) 0 
( -4.38542 4.06262 11.1712 ) 0 
( -3.50213 0.660887 11.3551 ) 0 
( -3.4444 2.50763 11.767 ) 0 
( -3.44822 3.9281 11.7811 ) 0 
( -4.99116 1.16177 11.1398 ) 0 
( -4.60275 4.94369 10.5352 ) 0 
( -2.00659 0.570535 11.0849 ) 0 
( -0.129392 3.09724 11.5061 ) 0 
( -2.90305 4.76014 11.6789 ) 0 
( -1.65627 3.50713 11.5151 ) 0 
( -0.476076 4.992 11.5247 ) 0 
( -0.0724297 4.08805 11.3837 ) 0 
( -0.230109 0.207428 11.1566 ) 0 
( -4.46397 2.58472 11.7855 ) 0 
( -4.5921 0.682149 11.9213 ) 0 
( -3.94237 4.79279 11.6913 ) 0 
( -4.24734 1.62065 11.9391 ) 0 
( -2.48373 3.785 12.003 ) 0 
( -4.33953 3.54712 12.0268 ) 0 
( -1.13007 2.62398 12.1307 ) 0 
( -1.37364 1.50558 11.78 ) 0 
( -1.10052 4.27483 11.8341 ) 0 
( -0.161157 2.39066 12.2129 ) 0 
( -0.194079 1.334 12.1386 ) 0 
( -0.254979 4.1911 12.3614 ) 0 
( -0.766151 0.485863 11.9536 ) 0 
( -2.69195 1.14964 11.6785 ) 0 
( -0.407118 1.92676 11.3619 ) 0 
( -2.0142 4.65932 12.1258 ) 0 
( -1.25726 4.5777 12.7741 ) 0 
( -1.01536 1.38955 12.7064 ) 0 
( -2.09555 2.63537 11.7321 ) 0 
( -4.94831 2.96983 12.571 ) 0 
( -1.53618 0.544015 12.5889 ) 0 
( -3.51125 3.21073 12.4749 ) 0 
( -2.20001 1.79459 12.2633 ) 0 
( -3.41075 4.60969 12.5272 ) 0 
( -1.00801 3.54194 12.5081 ) 0 
)
