FoamFile
{version 2.0; format ascii;class Cloud<passiveParticle>; location 0;object  positions;}
41
(
( 0.000196948 -0.0003906 9.99275e-05 ) 0 
( 4.48875e-05 -4.1628e-05 9.99086e-05 ) 0 
( 0.000177047 -0.000191664 9.9864e-05 ) 0 
( 0.000408402 -0.000255459 9.97959e-05 ) 0 
( 4.80388e-05 -0.000417047 0.00023349 ) 0 
( 0.000384712 -0.000387215 0.000248229 ) 0 
( 0.000324138 -5.61913e-05 9.97878e-05 ) 0 
( 6.34338e-05 -0.000192955 0.000267957 ) 0 
( 0.000299023 -0.000200795 0.00025788 ) 0 
( 0.000185644 -3.67743e-05 0.000242458 ) 0 
( 0.000474186 -0.000110147 0.000220235 ) 0 
( 0.000208337 -0.000359752 0.000338302 ) 0 
( 5.05368e-05 -3.46838e-05 0.000389682 ) 0 
( 0.000407075 -0.000257855 0.000415991 ) 0 
( 0.000294203 -6.82565e-05 0.000407389 ) 0 
( 0.000284493 -0.000372577 0.000524478 ) 0 
( 0.000150946 -0.000202289 0.00044738 ) 0 
( 0.000108906 -0.000457917 0.000481223 ) 0 
( 0.000266709 -0.0001927 0.000610052 ) 0 
( 0.000141037 -4.29954e-05 0.000567784 ) 0 
( 0.000494011 -0.000332608 0.000579736 ) 0 
( 0.000434469 -0.000105623 0.000544908 ) 0 
( 4.60305e-05 -0.000300137 0.000586707 ) 0 
( 0.000165509 -0.000436658 0.000671804 ) 0 
( 0.000426818 -0.00021595 0.000727548 ) 0 
( 0.000284316 -1.75532e-05 0.000704923 ) 0 
( 0.000364192 -0.000425564 0.000700106 ) 0 
( 0.000243152 -0.000289835 0.000783192 ) 0 
( 0.000450624 -3.73248e-05 0.000814161 ) 0 
( 5.34136e-05 -0.000227553 0.000792971 ) 0 
( 0.000200669 -0.000110565 0.000860881 ) 0 
( 0.000220577 -0.000462089 0.000882135 ) 0 
( 0.000396699 -0.000288901 0.00091128 ) 0 
( 0.000357267 -8.86695e-05 0.000983336 ) 0 
( 8.13425e-05 -0.000339331 0.000956365 ) 0 
( 0.00036147 -0.000463462 0.00102404 ) 0 
( 4.14957e-05 -0.000144493 0.000977036 ) 0 
( 0.00024118 -0.000244582 0.0010302 ) 0 
( 0.000463644 -9.42639e-06 0.00113299 ) 0 
( 9.77166e-05 -0.000446358 0.0011245 ) 0 
( 0.000366657 -0.000322 0.00116531 ) 0 
)
