FoamFile
{version 2.0; format ascii;class vectorField; location 0;object  v;}
41
(
( -5.85932e-05 -1.78726e-06 2.50189e-05 )  
( -1.89296e-05 4.82185e-07 1.72524e-05 )  
( -4.28176e-05 -2.10104e-05 6.47509e-06 )  
( -3.85657e-05 2.57815e-05 9.87765e-06 )  
( -1.35441e-05 -2.31374e-06 -2.21016e-07 )  
( -2.47164e-05 -3.13929e-06 1.17391e-05 )  
( -4.89134e-07 -1.207e-06 3.68685e-05 )  
( 1.39403e-05 -1.6071e-05 -7.49988e-05 )  
( -8.23166e-05 1.79276e-05 2.08702e-05 )  
( -5.73285e-05 4.70439e-05 1.05509e-05 )  
( -2.2096e-08 -2.21771e-05 -5.47301e-06 )  
( -1.29819e-05 -4.78088e-05 2.4551e-05 )  
( -3.24139e-05 0.000117085 -2.2348e-05 )  
( -2.55501e-05 7.6909e-06 -4.44071e-05 )  
( -7.02071e-05 3.64168e-05 -3.3312e-05 )  
( -3.79381e-05 -2.78311e-05 -7.26665e-05 )  
( -6.43708e-06 1.29116e-05 -0.00010885 )  
( -0.000103179 4.34539e-05 -2.44245e-06 )  
( -3.07705e-05 -1.08297e-05 -0.00016938 )  
( 9.19934e-06 2.68909e-05 -0.000140721 )  
( 1.71781e-06 -5.88303e-05 -0.000169847 )  
( -4.62765e-05 3.89481e-05 -0.00013294 )  
( -5.12864e-05 0.000132565 -6.59354e-05 )  
( -9.00222e-05 3.67377e-05 -0.000101961 )  
( -2.19209e-05 -4.63002e-05 -0.00028638 )  
( 3.89126e-07 -6.61498e-05 -0.000198105 )  
( 4.66039e-05 -8.6972e-06 -0.00015976 )  
( 3.8411e-05 2.26615e-05 -0.000228318 )  
( 1.69341e-05 -0.000114644 -0.000277967 )  
( 5.04223e-06 7.73114e-06 -0.000281188 )  
( -4.15581e-05 -7.47693e-05 -0.000261087 )  
( 9.00311e-05 7.42264e-05 -0.000338434 )  
( 9.29191e-05 0.000204146 -0.000332709 )  
( 2.96586e-05 -4.56048e-05 -0.000305477 )  
( 3.37393e-05 -5.54611e-05 -0.00035168 )  
( -0.00013635 6.11763e-05 -0.000300048 )  
( -6.40891e-05 -3.07907e-07 -0.000276617 )  
( 9.8358e-06 3.96259e-05 -0.000206625 )  
( 6.28027e-06 7.73698e-05 -0.000388744 )  
( 3.25486e-05 3.93522e-06 -0.000363662 )  
( -4.8268e-05 -0.000186459 -0.000141094 )  
)
