/*--------------------------------*- C++ -*----------------------------------*\
| =========                 |                                                 |
| \\      /  F ield         | OpenFOAM: The Open Source CFD Toolbox           |
|  \\    /   O peration     | Version:  5.x                                   |
|   \\  /    A nd           | Web:      www.OpenFOAM.org                      |
|    \\/     M anipulation  |                                                 |
\*---------------------------------------------------------------------------*/
FoamFile
{
    version     2.0;
    format      ascii;
    class       volVectorField;
    location    "500";
    object      stored_U;
}
// * * * * * * * * * * * * * * * * * * * * * * * * * * * * * * * * * * * * * //

dimensions      [0 1 -1 0 0 0 0];

internalField   nonuniform List<vector> 
90
(
(0.0367196 -0.122749 -4.79438)
(0.0379576 -0.130045 -4.77786)
(0.0395312 -0.139638 -4.7723)
(0.0408583 -0.147906 -4.76009)
(0.0421498 -0.15641 -4.75003)
(0.043311 -0.164432 -4.73808)
(0.0443966 -0.172341 -4.72634)
(0.0453969 -0.179951 -4.7139)
(0.0463428 -0.187368 -4.70129)
(0.0472432 -0.194515 -4.68833)
(0.0481251 -0.201417 -4.67522)
(0.0490049 -0.208028 -4.66194)
(0.0499202 -0.214309 -4.6486)
(0.0509333 -0.220218 -4.63527)
(0.0520993 -0.22571 -4.62203)
(0.0534744 -0.230737 -4.60898)
(0.055126 -0.235243 -4.59622)
(0.0571091 -0.23918 -4.58386)
(0.0594805 -0.242498 -4.57202)
(0.0622858 -0.245152 -4.56081)
(0.0655611 -0.247105 -4.55038)
(0.0693289 -0.248325 -4.54082)
(0.0735978 -0.248786 -4.53227)
(0.0783598 -0.248469 -4.52484)
(0.0835899 -0.247363 -4.51862)
(0.0892461 -0.245468 -4.5137)
(0.0952702 -0.242791 -4.51017)
(0.101589 -0.239351 -4.50807)
(0.108117 -0.235177 -4.50747)
(0.114759 -0.230308 -4.50837)
(0.121412 -0.224797 -4.51079)
(0.127972 -0.218706 -4.51472)
(0.134334 -0.212107 -4.52012)
(0.140396 -0.205085 -4.52696)
(0.146061 -0.19773 -4.53515)
(0.151241 -0.190144 -4.54463)
(0.155859 -0.182433 -4.55529)
(0.159849 -0.17471 -4.56701)
(0.163157 -0.167088 -4.57966)
(0.165744 -0.159682 -4.5931)
(0.167583 -0.152604 -4.60718)
(0.168666 -0.14596 -4.62172)
(0.169014 -0.139848 -4.63654)
(0.168673 -0.134349 -4.65149)
(0.16769 -0.129521 -4.6664)
(0.166076 -0.125394 -4.68111)
(0.16381 -0.121967 -4.69545)
(0.160872 -0.119217 -4.70926)
(0.157255 -0.117097 -4.72236)
(0.152973 -0.115545 -4.73461)
(0.148059 -0.114486 -4.74588)
(0.142563 -0.113838 -4.75607)
(0.136553 -0.113516 -4.76508)
(0.130111 -0.113438 -4.77285)
(0.123326 -0.11353 -4.77937)
(0.116293 -0.113728 -4.7846)
(0.109107 -0.113986 -4.78855)
(0.101863 -0.114272 -4.79125)
(0.0946491 -0.114567 -4.79271)
(0.0875471 -0.114866 -4.79299)
(0.0806287 -0.115172 -4.79212)
(0.0739571 -0.115497 -4.79013)
(0.0675834 -0.115858 -4.78707)
(0.0615456 -0.116277 -4.78299)
(0.0558696 -0.116776 -4.7779)
(0.0505678 -0.117378 -4.77182)
(0.0456453 -0.118103 -4.76476)
(0.041101 -0.11897 -4.75673)
(0.0369232 -0.119998 -4.74773)
(0.0330948 -0.121214 -4.73775)
(0.0295945 -0.122646 -4.72677)
(0.0263949 -0.124202 -4.71478)
(0.0234747 -0.125683 -4.70175)
(0.0208269 -0.126974 -4.68768)
(0.0184473 -0.128016 -4.6726)
(0.0163337 -0.128749 -4.65653)
(0.0144877 -0.12913 -4.63953)
(0.0129132 -0.129122 -4.62161)
(0.0116174 -0.128682 -4.60284)
(0.0106095 -0.127762 -4.58324)
(0.00990172 -0.126308 -4.56288)
(0.00950987 -0.124244 -4.54184)
(0.00945418 -0.121469 -4.52016)
(0.00975111 -0.117875 -4.49778)
(0.0104109 -0.113378 -4.47463)
(0.0114348 -0.108038 -4.45149)
(0.0128305 -0.101159 -4.42994)
(0.0148467 -0.091554 -4.41006)
(0.0174137 -0.0792896 -4.38204)
(0.0184844 -0.0734121 -4.34854)
)
;

boundaryField
{
    inlet
    {
        type            calculated;
        value           uniform (0.0184844 -0.0734121 -4.34854);
    }
    outlet
    {
        type            calculated;
        value           uniform (0.0367196 -0.122749 -4.79438);
    }
    repeat_boundary
    {
        type            calculated;
        value           nonuniform List<vector> 
180
(
(0.0367196 0 -4.79438)
(0.0379576 0 -4.77786)
(0.0395312 0 -4.7723)
(0.0408583 0 -4.76009)
(0.0421498 0 -4.75003)
(0.043311 0 -4.73808)
(0.0443966 0 -4.72634)
(0.0453969 0 -4.7139)
(0.0463428 0 -4.70129)
(0.0472432 0 -4.68833)
(0.0481251 0 -4.67522)
(0.0490049 0 -4.66194)
(0.0499202 0 -4.6486)
(0.0509333 0 -4.63527)
(0.0520993 0 -4.62203)
(0.0534744 0 -4.60898)
(0.055126 0 -4.59622)
(0.0571091 0 -4.58386)
(0.0594805 0 -4.57202)
(0.0622858 0 -4.56081)
(0.0655611 0 -4.55038)
(0.0693289 0 -4.54082)
(0.0735978 0 -4.53227)
(0.0783598 0 -4.52484)
(0.0835899 0 -4.51862)
(0.0892461 0 -4.5137)
(0.0952702 0 -4.51017)
(0.101589 0 -4.50807)
(0.108117 0 -4.50747)
(0.114759 0 -4.50837)
(0.121412 0 -4.51079)
(0.127972 0 -4.51472)
(0.134334 0 -4.52012)
(0.140396 0 -4.52696)
(0.146061 0 -4.53515)
(0.151241 0 -4.54463)
(0.155859 0 -4.55529)
(0.159849 0 -4.56701)
(0.163157 0 -4.57966)
(0.165744 0 -4.5931)
(0.167583 0 -4.60718)
(0.168666 0 -4.62172)
(0.169014 0 -4.63654)
(0.168673 0 -4.65149)
(0.16769 0 -4.6664)
(0.166076 0 -4.68111)
(0.16381 0 -4.69545)
(0.160872 0 -4.70926)
(0.157255 0 -4.72236)
(0.152973 0 -4.73461)
(0.148059 0 -4.74588)
(0.142563 0 -4.75607)
(0.136553 0 -4.76508)
(0.130111 0 -4.77285)
(0.123326 0 -4.77937)
(0.116293 0 -4.7846)
(0.109107 0 -4.78855)
(0.101863 0 -4.79125)
(0.0946491 0 -4.79271)
(0.0875471 0 -4.79299)
(0.0806287 0 -4.79212)
(0.0739571 0 -4.79013)
(0.0675834 0 -4.78707)
(0.0615456 0 -4.78299)
(0.0558696 0 -4.7779)
(0.0505678 0 -4.77182)
(0.0456453 0 -4.76476)
(0.041101 0 -4.75673)
(0.0369232 0 -4.74773)
(0.0330948 0 -4.73775)
(0.0295945 0 -4.72677)
(0.0263949 0 -4.71478)
(0.0234747 0 -4.70175)
(0.0208269 0 -4.68768)
(0.0184473 0 -4.6726)
(0.0163337 0 -4.65653)
(0.0144877 0 -4.63953)
(0.0129132 0 -4.62161)
(0.0116174 0 -4.60284)
(0.0106095 0 -4.58324)
(0.00990172 0 -4.56288)
(0.00950987 0 -4.54184)
(0.00945418 0 -4.52016)
(0.00975111 0 -4.49778)
(0.0104109 0 -4.47463)
(0.0114348 0 -4.45149)
(0.0128305 0 -4.42994)
(0.0148467 0 -4.41006)
(0.0174137 0 -4.38204)
(0.0184844 0 -4.34854)
(0 -0.122749 -4.79438)
(0 -0.130045 -4.77786)
(0 -0.139638 -4.7723)
(0 -0.147906 -4.76009)
(0 -0.15641 -4.75003)
(0 -0.164432 -4.73808)
(0 -0.172341 -4.72634)
(0 -0.179951 -4.7139)
(0 -0.187368 -4.70129)
(0 -0.194515 -4.68833)
(0 -0.201417 -4.67522)
(0 -0.208028 -4.66194)
(0 -0.214309 -4.6486)
(0 -0.220218 -4.63527)
(0 -0.22571 -4.62203)
(0 -0.230737 -4.60898)
(0 -0.235243 -4.59622)
(0 -0.23918 -4.58386)
(0 -0.242498 -4.57202)
(0 -0.245152 -4.56081)
(0 -0.247105 -4.55038)
(0 -0.248325 -4.54082)
(0 -0.248786 -4.53227)
(0 -0.248469 -4.52484)
(0 -0.247363 -4.51862)
(0 -0.245468 -4.5137)
(0 -0.242791 -4.51017)
(0 -0.239351 -4.50807)
(0 -0.235177 -4.50747)
(0 -0.230308 -4.50837)
(0 -0.224797 -4.51079)
(0 -0.218706 -4.51472)
(0 -0.212107 -4.52012)
(0 -0.205085 -4.52696)
(0 -0.19773 -4.53515)
(0 -0.190144 -4.54463)
(0 -0.182433 -4.55529)
(0 -0.17471 -4.56701)
(0 -0.167088 -4.57966)
(0 -0.159682 -4.5931)
(0 -0.152604 -4.60718)
(0 -0.14596 -4.62172)
(0 -0.139848 -4.63654)
(0 -0.134349 -4.65149)
(0 -0.129521 -4.6664)
(0 -0.125394 -4.68111)
(0 -0.121967 -4.69545)
(0 -0.119217 -4.70926)
(0 -0.117097 -4.72236)
(0 -0.115545 -4.73461)
(0 -0.114486 -4.74588)
(0 -0.113838 -4.75607)
(0 -0.113516 -4.76508)
(0 -0.113438 -4.77285)
(0 -0.11353 -4.77937)
(0 -0.113728 -4.7846)
(0 -0.113986 -4.78855)
(0 -0.114272 -4.79125)
(0 -0.114567 -4.79271)
(0 -0.114866 -4.79299)
(0 -0.115172 -4.79212)
(0 -0.115497 -4.79013)
(0 -0.115858 -4.78707)
(0 -0.116277 -4.78299)
(0 -0.116776 -4.7779)
(0 -0.117378 -4.77182)
(0 -0.118103 -4.76476)
(0 -0.11897 -4.75673)
(0 -0.119998 -4.74773)
(0 -0.121214 -4.73775)
(0 -0.122646 -4.72677)
(0 -0.124202 -4.71478)
(0 -0.125683 -4.70175)
(0 -0.126974 -4.68768)
(0 -0.128016 -4.6726)
(0 -0.128749 -4.65653)
(0 -0.12913 -4.63953)
(0 -0.129122 -4.62161)
(0 -0.128682 -4.60284)
(0 -0.127762 -4.58324)
(0 -0.126308 -4.56288)
(0 -0.124244 -4.54184)
(0 -0.121469 -4.52016)
(0 -0.117875 -4.49778)
(0 -0.113378 -4.47463)
(0 -0.108038 -4.45149)
(0 -0.101159 -4.42994)
(0 -0.091554 -4.41006)
(0 -0.0792896 -4.38204)
(0 -0.0734121 -4.34854)
)
;
    }
    procBoundary0to1
    {
        type            processor;
        value           nonuniform List<vector> 
90
(
(0.0228692 -0.1226 -4.6207)
(0.0237369 -0.129174 -4.58785)
(0.0275382 -0.137476 -4.56403)
(0.0301199 -0.144588 -4.5344)
(0.0330851 -0.151673 -4.50544)
(0.0357669 -0.158159 -4.47397)
(0.0384142 -0.164216 -4.44163)
(0.0409217 -0.169722 -4.4078)
(0.0433349 -0.174624 -4.3729)
(0.0456477 -0.178955 -4.33693)
(0.0478664 -0.182684 -4.3001)
(0.0499904 -0.185842 -4.26245)
(0.0521096 -0.188853 -4.22406)
(0.0542323 -0.191581 -4.18501)
(0.0563908 -0.193891 -4.14514)
(0.0586324 -0.19567 -4.10464)
(0.0610208 -0.196744 -4.06345)
(0.0636016 -0.197168 -4.02167)
(0.0664239 -0.196932 -3.97929)
(0.0695287 -0.196036 -3.93635)
(0.0729519 -0.194469 -3.89284)
(0.0767218 -0.192216 -3.84876)
(0.0808591 -0.189258 -3.80411)
(0.0853757 -0.185571 -3.75888)
(0.0902751 -0.18113 -3.7131)
(0.0955518 -0.175908 -3.66677)
(0.101192 -0.169878 -3.61994)
(0.107174 -0.163017 -3.57265)
(0.113469 -0.15531 -3.52499)
(0.120042 -0.14675 -3.47704)
(0.126856 -0.137341 -3.42893)
(0.133868 -0.127104 -3.38079)
(0.141034 -0.116078 -3.33278)
(0.148312 -0.104323 -3.28508)
(0.155659 -0.09192 -3.23786)
(0.163036 -0.0789749 -3.19131)
(0.170408 -0.0656174 -3.14562)
(0.177743 -0.0520013 -3.10096)
(0.185015 -0.0383036 -3.0575)
(0.192205 -0.0247219 -3.01539)
(0.199298 -0.01147 -2.97472)
(0.206291 0.00121857 -2.93551)
(0.213199 0.0130874 -2.89778)
(0.220051 0.0238723 -2.86177)
(0.226788 0.0333919 -2.82722)
(0.233275 0.0416219 -2.79381)
(0.239397 0.048635 -2.76151)
(0.245059 0.054516 -2.7302)
(0.250195 0.0593351 -2.69981)
(0.254756 0.0631534 -2.67028)
(0.258715 0.0660242 -2.64154)
(0.262062 0.067992 -2.61357)
(0.264803 0.0690951 -2.58634)
(0.266958 0.0693657 -2.5598)
(0.268558 0.0688312 -2.53392)
(0.269645 0.0675188 -2.50866)
(0.270264 0.0654568 -2.48396)
(0.270468 0.0626738 -2.45975)
(0.270308 0.0592009 -2.43596)
(0.269834 0.0550747 -2.41252)
(0.269096 0.0503385 -2.38932)
(0.268142 0.0450441 -2.3663)
(0.267022 0.0392626 -2.34336)
(0.265767 0.0330819 -2.32044)
(0.264404 0.0266062 -2.29739)
(0.262936 0.0199435 -2.27412)
(0.261339 0.0131801 -2.25076)
(0.259649 0.00642954 -2.22724)
(0.257888 -0.000170583 -2.20354)
(0.256062 -0.00643977 -2.17973)
(0.254169 -0.0122021 -2.15589)
(0.252186 -0.0174685 -2.13216)
(0.250077 -0.0224035 -2.10869)
(0.247812 -0.0271517 -2.08558)
(0.245365 -0.0318226 -2.06293)
(0.242714 -0.0365119 -2.04082)
(0.239837 -0.0412982 -2.01931)
(0.23672 -0.0462511 -1.99847)
(0.233349 -0.0514329 -1.97834)
(0.229715 -0.0569011 -1.95897)
(0.225816 -0.0627105 -1.94041)
(0.221657 -0.0689117 -1.92271)
(0.217255 -0.0755553 -1.90593)
(0.212628 -0.0826968 -1.88992)
(0.207793 -0.0904144 -1.87469)
(0.202815 -0.0990064 -1.86047)
(0.197651 -0.108396 -1.84863)
(0.19275 -0.118573 -1.84067)
(0.187938 -0.129432 -1.83085)
(0.183581 -0.137863 -1.80403)
)
;
    }
    procBoundary0to2
    {
        type            processor;
        value           nonuniform List<vector> 
90
(
(0.0906029 -0.026413 -5.35174)
(0.0959692 -0.0274007 -5.37366)
(0.103316 -0.0301198 -5.41781)
(0.10959 -0.0311953 -5.44876)
(0.116259 -0.0321857 -5.48868)
(0.122592 -0.0323366 -5.52688)
(0.129002 -0.0320733 -5.56924)
(0.135246 -0.0311723 -5.61232)
(0.141555 -0.0297979 -5.65798)
(0.147756 -0.0278742 -5.70504)
(0.153887 -0.0254835 -5.75408)
(0.159847 -0.0226356 -5.8045)
(0.165261 -0.0193748 -5.85645)
(0.170261 -0.0157198 -5.90979)
(0.175005 -0.0117409 -5.96435)
(0.179569 -0.007512 -6.02005)
(0.184114 -0.00310149 -6.07677)
(0.188621 0.00139475 -6.13444)
(0.193172 0.00587766 -6.19302)
(0.197832 0.0102313 -6.25245)
(0.20269 0.0143378 -6.31271)
(0.207838 0.0180755 -6.3738)
(0.213363 0.0213244 -6.43573)
(0.219341 0.0239689 -6.49854)
(0.225821 0.0259024 -6.56228)
(0.23282 0.02703 -6.62704)
(0.240313 0.0272724 -6.69288)
(0.24822 0.0265677 -6.75991)
(0.256411 0.0248733 -6.8282)
(0.264695 0.0221658 -6.89783)
(0.272832 0.018441 -6.96886)
(0.280534 0.0137121 -7.04132)
(0.287479 0.00800708 -7.11523)
(0.293327 0.00136615 -7.19054)
(0.297733 -0.00616201 -7.2672)
(0.300369 -0.0145234 -7.34512)
(0.300935 -0.0236616 -7.42416)
(0.299181 -0.0335211 -7.50419)
(0.294909 -0.0440476 -7.585)
(0.28799 -0.0551888 -7.66642)
(0.278359 -0.0668931 -7.74825)
(0.266023 -0.0791082 -7.83028)
(0.251048 -0.0917779 -7.91229)
(0.23355 -0.104836 -7.99409)
(0.213702 -0.1182 -8.07548)
(0.191745 -0.131765 -8.15626)
(0.167978 -0.145405 -8.23627)
(0.142731 -0.15897 -8.31537)
(0.116343 -0.172299 -8.39341)
(0.0891407 -0.18523 -8.47029)
(0.0614298 -0.197604 -8.54589)
(0.0334826 -0.209283 -8.62011)
(0.00553161 -0.220152 -8.69285)
(-0.0222313 -0.230131 -8.76401)
(-0.0496515 -0.239177 -8.83349)
(-0.0766014 -0.247282 -8.90118)
(-0.102973 -0.254471 -8.96699)
(-0.128674 -0.2608 -9.03086)
(-0.153618 -0.266347 -9.09269)
(-0.177722 -0.271201 -9.15247)
(-0.200902 -0.27546 -9.21015)
(-0.223073 -0.279228 -9.26574)
(-0.244148 -0.282606 -9.31928)
(-0.264046 -0.285692 -9.37081)
(-0.2827 -0.28858 -9.42043)
(-0.300056 -0.291358 -9.46825)
(-0.316093 -0.294106 -9.5144)
(-0.330817 -0.296893 -9.55907)
(-0.344253 -0.299783 -9.60249)
(-0.356442 -0.302834 -9.64489)
(-0.367471 -0.306091 -9.68611)
(-0.377728 -0.309586 -9.72695)
(-0.387589 -0.313204 -9.76764)
(-0.397205 -0.316827 -9.80807)
(-0.406684 -0.320431 -9.84847)
(-0.416117 -0.323982 -9.88882)
(-0.425556 -0.32746 -9.92913)
(-0.435043 -0.330854 -9.96942)
(-0.444607 -0.334151 -10.0097)
(-0.454273 -0.337342 -10.0498)
(-0.464065 -0.340416 -10.0899)
(-0.474008 -0.343353 -10.1298)
(-0.484135 -0.346127 -10.1695)
(-0.494479 -0.348713 -10.209)
(-0.505063 -0.351103 -10.2484)
(-0.5159 -0.353308 -10.2869)
(-0.52718 -0.355075 -10.3231)
(-0.539294 -0.355883 -10.3583)
(-0.552193 -0.356012 -10.4026)
(-0.558791 -0.357116 -10.4354)
)
;
    }
}


// ************************************************************************* //
