/*--------------------------------*- C++ -*----------------------------------*\
| =========                 |                                                 |
| \\      /  F ield         | OpenFOAM: The Open Source CFD Toolbox           |
|  \\    /   O peration     | Version:  5.x                                   |
|   \\  /    A nd           | Web:      www.OpenFOAM.org                      |
|    \\/     M anipulation  |                                                 |
\*---------------------------------------------------------------------------*/
FoamFile
{
    version     2.0;
    format      ascii;
    class       volScalarField;
    location    "0.001";
    object      p;
}
// * * * * * * * * * * * * * * * * * * * * * * * * * * * * * * * * * * * * * //

dimensions      [0 2 -2 0 0 0 0];

internalField   nonuniform List<scalar> 
180
(
2.25633e-09
6.60604e-09
1.08512e-08
1.52122e-08
1.96754e-08
2.42524e-08
2.89509e-08
3.37804e-08
3.87538e-08
4.38876e-08
4.92019e-08
5.47205e-08
6.04711e-08
6.64853e-08
7.27985e-08
7.9451e-08
8.64875e-08
9.39585e-08
1.01921e-07
1.10439e-07
1.19588e-07
1.2945e-07
1.40123e-07
1.51718e-07
1.64364e-07
1.78209e-07
1.93422e-07
2.10195e-07
2.28749e-07
2.49331e-07
2.72221e-07
2.97732e-07
3.26213e-07
3.58052e-07
3.93678e-07
4.33566e-07
4.78239e-07
5.28274e-07
5.84306e-07
6.47032e-07
7.17225e-07
7.95736e-07
8.83505e-07
9.81574e-07
1.0911e-06
1.21337e-06
1.34982e-06
1.50204e-06
1.67181e-06
1.86113e-06
2.0722e-06
2.30752e-06
2.56985e-06
2.86226e-06
3.18818e-06
3.5514e-06
3.95613e-06
4.40697e-06
4.90902e-06
5.46782e-06
6.08937e-06
6.78018e-06
7.54719e-06
8.39775e-06
9.33957e-06
1.03806e-05
1.15289e-05
1.27925e-05
1.41789e-05
1.5695e-05
1.73467e-05
1.91379e-05
2.10701e-05
2.314e-05
2.5333e-05
2.76364e-05
3.01974e-05
3.37252e-05
3.83586e-05
3.35199e-05
-3.61087e-05
0.000968531
0.00140816
0.00170128
0.00300237
0.00418821
0.00538251
0.00655011
0.00927499
0.0105949
0.0112131
0.0131654
0.0136572
0.0140123
0.0151559
0.0161687
0.0172455
0.017806
0.0188855
0.0225884
0.023729
0.0239408
0.0240303
0.024076
0.0241026
0.024111
0.0241185
0.0241257
0.0241321
0.0241376
0.0241422
0.0241462
0.0241497
0.0241526
0.0241552
0.0241574
0.0241593
0.0241609
0.0241623
0.0241636
0.0241646
0.0241655
0.0241663
0.024167
0.0241676
0.0241681
0.0241686
0.024169
0.0241693
0.0241696
0.0241699
0.0241701
0.0241703
0.0241704
0.0241706
0.0241707
0.0241708
0.0241709
0.024171
0.024171
0.0241711
0.0241711
0.0241712
0.0241712
0.0241713
0.0241713
0.0241713
0.0241713
0.0241713
0.0241714
0.0241714
0.0241714
0.0241714
0.0241714
0.0241714
0.0241714
0.0241714
0.0241714
0.0241714
0.0241714
0.0241714
0.0241714
0.0241714
0.0241714
0.0241714
0.0241714
0.0241714
0.0241714
0.0241714
0.0241714
0.0241714
0.0241714
0.0241714
0.0241714
0.0241714
0.0241714
0.0241714
0.0241714
0.0241714
0.0241714
)
;

boundaryField
{
    inlet
    {
        type            zeroGradient;
    }
    outlet
    {
        type            fixedValue;
        value           uniform 0;
    }
    repeat_boundary
    {
        type            zeroGradient;
    }
    procBoundary3to1
    {
        type            processor;
        value           nonuniform List<scalar> 
180
(
1.06141e-09
3.06833e-09
5.00391e-09
6.95343e-09
8.83356e-09
1.0605e-08
1.22172e-08
1.36208e-08
1.47678e-08
1.5611e-08
1.61035e-08
1.61985e-08
1.58484e-08
1.50052e-08
1.36201e-08
1.16429e-08
9.02247e-09
5.70671e-09
1.64226e-09
-3.2253e-09
-8.95159e-09
-1.55937e-08
-2.32105e-08
-3.18635e-08
-4.1618e-08
-5.2544e-08
-6.47187e-08
-7.82282e-08
-9.317e-08
-1.09656e-07
-1.27817e-07
-1.47801e-07
-1.69784e-07
-1.93967e-07
-2.2058e-07
-2.49884e-07
-2.82177e-07
-3.17788e-07
-3.57081e-07
-4.00456e-07
-4.48342e-07
-5.01203e-07
-5.59528e-07
-6.2383e-07
-6.94643e-07
-7.72515e-07
-8.58004e-07
-9.51667e-07
-1.05406e-06
-1.16571e-06
-1.28712e-06
-1.41875e-06
-1.56096e-06
-1.71404e-06
-1.87812e-06
-2.05313e-06
-2.23875e-06
-2.43434e-06
-2.63881e-06
-2.8505e-06
-3.06708e-06
-3.2853e-06
-3.50081e-06
-3.70786e-06
-3.899e-06
-4.06465e-06
-4.19262e-06
-4.26752e-06
-4.26999e-06
-4.17586e-06
-3.95497e-06
-3.56982e-06
-2.9739e-06
-2.11084e-06
-9.15519e-07
7.03164e-07
2.9943e-06
6.67691e-06
1.21519e-05
1.04835e-05
-5.80243e-05
0.000567294
0.000922231
0.000934986
0.00438382
0.00567902
0.00673092
0.00743993
0.0078708
0.00916321
0.0115935
0.0138478
0.0154241
0.0159636
0.0171434
0.0191042
0.0195962
0.0202976
0.020965
0.0220328
0.0235446
0.023934
0.0240707
0.0241566
0.0241781
0.0241767
0.0241713
0.0241682
0.0241666
0.0241656
0.0241648
0.0241644
0.0241641
0.0241641
0.0241642
0.0241643
0.0241646
0.0241649
0.0241652
0.0241655
0.0241659
0.0241663
0.0241666
0.0241669
0.0241673
0.0241676
0.0241679
0.0241682
0.0241684
0.0241687
0.0241689
0.0241691
0.0241693
0.0241695
0.0241697
0.0241698
0.02417
0.0241701
0.0241702
0.0241703
0.0241704
0.0241705
0.0241706
0.0241707
0.0241708
0.0241708
0.0241709
0.0241709
0.024171
0.024171
0.0241711
0.0241711
0.0241711
0.0241712
0.0241712
0.0241712
0.0241712
0.0241712
0.0241713
0.0241713
0.0241713
0.0241713
0.0241713
0.0241713
0.0241713
0.0241713
0.0241713
0.0241713
0.0241713
0.0241713
0.0241713
0.0241714
0.0241714
0.0241714
0.0241714
0.0241714
0.0241714
0.0241714
0.0241714
0.0241714
)
;
    }
    procBoundary3to2
    {
        type            processor;
        value           nonuniform List<scalar> 
180
(
2.84921e-09
8.47025e-09
1.41002e-08
1.98764e-08
2.57663e-08
3.17815e-08
3.79233e-08
4.41959e-08
5.06076e-08
5.71703e-08
6.39003e-08
7.08184e-08
7.79498e-08
8.53255e-08
9.29821e-08
1.00963e-07
1.09319e-07
1.1811e-07
1.27406e-07
1.37285e-07
1.47842e-07
1.59179e-07
1.71419e-07
1.84693e-07
1.99153e-07
2.14963e-07
2.32305e-07
2.51374e-07
2.72383e-07
2.95556e-07
3.21132e-07
3.49362e-07
3.80507e-07
4.1484e-07
4.52643e-07
4.94212e-07
5.39851e-07
5.89876e-07
6.44621e-07
7.04434e-07
7.69683e-07
8.40757e-07
9.18074e-07
1.00208e-06
1.09324e-06
1.19208e-06
1.29913e-06
1.41497e-06
1.54021e-06
1.6755e-06
1.82151e-06
1.97894e-06
2.14852e-06
2.33099e-06
2.52713e-06
2.73771e-06
2.96353e-06
3.20544e-06
3.46429e-06
3.74098e-06
4.03648e-06
4.35183e-06
4.68819e-06
5.04688e-06
5.42943e-06
5.83766e-06
6.27377e-06
6.74049e-06
7.24126e-06
7.78044e-06
8.3637e-06
8.99842e-06
9.69438e-06
1.0463e-05
1.13124e-05
1.2258e-05
1.34931e-05
1.59157e-05
2.04792e-05
2.11625e-05
-6.10348e-05
0.000926032
0.00130942
0.00150177
0.00340997
0.00437664
0.00643062
0.00766268
0.00846514
0.00930803
0.00977696
0.0107676
0.0113426
0.0115723
0.0141036
0.0182784
0.0208839
0.0219216
0.0222634
0.0227194
0.0230674
0.0233975
0.0238608
0.0241055
0.0241681
0.0241746
0.0241709
0.024171
0.0241721
0.024173
0.0241736
0.0241742
0.0241746
0.0241749
0.0241751
0.0241752
0.0241753
0.0241753
0.0241753
0.0241752
0.0241751
0.024175
0.0241748
0.0241747
0.0241745
0.0241743
0.0241742
0.024174
0.0241738
0.0241737
0.0241735
0.0241734
0.0241732
0.0241731
0.024173
0.0241728
0.0241727
0.0241726
0.0241725
0.0241724
0.0241723
0.0241723
0.0241722
0.0241721
0.0241721
0.024172
0.0241719
0.0241719
0.0241718
0.0241718
0.0241718
0.0241717
0.0241717
0.0241717
0.0241717
0.0241716
0.0241716
0.0241716
0.0241716
0.0241716
0.0241715
0.0241715
0.0241715
0.0241715
0.0241715
0.0241715
0.0241715
0.0241715
0.0241715
0.0241714
0.0241714
0.0241714
0.0241714
0.0241714
0.0241714
0.0241714
0.0241714
0.0241714
0.0241714
0.0241714
)
;
    }
}


// ************************************************************************* //
