/*--------------------------------*- C++ -*----------------------------------*\
| =========                 |                                                 |
| \\      /  F ield         | OpenFOAM: The Open Source CFD Toolbox           |
|  \\    /   O peration     | Version:  5.x                                   |
|   \\  /    A nd           | Web:      www.OpenFOAM.org                      |
|    \\/     M anipulation  |                                                 |
\*---------------------------------------------------------------------------*/
FoamFile
{
    version     2.0;
    format      ascii;
    class       surfaceScalarField;
    location    "0.001";
    object      phi;
}
// * * * * * * * * * * * * * * * * * * * * * * * * * * * * * * * * * * * * * //

dimensions      [0 3 -1 0 0 0 0];

internalField   nonuniform List<scalar> 
179
(
-2.50004e-10
-2.50004e-10
-2.50004e-10
-2.50004e-10
-2.50004e-10
-2.50004e-10
-2.50004e-10
-2.50004e-10
-2.50004e-10
-2.50004e-10
-2.50004e-10
-2.50004e-10
-2.50004e-10
-2.50005e-10
-2.50005e-10
-2.50005e-10
-2.50006e-10
-2.50006e-10
-2.50007e-10
-2.50008e-10
-2.50008e-10
-2.50009e-10
-2.50011e-10
-2.50012e-10
-2.50014e-10
-2.50015e-10
-2.50017e-10
-2.5002e-10
-2.50022e-10
-2.50025e-10
-2.50028e-10
-2.50032e-10
-2.50036e-10
-2.50041e-10
-2.50047e-10
-2.50053e-10
-2.50059e-10
-2.50067e-10
-2.50076e-10
-2.50086e-10
-2.50097e-10
-2.50109e-10
-2.50123e-10
-2.50139e-10
-2.50158e-10
-2.50178e-10
-2.50201e-10
-2.50227e-10
-2.50257e-10
-2.50291e-10
-2.50329e-10
-2.50372e-10
-2.5042e-10
-2.50475e-10
-2.50537e-10
-2.50608e-10
-2.50688e-10
-2.50778e-10
-2.5088e-10
-2.50996e-10
-2.51126e-10
-2.51274e-10
-2.51441e-10
-2.5163e-10
-2.51844e-10
-2.52086e-10
-2.52359e-10
-2.52669e-10
-2.53018e-10
-2.53413e-10
-2.5386e-10
-2.54366e-10
-2.54937e-10
-2.55583e-10
-2.56313e-10
-2.57138e-10
-2.58073e-10
-2.59129e-10
-2.60318e-10
-2.61607e-10
-2.62231e-10
-2.62269e-10
-2.69071e-10
-2.70029e-10
-2.66774e-10
-2.64859e-10
-2.6066e-10
-2.57018e-10
-2.60243e-10
-2.65527e-10
-2.68652e-10
-2.68465e-10
-2.77613e-10
-2.74382e-10
-2.69937e-10
-2.61493e-10
-2.48372e-10
-2.2939e-10
-2.17639e-10
-2.16899e-10
-2.19783e-10
-2.24651e-10
-2.29026e-10
-2.31877e-10
-2.33923e-10
-2.35782e-10
-2.37523e-10
-2.39074e-10
-2.4043e-10
-2.41611e-10
-2.42641e-10
-2.43539e-10
-2.44324e-10
-2.45009e-10
-2.45608e-10
-2.46133e-10
-2.46592e-10
-2.46994e-10
-2.47347e-10
-2.47657e-10
-2.47929e-10
-2.48168e-10
-2.48378e-10
-2.48563e-10
-2.48726e-10
-2.4887e-10
-2.48997e-10
-2.49109e-10
-2.49208e-10
-2.49296e-10
-2.49374e-10
-2.49443e-10
-2.49504e-10
-2.49558e-10
-2.49606e-10
-2.49649e-10
-2.49687e-10
-2.49721e-10
-2.49751e-10
-2.49778e-10
-2.49802e-10
-2.49823e-10
-2.49842e-10
-2.49859e-10
-2.49874e-10
-2.49888e-10
-2.499e-10
-2.4991e-10
-2.4992e-10
-2.49928e-10
-2.49936e-10
-2.49943e-10
-2.49949e-10
-2.49954e-10
-2.49959e-10
-2.49963e-10
-2.49967e-10
-2.49971e-10
-2.49974e-10
-2.49977e-10
-2.49979e-10
-2.49981e-10
-2.49983e-10
-2.49985e-10
-2.49987e-10
-2.49988e-10
-2.4999e-10
-2.49991e-10
-2.49992e-10
-2.49993e-10
-2.49994e-10
-2.49995e-10
-2.49995e-10
-2.49996e-10
-2.49997e-10
-2.49997e-10
-2.49998e-10
-2.49999e-10
-2.49999e-10
)
;

boundaryField
{
    inlet
    {
        type            calculated;
        value           uniform -2.5e-10;
    }
    outlet
    {
        type            calculated;
        value           uniform 2.50004e-10;
    }
    repeat_boundary
    {
        type            calculated;
        value           uniform 0;
    }
    procBoundary3to1
    {
        type            processor;
        value           nonuniform List<scalar> 
180
(
3.83608e-17
9.40686e-17
1.54807e-16
2.16991e-16
2.8123e-16
3.48508e-16
4.19807e-16
4.96149e-16
5.78607e-16
6.68339e-16
7.66596e-16
8.74752e-16
9.94315e-16
1.12695e-15
1.27451e-15
1.43904e-15
1.6228e-15
1.82831e-15
2.05839e-15
2.31614e-15
2.60503e-15
2.92894e-15
3.29219e-15
3.6996e-15
4.15656e-15
4.66913e-15
5.24405e-15
5.88893e-15
6.61227e-15
7.42362e-15
8.33369e-15
9.3545e-15
1.04995e-14
1.1784e-14
1.32247e-14
1.48409e-14
1.66537e-14
1.86872e-14
2.0968e-14
2.35262e-14
2.63952e-14
2.96127e-14
3.32207e-14
3.72662e-14
4.18017e-14
4.68863e-14
5.25858e-14
5.8974e-14
6.61334e-14
7.41564e-14
8.31465e-14
9.32193e-14
1.04504e-13
1.17147e-13
1.31309e-13
1.47171e-13
1.64937e-13
1.84834e-13
2.07114e-13
2.32062e-13
2.59993e-13
2.91261e-13
3.26259e-13
3.65429e-13
4.0926e-13
4.583e-13
5.13158e-13
5.74513e-13
6.4312e-13
7.19822e-13
8.05553e-13
9.01351e-13
1.00837e-12
1.12788e-12
1.2613e-12
1.4101e-12
1.57629e-12
1.76075e-12
1.93838e-12
1.94282e-12
5.21748e-13
2.43365e-14
6.29914e-12
5.68608e-13
-2.48976e-12
-2.1393e-12
-2.7269e-12
-2.27213e-12
1.64603e-12
1.26847e-12
-1.48904e-12
-1.93107e-12
-9.02171e-12
-6.52688e-12
-5.63619e-12
-6.41741e-12
-7.37198e-12
-6.99036e-12
-4.52484e-12
-6.03733e-13
-5.74364e-13
1.46689e-12
2.02872e-12
2.24035e-12
2.42958e-12
2.51385e-12
2.32106e-12
2.07976e-12
1.84934e-12
1.64217e-12
1.4585e-12
1.29576e-12
1.15148e-12
1.02352e-12
9.10002e-13
8.09275e-13
7.19871e-13
6.40496e-13
5.70005e-13
5.07386e-13
4.51744e-13
4.02288e-13
3.58319e-13
3.19216e-13
2.84433e-13
2.53484e-13
2.25939e-13
2.01419e-13
1.79586e-13
1.6014e-13
1.42818e-13
1.27384e-13
1.13629e-13
1.01369e-13
9.04401e-14
8.06956e-14
7.20063e-14
6.42568e-14
5.73446e-14
5.11787e-14
4.56779e-14
4.07702e-14
3.63914e-14
3.24842e-14
2.89977e-14
2.58866e-14
2.31103e-14
2.06328e-14
1.8422e-14
1.64491e-14
1.46886e-14
1.31178e-14
1.17162e-14
1.04657e-14
9.35014e-15
8.35503e-15
7.46748e-15
6.67596e-15
5.97019e-15
5.34101e-15
4.78022e-15
4.28052e-15
3.83543e-15
3.43915e-15
3.08655e-15
2.77309e-15
2.49475e-15
2.24799e-15
2.02972e-15
1.83723e-15
1.66817e-15
1.52054e-15
1.39261e-15
1.28293e-15
1.19028e-15
1.11367e-15
1.05228e-15
1.00557e-15
9.73361e-16
9.89146e-16
)
;
    }
    procBoundary3to2
    {
        type            processor;
        value           nonuniform List<scalar> 
180
(
-2.61828e-17
-6.10552e-17
-1.01191e-16
-1.42489e-16
-1.85377e-16
-2.30495e-16
-2.78522e-16
-3.30138e-16
-3.86023e-16
-4.46881e-16
-5.13446e-16
-5.86499e-16
-6.66882e-16
-7.55513e-16
-8.53402e-16
-9.61666e-16
-1.08155e-15
-1.21445e-15
-1.36192e-15
-1.5257e-15
-1.70774e-15
-1.91023e-15
-2.13562e-15
-2.38662e-15
-2.66627e-15
-2.97797e-15
-3.32548e-15
-3.71297e-15
-4.14509e-15
-4.62697e-15
-5.16433e-15
-5.76348e-15
-6.43143e-15
-7.17593e-15
-8.00559e-15
-8.92995e-15
-9.9596e-15
-1.11063e-14
-1.2383e-14
-1.38043e-14
-1.53861e-14
-1.71464e-14
-1.91049e-14
-2.12834e-14
-2.37064e-14
-2.64007e-14
-2.93961e-14
-3.27257e-14
-3.64258e-14
-4.05366e-14
-4.51026e-14
-5.01727e-14
-5.58007e-14
-6.20461e-14
-6.89741e-14
-7.66564e-14
-8.51719e-14
-9.4607e-14
-1.05057e-13
-1.16624e-13
-1.29424e-13
-1.43581e-13
-1.5923e-13
-1.76518e-13
-1.95608e-13
-2.16673e-13
-2.39903e-13
-2.65502e-13
-2.93688e-13
-3.24695e-13
-3.58772e-13
-3.9618e-13
-4.37191e-13
-4.82088e-13
-5.31144e-13
-5.84552e-13
-6.42057e-13
-7.03825e-13
-7.50486e-13
-6.53445e-13
1.0263e-13
1.402e-14
5.02574e-13
3.89491e-13
-7.65177e-13
2.24026e-13
-1.47185e-12
-1.36969e-12
1.57827e-12
4.01615e-12
4.61339e-12
1.7449e-12
1.81691e-11
3.29532e-12
1.19171e-12
-2.02734e-12
-5.74817e-12
-1.19913e-11
-7.22613e-12
-1.36185e-13
3.45809e-12
3.40119e-12
2.3474e-12
6.09986e-13
-3.83367e-13
-6.54797e-13
-5.79341e-13
-5.28501e-13
-4.93481e-13
-4.61018e-13
-4.28746e-13
-3.97275e-13
-3.67006e-13
-3.38124e-13
-3.1075e-13
-2.84954e-13
-2.60767e-13
-2.38187e-13
-2.17188e-13
-1.97726e-13
-1.79745e-13
-1.63178e-13
-1.47947e-13
-1.33967e-13
-1.21174e-13
-1.09489e-13
-9.88348e-14
-8.91372e-14
-8.03239e-14
-7.23254e-14
-6.5076e-14
-5.85136e-14
-5.25795e-14
-4.72193e-14
-4.23819e-14
-3.80202e-14
-3.4068e-14
-3.05179e-14
-2.73307e-14
-2.44701e-14
-2.19032e-14
-1.96001e-14
-1.75344e-14
-1.56821e-14
-1.40217e-14
-1.25338e-14
-1.12009e-14
-1.00073e-14
-8.9388e-15
-7.98244e-15
-7.12669e-15
-6.3612e-15
-5.67669e-15
-5.06479e-15
-4.51797e-15
-4.02949e-15
-3.59329e-15
-3.20393e-15
-2.85658e-15
-2.54688e-15
-2.27095e-15
-2.02532e-15
-1.8069e-15
-1.61292e-15
-1.44091e-15
-1.28866e-15
-1.15419e-15
-1.03576e-15
-9.31788e-16
-8.40865e-16
-7.61745e-16
-6.93316e-16
-6.346e-16
-5.84739e-16
-5.42993e-16
-5.0874e-16
-4.81477e-16
-4.6062e-16
-4.44414e-16
-4.45429e-16
)
;
    }
}


// ************************************************************************* //
