/*--------------------------------*- C++ -*----------------------------------*\
| =========                 |                                                 |
| \\      /  F ield         | OpenFOAM: The Open Source CFD Toolbox           |
|  \\    /   O peration     | Version:  5.x                                   |
|   \\  /    A nd           | Web:      www.OpenFOAM.org                      |
|    \\/     M anipulation  |                                                 |
\*---------------------------------------------------------------------------*/
FoamFile
{
    version     2.0;
    format      ascii;
    class       volVectorField;
    location    "0.001";
    object      stored_U;
}
// * * * * * * * * * * * * * * * * * * * * * * * * * * * * * * * * * * * * * //

dimensions      [0 1 -1 0 0 0 0];

internalField   nonuniform List<vector> 
180
(
(5.693e-10 -7.62368e-10 -0.00100001)
(1.30439e-09 -1.85584e-09 -0.00100001)
(2.17709e-09 -3.09252e-09 -0.00100001)
(3.10516e-09 -4.38696e-09 -0.00100001)
(4.09868e-09 -5.7434e-09 -0.00100001)
(5.17452e-09 -7.18058e-09 -0.00100001)
(6.35281e-09 -8.7179e-09 -0.00100001)
(7.65445e-09 -1.03767e-08 -0.00100001)
(9.10142e-09 -1.21806e-08 -0.00100001)
(1.0717e-08 -1.41554e-08 -0.00100001)
(1.25262e-08 -1.63301e-08 -0.00100001)
(1.45559e-08 -1.87369e-08 -0.00100001)
(1.6835e-08 -2.14118e-08 -0.00100001)
(1.93952e-08 -2.43949e-08 -0.00100001)
(2.22711e-08 -2.77315e-08 -0.00100001)
(2.55007e-08 -3.14721e-08 -0.00100001)
(2.91258e-08 -3.56733e-08 -0.00100001)
(3.31929e-08 -4.03989e-08 -0.00100001)
(3.77531e-08 -4.572e-08 -0.00100001)
(4.28638e-08 -5.17167e-08 -0.00100001)
(4.85886e-08 -5.84784e-08 -0.00100001)
(5.49987e-08 -6.61055e-08 -0.00100002)
(6.21738e-08 -7.47104e-08 -0.00100002)
(7.02032e-08 -8.44187e-08 -0.00100002)
(7.91873e-08 -9.53711e-08 -0.00100002)
(8.92386e-08 -1.07725e-07 -0.00100003)
(1.00484e-07 -1.21657e-07 -0.00100003)
(1.13065e-07 -1.37364e-07 -0.00100004)
(1.27143e-07 -1.55067e-07 -0.00100004)
(1.42898e-07 -1.75012e-07 -0.00100005)
(1.60531e-07 -1.97477e-07 -0.00100006)
(1.8027e-07 -2.2277e-07 -0.00100007)
(2.02371e-07 -2.5124e-07 -0.00100008)
(2.27119e-07 -2.83275e-07 -0.00100009)
(2.54836e-07 -3.19312e-07 -0.0010001)
(2.85881e-07 -3.59842e-07 -0.00100011)
(3.20657e-07 -4.05415e-07 -0.00100013)
(3.59615e-07 -4.56649e-07 -0.00100015)
(4.03257e-07 -5.1424e-07 -0.00100017)
(4.52148e-07 -5.78969e-07 -0.00100019)
(5.06916e-07 -6.51713e-07 -0.00100022)
(5.68262e-07 -7.33461e-07 -0.00100025)
(6.36973e-07 -8.25324e-07 -0.00100028)
(7.13922e-07 -9.2855e-07 -0.00100032)
(8.00086e-07 -1.04454e-06 -0.00100036)
(8.96558e-07 -1.17489e-06 -0.00100041)
(1.00455e-06 -1.32135e-06 -0.00100047)
(1.12543e-06 -1.48594e-06 -0.00100054)
(1.2607e-06 -1.67089e-06 -0.00100061)
(1.41206e-06 -1.87873e-06 -0.0010007)
(1.5814e-06 -2.11229e-06 -0.00100079)
(1.77081e-06 -2.37478e-06 -0.0010009)
(1.98265e-06 -2.66976e-06 -0.00100103)
(2.21953e-06 -3.00128e-06 -0.00100117)
(2.48436e-06 -3.37388e-06 -0.00100134)
(2.78038e-06 -3.79266e-06 -0.00100152)
(3.1112e-06 -4.26336e-06 -0.00100174)
(3.48083e-06 -4.79246e-06 -0.00100198)
(3.89371e-06 -5.38725e-06 -0.00100225)
(4.35478e-06 -6.05593e-06 -0.00100257)
(4.86951e-06 -6.80777e-06 -0.00100293)
(5.44395e-06 -7.65322e-06 -0.00100334)
(6.08478e-06 -8.60406e-06 -0.00100381)
(6.79939e-06 -9.67363e-06 -0.00100435)
(7.59589e-06 -1.0877e-05 -0.00100496)
(8.48322e-06 -1.22311e-05 -0.00100567)
(9.47117e-06 -1.37553e-05 -0.00100648)
(1.05705e-05 -1.54714e-05 -0.0010074)
(1.17928e-05 -1.74042e-05 -0.00100847)
(1.31508e-05 -1.95816e-05 -0.00100969)
(1.46584e-05 -2.20357e-05 -0.0010111)
(1.63304e-05 -2.48026e-05 -0.00101272)
(1.81828e-05 -2.79237e-05 -0.00101459)
(2.02325e-05 -3.14458e-05 -0.00101674)
(2.24972e-05 -3.54224e-05 -0.00101931)
(2.49939e-05 -3.99159e-05 -0.00102281)
(2.77396e-05 -4.50024e-05 -0.00102675)
(3.06937e-05 -5.07392e-05 -0.00101911)
(3.2972e-05 -5.66863e-05 -0.00096375)
(2.90167e-05 -5.90964e-05 -0.000828149)
(3.71965e-06 -2.97382e-05 -0.00308351)
(2.20776e-05 2.8151e-05 -4.47405e-05)
(-3.52809e-06 -0.000232725 -0.00402063)
(-8.03244e-06 5.63686e-05 -0.000112564)
(4.89462e-05 0.000288536 -0.00461667)
(-3.30048e-05 0.000119788 -0.000494905)
(0.000143763 0.000283933 -0.004603)
(2.90239e-05 0.000121338 -0.00124845)
(-0.000100944 -4.39834e-05 -0.003721)
(-0.000132964 -2.77123e-05 -0.0017444)
(-0.000247005 0.0002092 -0.00475007)
(-2.83832e-05 8.17426e-05 -0.000227179)
(-0.000903274 0.000670657 -0.00410305)
(-0.000121942 0.000232197 -0.000909231)
(-0.000113623 0.00043828 -0.0034913)
(0.00018447 0.000224832 -0.00149389)
(0.000608932 0.000357829 -0.0026122)
(0.000583277 0.000379092 -0.00261244)
(0.000249847 0.000248623 -0.00352844)
(-2.25911e-06 0.000118296 -0.00149036)
(-0.000158638 -1.63982e-05 -0.00237982)
(-0.000270596 -0.000135665 -0.00132263)
(-0.000201459 -0.000199402 -0.00125965)
(-7.27088e-05 -0.000152105 -0.00104115)
(-6.92123e-06 -0.000119602 -0.00100827)
(9.25018e-06 -9.84766e-05 -0.000928336)
(9.92496e-06 -8.59033e-05 -0.000926596)
(9.53137e-06 -7.57941e-05 -0.000938647)
(9.26579e-06 -6.68255e-05 -0.000947402)
(8.94509e-06 -5.8906e-05 -0.00095414)
(8.54377e-06 -5.19491e-05 -0.00095994)
(8.09131e-06 -4.58372e-05 -0.000964998)
(7.61038e-06 -4.04632e-05 -0.000969393)
(7.11668e-06 -3.57351e-05 -0.000973212)
(6.622e-06 -3.15729e-05 -0.000976534)
(6.13525e-06 -2.79069e-05 -0.000979427)
(5.66295e-06 -2.46761e-05 -0.000981947)
(5.20977e-06 -2.18276e-05 -0.000984146)
(4.77886e-06 -1.93147e-05 -0.000986066)
(4.37218e-06 -1.7097e-05 -0.000987744)
(3.9908e-06 -1.51388e-05 -0.000989212)
(3.63507e-06 -1.34092e-05 -0.000990497)
(3.30482e-06 -1.18806e-05 -0.000991623)
(2.99946e-06 -1.05294e-05 -0.00099261)
(2.71811e-06 -9.33426e-06 -0.000993477)
(2.45969e-06 -8.2769e-06 -0.000994238)
(2.22298e-06 -7.34106e-06 -0.000994908)
(2.00671e-06 -6.51247e-06 -0.000995497)
(1.80953e-06 -5.77858e-06 -0.000996016)
(1.63013e-06 -5.12837e-06 -0.000996473)
(1.4672e-06 -4.55212e-06 -0.000996876)
(1.31946e-06 -4.04125e-06 -0.000997232)
(1.18571e-06 -3.58823e-06 -0.000997546)
(1.06477e-06 -3.1864e-06 -0.000997824)
(9.55563e-07 -2.82989e-06 -0.000998069)
(8.57058e-07 -2.51352e-06 -0.000998286)
(7.68294e-07 -2.23271e-06 -0.000998478)
(6.88367e-07 -1.98343e-06 -0.000998649)
(6.16441e-07 -1.7621e-06 -0.0009988)
(5.51755e-07 -1.56557e-06 -0.000998934)
(4.93615e-07 -1.39104e-06 -0.000999053)
(4.4139e-07 -1.23602e-06 -0.000999158)
(3.94503e-07 -1.09832e-06 -0.000999252)
(3.52432e-07 -9.75992e-07 -0.000999335)
(3.14702e-07 -8.67314e-07 -0.000999409)
(2.80882e-07 -7.70752e-07 -0.000999475)
(2.50581e-07 -6.8495e-07 -0.000999533)
(2.23448e-07 -6.08702e-07 -0.000999585)
(1.99163e-07 -5.40941e-07 -0.000999631)
(1.77439e-07 -4.80718e-07 -0.000999672)
(1.58016e-07 -4.27192e-07 -0.000999708)
(1.4066e-07 -3.79616e-07 -0.000999741)
(1.2516e-07 -3.37327e-07 -0.000999769)
(1.11324e-07 -2.99738e-07 -0.000999795)
(9.89828e-08 -2.66327e-07 -0.000999817)
(8.79802e-08 -2.3663e-07 -0.000999838)
(7.81777e-08 -2.10238e-07 -0.000999855)
(6.94501e-08 -1.86787e-07 -0.000999871)
(6.16849e-08 -1.65952e-07 -0.000999886)
(5.4781e-08 -1.47448e-07 -0.000999898)
(4.86475e-08 -1.31021e-07 -0.00099991)
(4.32031e-08 -1.16445e-07 -0.00099992)
(3.83746e-08 -1.0352e-07 -0.000999929)
(3.4097e-08 -9.20697e-08 -0.000999938)
(3.03119e-08 -8.19366e-08 -0.000999945)
(2.69674e-08 -7.29819e-08 -0.000999952)
(2.40174e-08 -6.50824e-08 -0.000999958)
(2.1421e-08 -5.81292e-08 -0.000999963)
(1.91421e-08 -5.2026e-08 -0.000999968)
(1.71491e-08 -4.66881e-08 -0.000999972)
(1.5414e-08 -4.20408e-08 -0.000999976)
(1.39127e-08 -3.80187e-08 -0.00099998)
(1.26243e-08 -3.45649e-08 -0.000999983)
(1.15307e-08 -3.16302e-08 -0.000999986)
(1.06167e-08 -2.91724e-08 -0.000999988)
(9.86965e-09 -2.71559e-08 -0.00099999)
(9.27979e-09 -2.55505e-08 -0.000999992)
(8.83589e-09 -2.4334e-08 -0.000999994)
(8.48455e-09 -2.35304e-08 -0.000999996)
(8.06778e-09 -2.32613e-08 -0.000999998)
)
;

boundaryField
{
    inlet
    {
        type            calculated;
        value           uniform (8.06778e-09 -2.32613e-08 -0.000999998);
    }
    outlet
    {
        type            calculated;
        value           uniform (5.693e-10 -7.62368e-10 -0.00100001);
    }
    repeat_boundary
    {
        type            calculated;
        value           nonuniform List<vector> 
360
(
(0 -7.62368e-10 -0.00100001)
(0 -1.85584e-09 -0.00100001)
(0 -3.09252e-09 -0.00100001)
(0 -4.38696e-09 -0.00100001)
(0 -5.7434e-09 -0.00100001)
(0 -7.18058e-09 -0.00100001)
(0 -8.7179e-09 -0.00100001)
(0 -1.03767e-08 -0.00100001)
(0 -1.21806e-08 -0.00100001)
(0 -1.41554e-08 -0.00100001)
(0 -1.63301e-08 -0.00100001)
(0 -1.87369e-08 -0.00100001)
(0 -2.14118e-08 -0.00100001)
(0 -2.43949e-08 -0.00100001)
(0 -2.77315e-08 -0.00100001)
(0 -3.14721e-08 -0.00100001)
(0 -3.56733e-08 -0.00100001)
(0 -4.03989e-08 -0.00100001)
(0 -4.572e-08 -0.00100001)
(0 -5.17167e-08 -0.00100001)
(0 -5.84784e-08 -0.00100001)
(0 -6.61055e-08 -0.00100002)
(0 -7.47104e-08 -0.00100002)
(0 -8.44187e-08 -0.00100002)
(0 -9.53711e-08 -0.00100002)
(0 -1.07725e-07 -0.00100003)
(0 -1.21657e-07 -0.00100003)
(0 -1.37364e-07 -0.00100004)
(0 -1.55067e-07 -0.00100004)
(0 -1.75012e-07 -0.00100005)
(0 -1.97477e-07 -0.00100006)
(0 -2.2277e-07 -0.00100007)
(0 -2.5124e-07 -0.00100008)
(0 -2.83275e-07 -0.00100009)
(0 -3.19312e-07 -0.0010001)
(0 -3.59842e-07 -0.00100011)
(0 -4.05415e-07 -0.00100013)
(0 -4.56649e-07 -0.00100015)
(0 -5.1424e-07 -0.00100017)
(0 -5.78969e-07 -0.00100019)
(0 -6.51713e-07 -0.00100022)
(0 -7.33461e-07 -0.00100025)
(0 -8.25324e-07 -0.00100028)
(0 -9.2855e-07 -0.00100032)
(0 -1.04454e-06 -0.00100036)
(0 -1.17489e-06 -0.00100041)
(0 -1.32135e-06 -0.00100047)
(0 -1.48594e-06 -0.00100054)
(0 -1.67089e-06 -0.00100061)
(0 -1.87873e-06 -0.0010007)
(0 -2.11229e-06 -0.00100079)
(0 -2.37478e-06 -0.0010009)
(0 -2.66976e-06 -0.00100103)
(0 -3.00128e-06 -0.00100117)
(0 -3.37388e-06 -0.00100134)
(0 -3.79266e-06 -0.00100152)
(0 -4.26336e-06 -0.00100174)
(0 -4.79246e-06 -0.00100198)
(0 -5.38725e-06 -0.00100225)
(0 -6.05593e-06 -0.00100257)
(0 -6.80777e-06 -0.00100293)
(0 -7.65322e-06 -0.00100334)
(0 -8.60406e-06 -0.00100381)
(0 -9.67363e-06 -0.00100435)
(0 -1.0877e-05 -0.00100496)
(0 -1.22311e-05 -0.00100567)
(0 -1.37553e-05 -0.00100648)
(0 -1.54714e-05 -0.0010074)
(0 -1.74042e-05 -0.00100847)
(0 -1.95816e-05 -0.00100969)
(0 -2.20357e-05 -0.0010111)
(0 -2.48026e-05 -0.00101272)
(0 -2.79237e-05 -0.00101459)
(0 -3.14458e-05 -0.00101674)
(0 -3.54224e-05 -0.00101931)
(0 -3.99159e-05 -0.00102281)
(0 -4.50024e-05 -0.00102675)
(0 -5.07392e-05 -0.00101911)
(0 -5.66863e-05 -0.00096375)
(0 -5.90964e-05 -0.000828149)
(0 -2.97382e-05 -0.00308351)
(0 2.8151e-05 -4.47405e-05)
(0 -0.000232725 -0.00402063)
(0 5.63686e-05 -0.000112564)
(0 0.000288536 -0.00461667)
(0 0.000119788 -0.000494905)
(0 0.000283933 -0.004603)
(0 0.000121338 -0.00124845)
(0 -4.39834e-05 -0.003721)
(0 -2.77123e-05 -0.0017444)
(0 0.0002092 -0.00475007)
(0 8.17426e-05 -0.000227179)
(0 0.000670657 -0.00410305)
(0 0.000232197 -0.000909231)
(0 0.00043828 -0.0034913)
(0 0.000224832 -0.00149389)
(0 0.000357829 -0.0026122)
(0 0.000379092 -0.00261244)
(0 0.000248623 -0.00352844)
(0 0.000118296 -0.00149036)
(0 -1.63982e-05 -0.00237982)
(0 -0.000135665 -0.00132263)
(0 -0.000199402 -0.00125965)
(0 -0.000152105 -0.00104115)
(0 -0.000119602 -0.00100827)
(0 -9.84766e-05 -0.000928336)
(0 -8.59033e-05 -0.000926596)
(0 -7.57941e-05 -0.000938647)
(0 -6.68255e-05 -0.000947402)
(0 -5.8906e-05 -0.00095414)
(0 -5.19491e-05 -0.00095994)
(0 -4.58372e-05 -0.000964998)
(0 -4.04632e-05 -0.000969393)
(0 -3.57351e-05 -0.000973212)
(0 -3.15729e-05 -0.000976534)
(0 -2.79069e-05 -0.000979427)
(0 -2.46761e-05 -0.000981947)
(0 -2.18276e-05 -0.000984146)
(0 -1.93147e-05 -0.000986066)
(0 -1.7097e-05 -0.000987744)
(0 -1.51388e-05 -0.000989212)
(0 -1.34092e-05 -0.000990497)
(0 -1.18806e-05 -0.000991623)
(0 -1.05294e-05 -0.00099261)
(0 -9.33426e-06 -0.000993477)
(0 -8.2769e-06 -0.000994238)
(0 -7.34106e-06 -0.000994908)
(0 -6.51247e-06 -0.000995497)
(0 -5.77858e-06 -0.000996016)
(0 -5.12837e-06 -0.000996473)
(0 -4.55212e-06 -0.000996876)
(0 -4.04125e-06 -0.000997232)
(0 -3.58823e-06 -0.000997546)
(0 -3.1864e-06 -0.000997824)
(0 -2.82989e-06 -0.000998069)
(0 -2.51352e-06 -0.000998286)
(0 -2.23271e-06 -0.000998478)
(0 -1.98343e-06 -0.000998649)
(0 -1.7621e-06 -0.0009988)
(0 -1.56557e-06 -0.000998934)
(0 -1.39104e-06 -0.000999053)
(0 -1.23602e-06 -0.000999158)
(0 -1.09832e-06 -0.000999252)
(0 -9.75992e-07 -0.000999335)
(0 -8.67314e-07 -0.000999409)
(0 -7.70752e-07 -0.000999475)
(0 -6.8495e-07 -0.000999533)
(0 -6.08702e-07 -0.000999585)
(0 -5.40941e-07 -0.000999631)
(0 -4.80718e-07 -0.000999672)
(0 -4.27192e-07 -0.000999708)
(0 -3.79616e-07 -0.000999741)
(0 -3.37327e-07 -0.000999769)
(0 -2.99738e-07 -0.000999795)
(0 -2.66327e-07 -0.000999817)
(0 -2.3663e-07 -0.000999838)
(0 -2.10238e-07 -0.000999855)
(0 -1.86787e-07 -0.000999871)
(0 -1.65952e-07 -0.000999886)
(0 -1.47448e-07 -0.000999898)
(0 -1.31021e-07 -0.00099991)
(0 -1.16445e-07 -0.00099992)
(0 -1.0352e-07 -0.000999929)
(0 -9.20697e-08 -0.000999938)
(0 -8.19366e-08 -0.000999945)
(0 -7.29819e-08 -0.000999952)
(0 -6.50824e-08 -0.000999958)
(0 -5.81292e-08 -0.000999963)
(0 -5.2026e-08 -0.000999968)
(0 -4.66881e-08 -0.000999972)
(0 -4.20408e-08 -0.000999976)
(0 -3.80187e-08 -0.00099998)
(0 -3.45649e-08 -0.000999983)
(0 -3.16302e-08 -0.000999986)
(0 -2.91724e-08 -0.000999988)
(0 -2.71559e-08 -0.00099999)
(0 -2.55505e-08 -0.000999992)
(0 -2.4334e-08 -0.000999994)
(0 -2.35304e-08 -0.000999996)
(0 -2.32613e-08 -0.000999998)
(5.693e-10 0 -0.00100001)
(1.30439e-09 0 -0.00100001)
(2.17709e-09 0 -0.00100001)
(3.10516e-09 0 -0.00100001)
(4.09868e-09 0 -0.00100001)
(5.17452e-09 0 -0.00100001)
(6.35281e-09 0 -0.00100001)
(7.65445e-09 0 -0.00100001)
(9.10142e-09 0 -0.00100001)
(1.0717e-08 0 -0.00100001)
(1.25262e-08 0 -0.00100001)
(1.45559e-08 0 -0.00100001)
(1.6835e-08 0 -0.00100001)
(1.93952e-08 0 -0.00100001)
(2.22711e-08 0 -0.00100001)
(2.55007e-08 0 -0.00100001)
(2.91258e-08 0 -0.00100001)
(3.31929e-08 0 -0.00100001)
(3.77531e-08 0 -0.00100001)
(4.28638e-08 0 -0.00100001)
(4.85886e-08 0 -0.00100001)
(5.49987e-08 0 -0.00100002)
(6.21738e-08 0 -0.00100002)
(7.02032e-08 0 -0.00100002)
(7.91873e-08 0 -0.00100002)
(8.92386e-08 0 -0.00100003)
(1.00484e-07 0 -0.00100003)
(1.13065e-07 0 -0.00100004)
(1.27143e-07 0 -0.00100004)
(1.42898e-07 0 -0.00100005)
(1.60531e-07 0 -0.00100006)
(1.8027e-07 0 -0.00100007)
(2.02371e-07 0 -0.00100008)
(2.27119e-07 0 -0.00100009)
(2.54836e-07 0 -0.0010001)
(2.85881e-07 0 -0.00100011)
(3.20657e-07 0 -0.00100013)
(3.59615e-07 0 -0.00100015)
(4.03257e-07 0 -0.00100017)
(4.52148e-07 0 -0.00100019)
(5.06916e-07 0 -0.00100022)
(5.68262e-07 0 -0.00100025)
(6.36973e-07 0 -0.00100028)
(7.13922e-07 0 -0.00100032)
(8.00086e-07 0 -0.00100036)
(8.96558e-07 0 -0.00100041)
(1.00455e-06 0 -0.00100047)
(1.12543e-06 0 -0.00100054)
(1.2607e-06 0 -0.00100061)
(1.41206e-06 0 -0.0010007)
(1.5814e-06 0 -0.00100079)
(1.77081e-06 0 -0.0010009)
(1.98265e-06 0 -0.00100103)
(2.21953e-06 0 -0.00100117)
(2.48436e-06 0 -0.00100134)
(2.78038e-06 0 -0.00100152)
(3.1112e-06 0 -0.00100174)
(3.48083e-06 0 -0.00100198)
(3.89371e-06 0 -0.00100225)
(4.35478e-06 0 -0.00100257)
(4.86951e-06 0 -0.00100293)
(5.44395e-06 0 -0.00100334)
(6.08478e-06 0 -0.00100381)
(6.79939e-06 0 -0.00100435)
(7.59589e-06 0 -0.00100496)
(8.48322e-06 0 -0.00100567)
(9.47117e-06 0 -0.00100648)
(1.05705e-05 0 -0.0010074)
(1.17928e-05 0 -0.00100847)
(1.31508e-05 0 -0.00100969)
(1.46584e-05 0 -0.0010111)
(1.63304e-05 0 -0.00101272)
(1.81828e-05 0 -0.00101459)
(2.02325e-05 0 -0.00101674)
(2.24972e-05 0 -0.00101931)
(2.49939e-05 0 -0.00102281)
(2.77396e-05 0 -0.00102675)
(3.06937e-05 0 -0.00101911)
(3.2972e-05 0 -0.00096375)
(2.90167e-05 0 -0.000828149)
(3.71965e-06 0 -0.00308351)
(2.20776e-05 0 -4.47405e-05)
(-3.52809e-06 0 -0.00402063)
(-8.03244e-06 0 -0.000112564)
(4.89462e-05 0 -0.00461667)
(-3.30048e-05 0 -0.000494905)
(0.000143763 0 -0.004603)
(2.90239e-05 0 -0.00124845)
(-0.000100944 0 -0.003721)
(-0.000132964 0 -0.0017444)
(-0.000247005 0 -0.00475007)
(-2.83832e-05 0 -0.000227179)
(-0.000903274 0 -0.00410305)
(-0.000121942 0 -0.000909231)
(-0.000113623 0 -0.0034913)
(0.00018447 0 -0.00149389)
(0.000608932 0 -0.0026122)
(0.000583277 0 -0.00261244)
(0.000249847 0 -0.00352844)
(-2.25911e-06 0 -0.00149036)
(-0.000158638 0 -0.00237982)
(-0.000270596 0 -0.00132263)
(-0.000201459 0 -0.00125965)
(-7.27088e-05 0 -0.00104115)
(-6.92123e-06 0 -0.00100827)
(9.25018e-06 0 -0.000928336)
(9.92496e-06 0 -0.000926596)
(9.53137e-06 0 -0.000938647)
(9.26579e-06 0 -0.000947402)
(8.94509e-06 0 -0.00095414)
(8.54377e-06 0 -0.00095994)
(8.09131e-06 0 -0.000964998)
(7.61038e-06 0 -0.000969393)
(7.11668e-06 0 -0.000973212)
(6.622e-06 0 -0.000976534)
(6.13525e-06 0 -0.000979427)
(5.66295e-06 0 -0.000981947)
(5.20977e-06 0 -0.000984146)
(4.77886e-06 0 -0.000986066)
(4.37218e-06 0 -0.000987744)
(3.9908e-06 0 -0.000989212)
(3.63507e-06 0 -0.000990497)
(3.30482e-06 0 -0.000991623)
(2.99946e-06 0 -0.00099261)
(2.71811e-06 0 -0.000993477)
(2.45969e-06 0 -0.000994238)
(2.22298e-06 0 -0.000994908)
(2.00671e-06 0 -0.000995497)
(1.80953e-06 0 -0.000996016)
(1.63013e-06 0 -0.000996473)
(1.4672e-06 0 -0.000996876)
(1.31946e-06 0 -0.000997232)
(1.18571e-06 0 -0.000997546)
(1.06477e-06 0 -0.000997824)
(9.55563e-07 0 -0.000998069)
(8.57058e-07 0 -0.000998286)
(7.68294e-07 0 -0.000998478)
(6.88367e-07 0 -0.000998649)
(6.16441e-07 0 -0.0009988)
(5.51755e-07 0 -0.000998934)
(4.93615e-07 0 -0.000999053)
(4.4139e-07 0 -0.000999158)
(3.94503e-07 0 -0.000999252)
(3.52432e-07 0 -0.000999335)
(3.14702e-07 0 -0.000999409)
(2.80882e-07 0 -0.000999475)
(2.50581e-07 0 -0.000999533)
(2.23448e-07 0 -0.000999585)
(1.99163e-07 0 -0.000999631)
(1.77439e-07 0 -0.000999672)
(1.58016e-07 0 -0.000999708)
(1.4066e-07 0 -0.000999741)
(1.2516e-07 0 -0.000999769)
(1.11324e-07 0 -0.000999795)
(9.89828e-08 0 -0.000999817)
(8.79802e-08 0 -0.000999838)
(7.81777e-08 0 -0.000999855)
(6.94501e-08 0 -0.000999871)
(6.16849e-08 0 -0.000999886)
(5.4781e-08 0 -0.000999898)
(4.86475e-08 0 -0.00099991)
(4.32031e-08 0 -0.00099992)
(3.83746e-08 0 -0.000999929)
(3.4097e-08 0 -0.000999938)
(3.03119e-08 0 -0.000999945)
(2.69674e-08 0 -0.000999952)
(2.40174e-08 0 -0.000999958)
(2.1421e-08 0 -0.000999963)
(1.91421e-08 0 -0.000999968)
(1.71491e-08 0 -0.000999972)
(1.5414e-08 0 -0.000999976)
(1.39127e-08 0 -0.00099998)
(1.26243e-08 0 -0.000999983)
(1.15307e-08 0 -0.000999986)
(1.06167e-08 0 -0.000999988)
(9.86965e-09 0 -0.00099999)
(9.27979e-09 0 -0.000999992)
(8.83589e-09 0 -0.000999994)
(8.48455e-09 0 -0.000999996)
(8.06778e-09 0 -0.000999998)
)
;
    }
    procBoundary3to1
    {
        type            processor;
        value           nonuniform List<vector> 
180
(
(6.93574e-10 -7.62384e-10 -0.000999982)
(1.60831e-09 -1.85584e-09 -0.000999982)
(2.66794e-09 -3.09249e-09 -0.000999981)
(3.77886e-09 -4.38697e-09 -0.00099998)
(4.93893e-09 -5.74341e-09 -0.000999978)
(6.16233e-09 -7.18059e-09 -0.000999976)
(7.46378e-09 -8.7179e-09 -0.000999974)
(8.85957e-09 -1.03767e-08 -0.000999971)
(1.03675e-08 -1.21806e-08 -0.000999968)
(1.20074e-08 -1.41554e-08 -0.000999964)
(1.38009e-08 -1.63301e-08 -0.000999959)
(1.57723e-08 -1.87369e-08 -0.000999954)
(1.79486e-08 -2.14118e-08 -0.000999949)
(2.03597e-08 -2.43949e-08 -0.000999942)
(2.30393e-08 -2.77315e-08 -0.000999935)
(2.60246e-08 -3.14721e-08 -0.000999927)
(2.93574e-08 -3.56733e-08 -0.000999918)
(3.30841e-08 -4.03989e-08 -0.000999908)
(3.72565e-08 -4.572e-08 -0.000999896)
(4.19324e-08 -5.17167e-08 -0.000999883)
(4.7176e-08 -5.84784e-08 -0.000999869)
(5.30586e-08 -6.61055e-08 -0.000999853)
(5.96597e-08 -7.47104e-08 -0.000999835)
(6.70675e-08 -8.44186e-08 -0.000999814)
(7.53798e-08 -9.53711e-08 -0.000999791)
(8.4705e-08 -1.07725e-07 -0.000999766)
(9.51638e-08 -1.21657e-07 -0.000999737)
(1.06889e-07 -1.37364e-07 -0.000999704)
(1.2003e-07 -1.55067e-07 -0.000999668)
(1.3475e-07 -1.75012e-07 -0.000999627)
(1.51231e-07 -1.97477e-07 -0.000999581)
(1.69676e-07 -2.2277e-07 -0.000999529)
(1.90308e-07 -2.5124e-07 -0.000999471)
(2.13379e-07 -2.83275e-07 -0.000999406)
(2.39163e-07 -3.19312e-07 -0.000999333)
(2.67972e-07 -3.59842e-07 -0.000999251)
(3.00147e-07 -4.05415e-07 -0.00099916)
(3.36072e-07 -4.56649e-07 -0.000999057)
(3.76173e-07 -5.1424e-07 -0.000998942)
(4.20926e-07 -5.78968e-07 -0.000998813)
(4.70861e-07 -6.51713e-07 -0.000998669)
(5.26568e-07 -7.33461e-07 -0.000998507)
(5.88708e-07 -8.25323e-07 -0.000998326)
(6.58017e-07 -9.28549e-07 -0.000998123)
(7.35314e-07 -1.04454e-06 -0.000997895)
(8.21514e-07 -1.17488e-06 -0.00099764)
(9.17636e-07 -1.32135e-06 -0.000997355)
(1.02482e-06 -1.48593e-06 -0.000997035)
(1.14433e-06 -1.67088e-06 -0.000996676)
(1.27757e-06 -1.87872e-06 -0.000996274)
(1.42612e-06 -2.11229e-06 -0.000995824)
(1.59173e-06 -2.37477e-06 -0.00099532)
(1.77636e-06 -2.66975e-06 -0.000994754)
(1.98216e-06 -3.00127e-06 -0.000994121)
(2.21158e-06 -3.37387e-06 -0.00099341)
(2.46732e-06 -3.79264e-06 -0.000992615)
(2.75239e-06 -4.26334e-06 -0.000991722)
(3.07016e-06 -4.79244e-06 -0.000990722)
(3.4244e-06 -5.38722e-06 -0.000989601)
(3.81933e-06 -6.05589e-06 -0.000988344)
(4.25966e-06 -6.80772e-06 -0.000986934)
(4.75069e-06 -7.65316e-06 -0.000985353)
(5.29833e-06 -8.60399e-06 -0.000983579)
(5.90927e-06 -9.67353e-06 -0.000981588)
(6.591e-06 -1.08768e-05 -0.000979354)
(7.35197e-06 -1.2231e-05 -0.000976846)
(8.20171e-06 -1.37551e-05 -0.000974029)
(9.15099e-06 -1.54712e-05 -0.000970866)
(1.0212e-05 -1.74039e-05 -0.000967311)
(1.13986e-05 -1.95813e-05 -0.000963316)
(1.27265e-05 -2.20352e-05 -0.000958823)
(1.42136e-05 -2.4802e-05 -0.000953769)
(1.58804e-05 -2.79229e-05 -0.000948077)
(1.77501e-05 -3.14448e-05 -0.000941662)
(1.98493e-05 -3.54212e-05 -0.00093451)
(2.22093e-05 -3.99139e-05 -0.000926871)
(2.48668e-05 -4.49947e-05 -0.000918002)
(2.77663e-05 -5.06707e-05 -0.000897617)
(2.97856e-05 -5.60479e-05 -0.000838022)
(2.47187e-05 -5.45744e-05 -0.000728786)
(-1.54773e-06 -9.74488e-06 -0.00242371)
(-3.66013e-05 5.13553e-05 -7.01465e-05)
(0.000176997 -0.000223146 -0.00279136)
(1.56209e-05 -1.57291e-05 -0.00261776)
(-0.000123169 0.000106099 -0.00134834)
(-0.00050482 0.000291905 -0.0038506)
(-0.00016961 0.00013285 -0.00078127)
(-0.000364218 0.000220268 -0.00283519)
(3.06979e-05 -5.23083e-05 -0.00210582)
(0.000224126 -1.64241e-05 -0.00296452)
(6.88244e-05 0.000103715 -0.00248189)
(-1.41731e-05 0.000184391 -0.00330998)
(-5.81463e-05 0.000279817 -0.0017144)
(-9.31773e-05 0.000561446 -0.00332282)
(1.84001e-05 0.000130911 -0.000179402)
(-0.000181021 0.000512234 -0.0035493)
(-0.000142252 0.000349914 -0.00215427)
(-0.000171059 0.000371573 -0.00232175)
(-0.000142004 0.000363778 -0.00348272)
(-6.7662e-05 0.000107977 -0.00241267)
(-0.000181005 0.000138197 -0.00274279)
(-0.000269971 -1.39136e-05 -0.00268454)
(-7.9977e-05 5.32954e-06 -0.00194462)
(4.34089e-05 -5.86041e-05 -0.00174029)
(4.88098e-05 -7.82363e-05 -0.00140756)
(6.20465e-05 -9.07536e-05 -0.00124275)
(5.8024e-05 -8.50408e-05 -0.00115233)
(5.1016e-05 -7.57059e-05 -0.00112976)
(4.44907e-05 -6.68093e-05 -0.00111665)
(3.87694e-05 -5.88976e-05 -0.00110323)
(3.37956e-05 -5.1943e-05 -0.00109092)
(2.94752e-05 -4.58325e-05 -0.00108012)
(2.57203e-05 -4.04596e-05 -0.00107064)
(2.2455e-05 -3.57323e-05 -0.00106232)
(1.96138e-05 -3.15708e-05 -0.001055)
(1.71405e-05 -2.79052e-05 -0.00104855)
(1.49861e-05 -2.46749e-05 -0.00104288)
(1.31086e-05 -2.18266e-05 -0.00103788)
(1.14716e-05 -1.9314e-05 -0.00103348)
(1.00435e-05 -1.70964e-05 -0.0010296)
(8.79716e-06 -1.51384e-05 -0.00102617)
(7.70893e-06 -1.34088e-05 -0.00102315)
(6.75832e-06 -1.18804e-05 -0.00102049)
(5.92754e-06 -1.05291e-05 -0.00101813)
(5.20112e-06 -9.3341e-06 -0.00101605)
(4.56564e-06 -8.27678e-06 -0.00101422)
(4.00944e-06 -7.34096e-06 -0.00101259)
(3.52238e-06 -6.51239e-06 -0.00101116)
(3.09565e-06 -5.77852e-06 -0.00100989)
(2.7216e-06 -5.12832e-06 -0.00100877)
(2.39357e-06 -4.55208e-06 -0.00100777)
(2.10577e-06 -4.04122e-06 -0.00100689)
(1.85314e-06 -3.58821e-06 -0.00100611)
(1.6313e-06 -3.18638e-06 -0.00100542)
(1.43641e-06 -2.82988e-06 -0.00100481)
(1.26513e-06 -2.51351e-06 -0.00100427)
(1.11455e-06 -2.23271e-06 -0.00100379)
(9.82121e-07 -1.98342e-06 -0.00100336)
(8.65611e-07 -1.7621e-06 -0.00100299)
(7.63078e-07 -1.56557e-06 -0.00100265)
(6.72819e-07 -1.39103e-06 -0.00100236)
(5.93343e-07 -1.23601e-06 -0.00100209)
(5.23345e-07 -1.09832e-06 -0.00100186)
(4.61678e-07 -9.75991e-07 -0.00100165)
(4.07339e-07 -8.67313e-07 -0.00100147)
(3.59447e-07 -7.70751e-07 -0.0010013)
(3.17227e-07 -6.84949e-07 -0.00100116)
(2.8e-07 -6.08702e-07 -0.00100103)
(2.47167e-07 -5.40941e-07 -0.00100091)
(2.18205e-07 -4.80718e-07 -0.00100081)
(1.92651e-07 -4.27192e-07 -0.00100072)
(1.701e-07 -3.79615e-07 -0.00100064)
(1.50196e-07 -3.37327e-07 -0.00100057)
(1.32624e-07 -2.99738e-07 -0.00100051)
(1.17109e-07 -2.66326e-07 -0.00100045)
(1.03409e-07 -2.3663e-07 -0.0010004)
(9.13105e-08 -2.10238e-07 -0.00100035)
(8.06267e-08 -1.86787e-07 -0.00100032)
(7.1193e-08 -1.65952e-07 -0.00100028)
(6.28646e-08 -1.47448e-07 -0.00100025)
(5.55144e-08 -1.31021e-07 -0.00100022)
(4.90304e-08 -1.16445e-07 -0.0010002)
(4.33141e-08 -1.0352e-07 -0.00100017)
(3.82789e-08 -9.20697e-08 -0.00100015)
(3.38484e-08 -8.19366e-08 -0.00100014)
(2.99553e-08 -7.29819e-08 -0.00100012)
(2.65404e-08 -6.50824e-08 -0.00100011)
(2.35513e-08 -5.81292e-08 -0.00100009)
(2.09422e-08 -5.2026e-08 -0.00100008)
(1.86724e-08 -4.66881e-08 -0.00100007)
(1.67065e-08 -4.20408e-08 -0.00100006)
(1.50133e-08 -3.80187e-08 -0.00100005)
(1.35657e-08 -3.45649e-08 -0.00100005)
(1.23402e-08 -3.16302e-08 -0.00100004)
(1.13168e-08 -2.91724e-08 -0.00100003)
(1.04786e-08 -2.71559e-08 -0.00100003)
(9.8106e-09 -2.55505e-08 -0.00100002)
(9.30375e-09 -2.4334e-08 -0.00100001)
(8.99424e-09 -2.35304e-08 -0.00100001)
(9.02053e-09 -2.32613e-08 -0.001)
)
;
    }
    procBoundary3to2
    {
        type            processor;
        value           nonuniform List<vector> 
180
(
(5.69299e-10 -6.38113e-10 -0.00100002)
(1.30439e-09 -1.55193e-09 -0.00100002)
(2.17709e-09 -2.60163e-09 -0.00100002)
(3.10516e-09 -3.71326e-09 -0.00100003)
(4.09868e-09 -4.90316e-09 -0.00100003)
(5.17452e-09 -6.19277e-09 -0.00100003)
(6.35281e-09 -7.60693e-09 -0.00100003)
(7.65445e-09 -9.17161e-09 -0.00100003)
(9.10142e-09 -1.09144e-08 -0.00100004)
(1.0717e-08 -1.28651e-08 -0.00100004)
(1.25262e-08 -1.50555e-08 -0.00100004)
(1.45559e-08 -1.75205e-08 -0.00100005)
(1.6835e-08 -2.02982e-08 -0.00100005)
(1.93952e-08 -2.34304e-08 -0.00100006)
(2.22711e-08 -2.69633e-08 -0.00100007)
(2.55007e-08 -3.09481e-08 -0.00100008)
(2.91258e-08 -3.54418e-08 -0.00100008)
(3.31929e-08 -4.05077e-08 -0.00100009)
(3.77531e-08 -4.62167e-08 -0.00100011)
(4.28638e-08 -5.26481e-08 -0.00100012)
(4.85886e-08 -5.98911e-08 -0.00100013)
(5.49987e-08 -6.80456e-08 -0.00100015)
(6.21738e-08 -7.72244e-08 -0.00100017)
(7.02032e-08 -8.75544e-08 -0.00100019)
(7.91873e-08 -9.91787e-08 -0.00100022)
(8.92386e-08 -1.12259e-07 -0.00100024)
(1.00484e-07 -1.26977e-07 -0.00100027)
(1.13065e-07 -1.4354e-07 -0.00100031)
(1.27143e-07 -1.6218e-07 -0.00100034)
(1.42898e-07 -1.8316e-07 -0.00100039)
(1.60531e-07 -2.06777e-07 -0.00100043)
(1.80271e-07 -2.33365e-07 -0.00100049)
(2.02371e-07 -2.63302e-07 -0.00100055)
(2.27119e-07 -2.97016e-07 -0.00100061)
(2.54836e-07 -3.34985e-07 -0.00100069)
(2.85882e-07 -3.77752e-07 -0.00100077)
(3.20658e-07 -4.25925e-07 -0.00100087)
(3.59615e-07 -4.80192e-07 -0.00100098)
(4.03258e-07 -5.41324e-07 -0.00100109)
(4.52148e-07 -6.10191e-07 -0.00100123)
(5.06916e-07 -6.87768e-07 -0.00100138)
(5.68263e-07 -7.75156e-07 -0.00100155)
(6.36973e-07 -8.73588e-07 -0.00100174)
(7.13923e-07 -9.84455e-07 -0.00100195)
(8.00088e-07 -1.10932e-06 -0.00100219)
(8.96559e-07 -1.24993e-06 -0.00100246)
(1.00455e-06 -1.40827e-06 -0.00100276)
(1.12543e-06 -1.58655e-06 -0.0010031)
(1.26071e-06 -1.78726e-06 -0.00100348)
(1.41207e-06 -2.01322e-06 -0.00100391)
(1.58141e-06 -2.26757e-06 -0.00100439)
(1.77082e-06 -2.55386e-06 -0.00100493)
(1.98266e-06 -2.87606e-06 -0.00100553)
(2.21954e-06 -3.23866e-06 -0.0010062)
(2.48438e-06 -3.64667e-06 -0.00100696)
(2.7804e-06 -4.10573e-06 -0.00100781)
(3.11123e-06 -4.62219e-06 -0.00100876)
(3.48086e-06 -5.20315e-06 -0.00100983)
(3.89375e-06 -5.85657e-06 -0.00101102)
(4.35483e-06 -6.5914e-06 -0.00101236)
(4.86957e-06 -7.41765e-06 -0.00101386)
(5.44403e-06 -8.34653e-06 -0.00101553)
(6.08488e-06 -9.39058e-06 -0.00101741)
(6.79952e-06 -1.05638e-05 -0.00101951)
(7.59606e-06 -1.1882e-05 -0.00102186)
(8.48343e-06 -1.33625e-05 -0.00102449)
(9.47144e-06 -1.5025e-05 -0.00102742)
(1.05708e-05 -1.68911e-05 -0.0010307)
(1.17932e-05 -1.89852e-05 -0.00103437)
(1.31514e-05 -2.13343e-05 -0.00103846)
(1.46592e-05 -2.39682e-05 -0.00104302)
(1.63314e-05 -2.69201e-05 -0.00104811)
(1.8184e-05 -3.0227e-05 -0.00105377)
(2.02342e-05 -3.39295e-05 -0.00106007)
(2.25005e-05 -3.80733e-05 -0.00106715)
(2.50059e-05 -4.2714e-05 -0.00107561)
(2.7737e-05 -4.78711e-05 -0.00108532)
(3.07348e-05 -5.3709e-05 -0.00108433)
(3.32793e-05 -6.01186e-05 -0.00102698)
(3.00301e-05 -6.35081e-05 -0.000808195)
(-6.36548e-06 -2.35314e-05 -0.0033559)
(-3.09827e-06 1.43888e-05 -6.67422e-05)
(-6.95852e-06 -6.50636e-05 -0.00402982)
(-1.8756e-05 1.08798e-05 -0.000973374)
(2.13288e-05 -0.000100436 -0.00362465)
(4.69257e-06 -0.000199518 -0.00391669)
(1.9325e-05 -8.65803e-05 -0.00152606)
(0.000134437 -0.000295908 -0.00413794)
(-0.000106853 7.68421e-05 -0.00173063)
(-0.000266138 0.000718107 -0.00280572)
(-0.000272484 0.000807795 -0.00294707)
(-0.000239583 0.000325696 -0.00128942)
(-0.000697173 0.00106982 -0.00259524)
(-0.000330656 0.000554736 -0.00288139)
(-5.70196e-05 0.000155256 -0.000295607)
(6.81038e-05 7.108e-05 -0.00475928)
(4.98125e-05 1.47082e-05 -0.00110838)
(0.000633321 -0.000438364 -0.00254713)
(0.000657843 -0.000392878 -0.00202051)
(2.26535e-05 -0.000218613 -0.00164714)
(-0.000181751 -0.00017362 -0.00222667)
(-7.19379e-05 2.95081e-05 -0.00198714)
(5.88493e-06 0.00015666 -0.0018486)
(1.3986e-05 0.000129859 -0.00156426)
(1.96472e-05 3.26436e-05 -0.00121404)