/*--------------------------------*- C++ -*----------------------------------*\
  =========                 |
  \\      /  F ield         | OpenFOAM: The Open Source CFD Toolbox
   \\    /   O peration     | Website:  https://openfoam.org
    \\  /    A nd           | Version:  9
     \\/     M anipulation  |
\*---------------------------------------------------------------------------*/
FoamFile
{
    format      ascii;
    class       volScalarField;
    location    "5000";
    object      p;
}
// * * * * * * * * * * * * * * * * * * * * * * * * * * * * * * * * * * * * * //

dimensions      [0 2 -2 0 0 0 0];

internalField   nonuniform List<scalar> 
720
(
-46.312
-51.0483
-45.824
-52.5204
-103.603
-92.9675
-102.471
-95.8717
-110.359
-101.906
-109.14
-95.4153
-105.194
-102.328
-104.165
-82.6853
-107.994
-98.7408
-105.25
-73.8601
-117.583
-93.904
-113.001
-81.3602
-126.455
-103.861
-113.676
-91.5129
-133.796
-115.649
-119.213
-91.7638
-133.568
-120.785
-127.73
-83.5787
-128.213
-121.569
-128.537
-76.4797
-122.497
-118.398
-122.863
-76.1374
-118.403
-113.97
-117.808
-94.9612
-115.562
-110.277
-114.687
-105.761
-111.543
-105.795
-111.966
-109.815
-110.778
-101.211
-108.476
-112.321
-111.841
-110.572
-104.869
-114.517
-109.536
-122.571
-113.62
-120.558
-114.742
-123.813
-124.907
-128.977
-146.422
-114.361
-126.094
-133.676
-164.328
-107.579
-116.649
-132.864
-165.203
-114.703
-114.287
-133.177
-156.208
-124.601
-116.373
-138.306
-150.353
-131.42
-123.6
-142.811
-147.971
-155.68
-133.165
-145.407
-145.643
-170.138
-140.501
-144.592
-159.109
-169.003
-145.892
-139.664
-175.202
-158.212
-148.899
-135.35
-177.618
-153.771
-149.645
-131.948
-167.991
-153.62
-146.691
-127.776
-160.134
-150.758
-141.672
-123.829
-156.126
-145.03
-142.36
-119.602
-151.895
-140.084
-146.793
-119.987
-147.002
-135.371
-146.556
-123.531
-142.042
-130.406
-140.307
-121.911
-136.965
-125.735
-138.172
-118.349
-132.113
-120.443
-136.423
-121.793
-127.167
-114.942
-132.808
-120.05
-122.281
-109.482
-136.469
-110.616
-117.421
-103.963
-141.793
-109.921
-126.732
-98.3257
-142.476
-118.403
-141.385
-104.316
-136.21
-127.833
-142.594
-114.376
-139.142
-130.938
-133.239
-114.371
-145.214
-132.524
-127.051
-102.103
-146.072
-146.048
-122.843
-103.19
-146.751
-153.435
-116.967
-110.025
-158.869
-154.975
-137.003
-108.055
-165.631
-158.103
-160.342
-106.188
-164.206
-157.862
-164.544
-124.976
-159.77
-151.9
-152.405
-135.389
-156.688
-154.006
-143.65
-138.512
-153.694
-171.698
-138.922
-140.527
-150.52
-179.975
-133.824
-142.483
-147.237
-179
-152.052
-148.906
-143.91
-173.196
-173.713
-155.565
-149.214
-170.042
-177.629
-165.191
-156.162
-167.964
-167.31
-179.033
-155.423
-165.951
-158.526
-186.235
-155.975
-163.251
-153.766
-188.266
-177.156
-160.056
-149.445
-198.575
-187.726
-156.587
-165.463
-206.424
-186.648
-160.529
-185.072
-206.236
-180.012
-178.104
-187.551
-199.068
-174.96
-196.315
-176.511
-194.809
-178.605
-203.297
-167.644
-195.005
-185.051
-202.38
-182.707
-192.533
-184.528
-203.648
-201.767
-186.479
-185.16
-208.818
-204.734
-180.364
-191.17
-209.444
-194.824
-186.249
-197.504
-209.149
-186.492
-201.556
-204.142
-212.157
-181.894
-206.683
-208.843
-211.487
-177.941
-198.738
-213.316
-207.364
-172.417
-191.924
-215.228
-205.735
-183.4
-186.496
-217.909
-203.141
-199.683
-186.259
-234.836
-207.543
-202.457
-191.402
-257.621
-221.272
-201.341
-189.448
-268.198
-227.034
-231.428
-179.413
-269.142
-221.04
-251.608
-172.82
-262.191
-217.211
-253.961
-177.131
-257.995
-215.025
-247.227
-182.911
-269.691
-220.382
-244.254
-185.33
-282.729
-229.901
-244.849
-194.054
-285.142
-238.917
-245.948
-213.273
-296.154
-247.448
-255.936
-234.02
-315.033
-253.597
-290.744
-252.462
-327.983
-271.272
-310.923
-271.208
-356.503
-284.111
-312.81
-282.104
-377.45
-291.664
-314.155
-282.185
-377.388
-316.298
-337.875
-274.387
-370.58
-331.615
-372.933
-269.859
-389.324
-331.31
-392.259
-275.264
-442.139
-320.533
-396.028
-278.684
-504.703
-318.724
-403.325
-275.752
-539.71
-335.576
-416.207
-268.504
-547.214
-360.589
-421.71
-258.67
-539.803
-384.413
-438.462
-247.748
-536.862
-406.07
-458.475
-236.263
-556.335
-426.238
-482.773
-220.967
-630.095
-447.658
-505.267
-203.743
-672.751
-470.029
-510.757
-184.215
-704.157
-492.203
-507.599
-162.313
-733.368
-515.907
-503.8
-137.681
-756.391
-540.06
-500.166
-109.874
-833.166
-565.85
-497.11
-79.074
-889.84
-597.332
-489.719
-48.607
-931.19
-632.764
-504.038
-14.8179
-973.939
-675.852
-586.173
5.74131
-1024.7
-732.057
-711.346
23.3405
-1139.39
-818.232
-797.945
31.7988
-1304.52
-955.359
-876.593
-2.68371
-1483.21
-1202.27
-1336.19
-112.31
-1638.13
-1795.28
-2443.01
-294.428
-1839.23
-2805.37
-4007.21
-650.173
-2215.58
-3993.13
-5818.01
-1328.8
-2732.27
-5283.53
-7618.62
-2422.78
-3376.47
-6779.88
-9378.19
-3822.16
-4143.09
-8489.29
-11080.7
-5351.46
-5035.55
-10162
-12713.2
-6891.54
-6006.07
-11836.6
-14161.1
-8418.76
-7015.3
-13443.5
-15303.8
-9953.56
-7928.67
-14913.8
-16037.5
-11518.5
-8746.91
-16212.4
-16374.8
-13108.7
-9475.35
-17122.4
-16425.6
-14703.1
-10163.3
-17630
-16312.3
-16267.8
-10733.8
-17650.2
-16170.4
-17698
-11225.4
-17431.6
-16080.1
-18874.8
-11665.4
-17189.7
-16078.3
-19709.6
-12143.5
-16889.8
-16139.7
-20361.4
-12653.5
-16665.6
-16214.2
-21146.6
-13164.5
-16510.7
-16266.1
-21893.7
-13471.5
-16371.1
-16288.1
-22420.6
-13683
-16258.9
-16278.9
-22783
-13841.1
-16145.7
-16226.3
-22996.7
-14044.3
-16053.9
-16126.7
-23008.4
-14221.9
-15981.6
-16005.2
-22814.1
-14470
-15915.6
-15897.1
-22219.9
-14822.8
-15872.8
-15793.3
-20976.6
-15069.1
-15775.5
-15699.9
-19408.6
-15188.8
-15693.9
-15616.5
-18144.3
-15393.6
-15623.6
-15541.4
-17401.5
-15717.7
-15594.9
-15497.6
-16899.4
-15827.9
-15612.8
-15483.6
-16464.7
-15826.2
-15670.1
-15506.7
-16001.6
-15861.5
-15735.8
-15526.7
-15576.7
-15869.4
-15774.2
-15492.5
-15240.1
-15751.1
-15807.6
-15466
-14998.5
-15454.9
-15712
-15455.9
-14647.6
-15114.7
-15535.9
-15472.7
-14027.1
-14550.8
-15118
-15420.8
-13204.2
-13686.1
-14359
-15164.4
-12149.5
-12612.9
-13262.7
-14408.4
-10868.5
-11632.1
-12004
-13229.1
-9516.55
-10668.4
-10732.4
-11836.6
-8156.15
-9749.02
-9552.54
-10338
-6931.75
-8970.91
-8531.89
-8830.46
-5916.44
-8337.74
-7641.61
-7442.44
-5122.51
-7806.42
-6919.85
-6308.63
-4529.46
-7337.83
-6360.1
-5443.22
-4123.94
-6928.61
-5935.6
-4840.99
-3923.59
-6582.54
-5618.16
-4465.61
-3793.2
-6294.26
-5381.69
-4261.62
-3717.92
-6057.92
-5206.34
-4179.49
-3676.86
-5865.48
-5073.92
-4177.64
-3666.3
-5711.25
-4974.77
-4224.22
-3680.99
-5589.22
-4896.68
-4296.52
-3716.21
-5494.7
-4831.57
-4380.11
-3764.85
-5424.08
-4775.07
-4465.28
-3827.51
-5368.34
-4729.65
-4548.06
-3909.73
-5320.24
-4700.27
-4624.79
-4004.22
-5279.24
-4685.63
-4696.54
-4104.87
-5245.82
-4682.31
-4760.96
-4197.28
-5218.89
-4687.19
-4822.26
-4241.53
-5197.51
-4696.07
-4876.45
-4271
-5179.93
-4710.05
-4925.02
-4323.52
-5166.09
-4724.66
-4968.08
-4393.09
-5154.44
-4744.58
-4977.73
-4435.78
-5145.14
-4766.29
-4964.24
-4439.85
-5137.99
-4787.81
-4961.31
-4456.42
-5133.37
-4800.48
-4971.26
-4476.31
-5130.78
-4802.57
)
;

boundaryField
{
    inlet
    {
        type            zeroGradient;
    }
    outlet
    {
        type            fixedValue;
        value           uniform 0;
    }
    repeat_boundary
    {
        type            zeroGradient;
    }
}


// ************************************************************************* //
