/*--------------------------------*- C++ -*----------------------------------*\
  =========                 |
  \\      /  F ield         | OpenFOAM: The Open Source CFD Toolbox
   \\    /   O peration     | Website:  https://openfoam.org
    \\  /    A nd           | Version:  9
     \\/     M anipulation  |
\*---------------------------------------------------------------------------*/
FoamFile
{
    format      ascii;
    class       surfaceScalarField;
    location    "5000";
    object      phi;
}
// * * * * * * * * * * * * * * * * * * * * * * * * * * * * * * * * * * * * * //

dimensions      [0 3 -1 0 0 0 0];

internalField   nonuniform List<scalar> 
1436
(
-620.641
362.301
6.15322e+06
356.348
6.041e+06
-636.179
6.127e+06
6.03625e+06
-1698.94
320.455
6.1546e+06
647.703
6.03865e+06
-1195.45
6.12852e+06
6.0357e+06
-2225.45
203.613
6.15663e+06
102.808
6.03632e+06
-2942.9
6.13167e+06
6.03286e+06
-2446.15
268.207
6.15881e+06
-2117.62
6.036e+06
-4582.07
6.13652e+06
6.02616e+06
-3640.84
-64.794
6.16251e+06
-3356.66
6.03571e+06
-6102.76
6.14256e+06
6.0167e+06
-6277.83
-1221.27
6.17001e+06
-3210.75
6.03264e+06
-6367
6.1477e+06
6.00712e+06
-4406.04
-1420.67
6.17584e+06
-3027.39
6.03127e+06
-5931.34
6.15221e+06
5.99817e+06
-7014.61
-2278.38
6.18513e+06
-5023.54
6.02928e+06
-6170.79
6.15611e+06
5.98697e+06
-5846.33
-2231.32
6.19321e+06
-6725.23
6.03016e+06
-13896.9
6.16777e+06
5.96635e+06
-8144.93
-2251.59
6.20361e+06
-11689.5
6.0337e+06
-14993.8
6.18052e+06
5.93967e+06
-10069.2
-2657.14
6.21633e+06
-10343.4
6.03398e+06
-14419.9
6.19228e+06
5.91491e+06
-6779.13
-2273.71
6.22539e+06
-8747.56
6.03595e+06
-14647.1
6.20465e+06
5.89151e+06
-6837.9
-1843.74
6.23407e+06
-6334.37
6.03544e+06
-7249.9
6.21006e+06
5.87793e+06
-5763.73
-1754.72
6.24159e+06
-3735.58
6.03342e+06
-5850.12
6.21416e+06
5.86834e+06
-5746.35
-2034.56
6.24937e+06
-4960.78
6.03263e+06
-8825.92
6.22095e+06
5.85455e+06
-3523.4
-2741.57
6.25563e+06
-4200.62
6.03331e+06
-6809.49
6.22502e+06
5.84354e+06
-338.198
-1954.2
6.25792e+06
-2840.21
6.03582e+06
-2099.22
6.22517e+06
5.8386e+06
-804.67
-1240.68
6.25997e+06
284.712
6.03473e+06
805.215
6.22312e+06
5.83969e+06
-5189.28
-4523.69
6.26968e+06
3569.25
6.02597e+06
2198.02
6.2164e+06
5.84546e+06
-11195
-10962.1
6.29184e+06
4945.48
6.00983e+06
4454.36
6.20099e+06
5.85486e+06
-8706.43
-12588.2
6.31313e+06
5043.4
5.99608e+06
6201.74
6.1822e+06
5.8661e+06
-13110.6
-15981
6.34222e+06
7482.91
5.97549e+06
8742.95
6.15747e+06
5.88233e+06
-10258.1
-10156.8
6.36264e+06
6581.03
5.95865e+06
4882.5
6.14244e+06
5.89379e+06
-4429.73
-8505.78
6.37557e+06
6598.75
5.94762e+06
6108.32
6.12782e+06
5.9065e+06
210.293
-5771.68
6.38113e+06
2206.93
5.94563e+06
4504.07
6.11755e+06
5.91321e+06
1817.48
-3461.59
6.38278e+06
605.202
5.94684e+06
5436.56
6.10865e+06
5.91925e+06
-2452.7
-4651.52
6.38988e+06
2939.24
5.94144e+06
6091.28
6.0979e+06
5.92828e+06
-2587.71
-5540.18
6.39801e+06
3015.71
5.93584e+06
2840.59
6.08952e+06
5.93414e+06
-2495.61
-7268.89
6.40777e+06
154.037
5.93319e+06
3642.66
6.07861e+06
5.93793e+06
-1365.63
-8013.72
6.41716e+06
-1492.17
5.93331e+06
1135.32
6.06946e+06
5.93758e+06
-1381.29
-270.136
6.41881e+06
-3629.23
5.93556e+06
-1512.5
6.0707e+06
5.93244e+06
-1690.24
969.988
6.41953e+06
-1844.02
5.93571e+06
-5211.35
6.07688e+06
5.92538e+06
-1581.05
1236.28
6.41987e+06
-1723.82
5.93585e+06
-4067.38
6.08218e+06
5.91959e+06
-1933.1
-1861.06
6.42367e+06
-2224.02
5.93614e+06
-7830.24
6.08815e+06
5.90954e+06
-2232.42
-3428.66
6.42933e+06
-2998.02
5.93691e+06
-16492.6
6.10121e+06
5.89005e+06
-2628.28
339.159
6.43162e+06
-3094.45
5.93737e+06
-13553.5
6.1151e+06
5.8734e+06
-3050.52
399.054
6.43427e+06
1321.29
5.933e+06
-10301.8
6.1258e+06
5.86442e+06
-3596.64
1170.22
6.4367e+06
-2772
5.93217e+06
-16084.1
6.14305e+06
5.84556e+06
-4105.5
4389.59
6.43641e+06
-3504.81
5.93157e+06
-18679.3
6.16612e+06
5.82338e+06
-6032.23
4385.12
6.43806e+06
3268.72
5.92227e+06
-13200.5
6.1837e+06
5.81345e+06
-7829.75
1432.5
6.44446e+06
223.131
5.91422e+06
-13444.7
6.19858e+06
5.80022e+06
-8213.36
1341.9
6.45133e+06
-381.598
5.90638e+06
-18248.4
6.21817e+06
5.78159e+06
-9647.35
5948.48
6.45503e+06
37.9732
5.8967e+06
-19922.2
6.24404e+06
5.76171e+06
-19067.5
5552.77
6.46854e+06
6972.74
5.87066e+06
-13808.3
6.2634e+06
5.75487e+06
-16164.5
4036.63
6.48067e+06
3940.87
5.85055e+06
-11108.5
6.27855e+06
5.74771e+06
-9701.21
5518.21
6.48485e+06
2413.17
5.83844e+06
-7858.8
6.29193e+06
5.74226e+06
-10174.4
2814.32
6.49221e+06
9487.67
5.81878e+06
-9835.04
6.30458e+06
5.74192e+06
-16267.8
74.6007
6.50841e+06
11762
5.79075e+06
-9518.71
6.31417e+06
5.74416e+06
-12464.5
2116.13
6.51875e+06
9995.89
5.76829e+06
-9075.03
6.32536e+06
5.74508e+06
-10569
7695.17
6.52163e+06
5255.18
5.75246e+06
-4664.13
6.33772e+06
5.74567e+06
-9870.57
8706.45
6.52279e+06
746.281
5.74185e+06
-1245.23
6.34767e+06
5.74517e+06
-8158.51
6613.63
6.52434e+06
8306.01
5.72539e+06
1309.09
6.35298e+06
5.75479e+06
-4838.18
7125.27
6.52205e+06
5047.39
5.7155e+06
2207.81
6.3579e+06
5.76204e+06
-3643.02
2284.9
6.52341e+06
12611.5
5.69925e+06
5321.38
6.35486e+06
5.77997e+06
-6346.06
-3470.12
6.53322e+06
12762.5
5.68014e+06
7606.8
6.34379e+06
5.80034e+06
-4307.96
-5927.58
6.54346e+06
6130.94
5.6697e+06
6475.43
6.33139e+06
5.81295e+06
-601.751
-5753.86
6.54981e+06
3328.26
5.66577e+06
6897.21
6.31874e+06
5.82317e+06
3949.6
-1451.07
6.54731e+06
-1452.94
5.67118e+06
9715.86
6.30757e+06
5.83143e+06
5235.92
3119.61
6.53895e+06
-2655
5.67907e+06
5818.78
6.30487e+06
5.8346e+06
8390.35
7187.81
6.52338e+06
-4461.52
5.69192e+06
-2317.1
6.31438e+06
5.82782e+06
4133.02
6406.77
6.51284e+06
-3381.18
5.69943e+06
-357.862
6.32114e+06
5.82408e+06
3640.01
5124.55
6.50407e+06
-1565.31
5.70464e+06
8075.75
6.31819e+06
5.83059e+06
8805.27
4473.34
6.49079e+06
1304.34
5.71214e+06
10632.9
6.31203e+06
5.84252e+06
12897.6
5812.89
6.47208e+06
6107.1
5.71893e+06
6894.32
6.31094e+06
5.85552e+06
12179.5
8400.52
6.4515e+06
8633.42
5.72247e+06
7534.03
6.31181e+06
5.87169e+06
2310.57
7401.69
6.44179e+06
6888.52
5.71789e+06
10741.6
6.30847e+06
5.88932e+06
-2939.94
4799.67
6.43993e+06
9550.12
5.7054e+06
14503.3
6.29877e+06
5.91338e+06
-5601.38
5184.56
6.44035e+06
13181.1
5.68662e+06
11165.5
6.29278e+06
5.93772e+06
-1771
6422.23
6.4357e+06
12603.6
5.67225e+06
8271.02
6.29094e+06
5.9586e+06
3099.52
6008.35
6.42659e+06
12700.9
5.66265e+06
15854.6
6.28109e+06
5.98716e+06
-3300.09
6258.22
6.42363e+06
15127.6
5.64422e+06
9332.67
6.27802e+06
6.01162e+06
-1235.98
10348.2
6.41452e+06
14824.7
5.62816e+06
8746.23
6.27962e+06
6.03519e+06
3676.76
11506.8
6.39934e+06
13557.6
5.61828e+06
10862.8
6.28026e+06
6.05961e+06
-973.703
3584.96
6.39673e+06
14836.2
5.60247e+06
6763.54
6.27708e+06
6.08121e+06
-7179.85
5496.4
6.39842e+06
9579.59
5.58571e+06
3026.93
6.27955e+06
6.09382e+06
-7465.93
6149.4
6.39973e+06
13405.4
5.56484e+06
1610.89
6.28409e+06
6.10884e+06
-8118.01
8969.52
6.39888e+06
15738
5.54098e+06
-209.048
6.29327e+06
6.12437e+06
-16769.4
-1024.23
6.41668e+06
15419.7
5.50879e+06
-5469.5
6.29772e+06
6.13432e+06
-26773.2
-1144.59
6.4446e+06
15310.2
5.46671e+06
-12368.2
6.30894e+06
6.13726e+06
-27718.3
-566.473
6.47288e+06
14634.6
5.42436e+06
-12825.5
6.3212e+06
6.13907e+06
-37196.4
-4499.87
6.51458e+06
13721.5
5.37344e+06
-7179.74
6.32388e+06
6.14562e+06
-39308.8
-370.857
6.55426e+06
16160.1
5.31798e+06
-13281.5
6.3368e+06
6.14849e+06
-42099.7
-4895.35
6.60125e+06
12658.3
5.26322e+06
-6441.41
6.33834e+06
6.15471e+06
-38743
-4603.65
6.6446e+06
14383.9
5.21009e+06
-12510
6.34625e+06
6.15658e+06
-30904.4
-2004.3
6.6775e+06
7671.85
5.17152e+06
-22041.9
6.36629e+06
6.14221e+06
-29283.4
-12319.3
6.71911e+06
5953.88
5.13628e+06
-13812.5
6.36778e+06
6.13435e+06
-28991.9
-11802.5
6.7599e+06
2436.82
5.10485e+06
-18412.9
6.3744e+06
6.11837e+06
-28625
-6693.2
6.79522e+06
-1195.82
5.07743e+06
-24877.5
6.39258e+06
6.0923e+06
-26502.5
-3813.91
6.82553e+06
-2367.79
5.05329e+06
-24575
6.41334e+06
6.06535e+06
-31504.8
-4056.95
6.86109e+06
3563.85
5.01822e+06
-28232.2
6.43751e+06
6.04068e+06
-33859
-16570.9
6.91152e+06
-92.0878
4.98445e+06
-26534.4
6.44748e+06
6.01406e+06
-43171.5
-16199.3
6.97089e+06
3971.77
4.93731e+06
-33251
6.46453e+06
5.98478e+06
-44895.1
-12361.4
7.02815e+06
1196.09
4.89121e+06
-27625
6.47979e+06
5.95835e+06
-50166.1
-1239.33
7.07955e+06
2717.84
4.83833e+06
-31443.6
6.50999e+06
5.92962e+06
-66030.6
10380.4
7.13521e+06
10152.2
4.76214e+06
-23720.7
6.54409e+06
5.91605e+06
-71301.7
14057.2
7.19245e+06
20436.9
4.6704e+06
-30471.5
6.58861e+06
5.90602e+06
-74679.6
21448
7.24568e+06
32251.9
4.56346e+06
-30324.6
6.64038e+06
5.90795e+06
-99348
27602.5
7.31743e+06
49142.3
4.41497e+06
-8148.07
6.67613e+06
5.94894e+06
-81107.3
36524.7
7.36201e+06
61438.9
4.27242e+06
5070.8
6.70758e+06
6.01545e+06
-98246.1
67631.5
7.39262e+06
76763.5
4.09741e+06
-9682.74
6.7849e+06
6.08253e+06
-91565.7
62788
7.4214e+06
97261
3.90858e+06
14057.7
6.83363e+06
6.19385e+06
-95278.5
76558.3
7.44012e+06
114028
3.69928e+06
3808.38
6.90638e+06
6.31169e+06
-96250.3
73566.7
7.4628e+06
138841
3.46419e+06
30949.1
6.94899e+06
6.48148e+06
-92038.4
99272.5
7.45557e+06
160589
3.21156e+06
50451.8
6.99781e+06
6.69252e+06
-91646.5
138088
7.40913e+06
194689
2.92523e+06
37407.8
7.0985e+06
6.92461e+06
-110554
151010
7.36867e+06
240495
2.57418e+06
66272.7
7.18323e+06
7.23138e+06
-86887.6
183225
7.27233e+06
264785
2.22251e+06
63567.4
7.30289e+06
7.55973e+06
-218495
226234
7.26459e+06
404240
1.59977e+06
103253
7.42588e+06
8.06722e+06
-294208
291082
7.26772e+06
437710
867856
76689.9
7.64027e+06
8.58162e+06
-425946
367228
7.32644e+06
680450
-238536
64999.4
7.9425e+06
9.32707e+06
-1.79619e+06
475875
8.64676e+06
1.68165e+06
-3.71637e+06
-7433.69
8.42581e+06
1.10013e+07
-2.07265e+06
661524
1.00579e+07
1.77571e+06
-7.56474e+06
-167069
9.2544e+06
1.26099e+07
-2.27224e+06
935457
1.13947e+07
1.76375e+06
-1.16007e+07
-314595
1.05045e+07
1.40591e+07
-2.48989e+06
1.11238e+06
1.27722e+07
1.77633e+06
-1.5867e+07
-485351
1.21022e+07
1.53501e+07
-2.52717e+06
1.32008e+06
1.39793e+07
1.85486e+06
-2.0249e+07
-716791
1.41391e+07
1.64881e+07
-2.39209e+06
1.32496e+06
1.50464e+07
1.82243e+06
-2.44635e+07
-805477
1.62695e+07
1.75051e+07
-2.16246e+06
1.33365e+06
1.58752e+07
1.76247e+06
-2.83884e+07
-922949
1.85261e+07
1.83446e+07
-1.85107e+06
1.23636e+06
1.64899e+07
1.73492e+06
-3.19744e+07
-795348
2.05578e+07
1.92842e+07
-1.5064e+06
1.16344e+06
1.68329e+07
1.50841e+06
-3.49892e+07
-870380
2.25916e+07
1.99222e+07
-1.14808e+06
1.03401e+06
1.6947e+07
1.32378e+06
-3.74611e+07
-591151
2.42168e+07
2.06548e+07
-817236
934682
1.68295e+07
1.0109e+06
-3.92892e+07
-522614
2.56741e+07
2.11431e+07
-538961
814189
1.65543e+07
664694
-4.04929e+07
-540954
2.70292e+07
2.12669e+07
-342096
722273
1.61741e+07
345969
-4.11809e+07
-499935
2.82514e+07
2.11129e+07
-224342
639520
1.57589e+07
35196.2
-4.14405e+07
-443048
2.9334e+07
2.07051e+07
-189267
550255
1.53979e+07
-201616
-4.14281e+07
-359874
3.02441e+07
2.01436e+07
-205837
495532
1.51082e+07
-359208
-4.12748e+07
-210186
3.09498e+07
1.95742e+07
-244940
442768
1.49104e+07
-430192
-4.10895e+07
-254270
3.16469e+07
1.88897e+07
-254545
399074
1.47659e+07
-476597
-4.08675e+07
-254103
3.23001e+07
1.8159e+07
-233808
344862
1.46548e+07
-499263
-4.0602e+07
-268943
3.29139e+07
1.73908e+07
-210005
340473
1.45244e+07
-523003
-4.0289e+07
-334883
3.35892e+07
1.65329e+07
-182747
336729
1.43704e+07
-582156
-3.98896e+07
-426336
3.43523e+07
1.55244e+07
-145959
329663
1.41867e+07
-635254
-3.94003e+07
-439484
3.51214e+07
1.44497e+07
-104560
334945
1.39563e+07
-712415
-3.87924e+07
-485210
3.59416e+07
1.32521e+07
-68498.4
340017
1.36848e+07
-783853
-3.80771e+07
-490313
3.67719e+07
1.19779e+07
-23642.3
384575
1.33238e+07
-851949
-3.72488e+07
-556945
3.77134e+07
1.0569e+07
20885.4
378715
1.29242e+07
-969891
-3.6258e+07
-536008
3.86282e+07
9.0631e+06
85272.1
415441
1.24235e+07
-1.07932e+06
-3.50934e+07
-566198
3.96098e+07
7.41758e+06
118724
421755
1.1883e+07
-1.28531e+06
-3.36894e+07
-586386
4.06179e+07
5.54588e+06
128498
455498
1.1299e+07
-1.67834e+06
-3.18825e+07
-535797
4.16092e+07
3.33174e+06
147298
472483
1.06793e+07
-1.61415e+06
-3.01211e+07
-444141
4.25259e+07
1.27346e+06
182758
621588
9.87492e+06
-1.09247e+06
-2.88459e+07
-304679
4.34521e+07
-123694
271714
842862
8.76034e+06
-791991
-2.77822e+07
-283024
4.4578e+07
-1.19871e+06
337087
1.09447e+06
7.32878e+06
-605120
-2.684e+07
-208126
4.58806e+07
-2.01196e+06
389070
1.29167e+06
5.64804e+06
-508395
-2.59425e+07
-161311
4.73336e+07
-2.68166e+06
407815
1.4048e+06
3.83542e+06
-503934
-2.50307e+07
-166565
4.89049e+07
-3.35216e+06
362521
1.46043e+06
2.01247e+06
-502627
-2.41656e+07
-133830
5.04992e+07
-3.98862e+06
150987
1.28511e+06
576394
-484984
-2.35296e+07
2882.42
5.17814e+07
-4.47072e+06
62590.7
628428
-114611
-614215
-2.28528e+07
263771
5.21461e+07
-4.82116e+06
302285
302059
-718969
-609793
-2.19407e+07
517030
5.19311e+07
-4.91393e+06
189003
-38652.6
-869333
-694834
-2.10569e+07
821482
5.1071e+07
-4.78728e+06
699096
-213156
-1.35526e+06
-790529
-1.95673e+07
1.10747e+06
4.97504e+07
-4.47034e+06
817019
-730470
-1.4418e+06
-961241
-1.7789e+07
1.34421e+06
4.76757e+07
-4.08736e+06
849466
-1.25098e+06
-1.04029e+06
-993390
-1.59462e+07
1.50389e+06
4.49208e+07
-3.57686e+06
974894
-1.75526e+06
-259921
-1.18471e+06
-1.37866e+07
1.50151e+06
4.1664e+07
-3.26005e+06
1.12429e+06
-2.12367e+06
739457
-1.13553e+06
-1.15267e+07
1.49749e+06
3.80429e+07
-2.89809e+06
1.23209e+06
-2.39063e+06
1.89799e+06
-1.1185e+06
-9.17614e+06
1.42003e+06
3.42322e+07
-2.59657e+06
1.28232e+06
-2.54229e+06
3.15795e+06
-1.04475e+06
-6.84907e+06
1.32208e+06
3.03679e+07
-2.31924e+06
1.27664e+06
-2.56544e+06
4.44675e+06
-979918
-4.59252e+06
1.20774e+06
2.65947e+07
-2.09141e+06
1.2243e+06
-2.47716e+06
5.69962e+06
-866629
-2.50159e+06
1.08217e+06
2.30354e+07
-1.87587e+06
1.14646e+06
-2.30634e+06
6.85949e+06
-752924
-602205
968878
1.97601e+07
-1.65992e+06
1.11845e+06
-2.08311e+06
7.82415e+06
-632938
1.14919e+06
853203
1.68238e+07
-1.43966e+06
1.06406e+06
-1.83246e+06
8.59255e+06
-485074
2.69831e+06
753678
1.42377e+07
-1.17105e+06
1.00131e+06
-1.57544e+06
9.16667e+06
-331624
4.03125e+06
653197
1.20091e+07
-849481
934629
-1.32676e+06
9.5588e+06
-193988
5.15987e+06
569377
1.01129e+07
-474091
862618
-1.09762e+06
9.7938e+06
-56727.9
6.07922e+06
486729
8.52857e+06
-44086.9
788888
-892354
9.89726e+06
90001.1
6.7781e+06
392759
7.24345e+06
438677
717121
-716009
9.89615e+06
166475
7.32875e+06
341000
6.18645e+06
946157
650093
-564523
9.81058e+06
177672
7.80117e+06
319910
5.30201e+06
1.44374e+06
587101
-443726
9.66721e+06
206688
8.18158e+06
272373
4.58591e+06
1.9228e+06
531846
-340520
9.47588e+06
238635
8.4748e+06
220355
4.02504e+06
2.38179e+06
479409
-266663
9.26314e+06
255599
8.69861e+06
167419
3.59096e+06
2.80481e+06
429417
-200450
9.03417e+06
269319
8.85871e+06
117357
3.27315e+06
3.19148e+06
389100
-160801
8.80587e+06
275719
8.97209e+06
74785.2
3.03757e+06
3.54199e+06
356544
-121681
8.57101e+06
270564
9.05807e+06
36416.5
2.87947e+06
3.84897e+06
309557
-104154
8.3656e+06
278988
9.08864e+06
4029.68
2.77129e+06
4.13198e+06
276153
-81550.1
8.171e+06
269807
9.09498e+06
-21914.2
2.71165e+06
4.37987e+06
227554
-71627
8.01507e+06
270143
9.05239e+06
-42271.9
2.68229e+06
4.60774e+06
221295
-49980.8
7.84376e+06
258311
9.01538e+06
-72696
2.70501e+06
4.79336e+06
207773
-55158.1
7.69114e+06
261739
8.96141e+06
-79399.8
2.72925e+06
4.9757e+06
145648
-11892.6
268428
-133920
)
;

boundaryField
{
    inlet
    {
        type            calculated;
        value           nonuniform List<scalar> 4(7.55739e+06 2.85127e+06 8.83863e+06 5.1102e+06);
    }
    outlet
    {
        type            calculated;
        value           nonuniform List<scalar> 4(-6.15297e+06 -6.12601e+06 -6.04198e+06 -6.03653e+06);
    }
    repeat_boundary
    {
        type            calculated;
        value           uniform 0;
    }
}


// ************************************************************************* //
