/*--------------------------------*- C++ -*----------------------------------*\
| =========                 |                                                 |
| \\      /  F ield         | OpenFOAM: The Open Source CFD Toolbox           |
|  \\    /   O peration     | Version:  5.x                                   |
|   \\  /    A nd           | Web:      www.OpenFOAM.org                      |
|    \\/     M anipulation  |                                                 |
\*---------------------------------------------------------------------------*/
FoamFile
{
    version     2.0;
    format      ascii;
    class       surfaceScalarField;
    location    "9000";
    object      phi;
}
// * * * * * * * * * * * * * * * * * * * * * * * * * * * * * * * * * * * * * //

dimensions      [0 3 -1 0 0 0 0];

internalField   nonuniform List<scalar> 
179
(
3.07013e+07
3.06989e+07
3.06961e+07
3.0692e+07
3.06878e+07
3.06835e+07
3.06784e+07
3.0671e+07
3.066e+07
3.06469e+07
3.06277e+07
3.06003e+07
3.05663e+07
3.05265e+07
3.04766e+07
3.04206e+07
3.03577e+07
3.02859e+07
3.02108e+07
3.01338e+07
3.00569e+07
2.99851e+07
2.99203e+07
2.98629e+07
2.98201e+07
2.97778e+07
2.97428e+07
2.97132e+07
2.96888e+07
2.96693e+07
2.96534e+07
2.96495e+07
2.96486e+07
2.96536e+07
2.96619e+07
2.96729e+07
2.96889e+07
2.97083e+07
2.97318e+07
2.97585e+07
2.9787e+07
2.98148e+07
2.98441e+07
2.98771e+07
2.99095e+07
2.99444e+07
2.99844e+07
3.00291e+07
3.0075e+07
3.0124e+07
3.01772e+07
3.0237e+07
3.02953e+07
3.03553e+07
3.04176e+07
3.04848e+07
3.05504e+07
3.06143e+07
3.06756e+07
3.07377e+07
3.0799e+07
3.08599e+07
3.09216e+07
3.09835e+07
3.10442e+07
3.11049e+07
3.11649e+07
3.12235e+07
3.12801e+07
3.1335e+07
3.13881e+07
3.14409e+07
3.14923e+07
3.15448e+07
3.16003e+07
3.16569e+07
3.17159e+07
3.1778e+07
3.18446e+07
3.1911e+07
3.19809e+07
3.20562e+07
3.21317e+07
3.22073e+07
3.22807e+07
3.23495e+07
3.2411e+07
3.24646e+07
3.25063e+07
3.25384e+07
3.2563e+07
3.25788e+07
3.25865e+07
3.25894e+07
3.259e+07
3.2588e+07
3.25826e+07
3.25723e+07
3.25573e+07
3.25401e+07
3.25168e+07
3.2492e+07
3.24648e+07
3.2438e+07
3.24086e+07
3.23758e+07
3.23398e+07
3.2302e+07
3.22636e+07
3.22249e+07
3.21869e+07
3.21536e+07
3.21384e+07
3.21572e+07
3.22195e+07
3.23293e+07
3.24933e+07
3.26963e+07
3.29262e+07
3.31623e+07
3.34026e+07
3.36371e+07
3.38711e+07
3.40795e+07
3.42686e+07
3.44454e+07
3.45869e+07
3.47277e+07
3.48718e+07
3.49987e+07
3.51204e+07
3.52476e+07
3.53759e+07
3.55049e+07
3.56053e+07
3.56942e+07
3.57285e+07
3.56982e+07
3.56419e+07
3.55282e+07
3.53831e+07
3.52172e+07
3.50158e+07
3.47987e+07
3.4567e+07
3.43241e+07
3.40706e+07
3.37825e+07
3.34583e+07
3.31003e+07
3.2719e+07
3.23234e+07
3.19214e+07
3.15221e+07
3.11294e+07
3.07471e+07
3.03788e+07
3.00273e+07
2.96972e+07
2.93878e+07
2.91019e+07
2.88404e+07
2.86061e+07
2.83998e+07
2.82287e+07
2.80947e+07
2.80058e+07
2.79648e+07
2.79756e+07
2.80356e+07
2.81424e+07
2.82844e+07
2.8449e+07
2.8632e+07
2.8804e+07
2.89647e+07
2.90732e+07
2.91449e+07
2.91861e+07
)
;

boundaryField
{
    inlet
    {
        type            calculated;
        value           uniform 2.91832e+07;
    }
    outlet
    {
        type            calculated;
        value           uniform -3.07033e+07;
    }
    repeat_boundary
    {
        type            calculated;
        value           uniform 0;
    }
    procBoundary1to0
    {
        type            processor;
        value           nonuniform List<scalar> 
180
(
1936.24
1918.06
2061.9
2416.47
2391.09
2193.93
2640.25
2985.88
5028.52
6863.09
11995.5
16313.3
19490.4
22228.6
30419.7
35117.1
38310.4
42325.2
43311.5
43267.9
41062.6
37253.4
33788
29635.9
21738.3
21253.8
15955.7
11060.5
7775.61
4723.9
1865.84
-5576.33
-8208.25
-12412.5
-15558.3
-16829.3
-17472.7
-17952.6
-19354.3
-20246.8
-21069.2
-21740.2
-21977.3
-22707.6
-22143.1
-23784.9
-25880.7
-28148.5
-29016.8
-30544.3
-32114.2
-35735
-35837.5
-38058.7
-39043.7
-41835.8
-41913.5
-41496
-40566
-39316
-39509.3
-38921.6
-37885.4
-37281.9
-37076.1
-36805.1
-36965.2
-34892.2
-33594.6
-31107.7
-28286.2
-25941.6
-23328.5
-21142.3
-19477.6
-17775.5
-16941.8
-16617.1
-14285.3
-8928.66
-8196.78
-8273.51
-6358.58
-5455.87
-5763.8
-5452.65
-4897.58
-5065.13
-2382.6
-617.034
418.809
1740.26
3538.47
4581.52
4417.75
4371.04
5482.49
6935.16
9554.85
10564.8
12864.1
12301.1
12593.6
12922.7
14009.3
13446.4
11207.5
11185.2
10004
11974.5
11681.9
8581.01
850.027
-5338.5
-11113.6
-16241.2
-29010.9
-35822.8
-41507.5
-41901.9
-46236.4
-50162.1
-58960.9
-58300.7
-63693.3
-73533.4
-73152.7
-90879.3
-108918
-117092
-129847
-148710
-165939
-180057
-171414
-164871
-134649
-90198.1
-76622
-29853.2
-11967.1
-3370.22
17646.8
22129
28989.7
30423.3
33285.5
61411.4
95519.6
128468
154600
174342
186707
195105
197307
198934
195978
195894
192549
194634
194090
197870
200436
207753
211095
218302
221086
223947
223473
220217
214414
206070
195740
181483
168314
155863
143200
139835
127824
127133
)
;
    }
    procBoundary1to3
    {
        type            processor;
        value           nonuniform List<scalar> 
180
(
59.1739
479.798
739.308
1688.22
1843.99
2094.86
2513.99
4410.44
5905.71
6302.71
7206.07
11060.3
14515.2
17578.9
19435.3
20862.6
24619.5
29448.3
31850.3
33685.6
35859
34536.3
30971.9
27784.5
21076.7
21060.9
19045.5
18531.7
16623.3
14734.9
14092.2
9490.41
9120.7
7404.59
7223.1
5834.7
1489.2
-1469.17
-4108.96
-6495.9
-7374.28
-6095.93
-7294.58
-10283.7
-10303.9
-11108.4
-14171.1
-16551.3
-16793.2
-18506.7
-21101.1
-24060.4
-22439
-21959.5
-23278.3
-25322.4
-23731.6
-22410.7
-20705.8
-22729.6
-21873.7
-21951.4
-23799.9
-24657.4
-23575
-23929.8
-22982.2
-23690.7
-23077.7
-23748.4
-24864.8
-26803.6
-28056
-31439.4
-35980.2
-38812.8
-42087.5
-45419.8
-52343.1
-57462.1
-61695.1
-67069.8
-69137.3
-70168.3
-67631.6
-63334.7
-56571.5
-48506.4
-39377.2
-31475.3
-24993.6
-17543.1
-11264.6
-7453.99
-5066.5
-2343.05
-52.2757
3369.98
5453.22
6576
10420
12492.9
14660.4
13914.3
15343.6
19306.5
24837.5
26607.9
28365.9
26722.5
26389.1
24648.7
14388.8
-13505.2
-51101.9
-93581
-135050
-167113
-188404
-194207
-194104
-184309
-174991
-150162
-125347
-103305
-68389.8
-49868.3
-35145.2
-9865.53
8126.23
21565.1
37594.1
51097.2
71022.9
75961.7
100339
120503
132959
143534
157039
169277
183752
194957
202758
212424
220275
226662
228638
229543
226738
221231
215261
204248
195367
183329
172344
155596
137549
114803
91810.2
63586
33867.7
-1441.04
-39971.3
-84339.8
-132146
-182922
-234280
-280246
-321175
-348097
-360303
-364530
-340351
-316507
-251757
-211487
-169019
-124276
)
;
    }
}


// ************************************************************************* //
