/*--------------------------------*- C++ -*----------------------------------*\
| =========                 |                                                 |
| \\      /  F ield         | OpenFOAM: The Open Source CFD Toolbox           |
|  \\    /   O peration     | Version:  5.x                                   |
|   \\  /    A nd           | Web:      www.OpenFOAM.org                      |
|    \\/     M anipulation  |                                                 |
\*---------------------------------------------------------------------------*/
FoamFile
{
    version     2.0;
    format      ascii;
    class       volVectorField;
    location    "9000";
    object      stored_U;
}
// * * * * * * * * * * * * * * * * * * * * * * * * * * * * * * * * * * * * * //

dimensions      [0 1 -1 0 0 0 0];

internalField   nonuniform List<vector> 
180
(
(-0.0757268 -0.000743152 122.878)
(-0.0731778 -0.00459545 122.933)
(-0.0920509 0.0312887 122.855)
(-0.104053 0.0470404 122.846)
(-0.116357 0.103208 122.903)
(-0.129411 0.139812 122.749)
(-0.127545 0.173079 122.804)
(-0.0948479 0.217089 122.75)
(-0.0736499 0.217965 122.682)
(-0.184265 0.271095 122.69)
(-0.353827 0.373365 122.493)
(-0.54887 0.527504 122.483)
(-0.719243 0.64463 122.222)
(-0.936339 0.798204 122.169)
(-1.37806 0.919529 121.762)
(-1.46722 1.02108 121.646)
(-1.62049 1.11263 121.439)
(-1.66414 1.27257 120.971)
(-1.54813 1.33383 120.751)
(-1.28738 1.27132 120.39)
(-0.952915 1.10195 120.124)
(-0.505534 0.823011 119.747)
(-0.0794043 0.47515 119.564)
(0.398824 0.097939 119.234)
(0.945057 -0.344306 119.012)
(0.986138 -0.390928 119.003)
(1.41158 -0.717837 118.797)
(1.47728 -0.750849 118.705)
(1.68051 -0.914504 118.644)
(1.81486 -1.01431 118.597)
(1.89991 -1.1021 118.491)
(2.42416 -1.36937 118.626)
(2.46844 -1.38462 118.51)
(2.7373 -1.53024 118.681)
(2.78136 -1.57923 118.686)
(2.80869 -1.61123 118.752)
(2.82097 -1.64328 118.851)
(2.85955 -1.6954 118.916)
(2.97527 -1.78116 119.058)
(3.03757 -1.83707 119.259)
(3.01266 -1.84854 119.205)
(2.92395 -1.86982 119.501)
(2.94237 -1.88621 119.49)
(2.91378 -1.77191 119.774)
(2.92416 -1.74222 119.852)
(2.97111 -1.79616 119.908)
(2.8389 -1.72627 120.272)
(2.85819 -1.67807 120.237)
(2.87699 -1.56197 120.609)
(2.92539 -1.64097 120.721)
(2.96333 -1.67982 120.87)
(3.01829 -1.62839 121.122)
(2.95176 -1.36689 121.5)
(3.00748 -1.30614 121.614)
(2.94049 -1.10929 121.916)
(2.92911 -0.983483 122.188)
(2.81247 -0.726661 122.443)
(2.74801 -0.647169 122.744)
(2.56913 -0.653819 122.971)
(2.56343 -0.600725 123.143)
(2.59776 -0.473363 123.432)
(2.47132 -0.617367 123.653)
(2.30621 -0.717742 123.933)
(2.34734 -0.630138 124.175)
(2.4284 -0.47667 124.496)
(2.49448 -0.444817 124.601)
(2.50328 -0.40782 124.899)
(2.40624 -0.468189 125.122)
(2.30463 -0.459515 125.373)
(2.2252 -0.53248 125.558)
(2.10481 -0.577484 125.771)
(1.95896 -0.521868 125.994)
(1.85587 -0.510137 126.162)
(1.74617 -0.733639 126.416)
(1.6721 -0.958673 126.572)
(1.67073 -0.947526 126.886)
(1.67116 -0.933208 127.034)
(1.70681 -1.21688 127.305)
(1.72797 -1.58873 127.655)
(1.68299 -1.71573 127.854)
(1.70734 -1.9769 128.135)
(1.77078 -2.48511 128.474)
(1.78051 -2.95974 128.778)
(1.9281 -3.45411 129.102)
(1.9721 -3.731 129.326)
(2.04833 -3.90239 129.707)
(2.07981 -4.00599 129.838)
(2.04569 -4.00859 130.058)
(1.93626 -4.00179 130.248)
(1.9379 -4.11474 130.343)
(1.98997 -4.1394 130.508)
(1.95663 -4.16677 130.431)
(1.95275 -4.19373 130.462)
(1.89518 -4.13796 130.598)
(1.88095 -4.13961 130.432)
(1.87388 -4.09591 130.517)
(1.79999 -4.01089 130.483)
(1.7334 -3.95237 130.351)
(1.71635 -3.94688 130.332)
(1.69734 -3.75415 130.218)
(1.53839 -3.4273 130.174)
(1.44553 -3.30793 129.956)
(1.44418 -3.3037 129.902)
(1.4839 -3.35661 129.836)
(1.50019 -2.96371 129.636)
(1.61555 -2.48259 129.461)
(1.62831 -2.15806 129.417)
(1.55863 -2.0922 129.186)
(1.68667 -1.86463 129.041)
(1.68302 -1.82652 128.856)
(2.07117 -1.84884 128.837)
(2.57467 -2.38721 128.506)
(3.20493 -3.54434 128.62)
(3.67322 -4.92675 128.697)
(4.2364 -6.44261 129.036)
(4.91581 -8.23664 129.582)
(5.8478 -10.0717 130.299)
(6.10275 -11.4327 131.294)
(6.48585 -12.553 132.213)
(6.47807 -13.2677 133.214)
(7.02652 -14.365 134.215)
(7.6551 -15.3409 135.074)
(8.60703 -16.439 136.147)
(8.71117 -16.5803 136.878)
(9.38207 -17.4725 137.486)
(9.85195 -18.0438 138.384)
(10.1204 -18.3866 138.677)
(12.7462 -20.6508 139.458)
(13.6078 -21.3651 139.913)
(14.2014 -21.8276 140.488)
(15.794 -23.2041 140.811)
(17.2552 -24.223 141.607)
(18.4315 -25.0072 141.933)
(19.5514 -25.724 142.495)
(20.5044 -26.3064 142.91)
(22.0162 -27.5347 143.161)
(22.7822 -28.0785 143.358)
(22.5838 -27.9117 143.122)
(22.7819 -28.1007 142.974)
(23.3153 -28.5706 142.49)
(23.3909 -28.6666 141.724)
(23.9205 -29.1127 140.966)
(23.8717 -29.1417 140.055)
(24.5016 -29.8077 139.065)
(24.9568 -30.2206 138.056)
(25.1739 -30.417 137.174)
(25.4897 -30.6594 135.897)
(25.9923 -31.1539 134.846)
(26.594 -31.7168 133.323)
(27.131 -32.3421 131.941)
(27.7499 -32.9866 130.205)
(28.2049 -33.6994 128.623)
(28.6632 -34.2588 126.938)
(28.8936 -34.7758 125.324)
(29.1228 -35.0541 123.736)
(29.0504 -35.2299 122.194)
(28.9676 -35.1508 120.747)
(28.4431 -34.8694 119.353)
(27.8866 -34.2749 118.068)
(26.8775 -33.4034 116.868)
(25.9274 -32.2132 115.749)
(24.5342 -30.6799 114.777)
(23.2859 -28.8896 113.863)
(21.8874 -27.0101 113.144)
(20.8167 -25.3334 112.493)
(19.7666 -23.9267 112.095)
(19.1415 -22.9298 111.805)
(18.5976 -22.3479 111.804)
(18.4786 -21.8822 111.927)
(18.5409 -21.6805 112.371)
(18.6934 -21.3601 112.825)
(19.1793 -21.0455 113.675)
(19.7016 -20.9149 114.26)
(20.3769 -20.6746 115.175)
(20.7519 -20.2121 115.98)
(21.2593 -19.6362 116.567)
(21.4328 -18.8404 117.065)
(21.546 -18.4724 117.328)
(21.8935 -18.2405 117.595)
(21.9279 -17.2928 117.518)
)
;

boundaryField
{
    inlet
    {
        type            calculated;
        value           uniform (21.9279 -17.2928 117.518);
    }
    outlet
    {
        type            calculated;
        value           uniform (-0.0757268 -0.000743152 122.878);
    }
    repeat_boundary
    {
        type            calculated;
        value           nonuniform List<vector> 
360
(
(-0.0757268 0 122.878)
(-0.0731778 0 122.933)
(-0.0920509 0 122.855)
(-0.104053 0 122.846)
(-0.116357 0 122.903)
(-0.129411 0 122.749)
(-0.127545 0 122.804)
(-0.0948479 0 122.75)
(-0.0736499 0 122.682)
(-0.184265 0 122.69)
(-0.353827 0 122.493)
(-0.54887 0 122.483)
(-0.719243 0 122.222)
(-0.936339 0 122.169)
(-1.37806 0 121.762)
(-1.46722 0 121.646)
(-1.62049 0 121.439)
(-1.66414 0 120.971)
(-1.54813 0 120.751)
(-1.28738 0 120.39)
(-0.952915 0 120.124)
(-0.505534 0 119.747)
(-0.0794043 0 119.564)
(0.398824 0 119.234)
(0.945057 0 119.012)
(0.986138 0 119.003)
(1.41158 0 118.797)
(1.47728 0 118.705)
(1.68051 0 118.644)
(1.81486 0 118.597)
(1.89991 0 118.491)
(2.42416 0 118.626)
(2.46844 0 118.51)
(2.7373 0 118.681)
(2.78136 0 118.686)
(2.80869 0 118.752)
(2.82097 0 118.851)
(2.85955 0 118.916)
(2.97527 0 119.058)
(3.03757 0 119.259)
(3.01266 0 119.205)
(2.92395 0 119.501)
(2.94237 0 119.49)
(2.91378 0 119.774)
(2.92416 0 119.852)
(2.97111 0 119.908)
(2.8389 0 120.272)
(2.85819 0 120.237)
(2.87699 0 120.609)
(2.92539 0 120.721)
(2.96333 0 120.87)
(3.01829 0 121.122)
(2.95176 0 121.5)
(3.00748 0 121.614)
(2.94049 0 121.916)
(2.92911 0 122.188)
(2.81247 0 122.443)
(2.74801 0 122.744)
(2.56913 0 122.971)
(2.56343 0 123.143)
(2.59776 0 123.432)
(2.47132 0 123.653)
(2.30621 0 123.933)
(2.34734 0 124.175)
(2.4284 0 124.496)
(2.49448 0 124.601)
(2.50328 0 124.899)
(2.40624 0 125.122)
(2.30463 0 125.373)
(2.2252 0 125.558)
(2.10481 0 125.771)
(1.95896 0 125.994)
(1.85587 0 126.162)
(1.74617 0 126.416)
(1.6721 0 126.572)
(1.67073 0 126.886)
(1.67116 0 127.034)
(1.70681 0 127.305)
(1.72797 0 127.655)
(1.68299 0 127.854)
(1.70734 0 128.135)
(1.77078 0 128.474)
(1.78051 0 128.778)
(1.9281 0 129.102)
(1.9721 0 129.326)
(2.04833 0 129.707)
(2.07981 0 129.838)
(2.04569 0 130.058)
(1.93626 0 130.248)
(1.9379 0 130.343)
(1.98997 0 130.508)
(1.95663 0 130.431)
(1.95275 0 130.462)
(1.89518 0 130.598)
(1.88095 0 130.432)
(1.87388 0 130.517)
(1.79999 0 130.483)
(1.7334 0 130.351)
(1.71635 0 130.332)
(1.69734 0 130.218)
(1.53839 0 130.174)
(1.44553 0 129.956)
(1.44418 0 129.902)
(1.4839 0 129.836)
(1.50019 0 129.636)
(1.61555 0 129.461)
(1.62831 0 129.417)
(1.55863 0 129.186)
(1.68667 0 129.041)
(1.68302 0 128.856)
(2.07117 0 128.837)
(2.57467 0 128.506)
(3.20493 0 128.62)
(3.67322 0 128.697)
(4.2364 0 129.036)
(4.91581 0 129.582)
(5.8478 0 130.299)
(6.10275 0 131.294)
(6.48585 0 132.213)
(6.47807 0 133.214)
(7.02652 0 134.215)
(7.6551 0 135.074)
(8.60703 0 136.147)
(8.71117 0 136.878)
(9.38207 0 137.486)
(9.85195 0 138.384)
(10.1204 0 138.677)
(12.7462 0 139.458)
(13.6078 0 139.913)
(14.2014 0 140.488)
(15.794 0 140.811)
(17.2552 0 141.607)
(18.4315 0 141.933)
(19.5514 0 142.495)
(20.5044 0 142.91)
(22.0162 0 143.161)
(22.7822 0 143.358)
(22.5838 0 143.122)
(22.7819 0 142.974)
(23.3153 0 142.49)
(23.3909 0 141.724)
(23.9205 0 140.966)
(23.8717 0 140.055)
(24.5016 0 139.065)
(24.9568 0 138.056)
(25.1739 0 137.174)
(25.4897 0 135.897)
(25.9923 0 134.846)
(26.594 0 133.323)
(27.131 0 131.941)
(27.7499 0 130.205)
(28.2049 0 128.623)
(28.6632 0 126.938)
(28.8936 0 125.324)
(29.1228 0 123.736)
(29.0504 0 122.194)
(28.9676 0 120.747)
(28.4431 0 119.353)
(27.8866 0 118.068)
(26.8775 0 116.868)
(25.9274 0 115.749)
(24.5342 0 114.777)
(23.2859 0 113.863)
(21.8874 0 113.144)
(20.8167 0 112.493)
(19.7666 0 112.095)
(19.1415 0 111.805)
(18.5976 0 111.804)
(18.4786 0 111.927)
(18.5409 0 112.371)
(18.6934 0 112.825)
(19.1793 0 113.675)
(19.7016 0 114.26)
(20.3769 0 115.175)
(20.7519 0 115.98)
(21.2593 0 116.567)
(21.4328 0 117.065)
(21.546 0 117.328)
(21.8935 0 117.595)
(21.9279 0 117.518)
(0 -0.000743152 122.878)
(0 -0.00459545 122.933)
(0 0.0312887 122.855)
(0 0.0470404 122.846)
(0 0.103208 122.903)
(0 0.139812 122.749)
(0 0.173079 122.804)
(0 0.217089 122.75)
(0 0.217965 122.682)
(0 0.271095 122.69)
(0 0.373365 122.493)
(0 0.527504 122.483)
(0 0.64463 122.222)
(0 0.798204 122.169)
(0 0.919529 121.762)
(0 1.02108 121.646)
(0 1.11263 121.439)
(0 1.27257 120.971)
(0 1.33383 120.751)
(0 1.27132 120.39)
(0 1.10195 120.124)
(0 0.823011 119.747)
(0 0.47515 119.564)
(0 0.097939 119.234)
(0 -0.344306 119.012)
(0 -0.390928 119.003)
(0 -0.717837 118.797)
(0 -0.750849 118.705)
(0 -0.914504 118.644)
(0 -1.01431 118.597)
(0 -1.1021 118.491)
(0 -1.36937 118.626)
(0 -1.38462 118.51)
(0 -1.53024 118.681)
(0 -1.57923 118.686)
(0 -1.61123 118.752)
(0 -1.64328 118.851)
(0 -1.6954 118.916)
(0 -1.78116 119.058)
(0 -1.83707 119.259)
(0 -1.84854 119.205)
(0 -1.86982 119.501)
(0 -1.88621 119.49)
(0 -1.77191 119.774)
(0 -1.74222 119.852)
(0 -1.79616 119.908)
(0 -1.72627 120.272)
(0 -1.67807 120.237)
(0 -1.56197 120.609)
(0 -1.64097 120.721)
(0 -1.67982 120.87)
(0 -1.62839 121.122)
(0 -1.36689 121.5)
(0 -1.30614 121.614)
(0 -1.10929 121.916)
(0 -0.983483 122.188)
(0 -0.726661 122.443)
(0 -0.647169 122.744)
(0 -0.653819 122.971)
(0 -0.600725 123.143)
(0 -0.473363 123.432)
(0 -0.617367 123.653)
(0 -0.717742 123.933)
(0 -0.630138 124.175)
(0 -0.47667 124.496)
(0 -0.444817 124.601)
(0 -0.40782 124.899)
(0 -0.468189 125.122)
(0 -0.459515 125.373)
(0 -0.53248 125.558)
(0 -0.577484 125.771)
(0 -0.521868 125.994)
(0 -0.510137 126.162)
(0 -0.733639 126.416)
(0 -0.958673 126.572)
(0 -0.947526 126.886)
(0 -0.933208 127.034)
(0 -1.21688 127.305)
(0 -1.58873 127.655)
(0 -1.71573 127.854)
(0 -1.9769 128.135)
(0 -2.48511 128.474)
(0 -2.95974 128.778)
(0 -3.45411 129.102)
(0 -3.731 129.326)
(0 -3.90239 129.707)
(0 -4.00599 129.838)
(0 -4.00859 130.058)
(0 -4.00179 130.248)
(0 -4.11474 130.343)
(0 -4.1394 130.508)
(0 -4.16677 130.431)
(0 -4.19373 130.462)
(0 -4.13796 130.598)
(0 -4.13961 130.432)
(0 -4.09591 130.517)
(0 -4.01089 130.483)
(0 -3.95237 130.351)
(0 -3.94688 130.332)
(0 -3.75415 130.218)
(0 -3.4273 130.174)
(0 -3.30793 129.956)
(0 -3.3037 129.902)
(0 -3.35661 129.836)
(0 -2.96371 129.636)
(0 -2.48259 129.461)
(0 -2.15806 129.417)
(0 -2.0922 129.186)
(0 -1.86463 129.041)
(0 -1.82652 128.856)
(0 -1.84884 128.837)
(0 -2.38721 128.506)
(0 -3.54434 128.62)
(0 -4.92675 128.697)
(0 -6.44261 129.036)
(0 -8.23664 129.582)
(0 -10.0717 130.299)
(0 -11.4327 131.294)
(0 -12.553 132.213)
(0 -13.2677 133.214)
(0 -14.365 134.215)
(0 -15.3409 135.074)
(0 -16.439 136.147)
(0 -16.5803 136.878)
(0 -17.4725 137.486)
(0 -18.0438 138.384)
(0 -18.3866 138.677)
(0 -20.6508 139.458)
(0 -21.3651 139.913)
(0 -21.8276 140.488)
(0 -23.2041 140.811)
(0 -24.223 141.607)
(0 -25.0072 141.933)
(0 -25.724 142.495)
(0 -26.3064 142.91)
(0 -27.5347 143.161)
(0 -28.0785 143.358)
(0 -27.9117 143.122)
(0 -28.1007 142.974)
(0 -28.5706 142.49)
(0 -28.6666 141.724)
(0 -29.1127 140.966)
(0 -29.1417 140.055)
(0 -29.8077 139.065)
(0 -30.2206 138.056)
(0 -30.417 137.174)
(0 -30.6594 135.897)
(0 -31.1539 134.846)
(0 -31.7168 133.323)
(0 -32.3421 131.941)
(0 -32.9866 130.205)
(0 -33.6994 128.623)
(0 -34.2588 126.938)
(0 -34.7758 125.324)
(0 -35.0541 123.736)
(0 -35.2299 122.194)
(0 -35.1508 120.747)
(0 -34.8694 119.353)
(0 -34.2749 118.068)
(0 -33.4034 116.868)
(0 -32.2132 115.749)
(0 -30.6799 114.777)
(0 -28.8896 113.863)
(0 -27.0101 113.144)
(0 -25.3334 112.493)
(0 -23.9267 112.095)
(0 -22.9298 111.805)
(0 -22.3479 111.804)
(0 -21.8822 111.927)
(0 -21.6805 112.371)
(0 -21.3601 112.825)
(0 -21.0455 113.675)
(0 -20.9149 114.26)
(0 -20.6746 115.175)
(0 -20.2121 115.98)
(0 -19.6362 116.567)
(0 -18.8404 117.065)
(0 -18.4724 117.328)
(0 -18.2405 117.595)
(0 -17.2928 117.518)
)
;
    }
    procBoundary1to0
    {
        type            processor;
        value           nonuniform List<vector> 
180
(
(-0.0782562 -0.0332324 123.551)
(-0.0892937 -0.0107181 123.62)
(-0.0985876 0.0143751 123.653)
(-0.110679 0.0394214 123.596)
(-0.091275 0.0919473 123.678)
(-0.102775 0.136738 123.585)
(-0.102294 0.184044 123.617)
(-0.160553 0.157659 123.608)
(-0.426343 -0.039493 123.594)
(-0.645221 -0.0748447 123.648)
(-0.980107 -0.190788 123.645)
(-1.00942 -0.151646 123.717)
(-1.03533 -0.15127 123.792)
(-1.2735 -0.0933439 123.886)
(-1.58758 -0.247451 124.078)
(-1.66609 -0.271717 124.152)
(-1.68911 -0.163593 124.295)
(-1.88895 -0.0642818 124.577)
(-1.93638 -0.0609037 124.665)
(-2.06853 -0.06291 124.829)
(-2.28869 0.037553 125.168)
(-2.31358 -0.00869953 125.105)
(-2.35211 0.00678345 125.367)
(-2.33241 0.103393 125.396)
(-2.35025 0.083731 125.466)
(-2.32939 0.0202522 125.605)
(-2.12872 0.0583829 125.626)
(-2.02759 -0.00408053 125.651)
(-1.98483 0.00239501 125.605)
(-1.92072 -0.0321462 125.694)
(-1.58068 0.10087 125.609)
(-1.52889 0.100683 125.523)
(-1.44178 0.172858 125.497)
(-1.31595 0.217785 125.37)
(-1.37113 0.063987 125.214)
(-1.41841 -0.160113 125.106)
(-1.41712 -0.439697 124.974)
(-1.36373 -0.435469 124.928)
(-1.36441 -0.455931 124.885)
(-1.26903 -0.623397 124.743)
(-1.2015 -0.828574 124.596)
(-1.15724 -0.984488 124.549)
(-1.15667 -1.06129 124.476)
(-1.16075 -1.08147 124.413)
(-1.01485 -1.0011 124.463)
(-0.943385 -1.01431 124.26)
(-0.908983 -1.06392 124.232)
(-0.642061 -0.853035 124.161)
(-0.60058 -0.889347 124.051)
(-0.438192 -0.832925 124.021)
(-0.307229 -0.763572 123.887)
(-0.139647 -0.718765 123.734)
(-0.0959194 -0.703502 123.663)
(0.15333 -0.409172 123.402)
(0.270497 -0.351022 123.389)
(0.507749 -0.0183654 123.096)
(0.53579 -0.0650511 122.951)
(0.663285 0.127323 122.875)
(0.542092 -0.00197851 122.559)
(0.457505 -0.155069 122.423)
(0.446451 -0.208214 122.396)
(0.562019 -0.0964095 122.153)
(0.584571 -0.0976456 122.021)
(0.520493 -0.207809 121.884)
(0.61826 -0.101144 121.753)
(0.373858 -0.437348 121.48)
(0.320729 -0.49417 121.398)
(0.227054 -0.669758 121.202)
(0.248721 -0.661629 121.122)
(0.0208308 -1.07385 120.908)
(-0.0282161 -1.10469 120.898)
(-0.0534859 -1.11391 120.828)
(-0.18226 -1.27422 120.82)
(-0.227012 -1.2906 120.712)
(-0.322429 -1.358 120.744)
(-0.335291 -1.30319 120.744)
(-0.323153 -1.25895 120.726)
(-0.494272 -1.47214 120.775)
(-0.852191 -1.91895 120.649)
(-1.15597 -2.31397 120.931)
(-1.16526 -2.34179 120.924)
(-1.1987 -2.33195 120.994)
(-1.33513 -2.51279 121.232)
(-1.43598 -2.65543 121.289)
(-1.41564 -2.72085 121.32)
(-1.60182 -2.97452 121.679)
(-1.68546 -3.03372 121.657)
(-1.67074 -3.14229 121.891)
(-1.77061 -3.20304 122.102)
(-1.87476 -3.41031 122.235)
(-1.97922 -3.53319 122.514)
(-2.14835 -3.73134 122.66)
(-2.20354 -3.94717 122.934)
(-2.20737 -3.98005 123.197)
(-2.23019 -3.8986 123.42)
(-2.24502 -3.8612 123.65)
(-2.33182 -4.15384 123.941)
(-2.40176 -4.37343 124.244)
(-2.59958 -4.65081 124.586)
(-2.68182 -4.72937 124.897)
(-2.63602 -4.71429 125.207)
(-2.38004 -4.76873 125.661)
(-2.44188 -4.84049 125.939)
(-2.53892 -4.9643 126.298)
(-2.65035 -5.10514 126.668)
(-2.56804 -5.13418 127.009)
(-2.4095 -5.26839 127.389)
(-2.39287 -5.43992 127.744)
(-2.49308 -5.56981 128.052)
(-2.69287 -5.73573 128.541)
(-2.75062 -5.74417 128.714)
(-2.73753 -5.7894 128.912)
(-2.6705 -5.78888 129.264)
(-2.74354 -5.72018 129.413)
(-2.87059 -5.69667 129.471)
(-2.88929 -5.69313 129.573)
(-2.6285 -5.0292 129.808)
(-2.65592 -4.76188 129.755)
(-2.82445 -4.53175 129.875)
(-2.82309 -4.45172 129.943)
(-2.84252 -4.39753 130.035)
(-3.02811 -3.81768 130.163)
(-3.4505 -3.33317 130.218)
(-3.68428 -3.35958 130.181)
(-3.70478 -3.34389 130.199)
(-3.51564 -3.15524 130.197)
(-3.50971 -2.881 130.076)
(-3.56674 -2.78073 129.86)
(-3.85651 -2.58027 129.464)
(-3.87431 -2.28096 129.148)
(-3.98969 -2.00239 128.516)
(-3.8463 -1.6178 127.975)
(-3.71248 -1.37214 127.374)
(-4.94139 -0.793298 126.214)
(-7.32052 0.108069 125.463)
(-10.1415 1.00222 124.463)
(-12.9905 1.57088 123.776)
(-16.295 2.32939 122.686)
(-18.5873 2.53372 122.448)
(-23.3346 3.33531 121.096)
(-23.7616 3.17733 121.297)
(-24.8502 3.28637 120.888)
(-25.9693 3.14513 120.087)
(-26.3018 3.01506 119.689)
(-27.0565 2.99102 119.275)
(-27.2318 2.95755 118.651)
(-29.2496 3.21056 118.176)
(-33.0271 3.55753 117.194)
(-36.558 3.51181 117.063)
(-39.4672 3.28998 116.481)
(-41.7227 2.68543 116.355)
(-43.2611 2.12625 115.936)
(-44.2924 1.38944 115.872)
(-44.8209 0.791027 115.589)
(-44.9761 0.0731369 115.585)
(-44.85 -0.515091 115.395)
(-44.47 -1.25348 115.41)
(-43.9467 -1.827 115.434)
(-43.2167 -2.49275 115.382)
(-42.5138 -3.12976 115.709)
(-41.6079 -3.65564 115.753)
(-40.66 -4.24198 116.097)
(-39.7816 -4.74213 116.564)
(-39.0243 -5.30823 116.899)
(-38.2232 -5.79083 117.532)
(-37.7497 -6.15455 118.129)
(-37.1802 -6.73361 118.765)
(-36.7468 -7.25687 119.488)
(-36.3514 -7.77939 120.291)
(-35.9271 -8.22104 120.962)
(-35.4071 -8.76383 121.658)
(-35.0484 -9.22241 122.522)
(-34.4979 -9.59122 122.904)
(-33.8997 -9.99 123.509)
(-33.2898 -10.471 123.983)
(-32.8019 -10.7788 124.072)
(-32.2633 -11.0753 124.194)
(-32.1189 -11.4633 124.349)
(-31.1724 -12.0797 124.291)
(-30.8496 -12.5939 124.352)
)
;
    }
    procBoundary1to3
    {
        type            processor;
        value           nonuniform List<vector> 
180
(
(-0.0428722 -0.00475979 122.999)
(-0.0441733 0.00943104 123.242)
(-0.0706178 0.0454486 123.092)
(-0.0830172 0.0708083 123.072)
(-0.0698443 0.118698 123.139)
(-0.142944 0.124307 123.078)
(-0.187845 0.151217 123.106)
(-0.157241 0.252388 123.105)
(-0.13972 0.290468 123.085)
(-0.180263 0.311241 123.143)
(-0.125945 0.416496 123.113)
(-0.0464676 0.654756 123.213)
(-0.126582 0.700008 123.227)
(-0.169073 0.718475 123.23)
(-0.144826 0.931211 123.449)
(-0.106322 1.01158 123.346)
(-0.0808991 1.25099 123.601)
(-0.112946 1.27918 123.627)
(-0.142084 1.29619 123.71)
(-0.125206 1.55579 123.975)
(-0.157772 1.81836 123.908)
(0.0277281 2.27451 124.266)
(0.0265121 2.29074 124.194)
(-0.0507888 2.21738 124.488)
(-0.0832388 2.18275 124.423)
(-0.0184555 2.18062 124.623)
(0.0105767 2.14671 124.608)
(0.0257329 2.11307 124.65)
(0.0691378 1.9581 124.828)
(0.0895478 1.91925 124.771)
(0.150409 1.87402 124.822)
(0.17025 1.85559 124.878)
(0.186672 1.84173 124.882)
(0.160943 1.71588 124.963)
(0.179047 1.67931 124.863)
(0.127598 1.61187 124.975)
(0.0614204 1.39845 124.899)
(0.0166147 1.27991 124.878)
(-0.0341674 1.19894 124.883)
(-0.0717291 1.14462 124.8)
(-0.0496777 1.17502 124.728)
(-0.158911 1.03902 124.75)
(-0.227216 0.911181 124.664)
(-0.243987 0.74521 124.476)
(-0.148046 0.793054 124.48)
(-0.167271 0.732024 124.478)
(-0.173311 0.561339 124.294)
(0.095208 0.473244 124.191)
(0.0444213 0.280747 124.17)
(0.0640432 0.163994 124.05)
(-0.0268423 -0.07556 123.933)
(-0.0322392 -0.17754 123.792)
(-0.00170983 -0.181611 123.757)
(-0.00133329 -0.371172 123.655)
(-0.0842403 -0.716785 123.461)
(-0.11042 -0.913263 123.317)
(-0.0780395 -0.902842 123.253)
(-0.0891624 -0.836387 123.201)
(0.0305036 -0.952246 122.912)
(-0.0588095 -1.1426 122.821)
(-0.0920954 -1.22446 122.814)
(0.0452975 -1.17837 122.629)
(0.0582072 -1.16173 122.464)
(-0.0942984 -1.36812 122.379)
(-0.0675471 -1.34566 122.243)
(0.0848485 -1.33802 122.044)
(0.261102 -1.30351 121.955)
(0.438659 -1.29358 121.842)
(0.38236 -1.35118 121.736)
(0.367707 -1.37408 121.662)
(0.558474 -1.49483 121.474)
(0.68942 -1.69346 121.368)
(0.782739 -1.84849 121.227)
(0.813082 -2.04878 121.135)
(0.694491 -2.17089 120.938)
(0.605283 -2.34835 120.745)
(0.56062 -2.61008 120.555)
(0.460575 -2.77332 120.398)
(0.426855 -3.00585 120.047)
(0.341684 -3.18719 119.823)
(0.189438 -3.26652 119.541)
(0.168182 -3.0996 119.179)
(0.450515 -2.61725 118.756)
(1.22185 -2.03905 118.475)
(2.30938 -1.3494 118.157)
(3.55842 -0.675631 117.966)
(4.81475 0.116019 117.83)
(5.92138 0.849845 117.751)
(6.98327 1.52863 117.812)
(7.83976 2.18996 117.832)
(8.59011 2.71341 118.01)
(8.9725 3.27307 118.141)
(9.23586 3.59295 118.36)
(9.42397 3.85367 118.64)
(9.15957 4.06465 118.808)
(9.12544 4.20834 119.177)
(9.01935 4.31306 119.346)
(8.71137 4.46103 119.725)
(8.40801 4.53898 120.013)
(8.26358 4.54702 120.301)
(8.23254 4.5477 120.696)
(8.04676 4.48267 120.952)
(7.78773 4.54405 121.423)
(7.36709 4.47008 121.661)
(7.28798 4.50528 122.177)
(7.07714 4.44942 122.404)
(6.88012 4.46154 123.046)
(6.94189 4.58851 123.172)
(6.19218 3.99864 123.884)
(6.18934 3.96921 124.082)
(6.14821 3.91987 124.433)
(6.00873 3.70734 124.859)
(5.14305 3.00167 125.162)
(3.82045 1.04804 125.173)
(2.21164 -0.974046 124.8)
(1.07762 -2.73125 124.28)
(-0.281667 -3.80518 123.308)
(-1.09809 -4.20801 122.414)
(-2.22625 -3.74942 121.077)
(-2.88237 -2.64056 120.033)
(-3.84384 -0.914374 118.635)
(-4.43207 1.21523 117.556)
(-5.17378 3.65922 116.225)
(-5.62429 6.35066 115.205)
(-6.05127 9.16911 114.101)
(-6.27231 11.9748 113.221)
(-6.36586 14.8184 112.346)
(-6.31558 17.5261 111.67)
(-6.13077 20.1342 110.886)
(-5.7875 22.643 110.397)
(-5.35244 24.9687 109.817)
(-4.78035 27.07 109.51)
(-4.16813 29.1132 109.053)
(-3.4525 31.0917 108.916)
(-2.72192 32.9365 108.668)
(-1.9072 34.7018 108.659)
(-1.07857 36.3935 108.585)
(-0.133179 37.9724 108.711)
(0.797804 39.4376 108.884)
(1.85528 40.9854 109.171)
(2.90053 42.2907 109.548)
(4.06271 43.7405 109.966)
(5.22961 44.8728 110.508)
(6.50883 46.1448 111.011)
(7.80588 47.1126 111.653)
(9.19884 48.0728 112.141)
(10.6006 48.8097 112.917)
(12.0474 49.5772 113.3)
(13.5254 50.0665 114.206)
(14.9012 50.5527 114.394)
(16.3997 50.6914 115.397)
(17.5208 50.8155 115.394)
(18.9869 50.6345 116.383)
(19.6702 50.1847 116.285)
(20.7597 49.6137 117.216)
(21.0528 48.6403 116.897)
(22.0931 47.3881 117.916)
(21.9229 45.4282 117.386)
(22.7143 43.1983 118.285)
(22.2065 40.2447 117.687)
(22.7515 36.9224 118.293)
(22.1048 32.7748 117.626)
(22.5478 28.2352 117.876)
(22.0639 23.0769 117.05)
(22.5791 17.856 116.92)
(22.4428 12.4242 115.826)
(23.1896 7.25222 115.292)
(23.7051 2.37502 113.867)
(24.8887 -2.07405 112.981)
(26.1318 -5.5999 111.19)
(27.8135 -8.52934 110.078)
(29.706 -9.96862 108.097)
(31.6406 -10.3364 106.867)
(33.6368 -9.63808 105.249)
(35.1042 -7.28957 103.723)
(36.7377 -4.55157 103.326)
(37.343 0.15869 101.135)
(38.5761 2.01835 102.293)
(38.616 4.70573 100.592)
(39.6346 6.23204 101.504)
)
;
    }
}


// ************************************************************************* //
