/*--------------------------------*- C++ -*----------------------------------*\
  =========                 |
  \\      /  F ield         | OpenFOAM: The Open Source CFD Toolbox
   \\    /   O peration     | Website:  https://openfoam.org
    \\  /    A nd           | Version:  9
     \\/     M anipulation  |
\*---------------------------------------------------------------------------*/
FoamFile
{
    format      ascii;
    class       volScalarField;
    location    "0.07";
    object      p;
}
// * * * * * * * * * * * * * * * * * * * * * * * * * * * * * * * * * * * * * //

dimensions      [0 2 -2 0 0 0 0];

internalField   nonuniform List<scalar> 
9000
(
1.33219e-10
1.4625e-10
1.50639e-10
1.64635e-10
1.92412e-10
1.92344e-10
1.70875e-10
1.69255e-10
1.61778e-10
1.47752e-10
1.32934e-10
1.32173e-10
1.40054e-10
1.54179e-10
1.67851e-10
1.63316e-10
1.64279e-10
1.66322e-10
1.58815e-10
1.4011e-10
1.04423e-10
9.86051e-11
1.0054e-10
1.0389e-10
1.12812e-10
1.2129e-10
1.43551e-10
1.50217e-10
1.40428e-10
1.14592e-10
7.00512e-11
6.26877e-11
5.35305e-11
4.99173e-11
7.14437e-11
8.85361e-11
1.22132e-10
1.28762e-10
1.14762e-10
9.00129e-11
3.99686e-11
2.4188e-11
-9.73987e-12
-1.23362e-11
3.92804e-11
8.90325e-11
1.28848e-10
1.32469e-10
1.11659e-10
9.13531e-11
4.15084e-11
9.47256e-12
-3.13907e-11
-4.02088e-11
1.70589e-11
3.9648e-11
7.65027e-11
1.04513e-10
9.99767e-11
8.48928e-11
4.35394e-11
2.97251e-11
-5.78356e-12
-1.98885e-11
7.67762e-12
-7.60093e-13
3.70313e-11
5.86353e-11
5.89583e-11
5.66954e-11
5.00996e-11
3.62757e-11
1.05209e-11
-1.63435e-11
3.27548e-12
5.24513e-12
2.81413e-11
3.98624e-11
3.78395e-11
4.2145e-11
4.55189e-11
4.13597e-11
1.59814e-11
3.05651e-12
2.43393e-11
3.05753e-11
2.51923e-11
3.13994e-11
3.35163e-11
3.34215e-11
4.20282e-11
3.4754e-11
1.31715e-11
1.40181e-11
4.13727e-11
4.84661e-11
3.06075e-11
3.55084e-11
2.86493e-11
3.31212e-11
4.1575e-10
4.37079e-10
4.70055e-10
5.04531e-10
5.42187e-10
5.27856e-10
4.87515e-10
4.69039e-10
4.43244e-10
4.01823e-10
4.00573e-10
4.17797e-10
4.38504e-10
4.55878e-10
4.67536e-10
4.53008e-10
4.62422e-10
4.5274e-10
4.09815e-10
3.64987e-10
3.42509e-10
3.38789e-10
3.33854e-10
3.26431e-10
3.42462e-10
3.43037e-10
3.96896e-10
3.90525e-10
3.55699e-10
2.96072e-10
2.67195e-10
2.34741e-10
1.97648e-10
1.82186e-10
2.32101e-10
2.12885e-10
3.20974e-10
3.24983e-10
2.83151e-10
2.38491e-10
1.7988e-10
1.29792e-10
4.38416e-11
3.22822e-11
1.22995e-10
7.89438e-11
2.5839e-10
2.83002e-10
2.43291e-10
2.09127e-10
1.54866e-10
6.83514e-11
-4.69061e-11
-1.16939e-10
-1.0761e-10
9.29596e-11
1.25256e-10
1.94986e-10
2.10182e-10
1.96538e-10
1.57683e-10
1.1845e-10
1.73428e-11
-5.39874e-11
-5.7156e-11
-6.37577e-11
3.83978e-11
1.23663e-10
1.5284e-10
1.68371e-10
1.47912e-10
1.13357e-10
2.38445e-11
-5.44674e-11
-4.48806e-11
-4.87422e-11
2.09994e-11
9.50493e-11
1.30983e-10
1.44328e-10
1.33144e-10
9.03836e-11
2.02859e-11
-2.42963e-11
1.04023e-11
2.52642e-11
4.54056e-11
8.3318e-11
9.98722e-11
1.15764e-10
1.02571e-10
6.46945e-11
7.4703e-12
-4.72513e-12
5.03768e-11
7.64764e-11
5.26077e-11
7.0595e-11
8.76434e-11
9.39163e-11
7.53217e-10
7.86639e-10
8.206e-10
8.31469e-10
8.27953e-10
7.95302e-10
7.53561e-10
7.18198e-10
6.52959e-10
5.85963e-10
7.30217e-10
7.46744e-10
7.57806e-10
7.45158e-10
7.31939e-10
7.07275e-10
7.05641e-10
6.72623e-10
5.87025e-10
5.11307e-10
6.50366e-10
6.38062e-10
6.06266e-10
5.80911e-10
5.90101e-10
5.5857e-10
6.1645e-10
5.72106e-10
4.99266e-10
4.29338e-10
5.45503e-10
4.99157e-10
4.27795e-10
3.8352e-10
4.28097e-10
2.96453e-10
4.62159e-10
4.56349e-10
4.07829e-10
3.84612e-10
4.39693e-10
3.61712e-10
2.40577e-10
1.89663e-10
2.88336e-10
-1.46694e-10
2.20002e-10
3.3702e-10
3.59055e-10
3.65713e-10
3.77409e-10
2.67904e-10
8.05338e-11
-1.26487e-10
-3.98526e-10
1.76979e-10
1.57339e-10
2.56137e-10
3.17331e-10
3.39815e-10
3.62552e-10
2.68861e-10
1.14148e-10
-4.92516e-11
-2.18291e-10
-1.0043e-10
5.24827e-11
2.00305e-10
2.92485e-10
3.32659e-10
2.93971e-10
2.12093e-10
6.22548e-11
-7.23358e-11
-1.46278e-10
-1.09183e-10
4.33282e-11
1.7017e-10
2.45176e-10
2.78675e-10
2.1204e-10
1.30618e-10
1.74862e-11
-5.92445e-11
-6.18665e-11
-2.68846e-11
5.11955e-11
1.31582e-10
1.73511e-10
1.95087e-10
1.46207e-10
7.08057e-11
-9.85799e-13
-3.70858e-11
-3.89861e-12
2.78494e-11
4.87817e-11
1.00121e-10
1.27067e-10
1.18225e-10
1.13006e-09
1.15103e-09
1.16265e-09
1.13648e-09
1.08956e-09
1.03893e-09
9.9936e-10
9.27211e-10
8.19493e-10
7.38947e-10
1.09488e-09
1.10494e-09
1.08606e-09
1.03407e-09
1.00623e-09
9.81513e-10
9.40236e-10
8.48365e-10
7.32865e-10
6.56271e-10
1.00767e-09
9.82307e-10
9.2196e-10
8.68557e-10
8.61119e-10
8.41858e-10
8.27041e-10
7.38531e-10
6.55449e-10
6.1096e-10
9.103e-10
8.5156e-10
7.35886e-10
6.45406e-10
6.40172e-10
5.13303e-10
6.39332e-10
6.3441e-10
6.0471e-10
6.22715e-10
8.38629e-10
7.48776e-10
5.5313e-10
4.03263e-10
4.65944e-10
-1.16295e-10
3.03936e-10
5.16878e-10
6.15488e-10
6.71289e-10
7.38242e-10
6.2839e-10
3.92231e-10
7.16731e-11
-4.00442e-10
2.74334e-10
3.22747e-10
4.78968e-10
5.8111e-10
6.2365e-10
6.23829e-10
5.1583e-10
2.93196e-10
5.73341e-11
-2.25759e-10
-1.97569e-12
2.01914e-10
3.9537e-10
5.12933e-10
5.50772e-10
4.68318e-10
3.51507e-10
1.57582e-10
-9.87776e-12
-1.55416e-10
-5.67819e-11
1.28366e-10
2.89702e-10
3.79295e-10
4.04153e-10
3.10776e-10
2.02928e-10
6.55128e-11
-3.50205e-11
-9.85257e-11
-4.76069e-11
7.60222e-11
1.77872e-10
2.19444e-10
2.17608e-10
2.0985e-10
1.23746e-10
4.02879e-11
-3.26728e-11
-6.9014e-11
-4.90587e-11
3.96166e-11
1.00831e-10
1.091e-10
8.89806e-11
1.50355e-09
1.50127e-09
1.475e-09
1.43696e-09
1.40186e-09
1.33778e-09
1.28652e-09
1.16679e-09
1.04546e-09
9.805e-10
1.44965e-09
1.43058e-09
1.38688e-09
1.34409e-09
1.34862e-09
1.31388e-09
1.21788e-09
1.08344e-09
9.68311e-10
9.2909e-10
1.35882e-09
1.31501e-09
1.2475e-09
1.19912e-09
1.19356e-09
1.19288e-09
1.10133e-09
9.89275e-10
9.28819e-10
9.32408e-10
1.30042e-09
1.22832e-09
1.09236e-09
9.75689e-10
9.21986e-10
8.9858e-10
9.42697e-10
9.34384e-10
9.39008e-10
9.77992e-10
1.29936e-09
1.18102e-09
9.19228e-10
6.88555e-10
6.79961e-10
3.90903e-10
7.01617e-10
8.93742e-10
1.00054e-09
1.04977e-09
1.16341e-09
1.0403e-09
7.72731e-10
4.55782e-10
9.24647e-11
4.56842e-10
6.37669e-10
8.28661e-10
9.24305e-10
9.57472e-10
9.39955e-10
8.02231e-10
5.56672e-10
3.23325e-10
9.64921e-11
2.4928e-10
4.60851e-10
6.32443e-10
7.22686e-10
7.37382e-10
6.83213e-10
5.54462e-10
3.539e-10
1.77839e-10
2.54923e-11
1.07713e-10
2.75733e-10
4.01941e-10
4.6162e-10
4.59054e-10
4.71345e-10
3.61834e-10
2.10749e-10
7.81685e-11
-4.14691e-11
-1.233e-11
1.21607e-10
1.86343e-10
2.07734e-10
1.84494e-10
3.52114e-10
2.69461e-10
1.5551e-10
3.17522e-11
-7.42372e-11
-8.67199e-11
2.75571e-11
6.36157e-11
5.06658e-11
5.0569e-11
1.85133e-09
1.80444e-09
1.77974e-09
1.76903e-09
1.78324e-09
1.71787e-09
1.64494e-09
1.5088e-09
1.42002e-09
1.40317e-09
1.76153e-09
1.71657e-09
1.68858e-09
1.69064e-09
1.73663e-09
1.67944e-09
1.55954e-09
1.43979e-09
1.3755e-09
1.38853e-09
1.68361e-09
1.62798e-09
1.5831e-09
1.56225e-09
1.57412e-09
1.54078e-09
1.43821e-09
1.35591e-09
1.34119e-09
1.37913e-09
1.65927e-09
1.58785e-09
1.46477e-09
1.37142e-09
1.34004e-09
1.29868e-09
1.31102e-09
1.30418e-09
1.33171e-09
1.36134e-09
1.69821e-09
1.5759e-09
1.31943e-09
1.13487e-09
1.1375e-09
1.01151e-09
1.17342e-09
1.25975e-09
1.32104e-09
1.333e-09
1.53079e-09
1.38858e-09
1.1237e-09
8.80744e-10
7.28712e-10
8.82676e-10
9.73113e-10
1.08494e-09
1.13935e-09
1.16156e-09
1.23372e-09
1.10548e-09
8.71417e-10
6.76712e-10
5.55343e-10
5.73419e-10
6.78871e-10
7.81957e-10
8.23831e-10
8.22917e-10
9.37137e-10
8.14128e-10
6.13245e-10
4.29223e-10
2.89245e-10
2.89016e-10
3.90768e-10
4.53354e-10
4.72485e-10
4.64196e-10
6.92922e-10
5.83111e-10
4.13977e-10
2.38282e-10
8.65119e-11
5.5197e-11
1.49789e-10
1.68602e-10
1.83218e-10
1.79112e-10
5.63359e-10
4.76488e-10
3.14745e-10
1.41368e-10
-7.85282e-12
-6.3068e-11
1.91771e-11
2.92711e-11
3.303e-11
8.97196e-11
2.21065e-09
2.15863e-09
2.15861e-09
2.17386e-09
2.19181e-09
2.14067e-09
2.06667e-09
1.97952e-09
1.96419e-09
1.99671e-09
2.1108e-09
2.06787e-09
2.07094e-09
2.097e-09
2.11126e-09
2.04825e-09
1.96614e-09
1.92019e-09
1.93331e-09
1.968e-09
2.03812e-09
1.99425e-09
1.97528e-09
1.95849e-09
1.94489e-09
1.86845e-09
1.81507e-09
1.7977e-09
1.82354e-09
1.86327e-09
2.00827e-09
1.95248e-09
1.86083e-09
1.79502e-09
1.78943e-09
1.61733e-09
1.63911e-09
1.64168e-09
1.68573e-09
1.70458e-09
2.01339e-09
1.91203e-09
1.73392e-09
1.65071e-09
1.72159e-09
1.33721e-09
1.39349e-09
1.41901e-09
1.47891e-09
1.49351e-09
1.81408e-09
1.68165e-09
1.45968e-09
1.25587e-09
1.09194e-09
1.37484e-09
1.17995e-09
1.15021e-09
1.18796e-09
1.23271e-09
1.48917e-09
1.37644e-09
1.17156e-09
9.85694e-10
8.25389e-10
8.31961e-10
7.80194e-10
8.18861e-10
8.49501e-10
8.76664e-10
1.18096e-09
1.06151e-09
8.59417e-10
6.43984e-10
4.60437e-10
3.9982e-10
4.38284e-10
4.73495e-10
5.01929e-10
5.33713e-10
9.20301e-10
8.08293e-10
6.07579e-10
3.80595e-10
1.84609e-10
1.01473e-10
1.62662e-10
1.91736e-10
2.47486e-10
3.09026e-10
7.88154e-10
6.82696e-10
4.69116e-10
2.48216e-10
4.68295e-11
-3.47504e-11
2.82492e-11
6.89453e-11
1.48384e-10
2.68523e-10
2.70025e-09
2.67703e-09
2.69988e-09
2.70322e-09
2.6561e-09
2.60649e-09
2.57028e-09
2.56962e-09
2.61428e-09
2.65036e-09
2.60913e-09
2.59977e-09
2.61595e-09
2.60508e-09
2.53157e-09
2.47779e-09
2.45804e-09
2.49138e-09
2.54468e-09
2.55618e-09
2.51744e-09
2.50032e-09
2.48012e-09
2.41804e-09
2.32872e-09
2.25428e-09
2.23672e-09
2.2706e-09
2.3167e-09
2.34354e-09
2.41532e-09
2.37464e-09
2.29796e-09
2.20008e-09
2.12183e-09
1.93207e-09
1.92602e-09
1.95843e-09
2.03036e-09
2.06254e-09
2.29217e-09
2.21431e-09
2.10362e-09
2.01336e-09
2.01564e-09
1.4657e-09
1.43387e-09
1.5106e-09
1.64162e-09
1.7045e-09
2.03411e-09
1.93984e-09
1.78386e-09
1.57603e-09
1.22825e-09
1.53574e-09
1.23896e-09
1.1881e-09
1.28271e-09
1.37407e-09
1.68648e-09
1.58468e-09
1.40444e-09
1.17919e-09
8.67677e-10
9.32556e-10
8.40024e-10
8.94399e-10
9.67128e-10
1.05447e-09
1.36873e-09
1.2581e-09
1.04302e-09
7.80046e-10
5.06708e-10
4.53533e-10
5.01481e-10
5.74395e-10
6.75133e-10
7.65658e-10
1.11444e-09
9.97818e-10
7.55915e-10
4.83291e-10
2.13932e-10
1.33465e-10
2.21886e-10
3.34554e-10
4.70475e-10
6.00826e-10
9.82227e-10
8.50525e-10
6.03157e-10
3.37712e-10
5.85106e-11
-1.47002e-11
1.01409e-10
2.38453e-10
4.16305e-10
5.62251e-10
3.37669e-09
3.4047e-09
3.41251e-09
3.36461e-09
3.27299e-09
3.20777e-09
3.19208e-09
3.22654e-09
3.26746e-09
3.26962e-09
3.30542e-09
3.32727e-09
3.30956e-09
3.22862e-09
3.11671e-09
3.06466e-09
3.04861e-09
3.09772e-09
3.13701e-09
3.1232e-09
3.14256e-09
3.13286e-09
3.0737e-09
2.95706e-09
2.81004e-09
2.76126e-09
2.73107e-09
2.78145e-09
2.84133e-09
2.86631e-09
2.8856e-09
2.84624e-09
2.75799e-09
2.59768e-09
2.3824e-09
2.33066e-09
2.28702e-09
2.37638e-09
2.48655e-09
2.5398e-09
2.56197e-09
2.50911e-09
2.41312e-09
2.19896e-09
1.9524e-09
1.73137e-09
1.66594e-09
1.85055e-09
2.04593e-09
2.14081e-09
2.20355e-09
2.15298e-09
2.04411e-09
1.83418e-09
1.42413e-09
1.38312e-09
1.35295e-09
1.46192e-09
1.64358e-09
1.75519e-09
1.82791e-09
1.74087e-09
1.56749e-09
1.31265e-09
9.53753e-10
9.87321e-10
1.02597e-09
1.16365e-09
1.28805e-09
1.40879e-09
1.50498e-09
1.40492e-09
1.18251e-09
9.05866e-10
6.05876e-10
5.73904e-10
6.91691e-10
8.27841e-10
1.00677e-09
1.12138e-09
1.26532e-09
1.1504e-09
8.89339e-10
6.06658e-10
2.94451e-10
2.47532e-10
3.96758e-10
6.06395e-10
8.04225e-10
9.54848e-10
1.13408e-09
9.8832e-10
7.43816e-10
4.5872e-10
1.29279e-10
8.12875e-11
2.84418e-10
5.16376e-10
7.48553e-10
8.67135e-10
4.21003e-09
4.25139e-09
4.19457e-09
4.09551e-09
4.02709e-09
3.95478e-09
3.89039e-09
3.88955e-09
3.89626e-09
3.87649e-09
4.11705e-09
4.11283e-09
4.03435e-09
3.91259e-09
3.82309e-09
3.75931e-09
3.69943e-09
3.72307e-09
3.74111e-09
3.72663e-09
3.81513e-09
3.77808e-09
3.67735e-09
3.54451e-09
3.38856e-09
3.34874e-09
3.32379e-09
3.38567e-09
3.45509e-09
3.47303e-09
3.36399e-09
3.31541e-09
3.21257e-09
3.03502e-09
2.76356e-09
2.83358e-09
2.84212e-09
2.98432e-09
3.09702e-09
3.13404e-09
2.83434e-09
2.79283e-09
2.68635e-09
2.40766e-09
2.01633e-09
2.2871e-09
2.29467e-09
2.5243e-09
2.67674e-09
2.72908e-09
2.35955e-09
2.31688e-09
2.21624e-09
2.04342e-09
1.82968e-09
1.44804e-09
1.77183e-09
2.03487e-09
2.21735e-09
2.27273e-09
1.94423e-09
1.86778e-09
1.70941e-09
1.50422e-09
1.29599e-09
1.24288e-09
1.4231e-09
1.60153e-09
1.7191e-09
1.80528e-09
1.60276e-09
1.51964e-09
1.33247e-09
1.11018e-09
8.96253e-10
8.67198e-10
1.01886e-09
1.17125e-09
1.3599e-09
1.44684e-09
1.36893e-09
1.27059e-09
1.04229e-09
8.07585e-10
5.34608e-10
5.11444e-10
6.77916e-10
9.13272e-10
1.10726e-09
1.22047e-09
1.23086e-09
1.09497e-09
8.99015e-10
6.51663e-10
3.55019e-10
3.21296e-10
5.55767e-10
8.04903e-10
1.01134e-09
1.07254e-09
5.09471e-09
5.08029e-09
4.9625e-09
4.84134e-09
4.77773e-09
4.71443e-09
4.61405e-09
4.58169e-09
4.57018e-09
4.54542e-09
4.91091e-09
4.84999e-09
4.73482e-09
4.60992e-09
4.52862e-09
4.45732e-09
4.40685e-09
4.4159e-09
4.41716e-09
4.39621e-09
4.46259e-09
4.39976e-09
4.28618e-09
4.17107e-09
4.04843e-09
4.01344e-09
4.04434e-09
4.10494e-09
4.14142e-09
4.11897e-09
3.85238e-09
3.79527e-09
3.69337e-09
3.57067e-09
3.40528e-09
3.48821e-09
3.59203e-09
3.71123e-09
3.74783e-09
3.72256e-09
3.13497e-09
3.08568e-09
2.99595e-09
2.83074e-09
2.591e-09
3.06643e-09
3.14481e-09
3.27699e-09
3.27311e-09
3.22935e-09
2.53677e-09
2.47007e-09
2.38957e-09
2.3182e-09
2.41799e-09
2.04267e-09
2.44908e-09
2.67292e-09
2.72363e-09
2.66857e-09
2.05616e-09
1.9977e-09
1.89441e-09
1.80738e-09
1.81066e-09
1.7296e-09
1.91239e-09
2.02499e-09
2.06341e-09
2.0743e-09
1.66473e-09
1.60635e-09
1.49933e-09
1.37796e-09
1.28732e-09
1.26318e-09
1.36941e-09
1.46569e-09
1.58132e-09
1.61861e-09
1.39101e-09
1.31608e-09
1.17818e-09
1.04577e-09
8.73165e-10
8.58591e-10
9.73021e-10
1.13835e-09
1.26442e-09
1.30954e-09
1.21567e-09
1.12022e-09
1.01921e-09
8.73334e-10
6.89425e-10
6.58914e-10
8.32711e-10
1.00573e-09
1.11767e-09
1.12484e-09
6.00117e-09
5.92482e-09
5.79476e-09
5.66656e-09
5.56084e-09
5.49228e-09
5.42619e-09
5.37741e-09
5.34192e-09
5.29655e-09
5.71825e-09
5.63766e-09
5.52061e-09
5.40192e-09
5.32068e-09
5.24431e-09
5.2279e-09
5.20284e-09
5.15787e-09
5.10424e-09
5.18234e-09
5.12187e-09
5.01719e-09
4.92774e-09
4.8673e-09
4.83638e-09
4.87685e-09
4.87444e-09
4.8241e-09
4.74773e-09
4.46167e-09
4.40484e-09
4.32003e-09
4.27072e-09
4.25738e-09
4.27812e-09
4.39698e-09
4.40568e-09
4.32008e-09
4.23127e-09
3.58121e-09
3.53919e-09
3.48747e-09
3.47861e-09
3.45138e-09
3.79509e-09
3.89432e-09
3.85974e-09
3.68823e-09
3.56292e-09
2.81816e-09
2.75568e-09
2.71814e-09
2.72795e-09
2.96108e-09
2.82875e-09
3.07468e-09
3.12581e-09
3.00562e-09
2.86584e-09
2.20217e-09
2.16687e-09
2.13039e-09
2.14388e-09
2.25522e-09
2.20438e-09
2.30234e-09
2.29567e-09
2.23693e-09
2.18422e-09
1.66795e-09
1.62552e-09
1.61096e-09
1.59732e-09
1.60185e-09
1.58929e-09
1.62266e-09
1.63245e-09
1.6374e-09
1.62849e-09
1.26225e-09
1.21635e-09
1.20883e-09
1.20592e-09
1.16135e-09
1.15363e-09
1.18653e-09
1.23061e-09
1.25296e-09
1.23149e-09
1.02032e-09
9.97995e-10
1.01797e-09
1.00575e-09
9.83402e-10
9.67858e-10
1.0207e-09
1.06466e-09
1.05487e-09
1.03501e-09
7.07781e-09
6.99566e-09
6.88122e-09
6.73474e-09
6.5972e-09
6.48097e-09
6.41337e-09
6.30839e-09
6.21489e-09
6.136e-09
6.74608e-09
6.69006e-09
6.5737e-09
6.44434e-09
6.35936e-09
6.2518e-09
6.18366e-09
6.07246e-09
5.95746e-09
5.87323e-09
6.15268e-09
6.10635e-09
6.00307e-09
5.91625e-09
5.87292e-09
5.80462e-09
5.76643e-09
5.653e-09
5.51054e-09
5.40523e-09
5.3161e-09
5.2667e-09
5.18801e-09
5.15286e-09
5.18107e-09
5.0943e-09
5.15861e-09
5.04011e-09
4.85088e-09
4.7307e-09
4.31601e-09
4.27715e-09
4.20648e-09
4.23594e-09
4.29512e-09
4.31832e-09
4.45478e-09
4.29552e-09
4.0262e-09
3.86126e-09
3.30737e-09
3.26079e-09
3.20407e-09
3.18928e-09
3.31063e-09
3.46435e-09
3.51618e-09
3.39662e-09
3.1627e-09
3.00147e-09
2.37269e-09
2.33315e-09
2.33809e-09
2.40456e-09
2.52675e-09
2.5298e-09
2.53616e-09
2.42653e-09
2.30034e-09
2.21385e-09
1.54697e-09
1.50916e-09
1.58083e-09
1.67099e-09
1.75819e-09
1.76148e-09
1.73587e-09
1.67465e-09
1.57923e-09
1.53371e-09
9.31421e-10
9.29978e-10
1.05381e-09
1.17172e-09
1.26663e-09
1.28089e-09
1.2465e-09
1.17848e-09
1.10015e-09
1.04373e-09
6.21563e-10
6.7893e-10
8.03964e-10
9.14636e-10
1.05383e-09
1.08302e-09
1.0197e-09
9.46554e-10
8.48191e-10
8.36157e-10
8.54177e-09
8.48775e-09
8.3637e-09
8.1695e-09
7.97537e-09
7.77122e-09
7.6146e-09
7.41449e-09
7.25036e-09
7.15277e-09
8.1742e-09
8.13457e-09
7.99618e-09
7.81884e-09
7.66608e-09
7.48404e-09
7.30534e-09
7.09377e-09
6.91895e-09
6.82159e-09
7.45748e-09
7.40734e-09
7.28386e-09
7.16724e-09
7.06083e-09
6.89963e-09
6.76196e-09
6.53796e-09
6.32696e-09
6.21402e-09
6.41944e-09
6.36368e-09
6.27279e-09
6.21362e-09
6.21779e-09
6.0047e-09
5.96757e-09
5.73041e-09
5.47224e-09
5.3447e-09
5.23181e-09
5.14045e-09
5.02822e-09
5.07675e-09
5.24195e-09
4.92174e-09
4.98131e-09
4.72201e-09
4.42837e-09
4.26339e-09
3.87845e-09
3.79046e-09
3.68515e-09
3.66889e-09
3.70689e-09
4.06221e-09
3.87084e-09
3.59827e-09
3.33131e-09
3.19917e-09
2.44098e-09
2.37849e-09
2.43755e-09
2.56574e-09
2.68968e-09
2.7491e-09
2.64147e-09
2.46617e-09
2.31245e-09
2.21818e-09
1.23483e-09
1.21695e-09
1.37041e-09
1.55449e-09
1.71474e-09
1.74059e-09
1.67627e-09
1.57683e-09
1.42803e-09
1.36869e-09
4.01891e-10
4.51419e-10
6.62065e-10
8.59271e-10
1.06226e-09
1.11676e-09
1.06185e-09
9.39895e-10
8.14233e-10
7.68281e-10
2.97654e-11
1.31287e-10
3.12262e-10
5.03466e-10
7.33654e-10
8.24018e-10
7.24792e-10
6.08617e-10
4.99177e-10
5.09088e-10
1.05247e-08
1.04696e-08
1.02985e-08
1.00398e-08
9.74226e-09
9.42116e-09
9.13763e-09
8.8311e-09
8.59601e-09
8.4812e-09
1.00492e-08
9.98766e-09
9.8227e-09
9.58556e-09
9.33792e-09
9.04096e-09
8.74043e-09
8.42863e-09
8.1892e-09
8.06735e-09
9.07804e-09
9.00964e-09
8.87237e-09
8.73355e-09
8.56717e-09
8.28139e-09
8.01341e-09
7.67396e-09
7.39416e-09
7.26611e-09
7.68369e-09
7.61302e-09
7.54204e-09
7.50248e-09
7.51722e-09
7.16768e-09
6.93365e-09
6.57094e-09
6.26893e-09
6.13845e-09
6.04535e-09
5.92648e-09
5.89599e-09
6.05401e-09
6.35265e-09
5.74359e-09
5.53182e-09
5.1907e-09
4.93071e-09
4.79505e-09
4.23508e-09
4.11437e-09
4.09258e-09
4.18849e-09
4.23198e-09
4.65325e-09
4.13613e-09
3.74707e-09
3.52124e-09
3.43697e-09
2.29947e-09
2.26188e-09
2.4181e-09
2.60735e-09
2.69948e-09
2.79433e-09
2.5704e-09
2.37698e-09
2.2329e-09
2.1565e-09
7.35125e-10
7.68148e-10
9.81156e-10
1.2091e-09
1.37887e-09
1.42203e-09
1.35362e-09
1.25318e-09
1.12368e-09
1.07941e-09
-2.95804e-10
-2.13994e-10
1.42322e-11
2.29632e-10
4.59535e-10
5.41322e-10
5.25233e-10
4.2863e-10
3.26481e-10
3.10238e-10
-7.55146e-10
-6.5422e-10
-4.71389e-10
-2.57329e-10
-3.29388e-11
8.78237e-11
5.57564e-11
-2.17647e-11
-8.55532e-11
-7.85721e-11
1.30936e-08
1.29966e-08
1.2776e-08
1.24666e-08
1.20905e-08
1.16223e-08
1.11454e-08
1.07014e-08
1.03621e-08
1.01919e-08
1.24115e-08
1.23183e-08
1.21436e-08
1.18675e-08
1.15538e-08
1.11168e-08
1.06288e-08
1.01765e-08
9.82715e-09
9.64875e-09
1.10577e-08
1.09845e-08
1.08549e-08
1.07007e-08
1.04837e-08
1.00717e-08
9.58785e-09
9.10907e-09
8.74383e-09
8.57889e-09
9.13205e-09
9.07136e-09
9.05494e-09
9.03467e-09
9.0071e-09
8.51258e-09
8.03399e-09
7.5715e-09
7.2428e-09
7.09628e-09
6.76834e-09
6.7421e-09
6.87005e-09
7.0695e-09
7.30749e-09
6.44589e-09
6.0177e-09
5.67774e-09
5.47509e-09
5.37578e-09
4.36581e-09
4.33027e-09
4.49554e-09
4.63587e-09
4.51549e-09
4.9162e-09
4.2265e-09
3.81108e-09
3.64372e-09
3.58893e-09
2.01365e-09
2.0627e-09
2.28513e-09
2.44452e-09
2.3959e-09
2.52155e-09
2.24844e-09
2.06866e-09
1.95137e-09
1.90792e-09
1.02991e-10
1.94305e-10
4.06489e-10
5.90577e-10
6.70024e-10
7.29452e-10
6.75144e-10
5.90839e-10
5.26166e-10
4.96886e-10
-1.17086e-09
-1.08255e-09
-9.01608e-10
-7.26647e-10
-5.53275e-10
-4.81531e-10
-4.48314e-10
-4.84155e-10
-5.41987e-10
-5.50301e-10
-1.78018e-09
-1.69834e-09
-1.55596e-09
-1.3721e-09
-1.19846e-09
-1.10724e-09
-1.06047e-09
-1.08593e-09
-1.11248e-09
-1.13344e-09
1.64051e-08
1.6258e-08
1.59857e-08
1.56024e-08
1.51243e-08
1.4462e-08
1.3702e-08
1.30581e-08
1.25568e-08
1.22894e-08
1.54488e-08
1.53312e-08
1.51192e-08
1.47703e-08
1.43343e-08
1.37327e-08
1.2977e-08
1.2322e-08
1.18177e-08
1.15592e-08
1.35953e-08
1.35182e-08
1.33615e-08
1.3118e-08
1.27509e-08
1.22232e-08
1.14674e-08
1.08286e-08
1.03626e-08
1.01345e-08
1.09719e-08
1.0929e-08
1.09062e-08
1.07835e-08
1.05428e-08
9.98597e-09
9.28231e-09
8.74049e-09
8.36486e-09
8.17874e-09
7.74083e-09
7.83035e-09
7.97807e-09
7.99967e-09
7.93556e-09
7.09234e-09
6.54385e-09
6.20074e-09
6.00544e-09
5.92514e-09
4.56839e-09
4.67428e-09
4.92655e-09
4.96294e-09
4.60013e-09
4.7006e-09
4.14806e-09
3.765e-09
3.60239e-09
3.55288e-09
1.69245e-09
1.81861e-09
2.0018e-09
2.04592e-09
1.83832e-09
1.90246e-09
1.64583e-09
1.45806e-09
1.3426e-09
1.30878e-09
-6.93454e-10
-5.71522e-10
-4.30739e-10
-3.54511e-10
-4.0938e-10
-3.65002e-10
-4.34912e-10
-5.30005e-10
-5.64471e-10
-6.06763e-10
-2.35933e-09
-2.27704e-09
-2.18333e-09
-2.08385e-09
-2.00965e-09
-1.9775e-09
-1.96125e-09
-1.97931e-09
-2.02478e-09
-2.05086e-09
-3.2118e-09
-3.14729e-09
-3.06635e-09
-2.94194e-09
-2.8202e-09
-2.79198e-09
-2.76696e-09
-2.78593e-09
-2.81108e-09
-2.84025e-09
2.07757e-08
2.05677e-08
2.0174e-08
1.95977e-08
1.88658e-08
1.79187e-08
1.68263e-08
1.59001e-08
1.51866e-08
1.48e-08
1.94763e-08
1.9302e-08
1.89519e-08
1.84184e-08
1.77219e-08
1.68628e-08
1.57929e-08
1.48755e-08
1.41844e-08
1.38235e-08
1.6966e-08
1.68347e-08
1.6559e-08
1.61162e-08
1.54798e-08
1.47485e-08
1.37169e-08
1.28758e-08
1.22654e-08
1.19419e-08
1.34453e-08
1.33751e-08
1.3235e-08
1.29e-08
1.23434e-08
1.17737e-08
1.08273e-08
1.01296e-08
9.62847e-09
9.36869e-09
9.2084e-09
9.30455e-09
9.30521e-09
9.0555e-09
8.60531e-09
8.1889e-09
7.36873e-09
6.84197e-09
6.52021e-09
6.3788e-09
4.99772e-09
5.16726e-09
5.33598e-09
5.28275e-09
4.94535e-09
4.3106e-09
3.95155e-09
3.54895e-09
3.30414e-09
3.21322e-09
1.25448e-09
1.39179e-09
1.466e-09
1.41331e-09
1.18912e-09
9.6085e-10
6.92263e-10
4.27364e-10
2.51618e-10
1.71855e-10
-1.90081e-09
-1.78776e-09
-1.7449e-09
-1.77027e-09
-1.89774e-09
-1.99193e-09
-2.12578e-09
-2.27517e-09
-2.36102e-09
-2.43523e-09
-4.20013e-09
-4.12361e-09
-4.11167e-09
-4.08674e-09
-4.10829e-09
-4.14361e-09
-4.20867e-09
-4.26751e-09
-4.32698e-09
-4.3779e-09
-5.41857e-09
-5.36368e-09
-5.33007e-09
-5.264e-09
-5.2105e-09
-5.24131e-09
-5.29857e-09
-5.33716e-09
-5.37491e-09
-5.39739e-09
2.66435e-08
2.63211e-08
2.56828e-08
2.47503e-08
2.3577e-08
2.21951e-08
2.06782e-08
1.93567e-08
1.83657e-08
1.78294e-08
2.48735e-08
2.45767e-08
2.39763e-08
2.31277e-08
2.20197e-08
2.0719e-08
1.92606e-08
1.7989e-08
1.70413e-08
1.6538e-08
2.14696e-08
2.12211e-08
2.07452e-08
2.00206e-08
1.90455e-08
1.78788e-08
1.65286e-08
1.53749e-08
1.45196e-08
1.40556e-08
1.67507e-08
1.66039e-08
1.62854e-08
1.57217e-08
1.48706e-08
1.40686e-08
1.27901e-08
1.17817e-08
1.10373e-08
1.0647e-08
1.11902e-08
1.11973e-08
1.10423e-08
1.06193e-08
9.86204e-09
9.7112e-09
8.44698e-09
7.54662e-09
6.94665e-09
6.6456e-09
5.52138e-09
5.64915e-09
5.66209e-09
5.58533e-09
5.43666e-09
4.1046e-09
3.64905e-09
3.04555e-09
2.60264e-09
2.39004e-09
3.94074e-10
4.89855e-10
4.71413e-10
3.78037e-10
2.19559e-10
-3.32404e-10
-7.71045e-10
-1.21231e-09
-1.52029e-09
-1.69474e-09
-3.97826e-09
-3.8929e-09
-3.90446e-09
-3.97121e-09
-4.09386e-09
-4.38073e-09
-4.63869e-09
-4.87803e-09
-5.07988e-09
-5.20262e-09
-7.22495e-09
-7.14292e-09
-7.15049e-09
-7.15336e-09
-7.22442e-09
-7.31507e-09
-7.46806e-09
-7.59423e-09
-7.68592e-09
-7.77401e-09
-8.96083e-09
-8.89808e-09
-8.85701e-09
-8.80403e-09
-8.80196e-09
-8.85388e-09
-8.95001e-09
-9.01044e-09
-9.0732e-09
-9.1263e-09
3.45836e-08
3.40798e-08
3.30823e-08
3.16366e-08
2.98138e-08
2.77739e-08
2.56294e-08
2.37282e-08
2.23187e-08
2.15666e-08
3.21555e-08
3.16882e-08
3.07547e-08
2.94456e-08
2.77495e-08
2.57948e-08
2.37439e-08
2.19243e-08
2.0574e-08
1.98601e-08
2.75237e-08
2.71283e-08
2.63898e-08
2.52864e-08
2.3853e-08
2.20469e-08
2.01458e-08
1.84789e-08
1.72313e-08
1.65565e-08
2.11454e-08
2.0899e-08
2.03718e-08
1.95374e-08
1.83272e-08
1.70416e-08
1.52044e-08
1.37061e-08
1.25929e-08
1.20081e-08
1.36836e-08
1.35803e-08
1.33059e-08
1.27474e-08
1.16759e-08
1.13714e-08
9.50707e-09
8.12393e-09
7.16899e-09
6.67867e-09
5.92218e-09
5.96606e-09
5.86289e-09
5.74366e-09
5.65951e-09
3.82795e-09
3.02296e-09
2.06194e-09
1.34371e-09
9.65772e-10
-1.29421e-09
-1.24595e-09
-1.29863e-09
-1.41604e-09
-1.56475e-09
-2.28344e-09
-3.02198e-09
-3.71556e-09
-4.22346e-09
-4.52992e-09
-7.48865e-09
-7.4131e-09
-7.39459e-09
-7.42623e-09
-7.50733e-09
-7.85445e-09
-8.29387e-09
-8.67668e-09
-9.02726e-09
-9.22541e-09
-1.20736e-08
-1.19633e-08
-1.18893e-08
-1.1814e-08
-1.1825e-08
-1.18806e-08
-1.21175e-08
-1.23301e-08
-1.24911e-08
-1.26253e-08
-1.45169e-08
-1.44157e-08
-1.42775e-08
-1.41246e-08
-1.40484e-08
-1.40313e-08
-1.41293e-08
-1.42274e-08
-1.43389e-08
-1.44414e-08
4.54214e-08
4.46877e-08
4.32245e-08
4.10842e-08
3.83634e-08
3.53097e-08
3.21949e-08
2.94007e-08
2.73313e-08
2.62466e-08
4.20924e-08
4.14224e-08
4.00681e-08
3.81062e-08
3.55838e-08
3.26877e-08
2.96738e-08
2.69924e-08
2.50152e-08
2.39655e-08
3.57514e-08
3.51945e-08
3.40993e-08
3.24456e-08
3.02786e-08
2.76551e-08
2.48311e-08
2.23756e-08
2.05378e-08
1.95437e-08
2.70251e-08
2.66525e-08
2.58446e-08
2.45812e-08
2.27367e-08
2.0803e-08
1.81423e-08
1.59549e-08
1.43312e-08
1.34676e-08
1.67976e-08
1.65851e-08
1.61231e-08
1.52616e-08
1.35865e-08
1.30378e-08
1.04604e-08
8.49953e-09
7.09587e-09
6.33523e-09
6.01185e-09
5.95871e-09
5.77499e-09
5.5115e-09
5.30027e-09
2.82137e-09
1.66602e-09
3.3723e-10
-7.12599e-10
-1.29546e-09
-4.23218e-09
-4.20909e-09
-4.25064e-09
-4.40045e-09
-4.55741e-09
-5.52044e-09
-6.49188e-09
-7.45795e-09
-8.22607e-09
-8.66514e-09
-1.30278e-08
-1.29199e-08
-1.27882e-08
-1.26991e-08
-1.26625e-08
-1.2986e-08
-1.3577e-08
-1.41496e-08
-1.46337e-08
-1.49018e-08
-1.947e-08
-1.92956e-08
-1.90247e-08
-1.87182e-08
-1.84996e-08
-1.84527e-08
-1.87257e-08
-1.90079e-08
-1.92505e-08
-1.94093e-08
-2.28846e-08
-2.26959e-08
-2.23456e-08
-2.19326e-08
-2.15811e-08
-2.13924e-08
-2.14396e-08
-2.15605e-08
-2.17032e-08
-2.18266e-08
6.03369e-08
5.93161e-08
5.72338e-08
5.4134e-08
5.01527e-08
4.55722e-08
4.09678e-08
3.68086e-08
3.37115e-08
3.20727e-08
5.5757e-08
5.4824e-08
5.29065e-08
5.00227e-08
4.63041e-08
4.19856e-08
3.75503e-08
3.35721e-08
3.06109e-08
2.90006e-08
4.69957e-08
4.62291e-08
4.46196e-08
4.21633e-08
3.88999e-08
3.50735e-08
3.09743e-08
2.73451e-08
2.45982e-08
2.31082e-08
3.49138e-08
3.43541e-08
3.31406e-08
3.1247e-08
2.85281e-08
2.54941e-08
2.18409e-08
1.86762e-08
1.62991e-08
1.50062e-08
2.06922e-08
2.03536e-08
1.95955e-08
1.82772e-08
1.59106e-08
1.4535e-08
1.13022e-08
8.58389e-09
6.54402e-09
5.42339e-09
5.60025e-09
5.42546e-09
5.12122e-09
4.54731e-09
3.92818e-09
1.15044e-09
-5.25368e-10
-2.37652e-09
-3.91826e-09
-4.73455e-09
-8.88207e-09
-8.84834e-09
-8.83936e-09
-9.00307e-09
-9.19503e-09
-1.04057e-08
-1.15763e-08
-1.28559e-08
-1.39055e-08
-1.44388e-08
-2.12854e-08
-2.10863e-08
-2.07439e-08
-2.04171e-08
-2.01629e-08
-2.04372e-08
-2.10733e-08
-2.18058e-08
-2.23809e-08
-2.26988e-08
-3.03188e-08
-3.00082e-08
-2.94051e-08
-2.86987e-08
-2.80557e-08
-2.78409e-08
-2.79994e-08
-2.82646e-08
-2.85378e-08
-2.87093e-08
-3.50906e-08
-3.47251e-08
-3.40191e-08
-3.31514e-08
-3.22756e-08
-3.17942e-08
-3.16582e-08
-3.16953e-08
-3.18009e-08
-3.19253e-08
8.09446e-08
7.95395e-08
7.66145e-08
7.21702e-08
6.63591e-08
5.96053e-08
5.27407e-08
4.64745e-08
4.17279e-08
3.91436e-08
7.45884e-08
7.32934e-08
7.06002e-08
6.64479e-08
6.10352e-08
5.46388e-08
4.81011e-08
4.21252e-08
3.75691e-08
3.50492e-08
6.23891e-08
6.13171e-08
5.90111e-08
5.546e-08
5.07322e-08
4.5129e-08
3.91904e-08
3.37531e-08
2.95685e-08
2.7305e-08
4.55304e-08
4.47164e-08
4.2974e-08
4.02451e-08
3.64644e-08
3.18317e-08
2.67561e-08
2.20986e-08
1.85499e-08
1.66237e-08
2.5625e-08
2.51537e-08
2.40284e-08
2.2179e-08
1.92926e-08
1.63373e-08
1.216e-08
8.3425e-09
5.48671e-09
3.99309e-09
4.51708e-09
4.29065e-09
3.86783e-09
2.95945e-09
1.74312e-09
-9.52902e-10
-3.54675e-09
-6.2271e-09
-8.37528e-09
-9.43641e-09
-1.58081e-08
-1.56866e-08
-1.55121e-08
-1.55575e-08
-1.58575e-08
-1.70548e-08
-1.85428e-08
-2.02013e-08
-2.15565e-08
-2.2258e-08
-3.32018e-08
-3.27978e-08
-3.20621e-08
-3.13039e-08
-3.07278e-08
-3.07602e-08
-3.13415e-08
-3.21512e-08
-3.28385e-08
-3.32428e-08
-4.58705e-08
-4.52727e-08
-4.41356e-08
-4.27953e-08
-4.15144e-08
-4.08746e-08
-4.07171e-08
-4.08377e-08
-4.10744e-08
-4.1272e-08
-5.25559e-08
-5.1853e-08
-5.05484e-08
-4.89285e-08
-4.72885e-08
-4.62254e-08
-4.56833e-08
-4.54495e-08
-4.54462e-08
-4.55262e-08
1.09448e-07
1.0754e-07
1.03514e-07
9.72537e-08
8.88743e-08
7.90194e-08
6.86275e-08
5.90041e-08
5.1557e-08
4.74453e-08
1.00568e-07
9.88079e-08
9.51089e-08
8.93047e-08
8.15321e-08
7.21828e-08
6.23478e-08
5.31841e-08
4.60612e-08
4.21372e-08
8.35343e-08
8.20759e-08
7.89526e-08
7.4006e-08
6.72856e-08
5.91241e-08
5.03141e-08
4.20519e-08
3.56169e-08
3.21439e-08
5.99788e-08
5.89139e-08
5.65968e-08
5.2813e-08
4.74996e-08
4.09234e-08
3.35369e-08
2.65818e-08
2.11901e-08
1.82665e-08
3.21469e-08
3.15655e-08
3.01121e-08
2.76307e-08
2.3803e-08
1.94134e-08
1.36316e-08
8.18701e-09
4.03563e-09
1.80661e-09
2.61098e-09
2.51667e-09
2.15753e-09
1.15351e-09
-6.10998e-10
-3.99586e-09
-7.55893e-09
-1.12567e-08
-1.41902e-08
-1.57783e-08
-2.58312e-08
-2.54308e-08
-2.47969e-08
-2.44247e-08
-2.46474e-08
-2.58899e-08
-2.77169e-08
-2.98553e-08
-3.17062e-08
-3.27764e-08
-5.01863e-08
-4.93372e-08
-4.78652e-08
-4.63041e-08
-4.51061e-08
-4.46661e-08
-4.50518e-08
-4.58841e-08
-4.67742e-08
-4.73418e-08
-6.79616e-08
-6.68098e-08
-6.47576e-08
-6.2332e-08
-6.00795e-08
-5.85902e-08
-5.78115e-08
-5.76233e-08
-5.77943e-08
-5.79935e-08
-7.73475e-08
-7.60302e-08
-7.36651e-08
-7.08139e-08
-6.8077e-08
-6.59319e-08
-6.45583e-08
-6.38354e-08
-6.36223e-08
-6.35945e-08
1.4889e-07
1.46399e-07
1.41054e-07
1.32448e-07
1.20488e-07
1.05984e-07
9.00864e-08
7.50837e-08
6.32917e-08
5.68045e-08
1.36469e-07
1.34209e-07
1.29343e-07
1.21432e-07
1.10325e-07
9.66611e-08
8.16677e-08
6.74271e-08
5.62441e-08
5.01211e-08
1.12716e-07
1.10901e-07
1.06932e-07
1.00285e-07
9.07813e-08
7.87988e-08
6.55517e-08
5.28748e-08
4.28693e-08
3.73985e-08
7.98457e-08
7.86527e-08