/*--------------------------------*- C++ -*----------------------------------*\
  =========                 |
  \\      /  F ield         | OpenFOAM: The Open Source CFD Toolbox
   \\    /   O peration     | Website:  https://openfoam.org
    \\  /    A nd           | Version:  9
     \\/     M anipulation  |
\*---------------------------------------------------------------------------*/
FoamFile
{
    format      ascii;
    class       surfaceScalarField;
    location    "0.009";
    object      phi;
}
// * * * * * * * * * * * * * * * * * * * * * * * * * * * * * * * * * * * * * //

dimensions      [0 3 -1 0 0 0 0];

internalField   nonuniform List<scalar> 
1436
(
1.66391e-17
-2.93803e-16
-2.49982e-10
-2.96053e-16
-2.49981e-10
1.43347e-17
-2.50015e-10
-2.50014e-10
1.90542e-17
-3.58271e-16
-2.49982e-10
-3.61028e-16
-2.49981e-10
1.62378e-17
-2.50015e-10
-2.50014e-10
2.13583e-17
-4.7168e-16
-2.49981e-10
-4.75056e-16
-2.4998e-10
1.78652e-17
-2.50015e-10
-2.50015e-10
2.47404e-17
-6.15019e-16
-2.49981e-10
-6.1939e-16
-2.4998e-10
2.01959e-17
-2.50016e-10
-2.50015e-10
2.93128e-17
-7.78058e-16
-2.4998e-10
-7.83491e-16
-2.49979e-10
2.36492e-17
-2.50017e-10
-2.50016e-10
3.50062e-17
-9.55266e-16
-2.4998e-10
-9.6189e-16
-2.49978e-10
2.80899e-17
-2.50018e-10
-2.50017e-10
4.16362e-17
-1.14458e-15
-2.49979e-10
-1.15258e-15
-2.49977e-10
3.32734e-17
-2.50019e-10
-2.50019e-10
4.90737e-17
-1.34607e-15
-2.49977e-10
-1.35568e-15
-2.49976e-10
3.90158e-17
-2.50021e-10
-2.5002e-10
5.72803e-17
-1.56093e-15
-2.49976e-10
-1.57244e-15
-2.49975e-10
4.52257e-17
-2.50023e-10
-2.50022e-10
6.62824e-17
-1.79097e-15
-2.49975e-10
-1.80471e-15
-2.49973e-10
5.18808e-17
-2.50025e-10
-2.50024e-10
7.61477e-17
-2.03829e-15
-2.49973e-10
-2.05466e-15
-2.49971e-10
5.89969e-17
-2.50027e-10
-2.50026e-10
8.69642e-17
-2.30526e-15
-2.49971e-10
-2.3247e-15
-2.49969e-10
6.66034e-17
-2.5003e-10
-2.50028e-10
9.88308e-17
-2.59442e-15
-2.49969e-10
-2.61744e-15
-2.49966e-10
7.47352e-17
-2.50032e-10
-2.50031e-10
1.11854e-16
-2.90856e-15
-2.49966e-10
-2.93573e-15
-2.49963e-10
8.34302e-17
-2.50036e-10
-2.50034e-10
1.26146e-16
-3.25068e-15
-2.49963e-10
-3.28263e-15
-2.4996e-10
9.27273e-17
-2.50039e-10
-2.50037e-10
1.41827e-16
-3.62406e-15
-2.4996e-10
-3.66149e-15
-2.49956e-10
1.02666e-16
-2.50043e-10
-2.50041e-10
1.59022e-16
-4.03228e-15
-2.49956e-10
-4.07597e-15
-2.49952e-10
1.13287e-16
-2.50047e-10
-2.50045e-10
1.77866e-16
-4.47924e-15
-2.49952e-10
-4.53004e-15
-2.49947e-10
1.24632e-16
-2.50052e-10
-2.5005e-10
1.985e-16
-4.96922e-15
-2.49947e-10
-5.02803e-15
-2.49942e-10
1.36746e-16
-2.50057e-10
-2.50055e-10
2.21093e-16
-5.50691e-15
-2.49942e-10
-5.57471e-15
-2.49936e-10
1.49677e-16
-2.50063e-10
-2.5006e-10
2.4583e-16
-6.09743e-15
-2.49936e-10
-6.17527e-15
-2.4993e-10
1.63476e-16
-2.50069e-10
-2.50066e-10
2.7291e-16
-6.74641e-15
-2.49929e-10
-6.8354e-15
-2.49923e-10
1.78193e-16
-2.50076e-10
-2.50073e-10
3.02564e-16
-7.46004e-15
-2.49922e-10
-7.56135e-15
-2.49915e-10
1.93894e-16
-2.50083e-10
-2.5008e-10
3.35055e-16
-8.24511e-15
-2.49914e-10
-8.35996e-15
-2.49906e-10
2.10644e-16
-2.50092e-10
-2.50088e-10
3.70538e-16
-9.10908e-15
-2.49905e-10
-9.23874e-15
-2.49896e-10
2.28527e-16
-2.50101e-10
-2.50097e-10
4.09373e-16
-1.00601e-14
-2.49895e-10
-1.02059e-14
-2.49886e-10
2.4761e-16
-2.50111e-10
-2.50107e-10
4.51912e-16
-1.11073e-14
-2.49885e-10
-1.12705e-14
-2.49874e-10
2.67889e-16
-2.50122e-10
-2.50118e-10
4.98515e-16
-1.22605e-14
-2.49873e-10
-1.24425e-14
-2.49861e-10
2.89241e-16
-2.50135e-10
-2.5013e-10
5.49523e-16
-1.35306e-14
-2.4986e-10
-1.37327e-14
-2.49846e-10
3.11458e-16
-2.50149e-10
-2.50143e-10
6.05145e-16
-1.49295e-14
-2.49845e-10
-1.51531e-14
-2.49831e-10
3.34228e-16
-2.50164e-10
-2.50158e-10
6.65438e-16
-1.64705e-14
-2.49829e-10
-1.67167e-14
-2.49813e-10
3.57179e-16
-2.5018e-10
-2.50174e-10
7.30324e-16
-1.81679e-14
-2.49812e-10
-1.8438e-14
-2.49794e-10
3.7988e-16
-2.50199e-10
-2.50192e-10
7.99616e-16
-2.00378e-14
-2.49792e-10
-2.03325e-14
-2.49773e-10
4.0186e-16
-2.50219e-10
-2.50212e-10
8.73044e-16
-2.20975e-14
-2.49771e-10
-2.24178e-14
-2.49749e-10
4.22606e-16
-2.50242e-10
-2.50234e-10
9.50273e-16
-2.43665e-14
-2.49748e-10
-2.47126e-14
-2.49724e-10
4.41555e-16
-2.50266e-10
-2.50258e-10
1.03089e-15
-2.68658e-14
-2.49722e-10
-2.72378e-14
-2.49695e-10
4.58095e-16
-2.50294e-10
-2.50285e-10
1.11435e-15
-2.96188e-14
-2.49693e-10
-3.00158e-14
-2.49664e-10
4.71474e-16
-2.50324e-10
-2.50314e-10
1.19994e-15
-3.26513e-14
-2.49662e-10
-3.30716e-14
-2.4963e-10
4.80821e-16
-2.50357e-10
-2.50347e-10
1.2867e-15
-3.59917e-14
-2.49627e-10
-3.64322e-14
-2.49592e-10
4.85095e-16
-2.50393e-10
-2.50383e-10
1.37332e-15
-3.96714e-14
-2.49589e-10
-4.01269e-14
-2.4955e-10
4.8306e-16
-2.50433e-10
-2.50422e-10
1.45783e-15
-4.37248e-14
-2.49546e-10
-4.41881e-14
-2.49505e-10
4.73406e-16
-2.50478e-10
-2.50466e-10
1.53769e-15
-4.819e-14
-2.495e-10
-4.86512e-14
-2.49455e-10
4.54487e-16
-2.50526e-10
-2.50514e-10
1.61044e-15
-5.31088e-14
-2.49448e-10
-5.35546e-14
-2.49399e-10
4.24042e-16
-2.5058e-10
-2.50567e-10
1.67222e-15
-5.85277e-14
-2.49391e-10
-5.89398e-14
-2.49339e-10
3.79511e-16
-2.50639e-10
-2.50626e-10
1.71809e-15
-6.44979e-14
-2.49328e-10
-6.48525e-14
-2.49272e-10
3.17785e-16
-2.50703e-10
-2.5069e-10
1.74184e-15
-7.10758e-14
-2.49259e-10
-7.13417e-14
-2.49199e-10
2.3503e-16
-2.50775e-10
-2.50761e-10
1.7356e-15
-7.83238e-14
-2.49182e-10
-7.84613e-14
-2.49119e-10
1.27062e-16
-2.50853e-10
-2.50839e-10
1.68954e-15
-8.63111e-14
-2.49098e-10
-8.62693e-14
-2.49031e-10
-1.04607e-17
-2.50939e-10
-2.50926e-10
1.59134e-15
-9.51141e-14
-2.49004e-10
-9.48286e-14
-2.48934e-10
-1.81261e-16
-2.51034e-10
-2.51021e-10
1.42564e-15
-1.04817e-13
-2.48901e-10
-1.04207e-13
-2.48828e-10
-3.8217e-16
-2.51138e-10
-2.51125e-10
1.17321e-15
-1.15515e-13
-2.48786e-10
-1.14478e-13
-2.48713e-10
-6.05162e-16
-2.51253e-10
-2.5124e-10
8.1353e-16
-1.27311e-13
-2.4866e-10
-1.25721e-13
-2.48586e-10
-8.78544e-16
-2.5138e-10
-2.51367e-10
3.28606e-16
-1.40321e-13
-2.4852e-10
-1.38021e-13
-2.48448e-10
-1.20247e-15
-2.51519e-10
-2.51506e-10
-3.09021e-16
-1.54674e-13
-2.48365e-10
-1.51468e-13
-2.48296e-10
-1.58502e-15
-2.51672e-10
-2.51659e-10
-1.13119e-15
-1.70512e-13
-2.48193e-10
-1.66162e-13
-2.48131e-10
-2.03476e-15
-2.5184e-10
-2.51827e-10
-2.17432e-15
-1.87994e-13
-2.48003e-10
-1.82208e-13
-2.47951e-10
-2.56081e-15
-2.52026e-10
-2.52012e-10
-3.4792e-15
-2.07296e-13
-2.47792e-10
-1.99719e-13
-2.47755e-10
-3.17136e-15
-2.5223e-10
-2.52215e-10
-5.09018e-15
-2.28614e-13
-2.47559e-10
-2.18819e-13
-2.47542e-10
-3.86586e-15
-2.52455e-10
-2.52438e-10
-7.05305e-15
-2.52166e-13
-2.473e-10
-2.39636e-13
-2.47309e-10
-4.64699e-15
-2.52702e-10
-2.52682e-10
-9.41059e-15
-2.78196e-13
-2.47012e-10
-2.62314e-13
-2.47056e-10
-5.51632e-15
-2.52975e-10
-2.5295e-10
-1.21937e-14
-3.06972e-13
-2.46693e-10
-2.87006e-13
-2.46782e-10
-6.47248e-15
-2.53276e-10
-2.53244e-10
-1.54049e-14
-3.38796e-13
-2.46339e-10
-3.13877e-13
-2.46483e-10
-7.51014e-15
-2.53607e-10
-2.53566e-10
-1.89889e-14
-3.74001e-13
-2.45946e-10
-3.4311e-13
-2.46159e-10
-8.6189e-15
-2.53973e-10
-2.53917e-10
-2.27672e-14
-4.12959e-13
-2.45511e-10
-3.74908e-13
-2.45807e-10
-9.78141e-15
-2.54376e-10
-2.54302e-10
-2.62959e-14
-4.56081e-13
-2.45029e-10
-4.09505e-13
-2.45424e-10
-1.09718e-14
-2.54821e-10
-2.54723e-10
-3.10221e-14
-5.03818e-13
-2.44494e-10
-4.4717e-13
-2.45008e-10
-1.21536e-14
-2.55313e-10
-2.55182e-10
-3.84363e-14
-5.56692e-13
-2.43899e-10
-4.88205e-13
-2.44559e-10
-1.32765e-14
-2.55857e-10
-2.55684e-10
-4.72504e-14
-6.15317e-13
-2.43236e-10
-5.32934e-13
-2.44073e-10
-1.42765e-14
-2.56458e-10
-2.56231e-10
-5.77242e-14
-6.80422e-13
-2.42498e-10
-5.81726e-13
-2.43549e-10
-1.50715e-14
-2.57123e-10
-2.56828e-10
-7.01784e-14
-7.52772e-13
-2.41675e-10
-6.34979e-13
-2.42984e-10
-1.55601e-14
-2.5786e-10
-2.57479e-10
-8.50342e-14
-8.32598e-13
-2.40758e-10
-6.93058e-13
-2.42376e-10
-1.56182e-14
-2.58677e-10
-2.58187e-10
-1.02895e-13
-9.18961e-13
-2.39736e-10
-7.56081e-13
-2.41723e-10
-1.50626e-14
-2.59581e-10
-2.58958e-10
-1.2473e-13
-1.01223e-12
-2.38599e-10
-8.23368e-13
-2.41024e-10
-1.34233e-14
-2.6058e-10
-2.59795e-10
-1.52181e-13
-1.10947e-12
-2.37337e-10
-8.92205e-13
-2.40284e-10
-1.02905e-14
-2.61679e-10
-2.60698e-10
-1.87917e-13
-1.20284e-12
-2.35947e-10
-9.55692e-13
-2.39517e-10
-1.03892e-14
-2.62871e-10
-2.61664e-10
-2.36013e-13
-1.27588e-12
-2.34435e-10
-1.00019e-12
-2.38752e-10
-8.87873e-15
-2.64138e-10
-2.62673e-10
-3.22316e-13
-1.30296e-12
-2.3281e-10
-1.00257e-12
-2.38072e-10
1.73079e-15
-2.65443e-10
-2.63674e-10
-4.43336e-13
-1.25624e-12
-2.3111e-10
-8.35967e-13
-2.37679e-10
2.92147e-14
-2.66728e-10
-2.6448e-10
-6.17252e-13
-1.11161e-12
-2.29381e-10
-4.73557e-13
-2.37823e-10
1.14449e-13
-2.67954e-10
-2.6484e-10
-8.74801e-13
-8.35365e-13
-2.27671e-10
8.65171e-15
-2.38707e-10
1.80424e-13
-2.6897e-10
-2.64651e-10
-5.0125e-13
-4.72227e-14
-2.27122e-10
6.18414e-13
-2.39827e-10
1.94051e-13
-2.69211e-10
-2.63838e-10
1.20293e-13
6.88147e-15
-2.2725e-10
-4.71138e-14
-2.39659e-10
6.17734e-14
-2.69266e-10
-2.63824e-10
4.12317e-12
8.96029e-13
-2.32269e-10
-6.16199e-12
-2.29374e-10
-2.9517e-12
-2.65419e-10
-2.72937e-10
8.65703e-13
-4.84537e-14
-2.33086e-10
-5.81553e-13
-2.27927e-10
1.41511e-13
-2.65609e-10
-2.73377e-10
-3.60441e-12
-3.39173e-12
-2.2609e-10
2.26016e-12
-2.33791e-10
1.4393e-12
-2.7044e-10
-2.69678e-10
-9.86142e-12
-4.17548e-12
-2.12053e-10
2.16069e-12
-2.45814e-10
2.63906e-13
-2.74879e-10
-2.67253e-10
-8.21779e-13
-8.66113e-13
-2.10365e-10
2.62312e-12
-2.49258e-10
2.15692e-12
-2.77902e-10
-2.62473e-10
-4.30796e-12
-4.24471e-12
-2.01812e-10
2.05333e-12
-2.5562e-10
2.13411e-12
-2.84281e-10
-2.58285e-10
1.01387e-12
4.22316e-13
-2.03248e-10
-3.032e-12
-2.51574e-10
-2.21963e-12
-2.81639e-10
-2.63537e-10
5.32618e-12
1.07607e-11
-2.19335e-10
-2.65105e-12
-2.43596e-10
-5.22847e-12
-2.65648e-10
-2.71416e-10
3.33762e-12
1.55213e-11
-2.38193e-10
-1.11295e-13
-2.40147e-10
-8.08557e-12
-2.42042e-10
-2.79613e-10
2.11419e-12
1.26254e-11
-2.52932e-10
-2.64063e-13
-2.37769e-10
-1.44532e-12
-2.27971e-10
-2.81322e-10
1.85644e-13
1.6947e-11
-2.70064e-10
6.49143e-12
-2.44075e-10
-3.19226e-11
-1.79101e-10
-3.06752e-10
-1.62228e-12
1.89213e-11
-2.87362e-10
3.59456e-12
-2.49292e-10
-3.74999e-12
-1.56431e-10
-3.06907e-10
-1.27799e-12
2.18897e-12
-2.88273e-10
2.24023e-12
-2.5281e-10
-1.43124e-12
-1.5281e-10
-3.06098e-10
-2.93958e-12
-9.89182e-13
-2.84345e-10
4.93366e-12
-2.60683e-10
2.32478e-12
-1.56124e-10
-2.98839e-10
-9.16331e-12
-1.14365e-11
-2.63746e-10
7.79657e-12
-2.77643e-10
7.55433e-12
-1.75115e-10
-2.83489e-10
-3.63012e-12
-8.7007e-12
-2.51415e-10
6.56147e-12
-2.87835e-10
1.4906e-11
-1.98722e-10
-2.62022e-10
-3.66581e-12
-9.23087e-12
-2.38519e-10
4.25002e-12
-2.9575e-10
8.71555e-12
-2.16669e-10
-2.49057e-10
-1.83284e-12
-5.09856e-12
-2.31588e-10
-6.27452e-13
-2.96956e-10
-1.26173e-13
-2.21641e-10
-2.4981e-10
-4.14851e-12
-5.93846e-12
-2.21501e-10
-1.98697e-12
-2.99117e-10
-4.88833e-12
-2.22692e-10
-2.56686e-10
-5.10659e-12
-1.85277e-12
-2.14542e-10
-2.56864e-12
-3.01655e-10
-3.97911e-12
-2.20565e-10
-2.63233e-10
-9.98206e-13
-2.04676e-13
-2.13338e-10
-2.6472e-12
-3.00006e-10
-3.88029e-12
-2.16889e-10
-2.69761e-10
6.61093e-14
-2.42467e-14
-2.1338e-10
-1.83758e-12
-2.98103e-10
-1.37048e-12
-2.15544e-10
-2.72969e-10
4.44639e-13
-8.95364e-13
-2.1293e-10
-1.57581e-12
-2.96082e-10
-2.06848e-14
-2.16418e-10
-2.74565e-10
1.78527e-12
-5.69398e-13
-2.14145e-10
-1.10171e-12
-2.93195e-10
1.82546e-12
-2.18814e-10
-2.73842e-10
2.53759e-12
-2.24291e-13
-2.16458e-10
-8.58509e-13
-2.898e-10
2.42718e-12
-2.21465e-10
-2.72273e-10
2.83434e-12
-1.15247e-13
-2.19177e-10
-7.41484e-13
-2.86224e-10
2.47949e-12
-2.24061e-10
-2.70534e-10
2.84401e-12
-7.50312e-14
-2.21946e-10
-6.57915e-13
-2.82723e-10
2.3657e-12
-2.26502e-10
-2.68826e-10
2.70092e-12
-5.07571e-14
-2.24596e-10
-5.84037e-13
-2.79438e-10
2.19735e-12
-2.2875e-10
-2.67213e-10
2.49278e-12
-3.65685e-14
-2.27052e-10
-5.16142e-13
-2.7643e-10
2.00602e-12
-2.30793e-10
-2.65722e-10
2.2681e-12
-2.68762e-14
-2.29292e-10
-4.53806e-13
-2.73708e-10
1.81714e-12
-2.32638e-10
-2.64359e-10
2.05011e-12
-1.94017e-14
-2.31323e-10
-3.97185e-13
-2.71261e-10
1.642e-12
-2.343e-10
-2.63114e-10
1.84791e-12
-1.33586e-14
-2.33157e-10
-3.46434e-13
-2.69067e-10
1.48343e-12
-2.35797e-10
-2.61976e-10
1.6639e-12
-8.5026e-15
-2.34812e-10
-3.01437e-13
-2.67102e-10
1.34086e-12
-2.37147e-10
-2.60936e-10
1.49771e-12
-4.70982e-15
-2.36305e-10
-2.61818e-13
-2.65343e-10
1.21276e-12
-2.38364e-10
-2.59985e-10
1.34803e-12
-1.8397e-15
-2.37651e-10
-2.27263e-13
-2.63768e-10
1.09754e-12
-2.39464e-10
-2.59114e-10
1.21336e-12
2.80391e-16
-2.38864e-10
-1.97291e-13
-2.62357e-10
9.93746e-13
-2.40458e-10
-2.58318e-10
1.09223e-12
1.8001e-15
-2.39958e-10
-1.71311e-13
-2.61094e-10
9.00118e-13
-2.41356e-10
-2.57589e-10
9.83284e-13
2.84926e-15
-2.40944e-10
-1.48804e-13
-2.59962e-10
8.15561e-13
-2.42169e-10
-2.56922e-10
8.85303e-13
3.5362e-15
-2.41832e-10
-1.29311e-13
-2.58947e-10
7.39122e-13
-2.42904e-10
-2.56312e-10
7.97176e-13
3.94874e-15
-2.42633e-10
-1.12433e-13
-2.58038e-10
6.69969e-13
-2.4357e-10
-2.55754e-10
7.1791e-13
4.15672e-15
-2.43355e-10
-9.78238e-14
-2.57222e-10
6.07366e-13
-2.44174e-10
-2.55244e-10
6.46608e-13
4.21498e-15
-2.44005e-10
-8.51828e-14
-2.5649e-10
5.50665e-13
-2.4472e-10
-2.54778e-10
5.82465e-13
4.16597e-15
-2.44592e-10
-7.42468e-14
-2.55833e-10
4.99286e-13
-2.45215e-10
-2.54353e-10
5.24757e-13
4.04215e-15
-2.45121e-10
-6.47876e-14
-2.55244e-10
4.52715e-13
-2.45664e-10
-2.53965e-10
4.72837e-13
3.86803e-15
-2.45597e-10
-5.64095e-14
-2.54714e-10
4.1049e-13
-2.4607e-10
-2.53611e-10
4.26117e-13
3.66188e-15
-2.46027e-10
-4.88213e-14
-2.54239e-10
3.72195e-13
-2.46439e-10
-2.53287e-10
3.84072e-13
3.43712e-15
-2.46414e-10
-4.22341e-14
-2.53813e-10
3.37463e-13
-2.46773e-10
-2.52992e-10
3.46227e-13
3.2034e-15
-2.46764e-10
-3.652e-14
-2.53431e-10
3.05959e-13
-2.47076e-10
-2.52723e-10
3.12156e-13
2.96683e-15
-2.47079e-10
-3.15663e-14
-2.53087e-10
2.77384e-13
-2.4735e-10
-2.52477e-10
2.81479e-13
2.73049e-15
-2.47363e-10
-2.72744e-14
-2.52779e-10
2.51464e-13
-2.47599e-10
-2.52253e-10
2.53852e-13
2.49863e-15
-2.4762e-10
-2.3558e-14
-2.52502e-10
2.27953e-13
-2.47825e-10
-2.52048e-10
2.28968e-13
2.27417e-15
-2.47851e-10
-2.03414e-14
-2.52253e-10
2.06628e-13
-2.4803e-10
-2.51862e-10
2.06551e-13
2.05891e-15
-2.4806e-10
-1.75588e-14
-2.52029e-10
1.87287e-13
-2.48215e-10
-2.51693e-10
1.86352e-13
1.85391e-15
-2.48248e-10
-1.51527e-14
-2.51828e-10
1.69746e-13
-2.48384e-10
-2.51538e-10
1.68149e-13
1.67958e-15
-2.48418e-10
-1.30731e-14
-2.51647e-10
1.53839e-13
-2.48536e-10
-2.51398e-10
1.51743e-13
1.53238e-15
-2.48572e-10
-1.12764e-14
-2.51484e-10
1.39414e-13
-2.48674e-10
-2.5127e-10
1.36954e-13
1.3992e-15
-2.4871e-10
-9.70322e-15
-2.51338e-10
1.26333e-13
-2.488e-10
-2.51153e-10
1.23621e-13
1.27354e-15
-2.48835e-10
-8.29547e-15
-2.51206e-10
1.14471e-13
-2.48913e-10
-2.51047e-10
1.11598e-13
1.15167e-15
-2.48948e-10
-7.09646e-15
-2.51087e-10
1.03715e-13
-2.49016e-10
-2.50951e-10
1.00756e-13
1.03225e-15
-2.4905e-10
-6.07406e-15
-2.50981e-10
9.3964e-14
-2.49109e-10
-2.50863e-10
9.09771e-14
9.1558e-16
-2.49142e-10
-5.20172e-15
-2.50884e-10
8.51246e-14
-2.49193e-10
-2.50783e-10
8.2156e-14
8.02916e-16
-2.49225e-10
-4.45717e-15
-2.50798e-10
7.71123e-14
-2.49269e-10
-2.50711e-10
7.41979e-14
6.95871e-16
-2.493e-10
-3.82162e-15
-2.5072e-10
6.98504e-14
-2.49338e-10
-2.50645e-10
6.70178e-14
5.96051e-16
-2.49368e-10
-3.27931e-15
-2.50649e-10
6.32691e-14
-2.49401e-10
-2.50585e-10
6.05388e-14
5.04848e-16
-2.49429e-10
-2.81637e-15
-2.50586e-10
5.73053e-14
-2.49457e-10
-2.5053e-10
5.4692e-14
4.23369e-16
-2.49484e-10
-2.42087e-15
-2.50529e-10
5.19014e-14
-2.49509e-10
-2.50481e-10
4.94153e-14
3.52343e-16
-2.49534e-10
-2.08281e-15
-2.50477e-10
4.70052e-14
-2.49555e-10
-2.50436e-10
4.46525e-14
2.92666e-16
-2.49579e-10
-1.79358e-15
-2.5043e-10
4.25695e-14
-2.49597e-10
-2.50395e-10
4.03534e-14
2.44587e-16
-2.49619e-10
-1.54588e-15
-2.50388e-10
3.85514e-14
-2.49635e-10
-2.50358e-10
3.64726e-14
2.06927e-16
-2.49656e-10
-1.33347e-15
-2.5035e-10
3.49119e-14
-2.4967e-10
-2.50324e-10
3.29691e-14
1.78283e-16
-2.49689e-10
-1.15103e-15
-2.50316e-10
3.16157e-14
-2.49701e-10
-2.50294e-10
2.9806e-14
1.57189e-16
-2.49718e-10
-9.94041e-16
-2.50285e-10
2.86308e-14
-2.49729e-10
-2.50266e-10
2.69503e-14
1.42234e-16
-2.49745e-10
-8.58232e-16
-2.50257e-10
2.59282e-14
-2.49755e-10
-2.50241e-10
2.43719e-14
1.32096e-16
-2.4977e-10
-7.40461e-16
-2.50232e-10
2.34814e-14
-2.49778e-10
-2.50218e-10
2.20439e-14
1.25562e-16
-2.49792e-10
-6.38001e-16
-2.50209e-10
2.12668e-14
-2.49799e-10
-2.50197e-10
1.9942e-14
1.21639e-16
-2.49812e-10
-5.48536e-16
-2.50188e-10
1.92626e-14
-2.49819e-10
-2.50178e-10
1.80441e-14
1.19506e-16
-2.4983e-10
-4.70116e-16
-2.5017e-10
1.74493e-14
-2.49836e-10
-2.50161e-10
1.63307e-14
1.18505e-16
-2.49846e-10
-4.0114e-16
-2.50153e-10
1.58092e-14
-2.49852e-10
-2.50146e-10
1.47837e-14
1.18116e-16
-2.49861e-10
-3.40416e-16
-2.50138e-10
1.43262e-14
-2.49866e-10
-2.50132e-10
1.33872e-14
1.17948e-16
-2.49875e-10
-2.86828e-16
-2.50125e-10
1.29857e-14
-2.49879e-10
-2.50119e-10
1.21267e-14
1.1772e-16
-2.49887e-10
-2.39273e-16
-2.50112e-10
1.17747e-14
-2.49891e-10
-2.50108e-10
1.09892e-14
1.17243e-16
-2.49898e-10
-1.96952e-16
-2.50101e-10
1.06811e-14
-2.49902e-10
-2.50097e-10
9.96294e-15
1.16316e-16
-2.49908e-10
-1.59171e-16
-2.50091e-10
9.69405e-15
-2.49911e-10
-2.50088e-10
9.03742e-15
1.14787e-16
-2.49918e-10
-1.25504e-16
-2.50082e-10
8.80386e-15
-2.4992e-10
-2.50079e-10
8.20314e-15
1.12748e-16
-2.49926e-10
-9.53929e-17
-2.50074e-10
8.0016e-15
-2.49928e-10
-2.50071e-10
7.45161e-15
1.10225e-16
-2.49933e-10
-6.83094e-17
-2.50067e-10
7.27924e-15
-2.49935e-10
-2.50064e-10
6.77519e-15
1.07352e-16
-2.4994e-10
-4.38089e-17
-2.5006e-10
6.62947e-15
-2.49942e-10
-2.50058e-10
6.16702e-15
1.04392e-16
-2.49947e-10
-2.15827e-17
-2.50054e-10
6.04572e-15
-2.49948e-10
-2.50052e-10
5.62097e-15
1.01589e-16
-2.49953e-10
-1.30243e-18
-2.50049e-10
5.52201e-15
-2.49954e-10
-2.50046e-10
5.13155e-15
9.91703e-17
-2.49958e-10
1.73314e-17
-2.50043e-10
5.05295e-15
-2.49959e-10
-2.50041e-10
4.69387e-15
9.73535e-17
-2.49963e-10
3.45419e-17
-2.50039e-10
4.63368e-15
-2.49963e-10
-2.50036e-10
4.30365e-15
9.63417e-17
-2.49967e-10
5.04648e-17
-2.50034e-10
4.25984e-15
-2.49967e-10
-2.50032e-10
3.95725e-15
9.62976e-17
-2.49971e-10
6.51147e-17
-2.50031e-10
3.92765e-15
-2.49971e-10
-2.50028e-10
3.65184e-15
9.72653e-17
-2.49975e-10
7.83449e-17
-2.50027e-10
3.63412e-15
-2.49974e-10
-2.50024e-10
3.38585e-15
9.8976e-17
-2.49978e-10
8.98493e-17
-2.50023e-10
3.3776e-15
-2.49978e-10
-2.50021e-10
3.16058e-15
1.00663e-16
-2.49982e-10
9.91462e-17
-2.5002e-10
3.1597e-15
-2.49981e-10
-2.50018e-10
2.9848e-15
1.00959e-16
-2.49985e-10
1.05442e-16
-2.50017e-10
2.98975e-15
-2.49983e-10
-2.50015e-10
2.91485e-15
1.14628e-16
1.18405e-16
2.91948e-15
)
;

boundaryField
{
    inlet
    {
        type            calculated;
        value           nonuniform List<scalar> 4(-2.49988e-10 -2.49986e-10 -2.50014e-10 -2.50012e-10);
    }
    outlet
    {
        type            calculated;
        value           nonuniform List<scalar> 4(2.49982e-10 2.50014e-10 2.49982e-10 2.50014e-10);
    }
    repeat_boundary
    {
        type            calculated;
        value           uniform 0;
    }
}


// ************************************************************************* //
