/*--------------------------------*- C++ -*----------------------------------*\
| =========                 |                                                 |
| \\      /  F ield         | OpenFOAM: The Open Source CFD Toolbox           |
|  \\    /   O peration     | Version:  5.x                                   |
|   \\  /    A nd           | Web:      www.OpenFOAM.org                      |
|    \\/     M anipulation  |                                                 |
\*---------------------------------------------------------------------------*/
FoamFile
{
    version     2.0;
    format      ascii;
    class       volVectorField;
    location    "0.04";
    object      U;
}
// * * * * * * * * * * * * * * * * * * * * * * * * * * * * * * * * * * * * * //

dimensions      [0 1 -1 0 0 0 0];

internalField   nonuniform List<vector> 
2250
(
(-3.41351e-11 -1.46318e-10 -0.000999999)
(-9.62842e-11 -1.455e-10 -0.000999999)
(-1.48527e-10 -1.46406e-10 -0.001)
(-1.87453e-10 -1.44894e-10 -0.001)
(-1.63462e-10 -1.46259e-10 -0.001)
(-3.28091e-11 -1.2557e-10 -0.000999999)
(-9.47416e-11 -1.26116e-10 -0.001)
(-1.46441e-10 -1.27683e-10 -0.001)
(-1.8601e-10 -1.28072e-10 -0.001)
(-1.76992e-10 -1.31947e-10 -0.001)
(-3.43829e-11 -1.03859e-10 -0.001)
(-9.80988e-11 -1.07101e-10 -0.001)
(-1.50471e-10 -1.10189e-10 -0.001)
(-1.91691e-10 -1.14804e-10 -0.001)
(-1.84854e-10 -1.22814e-10 -0.001)
(-3.57862e-11 -7.02081e-11 -0.001)
(-1.00815e-10 -7.19367e-11 -0.001)
(-1.54128e-10 -7.36467e-11 -0.001)
(-1.98619e-10 -7.71423e-11 -0.001)
(-1.91365e-10 -8.46839e-11 -0.001)
(-3.58729e-11 -2.47573e-11 -0.001)
(-1.01171e-10 -2.49676e-11 -0.001)
(-1.55352e-10 -2.53649e-11 -0.001)
(-2.02315e-10 -2.65019e-11 -0.001)
(-1.95248e-10 -2.94533e-11 -0.001)
(-9.00671e-11 -4.27236e-10 -0.000999999)
(-2.66317e-10 -4.30039e-10 -0.000999999)
(-4.24355e-10 -4.33036e-10 -0.000999999)
(-5.6369e-10 -4.25634e-10 -0.001)
(-4.74964e-10 -4.4265e-10 -0.001)
(-9.15428e-11 -3.73805e-10 -0.000999999)
(-2.68049e-10 -3.80698e-10 -0.000999999)
(-4.18878e-10 -3.85076e-10 -0.001)
(-5.36812e-10 -3.84338e-10 -0.001)
(-5.20272e-10 -3.69817e-10 -0.001)
(-9.61013e-11 -3.06386e-10 -0.001)
(-2.76761e-10 -3.14831e-10 -0.001)
(-4.27959e-10 -3.21805e-10 -0.001)
(-5.48444e-10 -3.31204e-10 -0.001)
(-5.35405e-10 -3.45602e-10 -0.001)
(-9.92874e-11 -2.02851e-10 -0.001)
(-2.82786e-10 -2.06123e-10 -0.001)
(-4.35206e-10 -2.08934e-10 -0.001)
(-5.60578e-10 -2.13914e-10 -0.001)
(-5.50698e-10 -2.24858e-10 -0.001)
(-9.8758e-11 -7.0522e-11 -0.001)
(-2.81861e-10 -7.02949e-11 -0.001)
(-4.34862e-10 -7.02699e-11 -0.001)
(-5.63253e-10 -7.08114e-11 -0.001)
(-5.58594e-10 -7.40293e-11 -0.001)
(-1.46626e-10 -7.70504e-10 -0.000999999)
(-4.42155e-10 -7.78518e-10 -0.000999999)
(-7.04892e-10 -7.82416e-10 -0.000999999)
(-9.70257e-10 -7.66895e-10 -0.000999999)
(-8.3483e-10 -8.11792e-10 -0.001)
(-1.52599e-10 -6.87554e-10 -0.000999999)
(-4.49669e-10 -7.00721e-10 -0.000999999)
(-7.01265e-10 -7.07188e-10 -0.000999999)
(-8.97354e-10 -7.09569e-10 -0.001)
(-9.13316e-10 -6.45067e-10 -0.001)
(-1.58283e-10 -5.50204e-10 -0.000999999)
(-4.60349e-10 -5.60271e-10 -0.001)
(-7.13699e-10 -5.67135e-10 -0.001)
(-9.08139e-10 -5.76946e-10 -0.001)
(-9.19818e-10 -5.82528e-10 -0.001)
(-1.61508e-10 -3.56973e-10 -0.001)
(-4.65449e-10 -3.59559e-10 -0.001)
(-7.17864e-10 -3.58695e-10 -0.001)
(-9.12707e-10 -3.56876e-10 -0.001)
(-9.32156e-10 -3.54835e-10 -0.001)
(-1.59869e-10 -1.22761e-10 -0.001)
(-4.60437e-10 -1.21634e-10 -0.001)
(-7.09542e-10 -1.18892e-10 -0.001)
(-9.02423e-10 -1.1476e-10 -0.001)
(-9.34586e-10 -1.10445e-10 -0.001)
(-2.15371e-10 -1.18943e-09 -0.000999998)
(-6.40768e-10 -1.19823e-09 -0.000999999)
(-1.00536e-09 -1.20603e-09 -0.000999999)
(-1.31749e-09 -1.1948e-09 -0.000999999)
(-1.27717e-09 -1.24607e-09 -0.001)
(-2.20648e-10 -1.06684e-09 -0.000999999)
(-6.50178e-10 -1.07884e-09 -0.000999999)
(-1.01114e-09 -1.08654e-09 -0.000999999)
(-1.27461e-09 -1.09393e-09 -0.001)
(-1.35008e-09 -1.05106e-09 -0.001)
(-2.25216e-10 -8.39171e-10 -0.000999999)
(-6.58356e-10 -8.46698e-10 -0.000999999)
(-1.02038e-09 -8.4759e-10 -0.001)
(-1.28201e-09 -8.47653e-10 -0.001)
(-1.35239e-09 -8.40845e-10 -0.001)
(-2.26524e-10 -5.39351e-10 -0.000999999)
(-6.56918e-10 -5.38588e-10 -0.001)
(-1.01198e-09 -5.28275e-10 -0.001)
(-1.26779e-09 -5.11411e-10 -0.001)
(-1.35368e-09 -4.89068e-10 -0.001)
(-2.22984e-10 -1.85133e-10 -0.001)
(-6.44942e-10 -1.82424e-10 -0.001)
(-9.9114e-10 -1.74842e-10 -0.001)
(-1.24022e-09 -1.63623e-10 -0.001)
(-1.34525e-09 -1.49844e-10 -0.001)
(-3.03229e-10 -1.70425e-09 -0.000999998)
(-8.89461e-10 -1.71056e-09 -0.000999998)
(-1.37779e-09 -1.7208e-09 -0.000999999)
(-1.73613e-09 -1.72272e-09 -0.000999999)
(-1.82206e-09 -1.77065e-09 -0.001)
(-3.05365e-10 -1.52287e-09 -0.000999999)
(-8.97015e-10 -1.52966e-09 -0.000999999)
(-1.39308e-09 -1.53407e-09 -0.000999999)
(-1.74313e-09 -1.54201e-09 -0.001)
(-1.88868e-09 -1.53484e-09 -0.001)
(-3.07125e-10 -1.19429e-09 -0.000999999)
(-8.97738e-10 -1.19493e-09 -0.000999999)
(-1.39004e-09 -1.18265e-09 -0.001)
(-1.73689e-09 -1.1629e-09 -0.001)
(-1.88596e-09 -1.13446e-09 -0.001)
(-3.03763e-10 -7.65569e-10 -0.000999999)
(-8.83033e-10 -7.57428e-10 -0.001)
(-1.36089e-09 -7.32901e-10 -0.001)
(-1.69484e-09 -6.9755e-10 -0.001)
(-1.87316e-09 -6.52826e-10 -0.001)
(-2.97031e-10 -2.62992e-10 -0.001)
(-8.61899e-10 -2.573e-10 -0.001)
(-1.32743e-09 -2.4407e-10 -0.001)
(-1.65343e-09 -2.26525e-10 -0.001)
(-1.85526e-09 -2.06006e-10 -0.001)
(-4.21789e-10 -2.3763e-09 -0.000999997)
(-1.22957e-09 -2.37812e-09 -0.000999998)
(-1.89663e-09 -2.38196e-09 -0.000999998)
(-2.38827e-09 -2.38036e-09 -0.000999999)
(-2.57401e-09 -2.40779e-09 -0.001)
(-4.20077e-10 -2.11653e-09 -0.000999998)
(-1.22802e-09 -2.11471e-09 -0.000999998)
(-1.90483e-09 -2.10459e-09 -0.000999999)
(-2.3908e-09 -2.0999e-09 -0.001)
(-2.61996e-09 -2.07758e-09 -0.001)
(-4.16064e-10 -1.66227e-09 -0.000999999)
(-1.21357e-09 -1.65082e-09 -0.000999999)
(-1.88166e-09 -1.61935e-09 -0.001)
(-2.36119e-09 -1.57825e-09 -0.001)
(-2.60234e-09 -1.52451e-09 -0.001)
(-4.05534e-10 -1.06234e-09 -0.000999999)
(-1.18184e-09 -1.04437e-09 -0.001)
(-1.83206e-09 -1.00663e-09 -0.001)
(-2.29581e-09 -9.59194e-10 -0.001)
(-2.57752e-09 -9.01528e-10 -0.001)
(-3.95405e-10 -3.64384e-10 -0.001)
(-1.15358e-09 -3.55661e-10 -0.001)
(-1.79286e-09 -3.39053e-10 -0.001)
(-2.25159e-09 -3.19998e-10 -0.001)
(-2.55531e-09 -2.99229e-10 -0.001)
(-5.83072e-10 -3.29452e-09 -0.000999997)
(-1.69131e-09 -3.29004e-09 -0.000999997)
(-2.6098e-09 -3.2836e-09 -0.000999998)
(-3.28772e-09 -3.27603e-09 -0.000999999)
(-3.57871e-09 -3.27274e-09 -0.001)
(-5.73953e-10 -2.93603e-09 -0.000999998)
(-1.66961e-09 -2.9208e-09 -0.000999998)
(-2.59154e-09 -2.88918e-09 -0.000999999)
(-3.27533e-09 -2.86325e-09 -0.001)
(-3.60467e-09 -2.82812e-09 -0.001)
(-5.6242e-10 -2.30652e-09 -0.000999999)
(-1.63878e-09 -2.28259e-09 -0.000999999)
(-2.55208e-09 -2.23824e-09 -0.001)
(-3.22672e-09 -2.18928e-09 -0.001)
(-3.57997e-09 -2.12533e-09 -0.001)
(-5.45712e-10 -1.46904e-09 -0.000999999)
(-1.59674e-09 -1.44513e-09 -0.000999999)
(-2.49792e-09 -1.40595e-09 -0.001)
(-3.16223e-09 -1.36357e-09 -0.001)
(-3.5525e-09 -1.31347e-09 -0.001)
(-5.34733e-10 -5.02742e-10 -0.000999999)
(-1.56972e-09 -4.93715e-10 -0.001)
(-2.46553e-09 -4.79738e-10 -0.001)
(-3.12809e-09 -4.66141e-10 -0.001)
(-3.53007e-09 -4.51583e-10 -0.001)
(-7.88205e-10 -4.55551e-09 -0.000999995)
(-2.28005e-09 -4.54777e-09 -0.000999996)
(-3.53417e-09 -4.539e-09 -0.000999997)
(-4.47945e-09 -4.54829e-09 -0.000999998)
(-4.84199e-09 -4.57086e-09 -0.000999999)
(-7.72867e-10 -4.07271e-09 -0.000999997)
(-2.24523e-09 -4.04978e-09 -0.000999997)
(-3.49806e-09 -4.01184e-09 -0.000999998)
(-4.44578e-09 -3.97812e-09 -0.000999999)
(-4.90561e-09 -3.93315e-09 -0.001)
(-7.57625e-10 -3.20467e-09 -0.000999998)
(-2.21121e-09 -3.17857e-09 -0.000999999)
(-3.46225e-09 -3.1416e-09 -0.000999999)
(-4.40074e-09 -3.10772e-09 -0.001)
(-4.89034e-09 -3.05703e-09 -0.001)
(-7.40701e-10 -2.04069e-09 -0.000999999)
(-2.17577e-09 -2.02195e-09 -0.000999999)
(-3.4268e-09 -1.9984e-09 -0.001)
(-4.36095e-09 -1.97737e-09 -0.001)
(-4.87105e-09 -1.94692e-09 -0.001)
(-7.33661e-10 -6.98517e-10 -0.000999999)
(-2.1607e-09 -6.94154e-10 -0.001)
(-3.4108e-09 -6.88944e-10 -0.001)
(-4.34074e-09 -6.84743e-10 -0.001)
(-4.84822e-09 -6.7701e-10 -0.001)
(-1.0452e-09 -6.28741e-09 -0.000999994)
(-3.03521e-09 -6.28556e-09 -0.000999994)
(-4.73875e-09 -6.28194e-09 -0.000999996)
(-6.05216e-09 -6.30465e-09 -0.000999997)
(-6.54943e-09 -6.37959e-09 -0.000999999)
(-1.03346e-09 -5.64499e-09 -0.000999996)
(-3.01033e-09 -5.63251e-09 -0.000999996)
(-4.7107e-09 -5.61129e-09 -0.000999998)
(-6.00376e-09 -5.59046e-09 -0.000999999)
(-6.64275e-09 -5.53029e-09 -0.001)
(-1.02207e-09 -4.45847e-09 -0.000999998)
(-2.99048e-09 -4.44542e-09 -0.000999998)
(-4.69634e-09 -4.43249e-09 -0.000999999)
(-5.97116e-09 -4.42522e-09 -0.001)
(-6.6342e-09 -4.38801e-09 -0.001)
(-1.01199e-09 -2.84833e-09 -0.000999999)
(-2.97551e-09 -2.84566e-09 -0.000999999)
(-4.68995e-09 -2.845e-09 -0.001)
(-5.95893e-09 -2.84634e-09 -0.001)
(-6.62198e-09 -2.83004e-09 -0.001)
(-1.01215e-09 -9.77704e-10 -0.000999999)
(-2.97583e-09 -9.81576e-10 -0.001)
(-4.68761e-09 -9.85549e-10 -0.001)
(-5.94447e-09 -9.88234e-10 -0.001)
(-6.59421e-09 -9.82486e-10 -0.00100001)
(-1.39431e-09 -8.67307e-09 -0.000999992)
(-4.07155e-09 -8.68201e-09 -0.000999993)
(-6.38972e-09 -8.67877e-09 -0.000999994)
(-8.17241e-09 -8.69104e-09 -0.000999996)
(-8.90973e-09 -8.77926e-09 -0.000999999)
(-1.39141e-09 -7.81866e-09 -0.000999994)
(-4.06296e-09 -7.82636e-09 -0.000999995)
(-6.36703e-09 -7.82285e-09 -0.000999997)
(-8.1023e-09 -7.80691e-09 -0.000999999)
(-8.99383e-09 -7.72228e-09 -0.001)
(-1.38731e-09 -6.1949e-09 -0.000999997)
(-4.06057e-09 -6.20144e-09 -0.000999998)
(-6.36978e-09 -6.2093e-09 -0.000999999)
(-8.07182e-09 -6.21759e-09 -0.001)
(-8.97391e-09 -6.17997e-09 -0.001)
(-1.38629e-09 -3.97259e-09 -0.000999999)
(-4.06515e-09 -3.98698e-09 -0.000999999)
(-6.38243e-09 -4.00066e-09 -0.001)
(-8.07248e-09 -4.01219e-09 -0.001)
(-8.95721e-09 -4.00012e-09 -0.00100001)
(-1.39163e-09 -1.36777e-09 -0.001)
(-4.07303e-09 -1.37823e-09 -0.001)
(-6.38217e-09 -1.38595e-09 -0.001)
(-8.05533e-09 -1.39023e-09 -0.001)
(-8.92126e-09 -1.38431e-09 -0.00100001)
(-1.89297e-09 -1.19414e-08 -0.000999989)
(-5.53066e-09 -1.1954e-08 -0.00099999)
(-8.67396e-09 -1.19391e-08 -0.000999992)
(-1.10833e-08 -1.19227e-08 -0.000999996)
(-1.21182e-08 -1.20193e-08 -0.000999999)
(-1.89148e-09 -1.07914e-08 -0.000999993)
(-5.52169e-09 -1.08097e-08 -0.000999994)
(-8.63953e-09 -1.08069e-08 -0.000999996)
(-1.09666e-08 -1.07783e-08 -0.000999999)
(-1.21896e-08 -1.06431e-08 -0.001)
(-1.89101e-09 -8.56141e-09 -0.000999996)
(-5.52525e-09 -8.58127e-09 -0.000999997)
(-8.64191e-09 -8.59378e-09 -0.000999999)
(-1.09195e-08 -8.59844e-09 -0.001)
(-1.21463e-08 -8.54354e-09 -0.00100001)
(-1.89524e-09 -5.50304e-09 -0.000999998)
(-5.5372e-09 -5.52631e-09 -0.001)
(-8.65566e-09 -5.54069e-09 -0.001)
(-1.09157e-08 -5.54997e-09 -0.001)
(-1.2118e-08 -5.53681e-09 -0.00100001)
(-1.90032e-09 -1.89752e-09 -0.001)
(-5.54144e-09 -1.90968e-09 -0.001)
(-8.64812e-09 -1.91588e-09 -0.001)
(-1.0894e-08 -1.91885e-09 -0.00100001)
(-1.20762e-08 -1.91515e-09 -0.00100001)
(-2.58912e-09 -1.63814e-08 -0.000999985)
(-7.54401e-09 -1.63869e-08 -0.000999987)
(-1.17997e-08 -1.635e-08 -0.00099999)
(-1.50235e-08 -1.62968e-08 -0.000999994)
(-1.65699e-08 -1.63397e-08 -0.000999999)
(-2.58033e-09 -1.48064e-08 -0.00099999)
(-7.52436e-09 -1.48231e-08 -0.000999992)
(-1.17532e-08 -1.48116e-08 -0.000999995)
(-1.48927e-08 -1.47626e-08 -0.001)
(-1.65453e-08 -1.46046e-08 -0.001)
(-2.57814e-09 -1.17538e-08 -0.000999995)
(-7.52067e-09 -1.17779e-08 -0.000999996)
(-1.17384e-08 -1.17805e-08 -0.001)
(-1.48164e-08 -1.17658e-08 -0.001)
(-1.64736e-08 -1.16867e-08 -0.00100001)
(-2.58235e-09 -7.56317e-09 -0.000999998)
(-7.52794e-09 -7.58784e-09 -0.001)
(-1.17397e-08 -7.59396e-09 -0.001)
(-1.4798e-08 -7.5927e-09 -0.00100001)
(-1.64313e-08 -7.57434e-09 -0.00100001)
(-2.58365e-09 -2.60824e-09 -0.001)
(-7.52207e-09 -2.61924e-09 -0.001)
(-1.17196e-08 -2.62173e-09 -0.001)
(-1.47675e-08 -2.62186e-09 -0.00100001)
(-1.63833e-08 -2.61967e-09 -0.00100001)
(-3.53439e-09 -2.24138e-08 -0.00099998)
(-1.02884e-08 -2.24122e-08 -0.000999983)
(-1.60646e-08 -2.2347e-08 -0.000999987)
(-2.0363e-08 -2.22387e-08 -0.000999993)
(-2.26645e-08 -2.21505e-08 -0.001)
(-3.51932e-09 -2.02367e-08 -0.000999987)
(-1.02597e-08 -2.02524e-08 -0.00099999)
(-1.60116e-08 -2.02257e-08 -0.000999994)
(-2.02375e-08 -2.01543e-08 -0.001)
(-2.24871e-08 -1.9998e-08 -0.00100001)
(-3.51238e-09 -1.60754e-08 -0.000999993)
(-1.02385e-08 -1.60992e-08 -0.000999996)
(-1.59653e-08 -1.60793e-08 -0.001)
(-2.01352e-08 -1.60319e-08 -0.00100001)
(-2.23717e-08 -1.59366e-08 -0.00100001)
(-3.51292e-09 -1.0348e-08 -0.000999998)
(-1.0232e-08 -1.03709e-08 -0.001)
(-1.59424e-08 -1.03612e-08 -0.001)
(-2.00936e-08 -1.0339e-08 -0.00100001)
(-2.23073e-08 -1.03054e-08 -0.00100002)
(-3.50916e-09 -3.56759e-09 -0.001)
(-1.02117e-08 -3.57706e-09 -0.001)
(-1.59012e-08 -3.5737e-09 -0.00100001)
(-2.00396e-08 -3.56677e-09 -0.00100001)
(-2.22394e-08 -3.55825e-09 -0.00100002)
(-4.82239e-09 -3.06612e-08 -0.000999974)
(-1.40479e-08 -3.06553e-08 -0.000999977)
(-2.19088e-08 -3.05487e-08 -0.000999982)
(-2.76259e-08 -3.03697e-08 -0.00099999)
(-3.08678e-08 -3.01235e-08 -0.001)
(-4.80148e-09 -2.76596e-08 -0.000999983)
(-1.39941e-08 -2.76739e-08 -0.000999986)
(-2.1819e-08 -2.76052e-08 -0.000999992)
(-2.74988e-08 -2.74891e-08 -0.001)
(-3.05596e-08 -2.73428e-08 -0.00100001)
(-4.78512e-09 -2.19745e-08 -0.000999991)
(-1.39401e-08 -2.19919e-08 -0.000999994)
(-2.17224e-08 -2.19318e-08 -0.001)
(-2.73634e-08 -2.18348e-08 -0.00100001)
(-3.03881e-08 -2.17148e-08 -0.00100002)
(-4.77765e-09 -1.41424e-08 -0.000999997)
(-1.39082e-08 -1.41595e-08 -0.001)
(-2.16592e-08 -1.41227e-08 -0.00100001)
(-2.72802e-08 -1.40648e-08 -0.00100001)
(-3.02841e-08 -1.39971e-08 -0.00100002)
(-4.76664e-09 -4.87397e-09 -0.001)
(-1.38659e-08 -4.88096e-09 -0.001)
(-2.15839e-08 -4.86762e-09 -0.00100001)
(-2.71838e-08 -4.84761e-09 -0.00100002)
(-3.01756e-08 -4.82375e-09 -0.00100003)
(-6.59258e-09 -4.19662e-08 -0.000999964)
(-1.91986e-08 -4.19446e-08 -0.000999968)
(-2.9895e-08 -4.17697e-08 -0.000999976)
(-3.75936e-08 -4.15019e-08 -0.000999987)
(-4.19328e-08 -4.11169e-08 -0.001)
(-6.5526e-09 -3.78512e-08 -0.000999977)
(-1.90794e-08 -3.78465e-08 -0.000999981)
(-2.97183e-08 -3.7696e-08 -0.000999989)
(-3.73948e-08 -3.74985e-08 -0.001)
(-4.15245e-08 -3.72962e-08 -0.00100001)
(-6.51748e-09 -3.00513e-08 -0.000999988)
(-1.89706e-08 -3.00509e-08 -0.000999992)
(-2.95447e-08 -2.99303e-08 -0.001)
(-3.71937e-08 -2.97605e-08 -0.00100001)
(-4.1282e-08 -2.95829e-08 -0.00100002)
(-6.49597e-09 -1.93275e-08 -0.000999996)
(-1.88995e-08 -1.93328e-08 -0.001)
(-2.94244e-08 -1.92583e-08 -0.00100001)
(-3.70451e-08 -1.91516e-08 -0.00100002)
(-4.11195e-08 -1.90331e-08 -0.00100003)
(-6.47437e-09 -6.65775e-09 -0.001)
(-1.88272e-08 -6.66066e-09 -0.001)
(-2.93041e-08 -6.63426e-09 -0.00100001)
(-3.68951e-08 -6.59747e-09 -0.00100002)
(-4.09554e-08 -6.55573e-09 -0.00100004)
(-9.00583e-09 -5.74315e-08 -0.000999951)
(-2.61861e-08 -5.73778e-08 -0.000999957)
(-4.07273e-08 -5.71045e-08 -0.000999968)
(-5.11925e-08 -5.672e-08 -0.000999983)
(-5.70308e-08 -5.6157e-08 -0.001)
(-8.92928e-09 -5.1799e-08 -0.000999969)
(-2.5972e-08 -5.17564e-08 -0.000999975)
(-4.04364e-08 -5.15054e-08 -0.000999985)
(-5.0879e-08 -5.11996e-08 -0.001)
(-5.64624e-08 -5.08936e-08 -0.00100002)
(-8.8673e-09 -4.10963e-08 -0.000999984)
(-2.57932e-08 -4.10715e-08 -0.00099999)
(-4.01673e-08 -4.08798e-08 -0.001)
(-5.05806e-08 -4.0619e-08 -0.00100002)
(-5.61142e-08 -4.03559e-08 -0.00100003)
(-8.82789e-09 -2.6412e-08 -0.000999995)
(-2.56752e-08 -2.64041e-08 -0.001)
(-3.9979e-08 -2.62871e-08 -0.00100001)
(-5.0352e-08 -2.61223e-08 -0.00100003)
(-5.5868e-08 -2.59444e-08 -0.00100004)
(-8.79351e-09 -9.09388e-09 -0.001)
(-2.55672e-08 -9.09288e-09 -0.00100001)
(-3.98044e-08 -9.05236e-09 -0.00100002)
(-5.01377e-08 -8.99611e-09 -0.00100003)
(-5.56325e-08 -8.93555e-09 -0.00100005)
(-1.22614e-08 -7.85556e-08 -0.000999934)
(-3.56161e-08 -7.84679e-08 -0.000999942)
(-5.5395e-08 -7.8073e-08 -0.000999956)
(-6.96769e-08 -7.75301e-08 -0.000999976)
(-7.75911e-08 -7.67539e-08 -0.001)
(-1.21432e-08 -7.08392e-08 -0.000999958)
(-3.53052e-08 -7.07606e-08 -0.000999966)
(-5.4981e-08 -7.04087e-08 -0.00099998)
(-6.92286e-08 -6.99695e-08 -0.001)
(-7.68145e-08 -6.95299e-08 -0.00100002)
(-1.2052e-08 -5.61898e-08 -0.000999979)
(-3.505e-08 -5.6144e-08 -0.000999987)
(-5.45995e-08 -5.5871e-08 -0.001)
(-6.8798e-08 -5.5493e-08 -0.00100002)
(-7.63e-08 -5.51057e-08 -0.00100004)
(-1.19929e-08 -3.60949e-08 -0.000999994)
(-3.48768e-08 -3.60752e-08 -0.001)
(-5.43233e-08 -3.59046e-08 -0.00100002)
(-6.84592e-08 -3.56585e-08 -0.00100004)
(-7.59217e-08 -3.53908e-08 -0.00100006)
(-1.19423e-08 -1.24234e-08 -0.001)
(-3.47219e-08 -1.24183e-08 -0.00100001)
(-5.40724e-08 -1.23591e-08 -0.00100002)
(-6.81475e-08 -1.22735e-08 -0.00100004)
(-7.55809e-08 -1.21804e-08 -0.00100007)
(-1.66621e-08 -1.07427e-07 -0.00099991)
(-4.84071e-08 -1.07304e-07 -0.000999921)
(-7.53609e-08 -1.06737e-07 -0.000999941)
(-9.49018e-08 -1.05947e-07 -0.000999968)
(-1.0557e-07 -1.04879e-07 -0.001)
(-1.65022e-08 -9.68521e-08 -0.000999944)
(-4.79841e-08 -9.67436e-08 -0.000999954)
(-7.47601e-08 -9.62527e-08 -0.000999974)
(-9.42031e-08 -9.559e-08 -0.001)
(-1.04502e-07 -9.48824e-08 -0.00100003)
(-1.63752e-08 -7.68235e-08 -0.000999972)
(-4.7623e-08 -7.67507e-08 -0.000999982)
(-7.42014e-08 -7.63505e-08 -0.001)
(-9.35312e-08 -7.5779e-08 -0.00100003)
(-1.03706e-07 -7.5155e-08 -0.00100006)
(-1.62871e-08 -4.93344e-08 -0.000999992)
(-4.73619e-08 -4.92926e-08 -0.001)
(-7.37793e-08 -4.90315e-08 -0.00100002)
(-9.30019e-08 -4.86484e-08 -0.00100005)
(-1.03111e-07 -4.82207e-08 -0.00100008)
(-1.62111e-08 -1.69751e-08 -0.001)
(-4.71323e-08 -1.6961e-08 -0.00100001)
(-7.34067e-08 -1.68691e-08 -0.00100003)
(-9.25344e-08 -1.67331e-08 -0.00100006)
(-1.02611e-07 -1.65827e-08 -0.00100009)
(-2.2658e-08 -1.46934e-07 -0.000999878)
(-6.58661e-08 -1.46737e-07 -0.000999892)
(-1.02621e-07 -1.45876e-07 -0.000999919)
(-1.29343e-07 -1.44659e-07 -0.000999957)
(-1.43671e-07 -1.43098e-07 -0.001)
(-2.2435e-08 -1.32438e-07 -0.000999924)
(-6.52417e-08 -1.32268e-07 -0.000999938)
(-1.0166e-07 -1.31512e-07 -0.000999964)
(-1.28139e-07 -1.30439e-07 -0.001)
(-1.42107e-07 -1.29209e-07 -0.00100004)
(-2.22455e-08 -1.05037e-07 -0.000999962)
(-6.46885e-08 -1.04901e-07 -0.000999976)
(-1.00783e-07 -1.0427e-07 -0.001)
(-1.2704e-07 -1.03367e-07 -0.00100004)
(-1.40853e-07 -1.02339e-07 -0.00100008)
(-2.21045e-08 -6.74334e-08 -0.00099999)
(-6.4271e-08 -6.73414e-08 -0.001)
(-1.00114e-07 -6.69218e-08 -0.00100003)
(-1.262e-07 -6.63212e-08 -0.00100007)
(-1.39927e-07 -6.56457e-08 -0.00100011)
(-2.19871e-08 -2.3196e-08 -0.00100001)
(-6.39213e-08 -2.31629e-08 -0.00100002)
(-9.95583e-08 -2.30146e-08 -0.00100005)
(-1.25511e-07 -2.28039e-08 -0.00100008)
(-1.39193e-07 -2.25715e-08 -0.00100012)
(-3.08492e-08 -2.01032e-07 -0.000999834)
(-8.96969e-08 -2.00673e-07 -0.000999854)
(-1.39751e-07 -1.99315e-07 -0.00099989)
(-1.76148e-07 -1.97414e-07 -0.000999941)
(-1.95465e-07 -1.95077e-07 -0.001)
(-3.05045e-08 -1.81146e-07 -0.000999897)
(-8.86949e-08 -1.80829e-07 -0.000999916)
(-1.38175e-07 -1.796e-07 -0.000999952)
(-1.74164e-07 -1.7787e-07 -0.001)
(-1.93131e-07 -1.7587e-07 -0.00100006)
(-3.02017e-08 -1.43624e-07 -0.00099995)
(-8.78086e-08 -1.43356e-07 -0.000999969)
(-1.3678e-07 -1.42345e-07 -0.001)
(-1.72417e-07 -1.40928e-07 -0.00100005)
(-1.91192e-07 -1.39304e-07 -0.00100011)
(-2.99727e-08 -9.21769e-08 -0.000999988)
(-8.71388e-08 -9.19937e-08 -0.00100001)
(-1.35731e-07 -9.13288e-08 -0.00100004)
(-1.71113e-07 -9.0411e-08 -0.00100009)
(-1.89777e-07 -8.93659e-08 -0.00100015)
(-2.97919e-08 -3.17e-08 -0.00100001)
(-8.66126e-08 -3.16339e-08 -0.00100003)
(-1.34919e-07 -3.14029e-08 -0.00100006)
(-1.70109e-07 -3.10899e-08 -0.00100011)
(-1.88695e-07 -3.0735e-08 -0.00100017)
(-4.20056e-08 -2.75152e-07 -0.000999775)
(-1.22108e-07 -2.745e-07 -0.000999801)
(-1.90181e-07 -2.72365e-07 -0.000999851)
(-2.3967e-07 -2.69429e-07 -0.00099992)
(-2.65886e-07 -2.659e-07 -0.001)
(-4.14494e-08 -2.47842e-07 -0.00099986)
(-1.20493e-07 -2.4725e-07 -0.000999886)
(-1.87679e-07 -2.4529e-07 -0.000999935)
(-2.36572e-07 -2.42587e-07 -0.001)
(-2.62368e-07 -2.39493e-07 -0.00100008)
(-4.09644e-08 -1.9643e-07 -0.000999933)
(-1.19089e-07 -1.95941e-07 -0.000999958)
(-1.85503e-07 -1.94358e-07 -0.00100001)
(-2.33873e-07 -1.9218e-07 -0.00100007)
(-2.59399e-07 -1.89671e-07 -0.00100015)
(-4.06021e-08 -1.26028e-07 -0.000999985)
(-1.18044e-07 -1.25703e-07 -0.00100001)
(-1.83894e-07 -1.24684e-07 -0.00100006)
(-2.31871e-07 -1.23293e-07 -0.00100012)
(-2.57242e-07 -1.21674e-07 -0.0010002)
(-4.03312e-08 -4.33334e-08 -0.00100001)
(-1.17272e-07 -4.32186e-08 -0.00100004)
(-1.82714e-07 -4.28727e-08 -0.00100009)
(-2.30394e-07 -4.24034e-08 -0.00100015)
(-2.55629e-07 -4.18529e-08 -0.00100023)
(-5.71499e-08 -3.76779e-07 -0.000999694)
(-1.66091e-07 -3.75665e-07 -0.000999729)
(-2.58649e-07 -3.7235e-07 -0.000999797)
(-3.25998e-07 -3.67836e-07 -0.000999891)
(-3.61675e-07 -3.62466e-07 -0.001)
(-5.62691e-08 -3.39228e-07 -0.000999811)
(-1.63565e-07 -3.382e-07 -0.000999846)
(-2.54778e-07 -3.35161e-07 -0.000999912)
(-3.21215e-07 -3.31006e-07 -0.001)
(-3.56326e-07 -3.26237e-07 -0.00100011)
(-5.55103e-08 -2.68757e-07 -0.00099991)
(-1.61389e-07 -2.67927e-07 -0.000999945)
(-2.51435e-07 -2.65496e-07 -0.00100001)
(-3.17073e-07 -2.62164e-07 -0.0010001)
(-3.51775e-07 -2.58304e-07 -0.00100021)
(-5.49507e-08 -1.72381e-07 -0.000999982)
(-1.59791e-07 -1.71844e-07 -0.00100002)
(-2.48985e-07 -1.70294e-07 -0.00100008)
(-3.14003e-07 -1.68168e-07 -0.00100017)
(-3.4846e-07 -1.65673e-07 -0.00100027)
(-5.45539e-08 -5.92622e-08 -0.00100002)
(-1.58657e-07 -5.90776e-08 -0.00100005)
(-2.47244e-07 -5.8553e-08 -0.00100012)
(-3.11814e-07 -5.78334e-08 -0.00100021)
(-3.46048e-07 -5.6986e-08 -0.00100031)
(-7.76939e-08 -5.16249e-07 -0.000999584)
(-2.25795e-07 -5.14416e-07 -0.000999632)
(-3.5168e-07 -5.09295e-07 -0.000999725)
(-4.43397e-07 -5.02334e-07 -0.000999852)
(-4.91955e-07 -4.94167e-07 -0.001)
(-7.6333e-08 -4.64542e-07 -0.000999745)
(-2.21909e-07 -4.62843e-07 -0.000999792)
(-3.45729e-07 -4.58178e-07 -0.000999882)
(-4.36014e-07 -4.51791e-07 -0.00100001)
(-4.83802e-07 -4.44416e-07 -0.00100015)
(-7.51624e-08 -3.67881e-07 -0.000999881)
(-2.18565e-07 -3.66516e-07 -0.000999928)
(-3.406e-07 -3.62785e-07 -0.00100002)
(-4.29634e-07 -3.57667e-07 -0.00100014)
(-4.76806e-07 -3.51719e-07 -0.00100028)
(-7.43042e-08 -2.35892e-07 -0.00099998)
(-2.16115e-07 -2.35014e-07 -0.00100003)
(-3.36837e-07 -2.32622e-07 -0.00100011)
(-4.24921e-07 -2.29345e-07 -0.00100023)
(-4.71676e-07 -2.25517e-07 -0.00100037)
(-7.37146e-08 -8.10871e-08 -0.00100003)
(-2.14419e-07 -8.07863e-08 -0.00100008)
(-3.34229e-07 -7.9969e-08 -0.00100016)
(-4.21661e-07 -7.88549e-08 -0.00100028)
(-4.68051e-07 -7.75564e-08 -0.00100042)
(-1.05591e-07 -7.07823e-07 -0.000999435)
(-3.06922e-07 -7.04821e-07 -0.000999501)
(-4.7816e-07 -6.96895e-07 -0.000999627)
(-6.03091e-07 -6.86113e-07 -0.0009998)
(-6.69253e-07 -6.73589e-07 -0.001)
(-1.03495e-07 -6.36493e-07 -0.000999656)
(-3.00926e-07 -6.33722e-07 -0.000999721)
(-4.68956e-07 -6.26505e-07 -0.000999843)
(-5.91638e-07 -6.16623e-07 -0.00100001)
(-6.56713e-07 -6.05163e-07 -0.00100021)
(-1.01688e-07 -5.03778e-07 -0.000999843)
(-2.95756e-07 -5.01541e-07 -0.000999906)
(-4.61022e-07 -4.95746e-07 -0.00100003)
(-5.81747e-07 -4.87822e-07 -0.00100019)
(-6.45881e-07 -4.78609e-07 -0.00100038)
(-1.00357e-07 -3.2293e-07 -0.000999979)
(-2.91943e-07 -3.21478e-07 -0.00100004)
(-4.55179e-07 -3.17736e-07 -0.00100016)
(-5.74465e-07 -3.12637e-07 -0.00100032)
(-6.37894e-07 -3.06719e-07 -0.00100051)
(-9.94613e-08 -1.10993e-07 -0.00100005)
(-2.89369e-07 -1.1049e-07 -0.00100011)
(-4.51226e-07 -1.09205e-07 -0.00100023)
(-5.69549e-07 -1.07459e-07 -0.00100039)
(-6.32428e-07 -1.05444e-07 -0.00100057)
(-1.43481e-07 -9.71181e-07 -0.000999235)
(-4.17154e-07 -9.66251e-07 -0.000999324)
(-6.50065e-07 -9.53947e-07 -0.000999495)
(-8.20202e-07 -9.37222e-07 -0.00099973)
(-9.10471e-07 -9.1787e-07 -0.00100001)
(-1.40224e-07 -8.72558e-07 -0.000999539)
(-4.07809e-07 -8.68018e-07 -0.000999626)
(-6.3573e-07 -8.56733e-07 -0.00099979)
(-8.02386e-07 -8.41352e-07 -0.00100002)
(-8.91063e-07 -8.2352e-07 -0.00100029)
(-1.37405e-07 -6.90158e-07 -0.000999795)
(-3.99727e-07 -6.86469e-07 -0.00099988)
(-6.23346e-07 -6.77379e-07 -0.00100004)
(-7.86987e-07 -6.65009e-07 -0.00100026)
(-8.74218e-07 -6.50676e-07 -0.00100052)
(-1.35312e-07 -4.42234e-07 -0.000999981)
(-3.93739e-07 -4.39822e-07 -0.00100006)
(-6.14192e-07 -4.33929e-07 -0.00100022)
(-7.75634e-07 -4.25921e-07 -0.00100044)
(-8.61752e-07 -4.16679e-07 -0.00100069)
(-1.33943e-07 -1.51975e-07 -0.00100008)
(-3.89802e-07 -1.51139e-07 -0.00100016)
(-6.08146e-07 -1.49107e-07 -0.00100032)
(-7.68131e-07 -1.46348e-07 -0.00100053)
(-8.53473e-07 -1.43176e-07 -0.00100078)
(-1.94899e-07 -1.33357e-06 -0.000998964)
(-5.66768e-07 -1.32549e-06 -0.000999085)
(-8.83486e-07 -1.30632e-06 -0.000999317)
(-1.11514e-06 -1.28039e-06 -0.000999636)
(-1.23845e-06 -1.25051e-06 -0.00100001)
(-1.89782e-07 -1.19686e-06 -0.000999382)
(-5.52112e-07 -1.18937e-06 -0.000999499)
(-8.61122e-07 -1.17164e-06 -0.000999721)
(-1.0875e-06 -1.14763e-06 -0.00100003)
(-1.20843e-06 -1.11995e-06 -0.00100039)
(-1.85331e-07 -9.45929e-07 -0.000999734)
(-5.39372e-07 -9.39827e-07 -0.000999848)
(-8.41672e-07 -9.25485e-07 -0.00100006)
(-1.06345e-06 -9.06049e-07 -0.00100036)
(-1.1822e-06 -8.83655e-07 -0.00100071)
(-1.82021e-07 -6.05873e-07 -0.000999989)
(-5.29914e-07 -6.01876e-07 -0.0010001)
(-8.27236e-07 -5.92547e-07 -0.00100031)
(-1.04561e-06 -5.79895e-07 -0.0010006)
(-1.1627e-06 -5.65336e-07 -0.00100094)
(-1.7991e-07 -2.08183e-07 -0.00100012)
(-5.23848e-07 -2.06795e-07 -0.00100023)
(-8.17927e-07 -2.0357e-07 -0.00100044)
(-1.03406e-06 -1.99193e-07 -0.00100072)
(-1.15004e-06 -1.9416e-07 -0.00100106)
(-2.64578e-07 -1.83278e-06 -0.0009986)
(-7.69608e-07 -1.81956e-06 -0.000998764)
(-1.20024e-06 -1.78955e-06 -0.000999077)
(-1.51581e-06 -1.7493e-06 -0.00099951)
(-1.68454e-06 -1.70325e-06 -0.00100002)
(-2.5647e-07 -1.64274e-06 -0.000999175)
(-7.4652e-07 -1.63037e-06 -0.000999332)
(-1.16528e-06 -1.60241e-06 -0.000999631)
(-1.47293e-06 -1.56482e-06 -0.00100005)
(-1.63807e-06 -1.52178e-06 -0.00100054)
(-2.49383e-07 -1.29722e-06 -0.000999659)
(-7.26321e-07 -1.2871e-06 -0.00099981)
(-1.13459e-06 -1.26435e-06 -0.0010001)
(-1.43518e-06 -1.23363e-06 -0.00100049)
(-1.59716e-06 -1.19843e-06 -0.00100097)
(-2.441e-07 -8.3061e-07 -0.00100001)
(-7.11267e-07 -8.2395e-07 -0.00100016)
(-1.11167e-06 -8.09093e-07 -0.00100043)
(-1.40692e-06 -7.88964e-07 -0.00100082)
(-1.56646e-06 -7.65863e-07 -0.00100128)
(-2.40796e-07 -2.85405e-07 -0.0010002)
(-7.01823e-07 -2.83081e-07 -0.00100034)
(-1.09721e-06 -2.77935e-07 -0.00100061)
(-1.38898e-06 -2.70945e-07 -0.00100099)
(-1.54692e-06 -2.62911e-07 -0.00100144)
(-3.58839e-07 -2.52131e-06 -0.00099811)
(-1.04433e-06 -2.49959e-06 -0.000998332)
(-1.62996e-06 -2.45234e-06 -0.000998756)
(-2.06034e-06 -2.38968e-06 -0.000999344)
(-2.29161e-06 -2.31881e-06 -0.00100004)
(-3.45881e-07 -2.25634e-06 -0.000998903)
(-1.00771e-06 -2.23583e-06 -0.000999113)
(-1.57499e-06 -2.19149e-06 -0.000999514)
(-1.9935e-06 -2.13227e-06 -0.00100007)
(-2.21973e-06 -2.06504e-06 -0.00100074)
(-3.345e-07 -1.78018e-06 -0.000999569)
(-9.75464e-07 -1.76326e-06 -0.000999768)
(-1.52627e-06 -1.72696e-06 -0.00100015)
(-1.93389e-06 -1.67806e-06 -0.00100068)
(-2.15564e-06 -1.62239e-06 -0.00100132)
(-3.25927e-07 -1.13985e-06 -0.00100005)
(-9.51257e-07 -1.12861e-06 -0.00100024)
(-1.48959e-06 -1.1048e-06 -0.00100061)
(-1.88881e-06 -1.07249e-06 -0.00100112)
(-2.10696e-06 -1.03559e-06 -0.00100173)
(-3.20656e-07 -3.91795e-07 -0.00100031)
(-9.36376e-07 -3.87852e-07 -0.00100049)
(-1.4669e-06 -3.79593e-07 -0.00100085)
(-1.86065e-06 -3.68323e-07 -0.00100135)
(-2.07644e-06 -3.55409e-07 -0.00100195)
(-4.86023e-07 -3.47209e-06 -0.000997454)
(-1.41589e-06 -3.43601e-06 -0.000997752)
(-2.21282e-06 -3.36114e-06 -0.000998327)
(-2.80088e-06 -3.26327e-06 -0.000999126)
(-3.11875e-06 -3.15442e-06 -0.00100008)
(-4.65012e-07 -3.10151e-06 -0.000998549)
(-1.35709e-06 -3.06714e-06 -0.000998827)
(-2.12555e-06 -2.99627e-06 -0.000999364)
(-2.69604e-06 -2.90211e-06 -0.00100011)
(-3.00772e-06 -2.79659e-06 -0.00100101)
(-4.46491e-07 -2.44492e-06 -0.000999465)
(-1.30521e-06 -2.41621e-06 -0.000999725)
(-2.04761e-06 -2.35802e-06 -0.00100023)
(-2.60119e-06 -2.27939e-06 -0.00100094)
(-2.90685e-06 -2.1907e-06 -0.00100179)
(-4.32216e-07 -1.56675e-06 -0.00100013)
(-1.26583e-06 -1.54732e-06 -0.00100037)
(-1.98845e-06 -1.50912e-06 -0.00100086)
(-2.52856e-06 -1.45666e-06 -0.00100153)
(-2.82894e-06 -1.39725e-06 -0.00100234)
(-4.23555e-07 -5.3915e-07 -0.00100049)
(-1.24212e-06 -5.32282e-07 -0.00100072)
(-1.95255e-06 -5.19072e-07 -0.00100119)
(-2.48386e-06 -5.00675e-07 -0.00100184)
(-2.78065e-06 -4.79777e-07 -0.00100263)
(-6.56927e-07 -4.78651e-06 -0.000996577)
(-1.91743e-06 -4.72572e-06 -0.000996977)
(-3.00347e-06 -4.60611e-06 -0.000997754)
(-3.80982e-06 -4.45241e-06 -0.000998841)
(-4.24954e-06 -4.28509e-06 -0.00100014)
(-6.21891e-07 -4.26699e-06 -0.000998097)
(-1.82112e-06 -4.20819e-06 -0.000998458)
(-2.8628e-06 -4.09402e-06 -0.000999171)
(-3.64344e-06 -3.94225e-06 -0.00100018)
(-4.07787e-06 -3.77512e-06 -0.00100139)
(-5.91198e-07 -3.36117e-06 -0.000999353)
(-1.73712e-06 -3.31101e-06 -0.000999682)
(-2.73728e-06 -3.21805e-06 -0.00100035)
(-3.49091e-06 -3.08968e-06 -0.00100128)
(-3.91829e-06 -2.94708e-06 -0.00100241)
(-5.66259e-07 -2.15981e-06 -0.00100028)
(-1.67213e-06 -2.12448e-06 -0.00100058)
(-2.64111e-06 -2.06415e-06 -0.0010012)
(-3.37225e-06 -1.97737e-06 -0.00100207)
(-3.79226e-06 -1.88087e-06 -0.00100315)
(-5.51181e-07 -7.45416e-07 -0.00100079)
(-1.6341e-06 -7.32746e-07 -0.00100106)
(-2.58422e-06 -7.12291e-07 -0.00100167)
(-3.3002e-06 -6.81668e-07 -0.00100251)
(-3.71461e-06 -6.47623e-07 -0.00100354)
(-8.85073e-07 -6.60557e-06 -0.000995401)
(-2.59291e-06 -6.50137e-06 -0.000995932)