/*--------------------------------*- C++ -*----------------------------------*\
| =========                 |                                                 |
| \\      /  F ield         | OpenFOAM: The Open Source CFD Toolbox           |
|  \\    /   O peration     | Version:  5.x                                   |
|   \\  /    A nd           | Web:      www.OpenFOAM.org                      |
|    \\/     M anipulation  |                                                 |
\*---------------------------------------------------------------------------*/
FoamFile
{
    version     2.0;
    format      ascii;
    class       surfaceScalarField;
    location    "3000";
    object      phi;
}
// * * * * * * * * * * * * * * * * * * * * * * * * * * * * * * * * * * * * * //

dimensions      [0 3 -1 0 0 0 0];

internalField   nonuniform List<scalar> 
179
(
-250.021
-250.021
-250.021
-250.022
-250.023
-250.024
-250.025
-250.026
-250.028
-250.03
-250.032
-250.034
-250.037
-250.041
-250.044
-250.048
-250.053
-250.058
-250.064
-250.071
-250.078
-250.086
-250.095
-250.105
-250.116
-250.128
-250.141
-250.156
-250.172
-250.19
-250.21
-250.232
-250.255
-250.281
-250.309
-250.34
-250.374
-250.411
-250.452
-250.496
-250.544
-250.597
-250.654
-250.716
-250.783
-250.857
-250.936
-251.021
-251.114
-251.213
-251.32
-251.435
-251.558
-251.689
-251.828
-251.976
-252.132
-252.297
-252.469
-252.648
-252.834
-253.025
-253.22
-253.418
-253.616
-253.811
-254.001
-254.181
-254.348
-254.497
-254.627
-254.74
-254.813
-254.823
-254.753
-254.582
-254.287
-253.857
-253.338
-253.008
-253.339
-253.371
-267.245
-268.949
-271.823
-274.476
-279.983
-283.669
-282.212
-266.038
-257.069
-238.57
-234.613
-219.895
-210.8
-206.552
-183.429
-181.423
-178.691
-182.459
-191.725
-196.401
-200.038
-201.765
-204.278
-208.912
-214.025
-218.757
-222.915
-226.524
-229.649
-232.352
-234.693
-236.718
-238.473
-239.993
-241.309
-242.451
-243.441
-244.3
-245.044
-245.691
-246.252
-246.74
-247.163
-247.531
-247.852
-248.13
-248.372
-248.583
-248.766
-248.925
-249.063
-249.183
-249.288
-249.379
-249.458
-249.527
-249.587
-249.64
-249.686
-249.726
-249.761
-249.791
-249.817
-249.84
-249.86
-249.878
-249.893
-249.906
-249.918
-249.928
-249.937
-249.944
-249.951
-249.957
-249.962
-249.967
-249.971
-249.975
-249.978
-249.98
-249.983
-249.985
-249.987
-249.988
-249.99
-249.991
-249.992
-249.993
-249.994
-249.995
-249.996
-249.997
-249.997
-249.998
-249.998
-249.999
-249.999
)
;

boundaryField
{
    inlet
    {
        type            calculated;
        value           uniform -250;
    }
    outlet
    {
        type            calculated;
        value           uniform 250.02;
    }
    repeat_boundary
    {
        type            calculated;
        value           uniform 0;
    }
    procBoundary1to0
    {
        type            processor;
        value           nonuniform List<scalar> 
180
(
3.7688e-06
-6.02217e-07
-4.81945e-06
-8.25719e-06
-1.21535e-05
-1.70212e-05
-2.32982e-05
-3.13169e-05
-4.13741e-05
-5.37363e-05
-6.86815e-05
-8.6498e-05
-0.000107489
-0.000131983
-0.000160359
-0.000193023
-0.000230442
-0.000273167
-0.000321843
-0.000377235
-0.00044025
-0.000511963
-0.000593651
-0.00068682
-0.000793249
-0.000915032
-0.00105474
-0.00121513
-0.00139954
-0.00161184
-0.00185647
-0.0021386
-0.00246418
-0.00284004
-0.00327409
-0.00377541
-0.00435458
-0.00502387
-0.00579698
-0.00669007
-0.00772197
-0.00891415
-0.0102916
-0.0118835
-0.0137233
-0.0158501
-0.0183093
-0.0211533
-0.0244428
-0.0282482
-0.0326514
-0.0377467
-0.0436433
-0.0504681
-0.0583675
-0.0675109
-0.078094
-0.0903428
-0.104518
-0.120921
-0.139899
-0.161852
-0.187241
-0.216598
-0.250533
-0.289749
-0.335053
-0.387373
-0.447772
-0.517468
-0.597849
-0.69047
-0.797036
-0.919578
-1.06023
-1.22009
-1.39477
-1.55717
-1.60687
-1.24375
0.227267
0.0249854
4.97825
0.737381
3.80243
2.13384
5.58398
9.33951
0.176703
-8.5034
-2.08237
-12.0559
-1.571
-6.11357
-1.21179
-1.61382
-7.12261
-1.73347
0.135139
2.76356
2.69353
2.48361
3.84816
1.52546
1.25415
2.14257
2.22792
1.96963
1.67803
1.42365
1.20729
1.02294
0.865919
0.732323
0.618767
0.522305
0.440399
0.370889
0.311935
0.26197
0.219659
0.18387
0.153632
0.128116
0.106616
0.0885299
0.0733431
0.0606205
0.0498561
0.0404934
0.0326912
0.0262035
0.0208219
0.0163723
0.0127194
0.00974189
0.00733539
0.00541108
0.00388647
0.00280158
0.00171309
0.000807989
-1.30732e-05
-0.00066658
-0.0011364
-0.00147717
-0.00171617
-0.00187746
-0.00197605
-0.00202528
-0.00203588
-0.00201652
-0.00197426
-0.00191484
-0.00184314
-0.00176272
-0.00167655
-0.00158709
-0.00149628
-0.0014057
-0.00131651
-0.00122964
-0.00114578
-0.00106546
-0.000989059
-0.00091685
-0.00084902
-0.000785692
-0.000726948
-0.000672828
-0.000623359
-0.000578552
-0.000538416
-0.000502955
-0.00047217
-0.000446041
-0.000424522
-0.00040747
-0.000394242
-0.000385209
)
;
    }
    procBoundary1to3
    {
        type            processor;
        value           nonuniform List<scalar> 
180
(
0.000213936
0.000348755
0.000540497
0.000753747
0.000978184
0.00121284
0.00145918
0.00171939
0.00199598
0.00229166
0.00260934
0.0029522
0.00332369
0.00372753
0.00416779
0.00464891
0.00517569
0.00575341
0.00638777
0.007085
0.0078519
0.00869585
0.00962489
0.0106478
0.011774
0.0130141
0.0143791
0.0158815
0.0175345
0.0193529
0.0213523
0.02355
0.0259646
0.0286165
0.0315276
0.0347217
0.0382244
0.0420634
0.0462684
0.0508712
0.0559059
0.0614087
0.0674176
0.0739728
0.0811206
0.0889134
0.0974024
0.106642
0.116688
0.127603
0.139448
0.152291
0.166202
0.181253
0.197522
0.21509
0.234045
0.254477
0.276485
0.300175
0.325661
0.353066
0.382529
0.414211
0.448304
0.485026
0.524659
0.567605
0.614533
0.666775
0.727297
0.802933
0.870212
0.929595
0.989979
1.04874
1.09978
1.12763
1.08765
0.913773
0.103634
0.00738033
8.89493
0.967033
-0.929089
0.519925
-0.0774843
-5.65375
-1.63353
-7.67083
-6.8859
-6.4437
-2.38551
-8.60514
-7.88288
-2.63409
-16.0004
-0.272891
-2.86619
1.0042
6.57303
2.19235
-0.212064
0.202079
1.25835
2.49105
2.88464
2.76221
2.48032
2.18535
1.91699
1.68068
1.47399
1.29337
1.13547
0.997348
0.876456
0.770584
0.677814
0.59648
0.525136
0.462521
0.407541
0.359241
0.316791
0.279466
0.246632
0.217738
0.192302
0.169901
0.150164
0.132768
0.117427
0.103894
0.0919508
0.0814058
0.0720918
0.0638623
0.0565885
0.0501577
0.0444721
0.0394439
0.0349959
0.0310591
0.0275731
0.0244851
0.0217487
0.0193231
0.0171724
0.015265
0.0135731
0.0120719
0.0107399
0.00955776
0.00850861
0.00757745
0.00675104
0.00601769
0.00536703
0.0047899
0.00427818
0.00382469
0.00342309
0.00306772
0.00275361
0.00247632
0.00223194
0.002017
0.00182842
0.00166349
0.0015198
0.00139524
0.00128798
0.00119642
0.00111919
0.00105515
0.00100337
0.000963079
0.000933776
0.000937905
)
;
    }
}


// ************************************************************************* //
