/*--------------------------------*- C++ -*----------------------------------*\
| =========                 |                                                 |
| \\      /  F ield         | OpenFOAM: The Open Source CFD Toolbox           |
|  \\    /   O peration     | Version:  5.x                                   |
|   \\  /    A nd           | Web:      www.OpenFOAM.org                      |
|    \\/     M anipulation  |                                                 |
\*---------------------------------------------------------------------------*/
FoamFile
{
    version     2.0;
    format      ascii;
    class       volVectorField;
    location    "3000";
    object      stored_U;
}
// * * * * * * * * * * * * * * * * * * * * * * * * * * * * * * * * * * * * * //

dimensions      [0 1 -1 0 0 0 0];

internalField   nonuniform List<vector> 
180
(
(-7.84848e-11 7.75079e-09 -0.00100007)
(2.65165e-10 1.24973e-08 -0.00100007)
(6.25394e-10 1.92969e-08 -0.00100007)
(9.60216e-10 2.68898e-08 -0.00100008)
(1.30049e-09 3.49078e-08 -0.00100008)
(1.66762e-09 4.33161e-08 -0.00100008)
(2.07498e-09 5.21739e-08 -0.00100009)
(2.53305e-09 6.15665e-08 -0.00100009)
(3.05237e-09 7.15887e-08 -0.0010001)
(3.64445e-09 8.2342e-08 -0.00100011)
(4.32213e-09 9.39354e-08 -0.00100012)
(5.09981e-09 1.06486e-07 -0.00100013)
(5.99376e-09 1.2012e-07 -0.00100014)
(7.02238e-09 1.34973e-07 -0.00100015)
(8.20666e-09 1.51196e-07 -0.00100017)
(9.5705e-09 1.68949e-07 -0.00100019)
(1.11412e-08 1.88408e-07 -0.0010002)
(1.29502e-08 2.09766e-07 -0.00100022)
(1.50333e-08 2.33233e-07 -0.00100025)
(1.74318e-08 2.59037e-07 -0.00100027)
(2.01932e-08 2.87431e-07 -0.0010003)
(2.33721e-08 3.18688e-07 -0.00100033)
(2.70315e-08 3.53109e-07 -0.00100036)
(3.12439e-08 3.91023e-07 -0.0010004)
(3.6093e-08 4.32789e-07 -0.00100044)
(4.16755e-08 4.788e-07 -0.00100048)
(4.8103e-08 5.29484e-07 -0.00100053)
(5.55044e-08 5.85309e-07 -0.00100059)
(6.4029e-08 6.46787e-07 -0.00100065)
(7.38492e-08 7.14474e-07 -0.00100071)
(8.51644e-08 7.88978e-07 -0.00100078)
(9.8205e-08 8.70962e-07 -0.00100086)
(1.13238e-07 9.61146e-07 -0.00100095)
(1.30571e-07 1.06031e-06 -0.00100104)
(1.50562e-07 1.16931e-06 -0.00100115)
(1.73623e-07 1.28907e-06 -0.00100126)
(2.00231e-07 1.42057e-06 -0.00100138)
(2.3094e-07 1.5649e-06 -0.00100152)
(2.66388e-07 1.72321e-06 -0.00100166)
(3.07317e-07 1.89676e-06 -0.00100182)
(3.54582e-07 2.08688e-06 -0.001002)
(4.09176e-07 2.29501e-06 -0.00100218)
(4.72244e-07 2.52268e-06 -0.00100239)
(5.45118e-07 2.77151e-06 -0.00100261)
(6.29333e-07 3.04324e-06 -0.00100285)
(7.26672e-07 3.33968e-06 -0.0010031)
(8.39195e-07 3.66275e-06 -0.00100338)
(9.69284e-07 4.01447e-06 -0.00100368)
(1.11969e-06 4.39692e-06 -0.001004)
(1.29361e-06 4.81226e-06 -0.00100434)
(1.49472e-06 5.26273e-06 -0.0010047)
(1.72728e-06 5.75057e-06 -0.00100509)
(1.99623e-06 6.27805e-06 -0.0010055)
(2.30724e-06 6.84742e-06 -0.00100593)
(2.66691e-06 7.46086e-06 -0.00100639)
(3.08283e-06 8.12043e-06 -0.00100686)
(3.56381e-06 8.82802e-06 -0.00100735)
(4.12e-06 9.58527e-06 -0.00100786)
(4.76314e-06 1.03935e-05 -0.00100838)
(5.50679e-06 1.12535e-05 -0.00100891)
(6.36663e-06 1.21656e-05 -0.00100944)
(7.36073e-06 1.31293e-05 -0.00100997)
(8.50997e-06 1.41433e-05 -0.00101047)
(9.83845e-06 1.52051e-05 -0.00101095)
(1.1374e-05 1.6311e-05 -0.00101139)
(1.31485e-05 1.74556e-05 -0.00101176)
(1.51991e-05 1.86315e-05 -0.00101206)
(1.75683e-05 1.98294e-05 -0.00101226)
(2.03049e-05 2.10371e-05 -0.00101232)
(2.34652e-05 2.22396e-05 -0.00101223)
(2.71135e-05 2.34192e-05 -0.00101196)
(3.13225e-05 2.45567e-05 -0.00101152)
(3.61726e-05 2.56342e-05 -0.00101081)
(4.17579e-05 2.66213e-05 -0.00100967)
(4.81787e-05 2.74638e-05 -0.00100827)
(5.54954e-05 2.80586e-05 -0.00100799)
(6.35344e-05 2.81642e-05 -0.00100937)
(7.1245e-05 2.71909e-05 -0.000996647)
(7.42642e-05 2.35462e-05 -0.000936286)
(6.14192e-05 1.53989e-05 -0.000791174)
(7.7858e-06 -4.28379e-06 -0.00310259)
(-2.76756e-06 5.13645e-07 7.25115e-05)
(-0.000194206 0.000286835 -0.00380722)
(-8.46713e-05 0.000115127 -0.0026057)
(-5.38429e-05 -8.78369e-06 -0.00120188)
(-0.000272779 5.37381e-05 -0.00504447)
(-5.25425e-05 1.53067e-05 -0.00050052)
(-0.000919234 -0.000392167 -0.0049152)
(1.0853e-05 5.26061e-05 -7.6397e-05)
(0.000662572 -0.000850265 -0.00425703)
(6.49547e-05 -2.18384e-05 -0.000261172)
(0.00048295 -0.000451419 -0.00390563)
(0.000140405 -0.000241023 -0.00154428)
(0.0002632 -0.000603875 -0.00452328)
(1.18607e-05 -1.75682e-05 -0.000741379)
(7.1244e-05 -0.000320583 -0.00298065)
(0.000270279 -0.000512778 -0.00214281)
(-1.22906e-05 1.15069e-05 -0.000282449)
(1.7396e-05 -8.35766e-05 -0.00400952)
(-5.27476e-05 3.99256e-05 -0.00101896)
(-0.000189655 0.000208524 -0.00248423)
(-0.000118707 0.000172876 -0.00128348)
(-0.000171222 8.90433e-06 -0.00125883)
(-0.00011661 4.33958e-05 -0.00103827)
(-6.7331e-05 9.41193e-05 -0.000938362)
(-7.66858e-05 0.000122043 -0.000872978)
(-7.57735e-05 0.000124945 -0.000846647)
(-6.71471e-05 0.000115059 -0.000861087)
(-5.75111e-05 0.000102156 -0.000881944)
(-4.90051e-05 8.97841e-05 -0.000898383)
(-4.173e-05 7.87367e-05 -0.000911641)
(-3.55042e-05 6.90329e-05 -0.000923087)
(-3.01756e-05 6.0537e-05 -0.000933094)
(-2.56193e-05 5.31016e-05 -0.000941801)
(-2.17272e-05 4.65929e-05 -0.000949365)
(-1.84049e-05 4.08938e-05 -0.000955936)
(-1.55706e-05 3.5902e-05 -0.000961647)
(-1.31539e-05 3.15284e-05 -0.000966612)
(-1.1095e-05 2.76953e-05 -0.000970929)
(-9.34209e-06 2.4335e-05 -0.000974684)
(-7.85105e-06 2.13882e-05 -0.00097795)
(-6.58395e-06 1.88034e-05 -0.000980792)
(-5.50828e-06 1.65354e-05 -0.000983265)
(-4.59621e-06 1.45448e-05 -0.000985418)
(-3.82388e-06 1.27973e-05 -0.000987293)
(-3.17088e-06 1.12627e-05 -0.000988925)
(-2.61976e-06 9.91472e-06 -0.000990347)
(-2.15558e-06 8.73043e-06 -0.000991587)
(-1.7656e-06 7.6897e-06 -0.000992667)
(-1.43886e-06 6.77491e-06 -0.000993608)
(-1.16567e-06 5.97058e-06 -0.000994427)
(-9.37591e-07 5.26316e-06 -0.000995141)
(-7.47552e-07 4.64079e-06 -0.000995762)
(-5.89609e-07 4.09308e-06 -0.000996303)
(-4.58735e-07 3.61094e-06 -0.000996774)
(-3.50644e-07 3.1864e-06 -0.000997185)
(-2.617e-07 2.81247e-06 -0.000997543)
(-1.88851e-07 2.48305e-06 -0.000997856)
(-1.29532e-07 2.19278e-06 -0.00099813)
(-8.16031e-08 1.93696e-06 -0.000998369)
(-4.33158e-08 1.71153e-06 -0.000998579)
(-1.3105e-08 1.51283e-06 -0.000998762)
(1.03838e-08 1.33766e-06 -0.000998921)
(2.83681e-08 1.18317e-06 -0.000999059)
(4.18722e-08 1.04685e-06 -0.000999179)
(5.17277e-08 9.26545e-07 -0.000999284)
(5.86246e-08 8.20324e-07 -0.000999375)
(6.31356e-08 7.26515e-07 -0.000999454)
(6.57356e-08 6.43645e-07 -0.000999523)
(6.68196e-08 5.70419e-07 -0.000999584)
(6.6714e-08 5.057e-07 -0.000999636)
(6.56877e-08 4.48486e-07 -0.000999682)
(6.39622e-08 3.97897e-07 -0.000999722)
(6.17184e-08 3.53159e-07 -0.000999757)
(5.91042e-08 3.1359e-07 -0.000999787)
(5.62396e-08 2.78588e-07 -0.000999813)
(5.32213e-08 2.47625e-07 -0.000999836)
(5.01271e-08 2.20233e-07 -0.000999857)
(4.70183e-08 1.96004e-07 -0.000999874)
(4.39432e-08 1.74573e-07 -0.00099989)
(4.09394e-08 1.55621e-07 -0.000999903)
(3.80356e-08 1.38867e-07 -0.000999915)
(3.52532e-08 1.24062e-07 -0.000999925)
(3.26082e-08 1.10988e-07 -0.000999934)
(3.01116e-08 9.94501e-08 -0.000999942)
(2.77709e-08 8.92793e-08 -0.000999949)
(2.55905e-08 8.03254e-08 -0.000999955)
(2.35727e-08 7.24567e-08 -0.000999961)
(2.17183e-08 6.55575e-08 -0.000999965)
(2.00265e-08 5.95262e-08 -0.00099997)
(1.84958e-08 5.42743e-08 -0.000999974)
(1.71242e-08 4.97245e-08 -0.000999977)
(1.59091e-08 4.581e-08 -0.00099998)
(1.4848e-08 4.24731e-08 -0.000999983)
(1.39377e-08 3.96654e-08 -0.000999986)
(1.31745e-08 3.73466e-08 -0.000999989)
(1.25537e-08 3.54839e-08 -0.000999991)
(1.20706e-08 3.40479e-08 -0.000999993)
(1.17034e-08 3.30338e-08 -0.000999996)
(1.1197e-08 3.27219e-08 -0.000999998)
)
;

boundaryField
{
    inlet
    {
        type            calculated;
        value           uniform (1.1197e-08 3.27219e-08 -0.000999998);
    }
    outlet
    {
        type            calculated;
        value           uniform (-7.84848e-11 7.75079e-09 -0.00100007);
    }
    repeat_boundary
    {
        type            calculated;
        value           nonuniform List<vector> 
360
(
(-7.84848e-11 0 -0.00100007)
(2.65165e-10 0 -0.00100007)
(6.25394e-10 0 -0.00100007)
(9.60216e-10 0 -0.00100008)
(1.30049e-09 0 -0.00100008)
(1.66762e-09 0 -0.00100008)
(2.07498e-09 0 -0.00100009)
(2.53305e-09 0 -0.00100009)
(3.05237e-09 0 -0.0010001)
(3.64445e-09 0 -0.00100011)
(4.32213e-09 0 -0.00100012)
(5.09981e-09 0 -0.00100013)
(5.99376e-09 0 -0.00100014)
(7.02238e-09 0 -0.00100015)
(8.20666e-09 0 -0.00100017)
(9.5705e-09 0 -0.00100019)
(1.11412e-08 0 -0.0010002)
(1.29502e-08 0 -0.00100022)
(1.50333e-08 0 -0.00100025)
(1.74318e-08 0 -0.00100027)
(2.01932e-08 0 -0.0010003)
(2.33721e-08 0 -0.00100033)
(2.70315e-08 0 -0.00100036)
(3.12439e-08 0 -0.0010004)
(3.6093e-08 0 -0.00100044)
(4.16755e-08 0 -0.00100048)
(4.8103e-08 0 -0.00100053)
(5.55044e-08 0 -0.00100059)
(6.4029e-08 0 -0.00100065)
(7.38492e-08 0 -0.00100071)
(8.51644e-08 0 -0.00100078)
(9.8205e-08 0 -0.00100086)
(1.13238e-07 0 -0.00100095)
(1.30571e-07 0 -0.00100104)
(1.50562e-07 0 -0.00100115)
(1.73623e-07 0 -0.00100126)
(2.00231e-07 0 -0.00100138)
(2.3094e-07 0 -0.00100152)
(2.66388e-07 0 -0.00100166)
(3.07317e-07 0 -0.00100182)
(3.54582e-07 0 -0.001002)
(4.09176e-07 0 -0.00100218)
(4.72244e-07 0 -0.00100239)
(5.45118e-07 0 -0.00100261)
(6.29333e-07 0 -0.00100285)
(7.26672e-07 0 -0.0010031)
(8.39195e-07 0 -0.00100338)
(9.69284e-07 0 -0.00100368)
(1.11969e-06 0 -0.001004)
(1.29361e-06 0 -0.00100434)
(1.49472e-06 0 -0.0010047)
(1.72728e-06 0 -0.00100509)
(1.99623e-06 0 -0.0010055)
(2.30724e-06 0 -0.00100593)
(2.66691e-06 0 -0.00100639)
(3.08283e-06 0 -0.00100686)
(3.56381e-06 0 -0.00100735)
(4.12e-06 0 -0.00100786)
(4.76314e-06 0 -0.00100838)
(5.50679e-06 0 -0.00100891)
(6.36663e-06 0 -0.00100944)
(7.36073e-06 0 -0.00100997)
(8.50997e-06 0 -0.00101047)
(9.83845e-06 0 -0.00101095)
(1.1374e-05 0 -0.00101139)
(1.31485e-05 0 -0.00101176)
(1.51991e-05 0 -0.00101206)
(1.75683e-05 0 -0.00101226)
(2.03049e-05 0 -0.00101232)
(2.34652e-05 0 -0.00101223)
(2.71135e-05 0 -0.00101196)
(3.13225e-05 0 -0.00101152)
(3.61726e-05 0 -0.00101081)
(4.17579e-05 0 -0.00100967)
(4.81787e-05 0 -0.00100827)
(5.54954e-05 0 -0.00100799)
(6.35344e-05 0 -0.00100937)
(7.1245e-05 0 -0.000996647)
(7.42642e-05 0 -0.000936286)
(6.14192e-05 0 -0.000791174)
(7.7858e-06 0 -0.00310259)
(-2.76756e-06 0 7.25115e-05)
(-0.000194206 0 -0.00380722)
(-8.46713e-05 0 -0.0026057)
(-5.38429e-05 0 -0.00120188)
(-0.000272779 0 -0.00504447)
(-5.25425e-05 0 -0.00050052)
(-0.000919234 0 -0.0049152)
(1.0853e-05 0 -7.6397e-05)
(0.000662572 0 -0.00425703)
(6.49547e-05 0 -0.000261172)
(0.00048295 0 -0.00390563)
(0.000140405 0 -0.00154428)
(0.0002632 0 -0.00452328)
(1.18607e-05 0 -0.000741379)
(7.1244e-05 0 -0.00298065)
(0.000270279 0 -0.00214281)
(-1.22906e-05 0 -0.000282449)
(1.7396e-05 0 -0.00400952)
(-5.27476e-05 0 -0.00101896)
(-0.000189655 0 -0.00248423)
(-0.000118707 0 -0.00128348)
(-0.000171222 0 -0.00125883)
(-0.00011661 0 -0.00103827)
(-6.7331e-05 0 -0.000938362)
(-7.66858e-05 0 -0.000872978)
(-7.57735e-05 0 -0.000846647)
(-6.71471e-05 0 -0.000861087)
(-5.75111e-05 0 -0.000881944)
(-4.90051e-05 0 -0.000898383)
(-4.173e-05 0 -0.000911641)
(-3.55042e-05 0 -0.000923087)
(-3.01756e-05 0 -0.000933094)
(-2.56193e-05 0 -0.000941801)
(-2.17272e-05 0 -0.000949365)
(-1.84049e-05 0 -0.000955936)
(-1.55706e-05 0 -0.000961647)
(-1.31539e-05 0 -0.000966612)
(-1.1095e-05 0 -0.000970929)
(-9.34209e-06 0 -0.000974684)
(-7.85105e-06 0 -0.00097795)
(-6.58395e-06 0 -0.000980792)
(-5.50828e-06 0 -0.000983265)
(-4.59621e-06 0 -0.000985418)
(-3.82388e-06 0 -0.000987293)
(-3.17088e-06 0 -0.000988925)
(-2.61976e-06 0 -0.000990347)
(-2.15558e-06 0 -0.000991587)
(-1.7656e-06 0 -0.000992667)
(-1.43886e-06 0 -0.000993608)
(-1.16567e-06 0 -0.000994427)
(-9.37591e-07 0 -0.000995141)
(-7.47552e-07 0 -0.000995762)
(-5.89609e-07 0 -0.000996303)
(-4.58735e-07 0 -0.000996774)
(-3.50644e-07 0 -0.000997185)
(-2.617e-07 0 -0.000997543)
(-1.88851e-07 0 -0.000997856)
(-1.29532e-07 0 -0.00099813)
(-8.16031e-08 0 -0.000998369)
(-4.33158e-08 0 -0.000998579)
(-1.3105e-08 0 -0.000998762)
(1.03838e-08 0 -0.000998921)
(2.83681e-08 0 -0.000999059)
(4.18722e-08 0 -0.000999179)
(5.17277e-08 0 -0.000999284)
(5.86246e-08 0 -0.000999375)
(6.31356e-08 0 -0.000999454)
(6.57356e-08 0 -0.000999523)
(6.68196e-08 0 -0.000999584)
(6.6714e-08 0 -0.000999636)
(6.56877e-08 0 -0.000999682)
(6.39622e-08 0 -0.000999722)
(6.17184e-08 0 -0.000999757)
(5.91042e-08 0 -0.000999787)
(5.62396e-08 0 -0.000999813)
(5.32213e-08 0 -0.000999836)
(5.01271e-08 0 -0.000999857)
(4.70183e-08 0 -0.000999874)
(4.39432e-08 0 -0.00099989)
(4.09394e-08 0 -0.000999903)
(3.80356e-08 0 -0.000999915)
(3.52532e-08 0 -0.000999925)
(3.26082e-08 0 -0.000999934)
(3.01116e-08 0 -0.000999942)
(2.77709e-08 0 -0.000999949)
(2.55905e-08 0 -0.000999955)
(2.35727e-08 0 -0.000999961)
(2.17183e-08 0 -0.000999965)
(2.00265e-08 0 -0.00099997)
(1.84958e-08 0 -0.000999974)
(1.71242e-08 0 -0.000999977)
(1.59091e-08 0 -0.00099998)
(1.4848e-08 0 -0.000999983)
(1.39377e-08 0 -0.000999986)
(1.31745e-08 0 -0.000999989)
(1.25537e-08 0 -0.000999991)
(1.20706e-08 0 -0.000999993)
(1.17034e-08 0 -0.000999996)
(1.1197e-08 0 -0.000999998)
(0 7.75079e-09 -0.00100007)
(0 1.24973e-08 -0.00100007)
(0 1.92969e-08 -0.00100007)
(0 2.68898e-08 -0.00100008)
(0 3.49078e-08 -0.00100008)
(0 4.33161e-08 -0.00100008)
(0 5.21739e-08 -0.00100009)
(0 6.15665e-08 -0.00100009)
(0 7.15887e-08 -0.0010001)
(0 8.2342e-08 -0.00100011)
(0 9.39354e-08 -0.00100012)
(0 1.06486e-07 -0.00100013)
(0 1.2012e-07 -0.00100014)
(0 1.34973e-07 -0.00100015)
(0 1.51196e-07 -0.00100017)
(0 1.68949e-07 -0.00100019)
(0 1.88408e-07 -0.0010002)
(0 2.09766e-07 -0.00100022)
(0 2.33233e-07 -0.00100025)
(0 2.59037e-07 -0.00100027)
(0 2.87431e-07 -0.0010003)
(0 3.18688e-07 -0.00100033)
(0 3.53109e-07 -0.00100036)
(0 3.91023e-07 -0.0010004)
(0 4.32789e-07 -0.00100044)
(0 4.788e-07 -0.00100048)
(0 5.29484e-07 -0.00100053)
(0 5.85309e-07 -0.00100059)
(0 6.46787e-07 -0.00100065)
(0 7.14474e-07 -0.00100071)
(0 7.88978e-07 -0.00100078)
(0 8.70962e-07 -0.00100086)
(0 9.61146e-07 -0.00100095)
(0 1.06031e-06 -0.00100104)
(0 1.16931e-06 -0.00100115)
(0 1.28907e-06 -0.00100126)
(0 1.42057e-06 -0.00100138)
(0 1.5649e-06 -0.00100152)
(0 1.72321e-06 -0.00100166)
(0 1.89676e-06 -0.00100182)
(0 2.08688e-06 -0.001002)
(0 2.29501e-06 -0.00100218)
(0 2.52268e-06 -0.00100239)
(0 2.77151e-06 -0.00100261)
(0 3.04324e-06 -0.00100285)
(0 3.33968e-06 -0.0010031)
(0 3.66275e-06 -0.00100338)
(0 4.01447e-06 -0.00100368)
(0 4.39692e-06 -0.001004)
(0 4.81226e-06 -0.00100434)
(0 5.26273e-06 -0.0010047)
(0 5.75057e-06 -0.00100509)
(0 6.27805e-06 -0.0010055)
(0 6.84742e-06 -0.00100593)
(0 7.46086e-06 -0.00100639)
(0 8.12043e-06 -0.00100686)
(0 8.82802e-06 -0.00100735)
(0 9.58527e-06 -0.00100786)
(0 1.03935e-05 -0.00100838)
(0 1.12535e-05 -0.00100891)
(0 1.21656e-05 -0.00100944)
(0 1.31293e-05 -0.00100997)
(0 1.41433e-05 -0.00101047)
(0 1.52051e-05 -0.00101095)
(0 1.6311e-05 -0.00101139)
(0 1.74556e-05 -0.00101176)
(0 1.86315e-05 -0.00101206)
(0 1.98294e-05 -0.00101226)
(0 2.10371e-05 -0.00101232)
(0 2.22396e-05 -0.00101223)
(0 2.34192e-05 -0.00101196)
(0 2.45567e-05 -0.00101152)
(0 2.56342e-05 -0.00101081)
(0 2.66213e-05 -0.00100967)
(0 2.74638e-05 -0.00100827)
(0 2.80586e-05 -0.00100799)
(0 2.81642e-05 -0.00100937)
(0 2.71909e-05 -0.000996647)
(0 2.35462e-05 -0.000936286)
(0 1.53989e-05 -0.000791174)
(0 -4.28379e-06 -0.00310259)
(0 5.13645e-07 7.25115e-05)
(0 0.000286835 -0.00380722)
(0 0.000115127 -0.0026057)
(0 -8.78369e-06 -0.00120188)
(0 5.37381e-05 -0.00504447)
(0 1.53067e-05 -0.00050052)
(0 -0.000392167 -0.0049152)
(0 5.26061e-05 -7.6397e-05)
(0 -0.000850265 -0.00425703)
(0 -2.18384e-05 -0.000261172)
(0 -0.000451419 -0.00390563)
(0 -0.000241023 -0.00154428)
(0 -0.000603875 -0.00452328)
(0 -1.75682e-05 -0.000741379)
(0 -0.000320583 -0.00298065)
(0 -0.000512778 -0.00214281)
(0 1.15069e-05 -0.000282449)
(0 -8.35766e-05 -0.00400952)
(0 3.99256e-05 -0.00101896)
(0 0.000208524 -0.00248423)
(0 0.000172876 -0.00128348)
(0 8.90433e-06 -0.00125883)
(0 4.33958e-05 -0.00103827)
(0 9.41193e-05 -0.000938362)
(0 0.000122043 -0.000872978)
(0 0.000124945 -0.000846647)
(0 0.000115059 -0.000861087)
(0 0.000102156 -0.000881944)
(0 8.97841e-05 -0.000898383)
(0 7.87367e-05 -0.000911641)
(0 6.90329e-05 -0.000923087)
(0 6.0537e-05 -0.000933094)
(0 5.31016e-05 -0.000941801)
(0 4.65929e-05 -0.000949365)
(0 4.08938e-05 -0.000955936)
(0 3.5902e-05 -0.000961647)
(0 3.15284e-05 -0.000966612)
(0 2.76953e-05 -0.000970929)
(0 2.4335e-05 -0.000974684)
(0 2.13882e-05 -0.00097795)
(0 1.88034e-05 -0.000980792)
(0 1.65354e-05 -0.000983265)
(0 1.45448e-05 -0.000985418)
(0 1.27973e-05 -0.000987293)
(0 1.12627e-05 -0.000988925)
(0 9.91472e-06 -0.000990347)
(0 8.73043e-06 -0.000991587)
(0 7.6897e-06 -0.000992667)
(0 6.77491e-06 -0.000993608)
(0 5.97058e-06 -0.000994427)
(0 5.26316e-06 -0.000995141)
(0 4.64079e-06 -0.000995762)
(0 4.09308e-06 -0.000996303)
(0 3.61094e-06 -0.000996774)
(0 3.1864e-06 -0.000997185)
(0 2.81247e-06 -0.000997543)
(0 2.48305e-06 -0.000997856)
(0 2.19278e-06 -0.00099813)
(0 1.93696e-06 -0.000998369)
(0 1.71153e-06 -0.000998579)
(0 1.51283e-06 -0.000998762)
(0 1.33766e-06 -0.000998921)
(0 1.18317e-06 -0.000999059)
(0 1.04685e-06 -0.000999179)
(0 9.26545e-07 -0.000999284)
(0 8.20324e-07 -0.000999375)
(0 7.26515e-07 -0.000999454)
(0 6.43645e-07 -0.000999523)
(0 5.70419e-07 -0.000999584)
(0 5.057e-07 -0.000999636)
(0 4.48486e-07 -0.000999682)
(0 3.97897e-07 -0.000999722)
(0 3.53159e-07 -0.000999757)
(0 3.1359e-07 -0.000999787)
(0 2.78588e-07 -0.000999813)
(0 2.47625e-07 -0.000999836)
(0 2.20233e-07 -0.000999857)
(0 1.96004e-07 -0.000999874)
(0 1.74573e-07 -0.00099989)
(0 1.55621e-07 -0.000999903)
(0 1.38867e-07 -0.000999915)
(0 1.24062e-07 -0.000999925)
(0 1.10988e-07 -0.000999934)
(0 9.94501e-08 -0.000999942)
(0 8.92793e-08 -0.000999949)
(0 8.03254e-08 -0.000999955)
(0 7.24567e-08 -0.000999961)
(0 6.55575e-08 -0.000999965)
(0 5.95262e-08 -0.00099997)
(0 5.42743e-08 -0.000999974)
(0 4.97245e-08 -0.000999977)
(0 4.581e-08 -0.00099998)
(0 4.24731e-08 -0.000999983)
(0 3.96654e-08 -0.000999986)
(0 3.73466e-08 -0.000999989)
(0 3.54839e-08 -0.000999991)
(0 3.40479e-08 -0.000999993)
(0 3.30338e-08 -0.000999996)
(0 3.27219e-08 -0.000999998)
)
;
    }
    procBoundary1to0
    {
        type            processor;
        value           nonuniform List<vector> 
180
(
(-7.84846e-11 8.13933e-09 -0.00100008)
(2.65166e-10 1.30984e-08 -0.00100008)
(6.25395e-10 2.02515e-08 -0.00100008)
(9.60217e-10 2.8269e-08 -0.00100008)
(1.30049e-09 3.67642e-08 -0.00100009)
(1.66763e-09 4.57064e-08 -0.00100009)
(2.07498e-09 5.51689e-08 -0.0010001)
(2.53305e-09 6.52526e-08 -0.0010001)
(3.05237e-09 7.60699e-08 -0.00100011)
(3.64445e-09 8.77421e-08 -0.00100012)
(4.32213e-09 1.004e-07 -0.00100013)
(5.09981e-09 1.14187e-07 -0.00100015)
(5.99376e-09 1.29256e-07 -0.00100016)
(7.02239e-09 1.45777e-07 -0.00100018)
(8.20667e-09 1.63936e-07 -0.00100019)
(9.5705e-09 1.83936e-07 -0.00100021)
(1.11412e-08 2.06003e-07 -0.00100024)
(1.29502e-08 2.30385e-07 -0.00100026)
(1.50333e-08 2.57356e-07 -0.00100029)
(1.74318e-08 2.87222e-07 -0.00100032)
(2.01932e-08 3.20318e-07 -0.00100036)
(2.33721e-08 3.5702e-07 -0.0010004)
(2.70315e-08 3.97744e-07 -0.00100044)
(3.12439e-08 4.42952e-07 -0.00100049)
(3.60931e-08 4.93159e-07 -0.00100054)
(4.16755e-08 5.4894e-07 -0.0010006)
(4.8103e-08 6.10932e-07 -0.00100067)
(5.55045e-08 6.7985e-07 -0.00100075)
(6.40291e-08 7.56487e-07 -0.00100083)
(7.38493e-08 8.41729e-07 -0.00100092)
(8.51644e-08 9.36565e-07 -0.00100103)
(9.82051e-08 1.0421e-06 -0.00100114)
(1.13238e-07 1.15956e-06 -0.00100127)
(1.30571e-07 1.29032e-06 -0.00100142)
(1.50562e-07 1.43592e-06 -0.00100158)
(1.73623e-07 1.59808e-06 -0.00100176)
(2.00231e-07 1.77872e-06 -0.00100196)
(2.3094e-07 1.97999e-06 -0.00100218)
(2.66389e-07 2.20428e-06 -0.00100243)
(3.07318e-07 2.4543e-06 -0.00100271)
(3.54583e-07 2.73306e-06 -0.00100302)
(4.09177e-07 3.04394e-06 -0.00100337)
(4.72246e-07 3.39072e-06 -0.00100375)
(5.4512e-07 3.77764e-06 -0.00100419)
(6.29337e-07 4.20946e-06 -0.00100467)
(7.26678e-07 4.69152e-06 -0.00100521)
(8.39202e-07 5.22981e-06 -0.00100582)
(9.69293e-07 5.83107e-06 -0.0010065)
(1.11971e-06 6.50286e-06 -0.00100726)
(1.29363e-06 7.25368e-06 -0.00100811)
(1.49474e-06 8.09308e-06 -0.00100907)
(1.72732e-06 9.03183e-06 -0.00101014)
(1.99627e-06 1.0082e-05 -0.00101134)
(2.3073e-06 1.12573e-05 -0.00101269)
(2.66699e-06 1.2573e-05 -0.0010142)
(3.08294e-06 1.40465e-05 -0.0010159)
(3.56395e-06 1.56974e-05 -0.00101781)
(4.12019e-06 1.75476e-05 -0.00101995)
(4.7634e-06 1.96222e-05 -0.00102237)
(5.50715e-06 2.19493e-05 -0.00102508)
(6.36711e-06 2.45608e-05 -0.00102814)
(7.36138e-06 2.74929e-05 -0.00103159)
(8.51085e-06 3.07863e-05 -0.00103547)
(9.83965e-06 3.44874e-05 -0.00103985)
(1.13756e-05 3.86487e-05 -0.00104479)
(1.31507e-05 4.33298e-05 -0.00105037)
(1.52021e-05 4.85984e-05 -0.00105668)
(1.75723e-05 5.45312e-05 -0.00106381)
(2.03103e-05 6.12157e-05 -0.00107187)
(2.34725e-05 6.87511e-05 -0.001081)
(2.71234e-05 7.72506e-05 -0.00109134)
(3.13359e-05 8.68428e-05 -0.00110305)
(3.61909e-05 9.76735e-05 -0.00111629)
(4.17843e-05 0.000109903 -0.00113122)
(4.82247e-05 0.000123684 -0.00114834)
(5.56063e-05 0.00013904 -0.00116966)
(6.38768e-05 0.000155321 -0.00119711)
(7.19549e-05 0.000168768 -0.00121361)
(7.62329e-05 0.000168724 -0.00117462)
(6.49273e-05 0.000131275 -0.000965428)
(1.06999e-05 2.10551e-05 -0.00370456)
(-1.50665e-05 -6.67662e-07 1.11247e-05)
(-0.000336207 0.000132581 -0.00433651)
(-5.41817e-05 8.16398e-06 -0.000526422)
(-0.000442288 -0.000240777 -0.0044457)
(-6.76746e-05 -3.09184e-05 -0.000282465)
(-0.000721011 -0.00047898 -0.0048285)
(-0.000322608 -0.00023358 -0.00441287)
(-1.30893e-05 7.70155e-06 -0.0012992)
(0.000210328 0.000343168 -0.00491993)
(0.000204274 3.8626e-05 -0.00152388)
(0.00073762 -0.000456247 -0.00390572)
(2.74043e-05 -1.49857e-05 -0.00029032)
(0.00040351 -0.000292134 -0.00458088)
(8.6596e-05 -0.000211306 -0.00293224)
(5.45696e-05 -7.13836e-05 -0.00247233)
(0.000224863 -8.7625e-05 -0.00371233)
(0.000191317 -8.12828e-05 -0.00265701)
(2.51428e-05 -3.99775e-06 -0.00246941)
(-0.000221887 -7.46542e-05 -0.00388398)
(-7.60433e-05 -9.84398e-05 -0.00183351)
(-7.6902e-05 -0.000133111 -0.00344403)
(-0.000103708 -0.000165195 -0.00273889)
(3.63176e-06 -3.19665e-05 -0.0011474)
(-1.70343e-05 -2.61842e-05 -0.00181017)
(-6.32629e-05 -5.20825e-05 -0.00105697)
(-7.36207e-05 -6.12411e-05 -0.00106149)
(-6.68716e-05 -5.79902e-05 -0.00107654)
(-5.74053e-05 -5.05453e-05 -0.00107045)
(-4.89228e-05 -4.2915e-05 -0.00105839)
(-4.16665e-05 -3.61291e-05 -0.00104813)
(-3.5457e-05 -3.02958e-05 -0.00103992)
(-3.0141e-05 -2.53292e-05 -0.00103307)
(-2.55939e-05 -2.11174e-05 -0.00102726)
(-2.17087e-05 -1.7555e-05 -0.00102236)
(-1.83914e-05 -1.45475e-05 -0.00101823)
(-1.55607e-05 -1.20118e-05 -0.00101479)
(-1.31467e-05 -9.87727e-06 -0.00101191)
(-1.10897e-05 -8.0836e-06 -0.00100951)
(-9.33826e-06 -6.57924e-06 -0.00100752)
(-7.84827e-06 -5.32024e-06 -0.00100587)
(-6.58193e-06 -4.26916e-06 -0.00100451)
(-5.50682e-06 -3.39405e-06 -0.00100339)
(-4.59514e-06 -2.66775e-06 -0.00100247)
(-3.82311e-06 -2.06715e-06 -0.00100173)
(-3.17033e-06 -1.5726e-06 -0.00100112)
(-2.61936e-06 -1.16742e-06 -0.00100063)
(-2.15529e-06 -8.37484e-07 -0.00100024)
(-1.76539e-06 -5.70823e-07 -0.000999929)
(-1.43871e-06 -3.57271e-07 -0.000999688)
(-1.16557e-06 -1.87761e-07 -0.000999508)
(-9.37514e-07 -5.43212e-08 -0.00099938)
(-7.47497e-07 4.95214e-08 -0.00099929)
(-5.89569e-07 1.29084e-07 -0.000999232)
(-4.58707e-07 1.88768e-07 -0.000999199)
(-3.50624e-07 2.32297e-07 -0.000999185)
(-2.61686e-07 2.6278e-07 -0.000999186)
(-1.88841e-07 2.82773e-07 -0.000999199)
(-1.29525e-07 2.94384e-07 -0.00099922)
(-8.1598e-08 2.99324e-07 -0.000999246)
(-4.33122e-08 2.98965e-07 -0.000999276)
(-1.31024e-08 2.9446e-07 -0.000999309)
(1.03857e-08 2.86785e-07 -0.000999344)
(2.83695e-08 2.76778e-07 -0.000999381)
(4.18732e-08 2.65128e-07 -0.000999419)
(5.17284e-08 2.52376e-07 -0.000999456)
(5.86251e-08 2.38956e-07 -0.000999493)
(6.31359e-08 2.25208e-07 -0.000999529)
(6.57358e-08 2.114e-07 -0.000999563)
(6.68197e-08 1.97742e-07 -0.000999596)
(6.67141e-08 1.84391e-07 -0.000999627)
(6.56878e-08 1.71467e-07 -0.000999656)
(6.39623e-08 1.59054e-07 -0.000999683)
(6.17184e-08 1.47212e-07 -0.000999709)
(5.91042e-08 1.3598e-07 -0.000999733)
(5.62396e-08 1.25378e-07 -0.000999755)
(5.32214e-08 1.15416e-07 -0.000999776)
(5.01271e-08 1.06091e-07 -0.000999795)
(4.70183e-08 9.73928e-08 -0.000999813)
(4.39432e-08 8.93064e-08 -0.000999829)
(4.09394e-08 8.18116e-08 -0.000999844)
(3.80356e-08 7.48855e-08 -0.000999858)
(3.52532e-08 6.85035e-08 -0.000999871)
(3.26082e-08 6.264e-08 -0.000999883)
(3.01116e-08 5.72693e-08 -0.000999894)
(2.77709e-08 5.23656e-08 -0.000999904)
(2.55905e-08 4.79041e-08 -0.000999913)
(2.35727e-08 4.38608e-08 -0.000999922)
(2.17183e-08 4.02132e-08 -0.00099993)
(2.00265e-08 3.69398e-08 -0.000999938)
(1.84958e-08 3.4021e-08 -0.000999945)
(1.71242e-08 3.14387e-08 -0.000999951)
(1.59091e-08 2.91766e-08 -0.000999958)
(1.4848e-08 2.72198e-08 -0.000999964)
(1.39377e-08 2.5555e-08 -0.000999969)
(1.31745e-08 2.41697e-08 -0.000999975)
(1.25537e-08 2.30513e-08 -0.00099998)
(1.20707e-08 2.21864e-08 -0.000999985)
(1.17034e-08 2.15427e-08 -0.000999991)
(1.1197e-08 2.08725e-08 -0.000999995)
)
;
    }
    procBoundary1to3
    {
        type            processor;
        value           nonuniform List<vector> 
180
(
(-4.67021e-10 7.75078e-09 -0.000999921)
(-3.35858e-10 1.24973e-08 -0.00099992)
(-3.29236e-10 1.92968e-08 -0.000999919)
(-4.18996e-10 2.68898e-08 -0.000999916)
(-5.55888e-10 3.49078e-08 -0.000999913)
(-7.2277e-10 4.3316e-08 -0.000999909)
(-9.20028e-10 5.21738e-08 -0.000999904)
(-1.15301e-09 6.15664e-08 -0.000999899)
(-1.4288e-09 7.15886e-08 -0.000999892)
(-1.7556e-09 8.23419e-08 -0.000999884)
(-2.14278e-09 9.39353e-08 -0.000999875)
(-2.60099e-09 1.06486e-07 -0.000999865)
(-3.14242e-09 1.20119e-07 -0.000999853)
(-3.78104e-09 1.34973e-07 -0.00099984)
(-4.53295e-09 1.51196e-07 -0.000999826)
(-5.41669e-09 1.68949e-07 -0.000999809)
(-6.45367e-09 1.88408e-07 -0.000999791)
(-7.6687e-09 2.09766e-07 -0.000999771)
(-9.09056e-09 2.33232e-07 -0.000999748)
(-1.07527e-08 2.59037e-07 -0.000999723)
(-1.26939e-08 2.8743e-07 -0.000999696)
(-1.49597e-08 3.18687e-07 -0.000999665)
(-1.76027e-08 3.53108e-07 -0.000999631)
(-2.06844e-08 3.91022e-07 -0.000999594)
(-2.42767e-08 4.32788e-07 -0.000999553)
(-2.84638e-08 4.78798e-07 -0.000999507)
(-3.33447e-08 5.29482e-07 -0.000999457)
(-3.90353e-08 5.85307e-07 -0.000999402)
(-4.567e-08 6.46784e-07 -0.000999342)
(-5.3405e-08 7.1447e-07 -0.000999276)
(-6.2421e-08 7.88974e-07 -0.000999203)
(-7.29283e-08 8.70957e-07 -0.000999123)
(-8.5171e-08 9.61139e-07 -0.000999035)
(-9.94329e-08 1.0603e-06 -0.000998939)
(-1.16044e-07 1.1693e-06 -0.000998834)
(-1.35389e-07 1.28905e-06 -0.000998719)
(-1.57914e-07 1.42055e-06 -0.000998593)
(-1.84139e-07 1.56488e-06 -0.000998456)
(-2.1467e-07 1.72319e-06 -0.000998307)
(-2.5021e-07 1.89674e-06 -0.000998144)
(-2.91578e-07 2.08685e-06 -0.000997967)
(-3.39727e-07 2.29497e-06 -0.000997775)
(-3.95761e-07 2.52263e-06 -0.000997566)
(-4.60965e-07 2.77146e-06 -0.000997341)
(-5.36833e-07 3.04317e-06 -0.000997097)
(-6.251e-07 3.33959e-06 -0.000996833)
(-7.27781e-07 3.66265e-06 -0.00099655)
(-8.47214e-07 4.01434e-06 -0.000996246)
(-9.86112e-07 4.39676e-06 -0.000995919)
(-1.14762e-06 4.81208e-06 -0.00099557)
(-1.3354e-06 5.26251e-06 -0.000995199)
(-1.55367e-06 5.75031e-06 -0.000994804)
(-1.80736e-06 6.27774e-06 -0.000994386)
(-2.10214e-06 6.84704e-06 -0.000993945)
(-2.44463e-06 7.46041e-06 -0.000993483)
(-2.84246e-06 8.11988e-06 -0.000993002)
(-3.30449e-06 8.82737e-06 -0.000992502)
(-3.84099e-06 9.58449e-06 -0.000991988)
(-4.46383e-06 1.03925e-05 -0.000991463)
(-5.18678e-06 1.12524e-05 -0.000990934)
(-6.02575e-06 1.21642e-05 -0.000990406)
(-6.99917e-06 1.31277e-05 -0.000989889)
(-8.12831e-06 1.41414e-05 -0.000989393)
(-9.4378e-06 1.52029e-05 -0.000988931)
(-1.0956e-05 1.63083e-05 -0.000988518)
(-1.27159e-05 1.74523e-05 -0.000988173)
(-1.47552e-05 1.86277e-05 -0.000987917)
(-1.71176e-05 1.98247e-05 -0.000987776)
(-1.98534e-05 2.10314e-05 -0.000987778)
(-2.30204e-05 2.22327e-05 -0.000987953)
(-2.66849e-05 2.34107e-05 -0.000988328)
(-3.09218e-05 2.45462e-05 -0.000988898)
(-3.58134e-05 2.56213e-05 -0.000989683)
(-4.14546e-05 2.66058e-05 -0.00099079)
(-4.79438e-05 2.7449e-05 -0.000992699)
(-5.53232e-05 2.80617e-05 -0.000996858)
(-6.3096e-05 2.82435e-05 -0.00100265)
(-6.95328e-05 2.75213e-05 -0.000992668)
(-6.86644e-05 2.43908e-05 -0.000929463)
(-5.05057e-05 1.66367e-05 -0.000885916)
(-1.49741e-05 -4.73878e-06 -0.00282866)
(1.41467e-05 8.25197e-07 -5.44881e-05)
(4.0083e-05 0.000468629 -0.00357794)
(3.3801e-06 2.23071e-05 -0.00017554)
(-0.000108347 -4.89635e-05 -0.00383451)
(-1.97971e-05 4.6089e-05 -0.00424336)
(4.77386e-06 2.80832e-05 -0.000439399)
(-0.000352254 -0.000206624 -0.00405139)
(-0.000393679 -0.000165689 -0.00339582)
(-4.25008e-05 -1.58755e-05 -0.000424663)
(-0.000224685 -0.000617253 -0.00273892)
(0.000212023 -0.000322046 -0.00409587)
(2.59792e-05 8.31192e-07 -0.000518137)
(-0.000182111 -0.000708729 -0.00476242)
(-0.000151586 -0.000840093 -0.00333268)
(1.41593e-05 -4.47147e-05 -0.00041363)
(-0.00018813 -0.000898741 -0.00460352)
(-2.1783e-08 -2.12766e-05 -0.000253325)
(-0.000238922 -0.000303656 -0.0047081)
(-3.42916e-05 5.5069e-05 -0.0015013)
(0.000448862 0.000479495 -0.00486005)
(5.64487e-06 4.12361e-05 -0.000336688)
(3.42305e-05 -1.941e-05 -0.00398035)
(8.46826e-05 -1.95943e-05 -0.00144603)
(0.000124063 3.00213e-05 -0.00138222)
(0.000133324 8.95671e-05 -0.00127689)
(0.000124007 0.000113666 -0.00120566)
(0.000109856 0.000111998 -0.00117552)
(9.60867e-05 0.000101371 -0.00115674)
(8.38306e-05 8.9529e-05 -0.00113859)
(7.31234e-05 7.8607e-05 -0.00112169)