/*--------------------------------*- C++ -*----------------------------------*\
| =========                 |                                                 |
| \\      /  F ield         | OpenFOAM: The Open Source CFD Toolbox           |
|  \\    /   O peration     | Version:  5.x                                   |
|   \\  /    A nd           | Web:      www.OpenFOAM.org                      |
|    \\/     M anipulation  |                                                 |
\*---------------------------------------------------------------------------*/
FoamFile
{
    version     2.0;
    format      ascii;
    class       volVectorField;
    location    "3000";
    object      U;
}
// * * * * * * * * * * * * * * * * * * * * * * * * * * * * * * * * * * * * * //

dimensions      [0 1 -1 0 0 0 0];

internalField   nonuniform List<vector> 
180
(
(-9.96971e-11 8.00741e-09 -0.00100008)
(1.56945e-10 1.28034e-08 -0.00100008)
(4.22009e-10 1.97186e-08 -0.00100008)
(6.60043e-10 2.74651e-08 -0.00100009)
(9.08283e-10 3.56453e-08 -0.00100009)
(1.18667e-09 4.42165e-08 -0.00100009)
(1.50989e-09 5.32345e-08 -0.0010001)
(1.88909e-09 6.27836e-08 -0.0010001)
(2.33475e-09 7.29584e-08 -0.00100011)
(2.85762e-09 8.38617e-08 -0.00100012)
(3.46908e-09 9.56039e-08 -0.00100012)
(4.18136e-09 1.08304e-07 -0.00100013)
(5.00783e-09 1.22093e-07 -0.00100014)
(5.96338e-09 1.37109e-07 -0.00100016)
(7.06471e-09 1.53506e-07 -0.00100017)
(8.33089e-09 1.71449e-07 -0.00100018)
(9.7838e-09 1.91121e-07 -0.0010002)
(1.14488e-08 2.12719e-07 -0.00100022)
(1.33554e-08 2.36459e-07 -0.00100024)
(1.55379e-08 2.62575e-07 -0.00100027)
(1.80366e-08 2.91326e-07 -0.0010003)
(2.08987e-08 3.22992e-07 -0.00100033)
(2.4179e-08 3.57879e-07 -0.00100036)
(2.7942e-08 3.96324e-07 -0.0010004)
(3.22626e-08 4.38692e-07 -0.00100044)
(3.72282e-08 4.85382e-07 -0.00100049)
(4.29406e-08 5.3683e-07 -0.00100054)
(4.95176e-08 5.93512e-07 -0.00100059)
(5.70963e-08 6.55947e-07 -0.00100066)
(6.58349e-08 7.24701e-07 -0.00100072)
(7.59169e-08 8.00394e-07 -0.0010008)
(8.75536e-08 8.837e-07 -0.00100088)
(1.00989e-07 9.75354e-07 -0.00100097)
(1.16506e-07 1.07616e-06 -0.00100107)
(1.3443e-07 1.18698e-06 -0.00100118)
(1.55135e-07 1.30877e-06 -0.0010013)
(1.79056e-07 1.44255e-06 -0.00100143)
(2.06692e-07 1.58944e-06 -0.00100157)
(2.38622e-07 1.75064e-06 -0.00100172)
(2.75514e-07 1.92744e-06 -0.00100189)
(3.18141e-07 2.12126e-06 -0.00100208)
(3.67398e-07 2.33358e-06 -0.00100228)
(4.24318e-07 2.56604e-06 -0.0010025)
(4.90102e-07 2.82034e-06 -0.00100274)
(5.66135e-07 3.09833e-06 -0.00100299)
(6.54028e-07 3.40196e-06 -0.00100327)
(7.55641e-07 3.73329e-06 -0.00100358)
(8.73129e-07 4.0945e-06 -0.00100391)
(1.00899e-06 4.48788e-06 -0.00100426)
(1.1661e-06 4.91582e-06 -0.00100465)
(1.3478e-06 5.38081e-06 -0.00100506)
(1.55796e-06 5.88538e-06 -0.0010055)
(1.80104e-06 6.43218e-06 -0.00100598)
(2.08221e-06 7.02383e-06 -0.00100649)
(2.40742e-06 7.66299e-06 -0.00100703)
(2.78358e-06 8.35228e-06 -0.0010076)
(3.21864e-06 9.09423e-06 -0.00100821)
(3.7218e-06 9.89121e-06 -0.00100885)
(4.30369e-06 1.07454e-05 -0.00100952)
(4.97656e-06 1.16587e-05 -0.00101023)
(5.75455e-06 1.26325e-05 -0.00101096)
(6.65397e-06 1.36678e-05 -0.00101171)
(7.69362e-06 1.4765e-05 -0.00101249)
(8.89516e-06 1.59234e-05 -0.00101328)
(1.02836e-05 1.71416e-05 -0.00101407)
(1.18875e-05 1.84167e-05 -0.00101486)
(1.37402e-05 1.97447e-05 -0.00101564)
(1.58795e-05 2.11194e-05 -0.00101638)
(1.83493e-05 2.2533e-05 -0.00101708)
(2.11995e-05 2.39752e-05 -0.00101772)
(2.44875e-05 2.54335e-05 -0.00101829)
(2.82782e-05 2.68939e-05 -0.00101879)
(3.2644e-05 2.83424e-05 -0.00101914)
(3.76689e-05 2.97535e-05 -0.00101921)
(4.34384e-05 3.10798e-05 -0.00101919)
(4.99893e-05 3.22219e-05 -0.00102052)
(5.71026e-05 3.29343e-05 -0.00102375)
(6.36284e-05 3.26108e-05 -0.00101296)
(6.5067e-05 2.96933e-05 -0.000951408)
(5.02949e-05 2.25126e-05 -0.000786878)
(-2.34844e-06 3.97211e-06 -0.00315874)
(4.50842e-06 8.71418e-06 5.83259e-07)
(-0.000160386 0.000301748 -0.0038692)
(-5.72376e-05 0.000111359 -0.00260923)
(-5.93531e-05 -3.12394e-05 -0.00118095)
(-0.000259783 3.994e-05 -0.00513835)
(-8.45518e-05 -1.36514e-05 -0.000488286)
(-0.000881999 -0.000416369 -0.0052571)
(-2.97493e-05 -6.35595e-05 9.71565e-06)
(0.000690085 -0.000863691 -0.00470168)
(8.49648e-06 -0.000122061 -0.000195432)
(0.000474522 -0.000437392 -0.00416252)
(0.000175367 -0.000256337 -0.00154466)
(0.00031918 -0.000599134 -0.00456387)
(2.84441e-05 -4.46248e-05 -0.000654762)
(0.000119466 -0.000295941 -0.00297453)
(0.000355855 -0.000536478 -0.00247831)
(-1.575e-05 -3.01977e-05 -2.58998e-06)
(-1.31809e-05 -9.22253e-05 -0.00439017)
(-7.9105e-05 2.56856e-05 -0.00094343)
(-0.000216099 0.000228156 -0.00246196)
(-0.000133232 0.000195256 -0.00129678)
(-0.000181857 4.46661e-06 -0.00128158)
(-0.000119791 3.63222e-05 -0.00104019)
(-6.89318e-05 8.7693e-05 -0.000939777)
(-8.21613e-05 0.000117911 -0.000874739)
(-8.11231e-05 0.000121677 -0.000846989)
(-7.177e-05 0.00011228 -0.000861618)
(-6.14289e-05 9.96591e-05 -0.000882801)
(-5.22976e-05 8.74803e-05 -0.000899462)
(-4.44922e-05 7.66019e-05 -0.000912845)
(-3.78222e-05 6.70624e-05 -0.000924353)
(-3.21222e-05 5.87279e-05 -0.000934379)
(-2.7255e-05 5.1449e-05 -0.000943075)
(-2.31022e-05 4.50902e-05 -0.000950602)
(-1.95608e-05 3.95329e-05 -0.000957121)
(-1.65423e-05 3.4674e-05 -0.000962769)
(-1.39711e-05 3.04238e-05 -0.000967664)
(-1.17823e-05 2.67047e-05 -0.000971907)
(-9.92031e-06 2.3449e-05 -0.000975588)
(-8.33765e-06 2.05977e-05 -0.00097878)
(-6.9936e-06 1.80997e-05 -0.000981551)
(-5.85329e-06 1.59104e-05 -0.000983955)
(-4.88691e-06 1.39908e-05 -0.000986044)
(-4.06893e-06 1.23072e-05 -0.000987858)
(-3.37754e-06 1.083e-05 -0.000989434)
(-2.79405e-06 9.53339e-06 -0.000990805)
(-2.30253e-06 8.395e-06 -0.000991997)
(-1.88934e-06 7.39519e-06 -0.000993034)
(-1.54277e-06 6.51681e-06 -0.000993935)
(-1.25261e-06 5.74481e-06 -0.000994719)
(-1.01009e-06 5.06604e-06 -0.000995399)
(-8.07749e-07 4.46902e-06 -0.000995991)
(-6.39305e-07 3.94368e-06 -0.000996506)
(-4.99632e-07 3.48125e-06 -0.000996954)
(-3.84217e-07 3.07403e-06 -0.000997343)
(-2.89179e-07 2.7153e-06 -0.000997682)
(-2.1126e-07 2.39917e-06 -0.000997978)
(-1.47724e-07 2.12051e-06 -0.000998235)
(-9.62752e-08 1.8748e-06 -0.000998461)
(-5.50275e-08 1.65813e-06 -0.000998657)
(-2.23113e-08 1.46701e-06 -0.000998829)
(3.31205e-09 1.29839e-06 -0.000998978)
(2.30967e-08 1.14954e-06 -0.000999107)
(3.81039e-08 1.0181e-06 -0.00099922)
(4.92093e-08 9.01973e-07 -0.000999317)
(5.71415e-08 7.9935e-07 -0.000999403)
(6.2507e-08 7.08625e-07 -0.000999477)
(6.58092e-08 6.28395e-07 -0.000999542)
(6.74675e-08 5.57425e-07 -0.000999599)
(6.78286e-08 4.94628e-07 -0.000999648)
(6.71792e-08 4.39049e-07 -0.000999691)
(6.57552e-08 3.89849e-07 -0.000999729)
(6.37503e-08 3.46285e-07 -0.000999763)
(6.13227e-08 3.07707e-07 -0.000999792)
(5.86015e-08 2.73541e-07 -0.000999817)
(5.56906e-08 2.43278e-07 -0.000999839)
(5.26738e-08 2.16474e-07 -0.000999859)
(4.96177e-08 1.92734e-07 -0.000999876)
(4.65748e-08 1.71711e-07 -0.000999891)
(4.35859e-08 1.53099e-07 -0.000999905)
(4.06825e-08 1.36626e-07 -0.000999916)
(3.78885e-08 1.22055e-07 -0.000999927)
(3.52215e-08 1.09174e-07 -0.000999936)
(3.26941e-08 9.77981e-08 -0.000999944)
(3.03152e-08 8.77622e-08 -0.000999951)
(2.80905e-08 7.8922e-08 -0.000999957)
(2.60235e-08 7.11495e-08 -0.000999963)
(2.41159e-08 6.43325e-08 -0.000999967)
(2.23685e-08 5.83718e-08 -0.000999972)
(2.07808e-08 5.31807e-08 -0.000999976)
(1.9352e-08 4.86831e-08 -0.000999979)
(1.80809e-08 4.48129e-08 -0.000999982)
(1.6966e-08 4.15128e-08 -0.000999985)
(1.60054e-08 3.87344e-08 -0.000999987)
(1.51963e-08 3.64374e-08 -0.00099999)
(1.45349e-08 3.4588e-08 -0.000999992)
(1.40131e-08 3.31608e-08 -0.000999994)
(1.36132e-08 3.21487e-08 -0.000999996)
(1.31053e-08 3.18227e-08 -0.000999998)
)
;

boundaryField
{
    inlet
    {
        type            zeroGradient;
    }
    outlet
    {
        type            zeroGradient;
    }
    repeat_boundary
    {
        type            slip;
    }
    procBoundary1to0
    {
        type            processor;
        value           nonuniform List<vector> 
180
(
(-9.96968e-11 8.37571e-09 -0.00100009)
(1.56946e-10 1.33066e-08 -0.00100009)
(4.2201e-10 2.0467e-08 -0.00100009)
(6.60044e-10 2.85265e-08 -0.00100009)
(9.08283e-10 3.70895e-08 -0.00100009)
(1.18667e-09 4.61164e-08 -0.0010001)
(1.50989e-09 5.5681e-08 -0.0010001)
(1.88909e-09 6.58864e-08 -0.00100011)
(2.33475e-09 7.68474e-08 -0.00100012)
(2.85762e-09 8.86872e-08 -0.00100013)
(3.46908e-09 1.01539e-07 -0.00100014)
(4.18136e-09 1.15545e-07 -0.00100015)
(5.00784e-09 1.30862e-07 -0.00100016)
(5.96338e-09 1.47659e-07 -0.00100018)
(7.06471e-09 1.66123e-07 -0.00100019)
(8.33089e-09 1.86459e-07 -0.00100021)
(9.78381e-09 2.08892e-07 -0.00100023)
(1.14488e-08 2.33672e-07 -0.00100026)
(1.33554e-08 2.61075e-07 -0.00100028)
(1.55379e-08 2.91408e-07 -0.00100032)
(1.80366e-08 3.2501e-07 -0.00100035)
(2.08987e-08 3.62262e-07 -0.00100039)
(2.4179e-08 4.03585e-07 -0.00100043)
(2.7942e-08 4.49448e-07 -0.00100048)
(3.22626e-08 5.00375e-07 -0.00100053)
(3.72283e-08 5.56951e-07 -0.00100059)
(4.29406e-08 6.19826e-07 -0.00100066)
(4.95177e-08 6.89729e-07 -0.00100074)
(5.70963e-08 7.6747e-07 -0.00100082)
(6.5835e-08 8.53954e-07 -0.00100091)
(7.59169e-08 9.50193e-07 -0.00100102)
(8.75537e-08 1.05731e-06 -0.00100113)
(1.0099e-07 1.17657e-06 -0.00100126)
(1.16507e-07 1.30938e-06 -0.00100141)
(1.3443e-07 1.45731e-06 -0.00100157)
(1.55135e-07 1.6221e-06 -0.00100175)
(1.79056e-07 1.80574e-06 -0.00100194)
(2.06692e-07 2.0104e-06 -0.00100217)
(2.38622e-07 2.23855e-06 -0.00100242)
(2.75515e-07 2.49294e-06 -0.00100269)
(3.18143e-07 2.77664e-06 -0.001003)
(3.674e-07 3.09311e-06 -0.00100335)
(4.24321e-07 3.44621e-06 -0.00100373)
(4.90105e-07 3.84027e-06 -0.00100416)
(5.6614e-07 4.28017e-06 -0.00100464)
(6.54034e-07 4.77135e-06 -0.00100518)
(7.55649e-07 5.31996e-06 -0.00100579)
(8.7314e-07 5.93288e-06 -0.00100646)
(1.009e-06 6.61785e-06 -0.00100722)
(1.16612e-06 7.38358e-06 -0.00100806)
(1.34783e-06 8.23986e-06 -0.00100901)
(1.55799e-06 9.19771e-06 -0.00101007)
(1.80109e-06 1.02695e-05 -0.00101126)
(2.08227e-06 1.14693e-05 -0.0010126)
(2.4075e-06 1.28128e-05 -0.0010141)
(2.78369e-06 1.43178e-05 -0.00101579)
(3.21879e-06 1.60042e-05 -0.00101768)
(3.72201e-06 1.78947e-05 -0.0010198)
(4.30397e-06 2.00149e-05 -0.00102219)
(4.97694e-06 2.23935e-05 -0.00102488)
(5.75507e-06 2.50632e-05 -0.0010279)
(6.65467e-06 2.80609e-05 -0.0010313)
(7.69456e-06 3.14282e-05 -0.00103513)
(8.89643e-06 3.52125e-05 -0.00103945)
(1.02853e-05 3.94672e-05 -0.00104432)
(1.18899e-05 4.4253e-05 -0.0010498)
(1.37433e-05 4.96386e-05 -0.001056)
(1.58838e-05 5.57022e-05 -0.00106299)
(1.8355e-05 6.25323e-05 -0.00107089)
(2.12073e-05 7.02295e-05 -0.00107982)
(2.44981e-05 7.89081e-05 -0.00108992)
(2.82925e-05 8.8698e-05 -0.00110135)
(3.26635e-05 9.97458e-05 -0.00111424)
(3.76972e-05 0.000112212 -0.00112874)
(4.34881e-05 0.000126242 -0.00114536)
(5.01092e-05 0.000141836 -0.00116609)
(5.74614e-05 0.000158257 -0.0011929)
(6.43657e-05 0.00017156 -0.0012084)
(6.70311e-05 0.000170893 -0.00116335)
(5.35557e-05 0.00013256 -0.00094047)
(-2.87634e-06 2.25765e-05 -0.00398642)
(-1.45389e-05 3.37425e-06 1.47195e-05)
(-0.000304978 0.000201488 -0.00468007)
(-4.06852e-05 2.05405e-05 -0.000520135)
(-0.000410617 -0.000199076 -0.00465391)
(-5.1462e-05 -3.08157e-05 -0.000258461)
(-0.000670807 -0.000432113 -0.00505565)
(-0.000316416 -0.000181531 -0.00441616)
(-1.90548e-05 7.33504e-05 -0.00127024)
(0.000213246 0.0003945 -0.00502166)
(0.000222416 6.89702e-05 -0.00157412)
(0.000729274 -0.000465394 -0.00434952)
(2.29701e-05 2.37683e-05 -0.000162749)
(0.000467026 -0.000199643 -0.00512964)
(0.000121967 -0.000180393 -0.00303118)
(6.08273e-05 -8.33294e-05 -0.00246972)
(0.000278203 -8.02341e-05 -0.00385218)
(0.00022243 -5.57178e-05 -0.0027478)
(-1.19588e-05 2.48099e-05 -0.00255353)
(-0.000265153 -8.08039e-05 -0.00405628)
(-0.000135666 -0.000103559 -0.00183699)
(-0.000108805 -0.000135597 -0.00353941)
(-0.000129067 -0.00017356 -0.00285196)
(-2.51917e-05 -2.41032e-05 -0.00115747)
(-2.48399e-05 -3.93437e-05 -0.001868)
(-6.87148e-05 -6.6087e-05 -0.00108269)
(-7.86161e-05 -7.3897e-05 -0.00108139)
(-7.14215e-05 -6.90893e-05 -0.00109402)
(-6.131e-05 -6.02057e-05 -0.00108553)
(-5.22108e-05 -5.12869e-05 -0.00107128)
(-4.44257e-05 -4.33703e-05 -0.00105917)
(-3.77728e-05 -3.65578e-05 -0.00104939)
(-3.20859e-05 -3.07471e-05 -0.00104122)
(-2.72285e-05 -2.58077e-05 -0.00103429)
(-2.30827e-05 -2.16168e-05 -0.00102843)
(-1.95466e-05 -1.80656e-05 -0.00102348)
(-1.6532e-05 -1.50597e-05 -0.00101932)
(-1.39635e-05 -1.25184e-05 -0.00101583)
(-1.17768e-05 -1.03727e-05 -0.0010129)
(-9.9163e-06 -8.56378e-06 -0.00101045)
(-8.33474e-06 -7.04113e-06 -0.0010084)
(-6.99149e-06 -5.7618e-06 -0.0010067)
(-5.85176e-06 -4.68903e-06 -0.00100528)
(-4.8858e-06 -3.7915e-06 -0.00100411)
(-4.06813e-06 -3.0425e-06 -0.00100314)
(-3.37696e-06 -2.41925e-06 -0.00100234)
(-2.79363e-06 -1.90234e-06 -0.00100169)
(-2.30223e-06 -1.47526e-06 -0.00100116)
(-1.88913e-06 -1.12393e-06 -0.00100073)
(-1.54261e-06 -8.36331e-07 -0.00100039)
(-1.25249e-06 -6.02046e-07 -0.00100012)
(-1.01001e-06 -4.1214e-07 -0.000999908)
(-8.07692e-07 -2.59049e-07 -0.00099975)
(-6.39264e-07 -1.3649e-07 -0.00099963)
(-4.99604e-07 -3.96199e-08 -0.000999541)
(-3.84197e-07 3.59747e-08 -0.000999478)
(-2.89164e-07 9.41122e-08 -0.000999438)
(-2.1125e-07 1.37947e-07 -0.000999414)
(-1.47717e-07 1.70101e-07 -0.000999403)
(-9.627e-08 1.92741e-07 -0.000999403)
(-5.50238e-08 2.07641e-07 -0.00099941)
(-2.23086e-08 2.16301e-07 -0.000999423)
(3.31395e-09 2.19991e-07 -0.00099944)
(2.30981e-08 2.19786e-07 -0.000999462)
(3.81049e-08 2.16579e-07 -0.000999487)
(4.921e-08 2.11096e-07 -0.000999513)
(5.7142e-08 2.0393e-07 -0.00099954)
(6.25073e-08 1.95562e-07 -0.000999567)
(6.58095e-08 1.86379e-07 -0.000999594)
(6.74676e-08 1.76693e-07 -0.000999621)
(6.78288e-08 1.66753e-07 -0.000999647)
(6.71793e-08 1.56755e-07 -0.000999672)
(6.57553e-08 1.46851e-07 -0.000999696)
(6.37503e-08 1.37159e-07 -0.000999719)
(6.13228e-08 1.27766e-07 -0.000999741)
(5.86015e-08 1.18738e-07 -0.000999761)
(5.56906e-08 1.10119e-07 -0.000999781)
(5.26738e-08 1.0194e-07 -0.000999799)
(4.96177e-08 9.42182e-08 -0.000999816)
(4.65748e-08 8.69611e-08 -0.000999831)
(4.35859e-08 8.01691e-08 -0.000999846)
(4.06825e-08 7.38369e-08 -0.00099986)
(3.78885e-08 6.79547e-08 -0.000999872)
(3.52215e-08 6.25096e-08 -0.000999884)
(3.26941e-08 5.74869e-08 -0.000999895)
(3.03152e-08 5.28705e-08 -0.000999905)
(2.80905e-08 4.86437e-08 -0.000999914)
(2.60235e-08 4.47899e-08 -0.000999923)
(2.41159e-08 4.12928e-08 -0.000999931)
(2.23685e-08 3.81369e-08 -0.000999938)
(2.07808e-08 3.53074e-08 -0.000999945)
(1.9352e-08 3.2791e-08 -0.000999952)
(1.80809e-08 3.05751e-08 -0.000999958)
(1.6966e-08 2.86486e-08 -0.000999964)
(1.60054e-08 2.70012e-08 -0.00099997)
(1.51963e-08 2.56229e-08 -0.000999975)
(1.45349e-08 2.45034e-08 -0.00099998)
(1.40132e-08 2.36265e-08 -0.000999985)
(1.36133e-08 2.2966e-08 -0.00099999)
(1.31053e-08 2.23044e-08 -0.000999995)
)
;
    }
    procBoundary1to3
    {
        type            processor;
        value           nonuniform List<vector> 
180
(
(-4.67997e-10 8.0074e-09 -0.000999929)
(-3.46295e-10 1.28033e-08 -0.000999928)
(-3.2633e-10 1.97186e-08 -0.000999926)
(-4.0133e-10 2.74651e-08 -0.000999923)
(-5.35927e-10 3.56452e-08 -0.00099992)
(-7.13262e-10 4.42165e-08 -0.000999915)
(-9.36543e-10 5.32345e-08 -0.000999909)
(-1.21375e-09 6.27835e-08 -0.000999903)
(-1.5542e-09 7.29583e-08 -0.000999895)
(-1.9679e-09 8.38616e-08 -0.000999886)
(-2.4656e-09 9.56038e-08 -0.000999876)
(-3.05904e-09 1.08304e-07 -0.000999865)
(-3.76127e-09 1.22092e-07 -0.000999852)
(-4.58702e-09 1.37109e-07 -0.000999838)
(-5.5531e-09 1.53505e-07 -0.000999822)
(-6.67893e-09 1.71449e-07 -0.000999805)
(-7.98711e-09 1.91121e-07 -0.000999785)
(-9.5041e-09 2.12719e-07 -0.000999764)
(-1.12611e-08 2.36458e-07 -0.00099974)
(-1.32946e-08 2.62574e-07 -0.000999714)
(-1.56479e-08 2.91325e-07 -0.000999686)
(-1.83719e-08 3.22991e-07 -0.000999654)
(-2.15263e-08 3.57878e-07 -0.00099962)
(-2.51816e-08 3.96323e-07 -0.000999582)
(-2.94205e-08 4.38691e-07 -0.00099954)
(-3.43401e-08 4.8538e-07 -0.000999495)
(-4.00549e-08 5.36828e-07 -0.000999445)
(-4.66983e-08 5.93509e-07 -0.00099939)
(-5.44256e-08 6.55944e-07 -0.00099933)
(-6.34167e-08 7.24697e-07 -0.000999264)
(-7.38801e-08 8.0039e-07 -0.000999191)
(-8.60571e-08 8.83694e-07 -0.000999112)
(-1.00227e-07 9.75347e-07 -0.000999025)
(-1.16714e-07 1.07615e-06 -0.00099893)
(-1.35891e-07 1.18697e-06 -0.000998826)
(-1.58194e-07 1.30876e-06 -0.000998712)
(-1.84123e-07 1.44254e-06 -0.000998587)
(-2.14261e-07 1.58942e-06 -0.000998451)
(-2.49281e-07 1.75061e-06 -0.000998303)
(-2.89967e-07 1.92741e-06 -0.000998142)
(-3.37224e-07 2.12122e-06 -0.000997967)
(-3.92103e-07 2.33354e-06 -0.000997776)
(-4.5582e-07 2.56598e-06 -0.00099757)
(-5.29789e-07 2.82028e-06 -0.000997347)
(-6.15648e-07 3.09825e-06 -0.000997106)
(-7.15298e-07 3.40187e-06 -0.000996846)
(-8.30942e-07 3.73318e-06 -0.000996566)
(-9.65133e-07 4.09437e-06 -0.000996266)
(-1.12083e-06 4.48772e-06 -0.000995946)
(-1.30146e-06 4.91563e-06 -0.000995603)
(-1.511e-06 5.38058e-06 -0.000995238)
(-1.75404e-06 5.88511e-06 -0.000994852)
(-2.03591e-06 6.43184e-06 -0.000994443)
(-2.36276e-06 7.02343e-06 -0.000994013)
(-2.74172e-06 7.66252e-06 -0.000993563)
(-3.18103e-06 8.35171e-06 -0.000993094)
(-3.69021e-06 9.09354e-06 -0.000992608)
(-4.28027e-06 9.89039e-06 -0.000992109)
(-4.96394e-06 1.07444e-05 -0.000991601)
(-5.75591e-06 1.16575e-05 -0.000991088)
(-6.67313e-06 1.26311e-05 -0.000990579)
(-7.73519e-06 1.36662e-05 -0.00099008)
(-8.96465e-06 1.4763e-05 -0.000989602)
(-1.03876e-05 1.5921e-05 -0.000989157)
(-1.2034e-05 1.71387e-05 -0.000988761)
(-1.39384e-05 1.84133e-05 -0.000988432)
(-1.61406e-05 1.97406e-05 -0.000988189)
(-1.86865e-05 2.11145e-05 -0.000988059)
(-2.16286e-05 2.25271e-05 -0.000988068)
(-2.50275e-05 2.3968e-05 -0.000988249)
(-2.89524e-05 2.54246e-05 -0.00098863)
(-3.34818e-05 2.6883e-05 -0.000989222)
(-3.87033e-05 2.83289e-05 -0.000990055)
(-4.47164e-05 2.97374e-05 -0.000991219)
(-5.16213e-05 3.10646e-05 -0.000993201)
(-5.94532e-05 3.22268e-05 -0.000997485)
(-6.76696e-05 3.3018e-05 -0.00100347)
(-7.44921e-05 3.29481e-05 -0.000993547)
(-7.38968e-05 3.05229e-05 -0.000928695)
(-5.58591e-05 2.35689e-05 -0.00087242)
(-1.3944e-05 3.51815e-07 -0.00288552)
(4.03256e-05 -6.5087e-06 -2.62225e-05)
(2.22508e-05 0.000476746 -0.00378047)
(4.08662e-05 1.32075e-05 -0.000144971)
(-0.000130564 -7.5716e-05 -0.0038909)
(-3.76055e-05 3.31752e-05 -0.00420221)
(1.77419e-05 -1.4536e-06 -0.00039835)
(-0.000364026 -0.000222983 -0.0040345)
(-0.000401535 -0.00016169 -0.00361483)
(-6.23284e-05 -5.71597e-05 -0.000404883)
(-0.000194393 -0.000642878 -0.0029735)
(0.000251168 -0.000317059 -0.00412016)
(1.01586e-05 -8.60275e-05 -0.000472691)
(-0.000198964 -0.000731987 -0.00483919)
(-0.000107243 -0.000840541 -0.003499)
(-4.07725e-05 -8.28472e-05 -0.000290846)
(-0.000113381 -0.000907346 -0.00538979)
(-6.08266e-05 -2.64054e-05 1.61083e-05)
(-0.000284029 -0.000279669 -0.0053408)
(-4.50781e-05 8.47636e-05 -0.00158404)
(0.000500963 0.000521209 -0.00509444)
(2.72092e-05 3.96833e-05 -0.000174404)
(4.65543e-05 -7.34014e-06 -0.00414244)
(9.27397e-05 -9.08369e-06 -0.00144913)
(0.000130094 3.13027e-05 -0.00138596)
(0.000138211 8.60936e-05 -0.00127671)
(0.00012849 0.000109981 -0.00120427)
(0.000113786 0.000108988 -0.00117375)
(9.94169e-05 9.87959e-05 -0.00115486)
(8.6627e-05 8.72008e-05 -0.00113666)
(7.54699e-05 7.64628e-05 -0.00111976)
(6.57654e-05 6.69696e-05 -0.00110494)
(5.73235e-05 5.866e-05 -0.00109204)
(4.99784e-05 5.13983e-05 -0.00108078)
(4.35868e-05 4.50521e-05 -0.00107093)
(3.80238e-05 3.95043e-05 -0.00106231)
(3.31805e-05 3.46524e-05 -0.00105475)
(2.89628e-05 3.04076e-05 -0.00104814)
(2.52888e-05 2.66925e-05 -0.00104234)
(2.20875e-05 2.34398e-05 -0.00103725)
(1.92974e-05 2.05908e-05 -0.00103279)
(1.68649e-05 1.80945e-05 -0.00102887)
(1.47438e-05 1.59064e-05 -0.00102544)
(1.28936e-05 1.39878e-05 -0.00102242)
(1.12794e-05 1.23049e-05 -0.00101976)
(9.87063e-06 1.08283e-05 -0.00101743)
(8.64087e-06 9.53211e-06 -0.00101538)
(7.5671e-06 8.39404e-06 -0.00101357)
(6.6293e-06 7.39446e-06 -0.00101198)
(5.81e-06 6.51626e-06 -0.00101058)
(5.09396e-06 5.74439e-06 -0.00100935)
(4.46788e-06 5.06573e-06 -0.00100827)
(3.92015e-06 4.46878e-06 -0.00100731)
(3.44073e-06 3.9435e-06 -0.00100647)
(3.02113e-06 3.48111e-06 -0.00100572)
(2.65376e-06 3.07392e-06 -0.00100507)
(2.33194e-06 2.71522e-06 -0.00100449)
(2.04992e-06 2.39911e-06 -0.00100397)
(1.80265e-06 2.12046e-06 -0.00100352)
(1.58576e-06 1.87476e-06 -0.00100312)
(1.39544e-06 1.6581e-06 -0.00100277)
(1.22839e-06 1.46699e-06 -0.00100245)
(1.0817e-06 1.29837e-06 -0.00100218)
(9.52842e-07 1.14953e-06 -0.00100193)
(8.39614e-07 1.01809e-06 -0.00100171)
(7.40081e-07 9.01966e-07 -0.00100152)
(6.52556e-07 7.99344e-07 -0.00100135)
(5.75567e-07 7.08621e-07 -0.0010012)
(5.07823e-07 6.28392e-07 -0.00100106)
(4.48197e-07 5.57423e-07 -0.00100095)
(3.95702e-07 4.94626e-07 -0.00100084)
(3.49472e-07 4.39048e-07 -0.00100075)
(3.08751e-07 3.89847e-07 -0.00100066)
(2.72876e-07 3.46284e-07 -0.00100059)
(2.41263e-07 3.07707e-07 -0.00100052)
(2.13403e-07 2.7354e-07 -0.00100047)
(1.88849e-07 2.43278e-07 -0.00100041)
(1.67208e-07 2.16474e-07 -0.00100037)
(1.48134e-07 1.92734e-07 -0.00100033)
(1.31325e-07 1.71711e-07 -0.00100029)
(1.16515e-07 1.53099e-07 -0.00100026)
(1.03472e-07 1.36626e-07 -0.00100023)
(9.19888e-08 1.22055e-07 -0.0010002)
(8.18861e-08 1.09174e-07 -0.00100018)
(7.30052e-08 9.7798e-08 -0.00100016)
(6.52069e-08 8.77622e-08 -0.00100014)
(5.83687e-08 7.89219e-08 -0.00100012)
(5.23831e-08 7.11495e-08 -0.00100011)
(4.71556e-08 6.43325e-08 -0.0010001)
(4.26035e-08 5.83718e-08 -0.00100008)
(3.8654e-08 5.31807e-08 -0.00100007)
(3.52441e-08 4.86831e-08 -0.00100006)
(3.23187e-08 4.48129e-08 -0.00100005)
(2.98303e-08 4.15128e-08 -0.00100005)
(2.77387e-08 3.87344e-08 -0.00100004)
(2.60108e-08 3.64373e-08 -0.00100003)
(2.46196e-08 3.4588e-08 -0.00100002)
(2.35474e-08 3.31608e-08 -0.00100002)
(2.2796e-08 3.21487e-08 -0.00100001)
(2.26236e-08 3.18227e-08 -0.00100001)
)
;
    }
}


// ************************************************************************* //
