/*--------------------------------*- C++ -*----------------------------------*\
| =========                 |                                                 |
| \\      /  F ield         | OpenFOAM: The Open Source CFD Toolbox           |
|  \\    /   O peration     | Version:  5.x                                   |
|   \\  /    A nd           | Web:      www.OpenFOAM.org                      |
|    \\/     M anipulation  |                                                 |
\*---------------------------------------------------------------------------*/
FoamFile
{
    version     2.0;
    format      ascii;
    class       surfaceScalarField;
    location    "0.002";
    object      phi;
}
// * * * * * * * * * * * * * * * * * * * * * * * * * * * * * * * * * * * * * //

dimensions      [0 3 -1 0 0 0 0];

internalField   nonuniform List<scalar> 
179
(
-2.49988e-10
-2.49987e-10
-2.49987e-10
-2.49986e-10
-2.49986e-10
-2.49985e-10
-2.49984e-10
-2.49983e-10
-2.49982e-10
-2.4998e-10
-2.49978e-10
-2.49976e-10
-2.49974e-10
-2.49972e-10
-2.49969e-10
-2.49966e-10
-2.49962e-10
-2.49958e-10
-2.49954e-10
-2.49949e-10
-2.49943e-10
-2.49937e-10
-2.4993e-10
-2.49922e-10
-2.49914e-10
-2.49905e-10
-2.49894e-10
-2.49883e-10
-2.4987e-10
-2.49857e-10
-2.49841e-10
-2.49824e-10
-2.49805e-10
-2.49785e-10
-2.49762e-10
-2.49737e-10
-2.49709e-10
-2.49679e-10
-2.49645e-10
-2.49607e-10
-2.49566e-10
-2.49521e-10
-2.49471e-10
-2.49415e-10
-2.49354e-10
-2.49286e-10
-2.49212e-10
-2.49129e-10
-2.49039e-10
-2.48938e-10
-2.48828e-10
-2.48706e-10
-2.48571e-10
-2.48423e-10
-2.4826e-10
-2.4808e-10
-2.47882e-10
-2.47665e-10
-2.47426e-10
-2.47164e-10
-2.46876e-10
-2.46561e-10
-2.46216e-10
-2.45839e-10
-2.45428e-10
-2.44979e-10
-2.44491e-10
-2.43959e-10
-2.43383e-10
-2.4276e-10
-2.4209e-10
-2.41371e-10
-2.40604e-10
-2.39789e-10
-2.38932e-10
-2.38038e-10
-2.3712e-10
-2.36212e-10
-2.35429e-10
-2.35213e-10
-2.35774e-10
-2.35499e-10
-2.24264e-10
-2.21943e-10
-2.27933e-10
-2.3895e-10
-2.42267e-10
-2.4893e-10
-2.45535e-10
-2.38981e-10
-2.36624e-10
-2.35203e-10
-2.43957e-10
-2.50771e-10
-2.54477e-10
-2.63007e-10
-2.75626e-10
-2.84121e-10
-2.90869e-10
-2.91869e-10
-2.93851e-10
-2.96615e-10
-2.95464e-10
-2.93317e-10
-2.90698e-10
-2.86787e-10
-2.82827e-10
-2.79189e-10
-2.7594e-10
-2.73057e-10
-2.70503e-10
-2.68238e-10
-2.66229e-10
-2.64447e-10
-2.62865e-10
-2.6146e-10
-2.60212e-10
-2.59103e-10
-2.58117e-10
-2.5724e-10
-2.56459e-10
-2.55765e-10
-2.55146e-10
-2.54594e-10
-2.54103e-10
-2.53665e-10
-2.53275e-10
-2.52927e-10
-2.52617e-10
-2.5234e-10
-2.52093e-10
-2.51871e-10
-2.51674e-10
-2.51497e-10
-2.51338e-10
-2.51197e-10
-2.5107e-10
-2.50958e-10
-2.50857e-10
-2.50767e-10
-2.50687e-10
-2.50615e-10
-2.50551e-10
-2.50494e-10
-2.50443e-10
-2.50398e-10
-2.50357e-10
-2.50321e-10
-2.50288e-10
-2.50259e-10
-2.50232e-10
-2.50209e-10
-2.50188e-10
-2.50169e-10
-2.50152e-10
-2.50137e-10
-2.50123e-10
-2.50111e-10
-2.501e-10
-2.5009e-10
-2.50081e-10
-2.50073e-10
-2.50066e-10
-2.50059e-10
-2.50053e-10
-2.50048e-10
-2.50043e-10
-2.50039e-10
-2.50035e-10
-2.50031e-10
-2.50027e-10
-2.50024e-10
-2.50021e-10
-2.50018e-10
-2.50015e-10
-2.50012e-10
-2.5001e-10
-2.50007e-10
-2.50004e-10
)
;

boundaryField
{
    inlet
    {
        type            calculated;
        value           uniform -2.50002e-10;
    }
    outlet
    {
        type            calculated;
        value           uniform 2.49988e-10;
    }
    repeat_boundary
    {
        type            calculated;
        value           uniform 0;
    }
    procBoundary1to0
    {
        type            processor;
        value           nonuniform List<scalar> 
180
(
-3.42952e-17
-5.32175e-17
-8.18226e-17
-1.12673e-16
-1.4493e-16
-1.78963e-16
-2.15273e-16
-2.54358e-16
-2.96681e-16
-3.42666e-16
-3.9271e-16
-4.47182e-16
-5.06435e-16
-5.70809e-16
-6.40633e-16
-7.16236e-16
-7.97948e-16
-8.86106e-16
-9.81057e-16
-1.08316e-15
-1.19279e-15
-1.31031e-15
-1.43618e-15
-1.571e-15
-1.71531e-15
-1.86967e-15
-2.03465e-15
-2.21085e-15
-2.39917e-15
-2.60051e-15
-2.81567e-15
-3.0455e-15
-3.29088e-15
-3.553e-15
-3.83315e-15
-4.1325e-15
-4.45225e-15
-4.79369e-15
-5.15817e-15
-5.54715e-15
-5.96255e-15
-6.40612e-15
-6.87947e-15
-7.38419e-15
-7.92177e-15
-8.49354e-15
-9.10055e-15
-9.74342e-15
-1.04222e-14
-1.11361e-14
-1.18835e-14
-1.26611e-14
-1.34642e-14
-1.42859e-14
-1.51167e-14
-1.59436e-14
-1.67494e-14
-1.75116e-14
-1.82009e-14
-1.87799e-14
-1.92012e-14
-1.94058e-14
-1.93196e-14
-1.885e-14
-1.78842e-14
-1.63181e-14
-1.42706e-14
-1.252e-14
-8.54522e-15
-2.88743e-15
4.75175e-15
1.49736e-14
2.86287e-14
4.66701e-14
7.02727e-14
1.00949e-13
1.41466e-13
2.00641e-13
2.87259e-13
4.93831e-13
4.19374e-13
-1.26882e-13
-5.05181e-12
-9.49751e-13
3.73737e-12
9.57406e-12
8.42161e-13
4.55549e-12
-8.61147e-13
-4.47384e-12
-2.90376e-12
-1.29325e-12
2.66145e-13
1.93092e-12
1.46676e-12
2.96138e-12
6.86728e-12
3.00683e-12
3.12707e-12
1.70514e-12
3.80222e-12
4.91018e-12
7.45727e-13
-9.36453e-13
-1.52622e-12
-2.89511e-12
-2.97837e-12
-2.74185e-12
-2.46015e-12
-2.19619e-12
-1.95904e-12
-1.74755e-12
-1.5591e-12
-1.39117e-12
-1.24152e-12
-1.10813e-12
-9.89235e-13
-8.83232e-13
-7.8871e-13
-7.0441e-13
-6.29213e-13
-5.62125e-13
-5.02258e-13
-4.48826e-13
-4.01127e-13
-3.58538e-13
-3.20506e-13
-2.86532e-13
-2.56163e-13
-2.29004e-13
-2.04713e-13
-1.8299e-13
-1.63567e-13
-1.46204e-13
-1.30687e-13
-1.16822e-13
-1.04435e-13
-9.33707e-14
-8.3488e-14
-7.46605e-14
-6.67749e-14
-5.97298e-14
-5.34347e-14
-4.78086e-14
-4.27789e-14
-3.82807e-14
-3.42564e-14
-3.0655e-14
-2.7431e-14
-2.45437e-14
-2.1957e-14
-1.96404e-14
-1.75675e-14
-1.57139e-14
-1.40574e-14
-1.25775e-14
-1.12559e-14
-1.00759e-14
-9.02265e-15
-8.08263e-15
-7.24383e-15
-6.49554e-15
-5.8282e-15
-5.23331e-15
-4.70334e-15
-4.23164e-15
-3.81232e-15
-3.44019e-15
-3.11069e-15
-2.81983e-15
-2.56414e-15
-2.3406e-15
-2.14661e-15
-1.97994e-15
-1.83872e-15
-1.72138e-15
-1.62665e-15
-1.5537e-15
-1.50213e-15
-1.5133e-15
)
;
    }
    procBoundary1to3
    {
        type            processor;
        value           nonuniform List<scalar> 
180
(
-9.05028e-17
-1.74478e-16
-2.76966e-16
-3.8355e-16
-4.94037e-16
-6.10046e-16
-7.33291e-16
-8.65478e-16
-1.00831e-15
-1.16354e-15
-1.33295e-15
-1.51844e-15
-1.72205e-15
-1.94593e-15
-2.19243e-15
-2.46414e-15
-2.76386e-15
-3.0947e-15
-3.4601e-15
-3.86386e-15
-4.31023e-15
-4.8039e-15
-5.35011e-15
-5.95468e-15
-6.62407e-15
-7.36548e-15
-8.1869e-15
-9.09719e-15
-1.01062e-14
-1.12248e-14
-1.24651e-14
-1.38405e-14
-1.53657e-14
-1.70572e-14
-1.8933e-14
-2.10131e-14
-2.33195e-14
-2.58767e-14
-2.87114e-14
-3.18533e-14
-3.5335e-14
-3.91925e-14
-4.34653e-14
-4.81969e-14
-5.34352e-14
-5.92326e-14
-6.56468e-14
-7.27407e-14
-8.05834e-14
-8.92504e-14
-9.8824e-14
-1.09394e-13
-1.21058e-13
-1.33923e-13
-1.48103e-13
-1.63723e-13
-1.80917e-13
-1.99829e-13
-2.2061e-13
-2.43415e-13
-2.68402e-13
-2.95744e-13
-3.25621e-13
-3.58212e-13
-3.93694e-13
-4.32232e-13
-4.73976e-13
-5.19054e-13
-5.67564e-13
-6.19558e-13
-6.75025e-13
-7.33857e-13
-7.95821e-13
-8.60509e-13
-9.27237e-13
-9.94756e-13
-1.05927e-12
-1.10876e-12
-1.06919e-12
-7.10223e-13
1.42087e-13
-1.48489e-13
-6.18269e-12
-1.37145e-12
2.25287e-12
1.44328e-12
2.47406e-12
2.10799e-12
-2.53403e-12
-2.08007e-12
5.46216e-13
-1.27214e-13
8.4878e-12
4.88282e-12
2.23977e-12
5.56883e-12
5.75186e-12
5.48757e-12
3.62107e-12
-7.04192e-13
-1.82023e-12
-2.14606e-12
-1.89616e-12
-1.20981e-12
-1.09281e-12
-1.01602e-12
-9.80623e-13
-8.96265e-13
-7.8899e-13
-6.86027e-13
-5.95528e-13
-5.17251e-13
-4.49549e-13
-3.90977e-13
-3.40304e-13
-2.9646e-13
-2.58514e-13
-2.25656e-13
-1.97189e-13
-1.72506e-13
-1.51085e-13
-1.32473e-13
-1.16279e-13
-1.02167e-13
-8.98448e-14
-7.90611e-14
-6.95995e-14
-6.12736e-14
-5.39109e-14
-4.76729e-14
-4.25081e-14
-3.812e-14
-3.42873e-14
-3.08545e-14
-2.77216e-14
-2.48312e-14
-2.2155e-14
-1.96851e-14
-1.74235e-14
-1.53734e-14
-1.35352e-14
-1.19043e-14
-1.04719e-14
-9.22461e-15
-8.14621e-15
-7.21881e-15
-6.42412e-15
-5.74438e-15
-5.16298e-15
-4.66491e-15
-4.23684e-15
-3.86721e-15
-3.54603e-15
-3.2648e-15
-3.01648e-15
-2.79534e-15
-2.59672e-15
-2.41687e-15
-2.25281e-15
-2.10215e-15
-1.96301e-15
-1.83391e-15
-1.71369e-15
-1.60144e-15
-1.4964e-15
-1.39773e-15
-1.30516e-15
-1.21852e-15
-1.13773e-15
-1.06273e-15
-9.93476e-16
-9.29951e-16
-8.7214e-16
-8.20026e-16
-7.73512e-16
-7.32555e-16
-6.97179e-16
-6.67553e-16
-6.44823e-16
-6.54222e-16
)
;
    }
}


// ************************************************************************* //
