FoamFile
{version 2.0; format ascii;class Cloud<passiveParticle>; location 0;object  positions;}
348
(
( -256.762 -470.421 49.959 ) 0 
( -339.387 -136.552 49.9287 ) 0 
( -186.014 -110.266 49.8882 ) 0 
( -280.357 -55.789 49.7848 ) 0 
( -460.715 -439.215 49.9025 ) 0 
( -311.072 -307.845 49.8643 ) 0 
( -479.62 -54.3076 49.8949 ) 0 
( -82.1293 -161.561 49.8119 ) 0 
( -442.603 -303.055 49.9197 ) 0 
( -275.487 -213.995 49.8319 ) 0 
( -379.72 -45.0964 49.842 ) 0 
( -165.193 -430.128 49.8256 ) 0 
( -87.0467 -261.472 49.8716 ) 0 
( -174.663 -309.601 49.8769 ) 0 
( -136.267 -380.549 137.103 ) 0 
( -329.096 -68.2511 136.046 ) 0 
( -441.395 -149.245 49.8501 ) 0 
( -90.5611 -363.596 49.9118 ) 0 
( -413.337 -460.219 135.279 ) 0 
( -142.69 -153.611 128.762 ) 0 
( -175.632 -209.639 49.9087 ) 0 
( -2.96353 -315.563 49.836 ) 0 
( -379.553 -380.794 49.9107 ) 0 
( -57.0643 -446.689 94.0705 ) 0 
( -260.472 -136.558 111.186 ) 0 
( -321.571 -424.221 118.692 ) 0 
( -191.29 -10.4594 49.8759 ) 0 
( -57.2424 -212.837 131.916 ) 0 
( -145.754 -259.324 131.204 ) 0 
( -374.08 -230.292 49.8464 ) 0 
( -193.619 -321.46 193.748 ) 0 
( -142.735 -480.261 133.146 ) 0 
( -392.822 -145.24 136.997 ) 0 
( -376.896 -307.564 125.08 ) 0 
( -60.7585 -313.013 131.278 ) 0 
( -97.9985 -62.8589 49.8773 ) 0 
( -132.947 -55.174 143.075 ) 0 
( -454.891 -370.068 123.024 ) 0 
( -243.746 -375.674 78.9892 ) 0 
( -287.924 -348.313 174.337 ) 0 
( -447.928 -226.75 116.913 ) 0 
( -242.517 -280.127 117.028 ) 0 
( -51.4925 -111.822 130.807 ) 0 
( -429.985 -45.1094 136.073 ) 0 
( -222.36 -423.529 164.027 ) 0 
( -324.592 -223.141 136.321 ) 0 
( -14.1985 -240.505 217.77 ) 0 
( -321.721 -460.928 211.595 ) 0 
( -495.62 -385.374 224.153 ) 0 
( -215.88 -166.405 195.42 ) 0 
( -232.074 -44.0715 136.336 ) 0 
( -50.3066 -474.87 189.643 ) 0 
( -244.763 -127.348 282.651 ) 0 
( -313.531 -145.219 197.784 ) 0 
( -158.173 -93.39 231.817 ) 0 
( -366.389 -8.02772 206.514 ) 0 
( -380.919 -383.286 190.14 ) 0 
( -416.908 -207.713 211.164 ) 0 
( -64.9369 -377.643 207.342 ) 0 
( -459.142 -108.622 207.379 ) 0 
( -355.128 -292.423 222.837 ) 0 
( -231.192 -497.505 232.776 ) 0 
( -236.161 -393.886 258.378 ) 0 
( -264.368 -252.454 210.433 ) 0 
( -103.211 -285.868 217.502 ) 0 
( -450.823 -300.349 195.114 ) 0 
( -141.326 -453.917 229.379 ) 0 
( -142.02 -362.119 269.041 ) 0 
( -95.6882 -172.439 214.856 ) 0 
( -374.241 -93.3584 257.843 ) 0 
( -418.478 -349.069 276.141 ) 0 
( -279.691 -54.8313 223.434 ) 0 
( -105.483 -1.17779 265.724 ) 0 
( -38.5857 -320.728 285.172 ) 0 
( -178.531 -234.508 258.254 ) 0 
( -76.4788 -228.782 295.051 ) 0 
( -12.8632 -155.706 270.474 ) 0 
( -337.796 -207.228 272.188 ) 0 
( -4.5202 -414.416 278.238 ) 0 
( -279.689 -309.922 290.606 ) 0 
( -59.3433 -79.8467 225.001 ) 0 
( -460.268 -258.807 285.476 ) 0 
( -210.436 -33.3498 292.176 ) 0 
( -406.769 -0.593526 297.637 ) 0 
( -152.48 -153.866 311.15 ) 0 
( -490.964 -163.739 284.316 ) 0 
( -328.143 -132.219 337.526 ) 0 
( -101.346 -346.601 359.001 ) 0 
( -72.5902 -95.0016 322.796 ) 0 
( -488.817 -14.1332 353.416 ) 0 
( -94.4393 -436.493 315.739 ) 0 
( -331.124 -395.775 289.396 ) 0 
( -314.858 -35.7623 314.946 ) 0 
( -191.232 -461.314 316.842 ) 0 
( -189.298 -300.813 332.257 ) 0 
( -14.5406 -13.1322 305.474 ) 0 
( -412.587 -447.578 260.685 ) 0 
( -95.1317 -7.20682 364.803 ) 0 
( -243.866 -268.088 409.397 ) 0 
( -38.9788 -73.4017 414.359 ) 0 
( -246.676 -81.9473 371.585 ) 0 
( -273.331 -439.885 369.677 ) 0 
( -34.4124 -274.555 376.96 ) 0 
( -307.618 -346.524 379.228 ) 0 
( -420.567 -366.514 374.516 ) 0 
( -432.908 -95.639 338.659 ) 0 
( -409.353 -192.727 340.489 ) 0 
( -367.21 -282.827 330.466 ) 0 
( -287.674 -497.759 449.909 ) 0 
( -127.678 -238.444 380.256 ) 0 
( -252.647 -218.329 323.254 ) 0 
( -31.9015 -175.134 366.569 ) 0 
( -376.051 -458.395 353.022 ) 0 
( -189.632 -386.732 383.303 ) 0 
( -192.333 -470.247 438.143 ) 0 
( -148.273 -88.6849 387.774 ) 0 
( -358.999 -411.125 439.406 ) 0 
( -201.443 -172.937 396.132 ) 0 
( -399.554 -276.716 424.727 ) 0 
( -283.666 -141.086 443.08 ) 0 
( -14.1439 -454.079 372.516 ) 0 
( -387.366 -11.8583 394.962 ) 0 
( -377.466 -107.863 420.93 ) 0 
( -486.909 -241.419 380.525 ) 0 
( -102.221 -433.622 415.209 ) 0 
( -218.781 -41.9004 458.756 ) 0 
( -327.241 -215.571 392.671 ) 0 
( -117.105 -387.37 502.487 ) 0 
( -191.389 -331.184 466.334 ) 0 
( -293.255 -230.036 487.533 ) 0 
( -120.187 -25.3026 459.814 ) 0 
( -435.262 -185.659 445.425 ) 0 
( -446.747 -441.177 476.638 ) 0 
( -97.6679 -157.501 439.679 ) 0 
( -471.943 -453.916 380.777 ) 0 
( -326.486 -323.347 474.516 ) 0 
( -19.4388 -475.734 469.869 ) 0 
( -358.415 -152.039 508.492 ) 0 
( -261.941 -401.789 461.354 ) 0 
( -96.8339 -303.52 449.489 ) 0 
( -422.015 -345.807 493.447 ) 0 
( -3.88956 -164.57 542.426 ) 0 
( -458.421 -94.4033 478.995 ) 0 
( -78.3209 -226.013 509.807 ) 0 
( -148.029 -59.5038 549.483 ) 0 
( -484.896 -270.049 476.25 ) 0 
( -38.5212 -471.047 567.818 ) 0 
( -171.383 -233.228 469.99 ) 0 
( -448.047 -162.536 551.416 ) 0 
( -43.688 -333.627 543.863 ) 0 
( -60.6946 -88.6988 510.657 ) 0 
( -29.7924 -377.428 454.865 ) 0 
( -316.448 -54.3708 480.298 ) 0 
( -114.496 -487.219 498.64 ) 0 
( -199.589 -435.722 531.7 ) 0 
( -113.98 -151.982 566.71 ) 0 
( -198.416 -120.786 610.225 ) 0 
( -398.547 -243.023 518.772 ) 0 
( -248.507 -52.714 553.551 ) 0 
( -182.763 -131.359 485.113 ) 0 
( -137.603 -298.801 544.091 ) 0 
( -387.757 -64.6743 549.51 ) 0 
( -255.024 -336.281 543.235 ) 0 
( -221.498 -242.946 555.901 ) 0 
( -57.9434 -241.018 606.469 ) 0 
( -263.629 -150.684 540.595 ) 0 
( -366.9 -491.004 510.409 ) 0 
( -63.8375 -22.07 588.272 ) 0 
( -40.0439 -146.528 633.811 ) 0 
( -334.755 -400.361 537.579 ) 0 
( -282.603 -481.627 563.308 ) 0 
( -496.41 -180.261 637.228 ) 0 
( -128.718 -412.767 598.4 ) 0 
( -10.792 -390.158 619.544 ) 0 
( -411.362 -228.74 616.85 ) 0 
( -362.676 -141.9 607.84 ) 0 
( -197.231 -22.9873 634.001 ) 0 
( -156.372 -218.812 627.762 ) 0 
( -483.369 -72.73 577.498 ) 0 
( -428.965 -409.86 569.887 ) 0 
( -369.538 -316.697 579.772 ) 0 
( -394.139 -16.109 716.458 ) 0 
( -187.774 -325.381 626.329 ) 0 
( -430.438 -90.5204 660.412 ) 0 
( -286.607 -313.48 635.421 ) 0 
( -126.322 -124.817 679.373 ) 0 
( -467.211 -297.588 570.637 ) 0 
( -316.759 -231.891 584.653 ) 0 
( -336.786 -240.9 682.455 ) 0 
( -51.2408 -58.7817 680.379 ) 0 
( -215.113 -496.252 635.556 ) 0 
( -88.6983 -330.503 638.656 ) 0 
( -248.701 -404.037 616.457 ) 0 
( -315.539 -55.9811 627.579 ) 0 
( -276.507 -167.348 651.687 ) 0 
( -345.977 -417.781 635.334 ) 0 
( -20.2152 -345.286 709.953 ) 0 
( -427.917 -448.494 683.78 ) 0 
( -263.881 -458.634 715.206 ) 0 
( -230.812 -248.812 687.38 ) 0 
( -494.348 -29.7554 707.626 ) 0 
( -259.147 -45.0463 709.386 ) 0 
( -458.112 -271.139 694.362 ) 0 
( -494.825 -127.745 727.478 ) 0 
( -177.339 -418.336 685.539 ) 0 
( -466.471 -359.843 648.942 ) 0 
( -68.2081 -459.711 662.644 ) 0 
( -130.971 -4.43502 706.49 ) 0 
( -156.846 -327.273 721.366 ) 0 
( -95.1804 -251.601 699.684 ) 0 
( -251.511 -359.193 717.093 ) 0 
( -412.329 -178.901 703.55 ) 0 
( -183.617 -92.4379 754.625 ) 0 
( -375.199 -333.151 679.77 ) 0 
( -350.244 -412.423 735.372 ) 0 
( -95.3406 -403.65 740.848 ) 0 
( -423.136 -462.283 782.724 ) 0 
( -165.791 -193.612 740.25 ) 0 
( -288.252 -252.721 769.191 ) 0 
( -4.20246 -483.368 735.711 ) 0 
( -387.315 -265.64 765.094 ) 0 
( -338.318 -111.781 707.313 ) 0 
( -41.1849 -142.737 733.736 ) 0 
( -274.907 -408.48 801.029 ) 0 
( -119.969 -144.005 814.383 ) 0 
( -412.312 -95.7981 774.033 ) 0 
( -193.809 -271.827 795.881 ) 0 
( -351.395 -174.377 784.497 ) 0 
( -86.7164 -318.41 792.436 ) 0 
( -179.112 -71.5628 852.297 ) 0 
( -450.367 -185.636 795.924 ) 0 
( -61.2882 -221.719 791.742 ) 0 
( -258.995 -158.699 749.721 ) 0 
( -180.649 -437.028 783.842 ) 0 
( -83.572 -59.6096 775.065 ) 0 
( -493.636 -275.434 787.864 ) 0 
( -211.568 -177.904 835.72 ) 0 
( -268.853 -75.4002 804.174 ) 0 
( -86.6185 -489.101 792.041 ) 0 
( -353.582 -347.684 811.538 ) 0 
( -479.693 -458.614 865.101 ) 0 
( -442.675 -330.663 853.845 ) 0 
( -105.459 -403.88 840.811 ) 0 
( -24.6399 -350.018 864.644 ) 0 
( -436.76 -352.056 756.241 ) 0 
( -5.01508 -47.806 835.778 ) 0 
( -101.651 -8.62689 859.149 ) 0 
( -469.441 -29.4662 822.324 ) 0 
( -151.875 -494.331 867.752 ) 0 
( -371.873 -36.1576 843.354 ) 0 
( -159.868 -326.242 872.58 ) 0 
( -354.097 -441.888 852.118 ) 0 
( -126.99 -53.2416 945.092 ) 0 
( -219.316 -252.151 904.921 ) 0 
( -272.723 -492.436 903.978 ) 0 
( -264.373 -320.728 847.782 ) 0 
( -394.667 -133.627 864.889 ) 0 
( -111.722 -147.206 914.139 ) 0 
( -300.992 -214.868 860.885 ) 0 
( -209.405 -413.015 876.539 ) 0 
( -493.6 -251.323 887.365 ) 0 
( -295.903 -119.298 889.86 ) 0 
( -28.6644 -143.005 855.159 ) 0 
( -226.895 -57.9676 943.567 ) 0 
( -213.283 -156.522 933.521 ) 0 
( -397.74 -240.125 861.193 ) 0 
( -131.196 -230.933 862.682 ) 0 
( -180.42 -28.4966 1027.31 ) 0 
( -35.7854 -252.45 883.493 ) 0 
( -28.0237 -75.475 929.116 ) 0 
( -406.48 -63.4024 935.15 ) 0 
( -23.1174 -177.811 948.945 ) 0 
( -402.589 -498.668 940.646 ) 0 
( -93.9473 -369.522 934.171 ) 0 
( -359.278 -319.723 907.931 ) 0 
( -467.682 -159.989 928.074 ) 0 
( -24.2683 -272.504 981.065 ) 0 
( -120.04 -274.556 952.2 ) 0 
( -464.064 -331.355 971.756 ) 0 
( -416.723 -402.026 919.107 ) 0 
( -177.195 -417.039 971.439 ) 0 
( -358.982 -163.535 953.794 ) 0 
( -497.547 -476.953 964.088 ) 0 
( -297.368 -397.103 921.382 ) 0 
( -61.0684 -460.942 910.221 ) 0 
( -144.847 -189.528 998.732 ) 0 
( -347.92 -437.378 997.922 ) 0 
( -152.868 -335.616 1024.56 ) 0 
( -318.084 -76.231 980.286 ) 0 
( -420.179 -242.422 959.027 ) 0 
( -94.6742 -258.633 1051 ) 0 
( -56.0101 -16.062 1005.04 ) 0 
( -77.2234 -116.252 1006.37 ) 0 
( -306.881 -248.902 955.245 ) 0 
( -244.331 -127.555 1024.43 ) 0 
( -46.3721 -361.67 1022.05 ) 0 
( -254.604 -473.219 1000.85 ) 0 
( -281.354 -45.4471 1068.56 ) 0 
( -231.419 -333.584 961.696 ) 0 
( -324.133 -340.25 999.547 ) 0 
( -30.5571 -72.741 1083.58 ) 0 
( -175.51 -211.209 1091.91 ) 0 
( -91.2959 -455.267 1005.59 ) 0 
( -245.224 -366.424 1055.36 ) 0 
( -339.246 -126.895 1064.36 ) 0 
( -426.014 -120.766 1014.93 ) 0 
( -284.288 -450.139 1094.14 ) 0 
( -93.6883 -410.711 1095.57 ) 0 
( -442.709 -415.677 1021.22 ) 0 
( -224.981 -247.736 1012.84 ) 0 
( -155.445 -115.996 1068.86 ) 0 
( -495.935 -252.666 1024.81 ) 0 
( -109.703 -258.506 1150.53 ) 0 
( -466.451 -453.204 1111.14 ) 0 
( -409.893 -305.548 1051.99 ) 0 
( -183.773 -444.301 1067.82 ) 0 
( -238.041 -115.582 1125.49 ) 0 
( -376.912 -485.779 1080.69 ) 0 
( -407.824 -50.629 1084.31 ) 0 
( -42.2802 -323.225 1114.66 ) 0 
( -112.47 -17.8063 1100.58 ) 0 
( -188.505 -308.191 1114.17 ) 0 
( -442.44 -191.793 1083.65 ) 0 
( -359.198 -220.761 1036.2 ) 0 
( -361.303 -387.055 1083.66 ) 0 
( -76.4595 -171.045 1095.82 ) 0 
( -496.826 -54.1818 1038.57 ) 0 
( -310.76 -158.801 1179.13 ) 0 
( -77.9062 -19.051 1194.69 ) 0 
( -489.449 -83.6052 1134.52 ) 0 
( -274.739 -200.483 1085.81 ) 0 
( -402.231 -129.61 1151.16 ) 0 
( -127.308 -100.561 1164.01 ) 0 
( -333.29 -57.2066 1153.82 ) 0 
( -366.31 -230.323 1136.02 ) 0 
( -37.3799 -212.174 1201.94 ) 0 
( -296.944 -365.798 1157.63 ) 0 
( -47.9383 -484.012 1146.58 ) 0 
( -202.468 -399.159 1155.49 ) 0 
( -307.525 -295.111 1087.45 ) 0 
( -455.315 -275.947 1136.42 ) 0 
( -208.096 -15.9426 1130.17 ) 0 
( -430.072 -370.949 1155.11 ) 0 
( -257.797 -257.977 1166.56 ) 0 
( -46.3753 -110.186 1222.35 ) 0 
( -115.223 -354.948 1176.42 ) 0 
( -21.5807 -394.259 1182.55 ) 0 
( -473.616 -190.525 1185.76 ) 0 
)
