FoamFile
{version 2.0; format ascii;class vectorField; location 0;object  v;}
41
(
( -0.000140575 -3.89e-05 -1.89641e-05 )  
( 8.79755e-05 0.00011344 -1.87207e-05 )  
( -4.36025e-05 1.43551e-05 -1.1396e-06 )  
( -2.32496e-06 3.19955e-05 6.99275e-06 )  
( 4.2886e-05 1.80862e-05 -1.31114e-05 )  
( -3.52692e-06 -2.30894e-05 -1.77314e-05 )  
( -1.15709e-05 -4.85535e-05 -9.12814e-07 )  
( -6.65105e-05 2.04594e-05 -3.32622e-05 )  
( -3.34898e-05 -2.25371e-05 -1.58986e-05 )  
( -6.5917e-05 -3.2668e-05 -3.82513e-05 )  
( 1.1444e-05 5.6993e-05 4.57028e-06 )  
( 5.0478e-05 8.00738e-07 1.95176e-06 )  
( -3.40923e-05 7.79616e-05 -5.50072e-05 )  
( -1.54998e-05 6.04148e-05 -4.50091e-05 )  
( -9.78895e-05 -3.13352e-05 -2.67478e-05 )  
( 1.27855e-05 0.000109199 -5.94644e-05 )  
( -3.52045e-05 7.15446e-05 -6.66891e-05 )  
( 5.88052e-05 3.4189e-05 -2.41609e-05 )  
( -7.27981e-05 8.35285e-05 -1.82457e-05 )  
( -7.39537e-05 8.02921e-05 -5.00905e-05 )  
( -7.21548e-05 8.07573e-05 -1.95062e-05 )  
( -5.05121e-05 7.29664e-05 4.23851e-06 )  
( 3.31256e-05 6.7905e-05 -2.47121e-05 )  
( 5.8302e-05 8.82483e-05 5.94377e-06 )  
( -4.6961e-05 0.000154836 -2.58599e-05 )  
( -2.81612e-05 0.000125115 -0.000109277 )  
( -8.85804e-05 4.70372e-05 -2.5318e-05 )  
( -1.10045e-05 0.00010439 2.62528e-05 )  
( -7.11172e-05 0.000217686 -0.000158852 )  
( 6.11737e-05 0.000153433 3.34645e-05 )  
( 9.95809e-05 0.000237073 -4.07049e-05 )  
( -0.000179532 -3.06024e-05 -3.15455e-05 )  
( 3.88645e-06 4.28456e-05 -5.60475e-06 )  
( -0.000245783 0.000312184 -0.000198009 )  
( -5.67042e-05 0.000181267 4.22767e-05 )  
( 0.000113929 8.29563e-05 -0.000284222 )  
( 0.000123997 0.000211392 -8.09887e-05 )  
( -0.000121633 0.000139518 -0.000161686 )  
( -9.13807e-05 -1.12159e-05 -0.000261443 )  
( 0.000303635 -0.000787017 -0.000409982 )  
( 0.000176083 0.000223782 -0.00044952 )  
)
