/*--------------------------------*- C++ -*----------------------------------*\
| =========                 |                                                 |
| \\      /  F ield         | OpenFOAM: The Open Source CFD Toolbox           |
|  \\    /   O peration     | Version:  5.x                                   |
|   \\  /    A nd           | Web:      www.OpenFOAM.org                      |
|    \\/     M anipulation  |                                                 |
\*---------------------------------------------------------------------------*/
FoamFile
{
    version     2.0;
    format      ascii;
    class       volScalarField;
    location    "20000";
    object      p;
}
// * * * * * * * * * * * * * * * * * * * * * * * * * * * * * * * * * * * * * //

dimensions      [0 2 -2 0 0 0 0];

internalField   nonuniform List<scalar> 
2250
(
-2.03936e-10
-2.10054e-10
-1.89936e-10
-1.41837e-10
-9.47691e-11
-1.94053e-10
-1.86052e-10
-1.62502e-10
-1.15332e-10
-6.89087e-11
-1.29925e-10
-1.15558e-10
-1.00639e-10
-7.49199e-11
-5.7008e-11
-3.03432e-11
-2.07442e-11
-3.24088e-11
-4.32558e-11
-4.91477e-11
8.77556e-11
6.57214e-11
2.68353e-12
-3.05704e-11
-1.57215e-11
-6.31593e-10
-6.28992e-10
-5.62606e-10
-4.498e-10
-3.24744e-10
-5.78814e-10
-5.50178e-10
-4.85779e-10
-3.72959e-10
-2.61302e-10
-3.98157e-10
-3.5925e-10
-3.16627e-10
-2.61439e-10
-2.1637e-10
-1.548e-10
-1.33125e-10
-1.57719e-10
-1.72748e-10
-1.64072e-10
1.12687e-10
4.17591e-11
-7.75626e-11
-1.12362e-10
-8.76375e-12
-1.06433e-09
-1.05842e-09
-9.65762e-10
-8.20469e-10
-6.65543e-10
-9.74929e-10
-9.43712e-10
-8.43772e-10
-7.05249e-10
-5.7817e-10
-7.21117e-10
-6.70662e-10
-6.07022e-10
-5.38679e-10
-4.79834e-10
-4.17217e-10
-3.94887e-10
-4.01144e-10
-3.8491e-10
-3.42576e-10
-1.49743e-10
-2.11078e-10
-2.78722e-10
-2.45416e-10
-1.11312e-10
-1.49133e-09
-1.49444e-09
-1.40252e-09
-1.28e-09
-1.18535e-09
-1.39565e-09
-1.36262e-09
-1.26429e-09
-1.16054e-09
-1.09103e-09
-1.12252e-09
-1.07573e-09
-1.00802e-09
-9.51291e-10
-9.08764e-10
-8.32949e-10
-8.08687e-10
-7.72815e-10
-7.08143e-10
-6.35057e-10
-6.2653e-10
-6.26744e-10
-5.80374e-10
-4.59385e-10
-3.43732e-10
-1.89641e-09
-1.91133e-09
-1.85608e-09
-1.82215e-09
-1.87364e-09
-1.81056e-09
-1.79162e-09
-1.73775e-09
-1.7253e-09
-1.7705e-09
-1.57089e-09
-1.5438e-09
-1.49999e-09
-1.48313e-09
-1.47985e-09
-1.33375e-09
-1.31115e-09
-1.25064e-09
-1.16262e-09
-1.05173e-09
-1.1787e-09
-1.12301e-09
-9.91873e-10
-8.06749e-10
-6.37233e-10
-2.2333e-09
-2.26035e-09
-2.26731e-09
-2.32748e-09
-2.50143e-09
-2.16971e-09
-2.17786e-09
-2.18278e-09
-2.24984e-09
-2.36153e-09
-1.99756e-09
-1.99489e-09
-1.99071e-09
-2.00915e-09
-2.01518e-09
-1.81544e-09
-1.80636e-09
-1.76196e-09
-1.68746e-09
-1.53265e-09
-1.68217e-09
-1.62171e-09
-1.49697e-09
-1.30974e-09
-1.01461e-09
-2.45775e-09
-2.49444e-09
-2.53994e-09
-2.62135e-09
-2.75121e-09
-2.42716e-09
-2.45284e-09
-2.48919e-09
-2.55871e-09
-2.61705e-09
-2.32907e-09
-2.34585e-09
-2.37268e-09
-2.39329e-09
-2.36699e-09
-2.19775e-09
-2.21497e-09
-2.21897e-09
-2.18968e-09
-2.03762e-09
-2.05767e-09
-2.05158e-09
-2.02989e-09
-1.93736e-09
-1.58049e-09
-2.53608e-09
-2.57483e-09
-2.61835e-09
-2.65216e-09
-2.64536e-09
-2.5482e-09
-2.5817e-09
-2.61965e-09
-2.64063e-09
-2.62352e-09
-2.53268e-09
-2.57192e-09
-2.61421e-09
-2.62273e-09
-2.59213e-09
-2.47536e-09
-2.53014e-09
-2.588e-09
-2.6159e-09
-2.54748e-09
-2.34686e-09
-2.43082e-09
-2.54866e-09
-2.5953e-09
-2.3303e-09
-2.44566e-09
-2.49175e-09
-2.52132e-09
-2.51143e-09
-2.45265e-09
-2.52202e-09
-2.57339e-09
-2.60503e-09
-2.58759e-09
-2.5626e-09
-2.61793e-09
-2.68749e-09
-2.72695e-09
-2.72445e-09
-2.7257e-09
-2.69116e-09
-2.7791e-09
-2.8538e-09
-2.90068e-09
-2.92803e-09
-2.68225e-09
-2.83226e-09
-3.00182e-09
-3.10021e-09
-3.04044e-09
-2.14985e-09
-2.2204e-09
-2.24e-09
-2.21786e-09
-2.18167e-09
-2.31782e-09
-2.38951e-09
-2.40473e-09
-2.36406e-09
-2.34719e-09
-2.54567e-09
-2.62909e-09
-2.63632e-09
-2.61693e-09
-2.64068e-09
-2.80257e-09
-2.88541e-09
-2.91398e-09
-2.93055e-09
-3.01075e-09
-3.04818e-09
-3.16168e-09
-3.23433e-09
-3.27831e-09
-3.39849e-09
-1.56246e-09
-1.64542e-09
-1.65415e-09
-1.64165e-09
-1.63354e-09
-1.81022e-09
-1.8725e-09
-1.86357e-09
-1.82958e-09
-1.85145e-09
-2.16051e-09
-2.21701e-09
-2.18921e-09
-2.19243e-09
-2.28372e-09
-2.61691e-09
-2.64705e-09
-2.62264e-09
-2.64525e-09
-2.78784e-09
-3.15543e-09
-3.1523e-09
-3.1075e-09
-3.12156e-09
-3.32421e-09
-5.36915e-10
-5.99986e-10
-6.23866e-10
-6.87297e-10
-8.13886e-10
-8.22051e-10
-8.53221e-10
-8.66118e-10
-9.42259e-10
-1.13788e-09
-1.28622e-09
-1.305e-09
-1.31085e-09
-1.43864e-09
-1.6936e-09
-1.94115e-09
-1.92966e-09
-1.93807e-09
-2.0641e-09
-2.30176e-09
-2.74014e-09
-2.68189e-09
-2.64926e-09
-2.72377e-09
-2.88829e-09
1.04071e-09
9.92133e-10
8.80501e-10
6.38455e-10
2.48262e-10
7.2581e-10
6.91207e-10
5.66291e-10
2.8119e-10
-1.4642e-10
1.15025e-10
8.47289e-11
-4.48901e-11
-3.52091e-10
-7.71148e-10
-7.66125e-10
-7.84324e-10
-9.09528e-10
-1.17555e-09
-1.50949e-09
-1.84162e-09
-1.83789e-09
-1.91085e-09
-2.08758e-09
-2.22847e-09
3.17829e-09
3.08712e-09
2.82544e-09
2.38137e-09
1.80005e-09
2.77549e-09
2.67053e-09
2.38701e-09
1.91763e-09
1.36402e-09
1.952e-09
1.84856e-09
1.57072e-09
1.13004e-09
6.19673e-10
7.9278e-10
6.93897e-10
4.43526e-10
6.4216e-11
-3.85866e-10
-5.99515e-10
-6.73653e-10
-8.61678e-10
-1.18606e-09
-1.53364e-09
5.85919e-09
5.6702e-09
5.26749e-09
4.69942e-09
4.07316e-09
5.28372e-09
5.07486e-09
4.66622e-09
4.10842e-09
3.52247e-09
4.18465e-09
3.98947e-09
3.60203e-09
3.09197e-09
2.53295e-09
2.6935e-09
2.51416e-09
2.16197e-09
1.68625e-09
1.10349e-09
9.54256e-10
8.0824e-10
4.87421e-10
-3.50027e-11
-7.72587e-10
9.20198e-09
8.91631e-09
8.43264e-09
7.81451e-09
7.16793e-09
8.39644e-09
8.10924e-09
7.63495e-09
7.04293e-09
6.43309e-09
6.95871e-09
6.69513e-09
6.2401e-09
5.67631e-09
5.07188e-09
5.03676e-09
4.79246e-09
4.34623e-09
3.76049e-09
3.05589e-09
2.8168e-09
2.58031e-09
2.10501e-09
1.39087e-09
3.30947e-10
1.35296e-08
1.32018e-08
1.26835e-08
1.2022e-08
1.13018e-08
1.24658e-08
1.21529e-08
1.16393e-08
1.09917e-08
1.02849e-08
1.0573e-08
1.0273e-08
9.75381e-09
9.07977e-09
8.32799e-09
8.01385e-09
7.71376e-09
7.14949e-09
6.38441e-09
5.48226e-09
5.03135e-09
4.69422e-09
4.04113e-09
3.11853e-09
1.87725e-09
1.92872e-08
1.89708e-08
1.84139e-08
1.76609e-08
1.67744e-08
1.79097e-08
1.75982e-08
1.7019e-08
1.62337e-08
1.52921e-08
1.53477e-08
1.50164e-08
1.43845e-08
1.34938e-08
1.24337e-08
1.18311e-08
1.14608e-08
1.07151e-08
9.66787e-09
8.4404e-09
7.71423e-09
7.24762e-09
6.35548e-09
5.1418e-09
3.72055e-09
2.69088e-08
2.66036e-08
2.59688e-08
2.50749e-08
2.39864e-08
2.50773e-08
2.47435e-08
2.40509e-08
2.30689e-08
2.18754e-08
2.15402e-08
2.11454e-08
2.03425e-08
1.91857e-08
1.78159e-08
1.66605e-08
1.61774e-08
1.51953e-08
1.38269e-08
1.22536e-08
1.09372e-08
1.03047e-08
9.12546e-09
7.54798e-09
5.79786e-09
3.67984e-08
3.64569e-08
3.57183e-08
3.46868e-08
3.34873e-08
3.42919e-08
3.38936e-08
3.30686e-08
3.1903e-08
3.05503e-08
2.94269e-08
2.89333e-08
2.79355e-08
2.65306e-08
2.49363e-08
2.27267e-08
2.2099e-08
2.08567e-08
1.9163e-08
1.72583e-08
1.48555e-08
1.40667e-08
1.25544e-08
1.05336e-08
8.28905e-09
4.94867e-08
4.90726e-08
4.82324e-08
4.70693e-08
4.57571e-08
4.60598e-08
4.55788e-08
4.46104e-08
4.32501e-08
4.17121e-08
3.94835e-08
3.8871e-08
3.76484e-08
3.59627e-08
3.4078e-08
3.04482e-08
2.96536e-08
2.80889e-08
2.59817e-08
2.36199e-08
1.9863e-08
1.88724e-08
1.68934e-08
1.42728e-08
1.13516e-08
6.58308e-08
6.53528e-08
6.44087e-08
6.3083e-08
6.15739e-08
6.1229e-08
6.06599e-08
5.95097e-08
5.79154e-08
5.613e-08
5.24594e-08
5.16955e-08
5.01891e-08
4.81456e-08
4.58185e-08
4.04131e-08
3.93904e-08
3.73994e-08
3.47279e-08
3.16579e-08
2.63296e-08
2.49865e-08
2.24001e-08
1.89529e-08
1.4959e-08
8.70827e-08
8.65764e-08
8.5549e-08
8.41217e-08
8.25358e-08
8.0979e-08
8.0317e-08
7.89907e-08
7.72231e-08
7.5247e-08
6.93431e-08
6.83928e-08
6.65817e-08
6.41569e-08
6.13376e-08
5.33346e-08
5.20115e-08
4.95274e-08
4.61687e-08
4.2206e-08
3.45713e-08
3.27856e-08
2.95088e-08
2.49962e-08
1.95401e-08
1.14837e-07
1.14369e-07
1.13404e-07
1.12132e-07
1.10765e-07
1.06779e-07
1.06066e-07
1.0469e-07
1.02925e-07
1.0092e-07
9.13931e-08
9.02657e-08
8.81929e-08
8.54176e-08
8.21823e-08
7.01971e-08
6.85426e-08
6.54921e-08
6.13109e-08
5.63593e-08
4.52995e-08
4.30199e-08
3.88141e-08
3.29441e-08
2.58375e-08
1.51011e-07
1.50727e-07
1.50147e-07
1.49476e-07
1.48809e-07
1.40425e-07
1.39782e-07
1.38606e-07
1.37126e-07
1.35442e-07
1.20213e-07
1.18969e-07
1.16699e-07
1.13616e-07
1.10043e-07
9.23685e-08
9.0342e-08
8.65276e-08
8.12592e-08
7.50443e-08
5.96293e-08
5.66442e-08
5.10062e-08
4.32211e-08
3.39203e-08
1.97886e-07
1.98055e-07
1.98405e-07
1.99055e-07
1.99978e-07
1.84089e-07
1.83738e-07
1.83155e-07
1.82455e-07
1.81747e-07
1.57791e-07
1.56526e-07
1.54147e-07
1.50868e-07
1.47091e-07
1.21564e-07
1.19045e-07
1.14181e-07
1.07459e-07
9.95602e-08
7.88479e-08
7.48377e-08
6.71525e-08
5.65459e-08
4.4006e-08
2.58138e-07
2.59231e-07
2.61423e-07
2.64637e-07
2.68699e-07
2.40356e-07
2.40672e-07
2.41337e-07
2.42353e-07
2.43829e-07
2.06533e-07
2.05375e-07
2.03117e-07
2.00047e-07
1.96607e-07
1.59868e-07
1.56676e-07
1.50511e-07
1.42028e-07
1.32164e-07
1.04693e-07
9.92307e-08
8.87306e-08
7.41565e-08
5.70713e-08
3.34803e-07
3.37621e-07
3.43187e-07
3.5118e-07
3.61181e-07
3.12202e-07
3.1378e-07
3.16859e-07
3.21382e-07
3.27262e-07
2.69232e-07
2.68412e-07
2.66868e-07
2.64961e-07
2.63087e-07
2.09815e-07
2.0579e-07
1.98154e-07
1.87746e-07
1.75769e-07
1.39479e-07
1.31906e-07
1.17505e-07
9.75359e-08
7.41304e-08
4.31062e-07
4.36879e-07
4.48399e-07
4.65019e-07
4.85821e-07
4.02776e-07
4.0659e-07
4.14182e-07
4.25303e-07
4.39447e-07
3.49002e-07
3.49038e-07
3.49362e-07
3.50327e-07
3.52228e-07
2.7453e-07
2.69607e-07
2.60424e-07
2.48049e-07
2.3396e-07
1.86167e-07
1.75761e-07
1.55999e-07
1.28699e-07
9.6676e-08
5.49728e-07
5.60521e-07
5.82271e-07
6.13764e-07
6.53483e-07
5.15009e-07
5.22678e-07
5.38215e-07
5.60938e-07
5.89965e-07
4.4923e-07
4.51001e-07
4.55073e-07
4.617e-07
4.71209e-07
3.5794e-07
3.52098e-07
3.41362e-07
3.27022e-07
3.11123e-07
2.49018e-07
2.34826e-07
2.07735e-07
1.70274e-07
1.26405e-07
6.92444e-07
7.11055e-07
7.49872e-07
8.06079e-07
8.78454e-07
6.50871e-07
6.64707e-07
6.93587e-07
7.3592e-07
7.90985e-07
5.73173e-07
5.77773e-07
5.88473e-07
6.05111e-07
6.28707e-07
4.64863e-07
4.57837e-07
4.45563e-07
4.29178e-07
4.12401e-07
3.33873e-07
3.14223e-07
2.77064e-07
2.25103e-07
1.64818e-07
8.58578e-07
8.8808e-07
9.55156e-07
1.05097e-06
1.18016e-06
8.09732e-07
8.32501e-07
8.83508e-07
9.57826e-07
1.05826e-06
7.232e-07
7.31453e-07
7.53084e-07
7.86015e-07
8.35067e-07
6.01329e-07
5.92108e-07
5.78493e-07
5.59134e-07
5.4418e-07
4.48229e-07
4.20455e-07
3.69451e-07
2.96247e-07
2.14048e-07
1.04461e-06
1.08462e-06
1.20039e-06
1.35441e-06
1.5882e-06
9.85271e-07
1.01919e-06
1.10764e-06
1.23144e-06
1.41421e-06
9.00302e-07
9.10561e-07
9.49452e-07
1.00587e-06
1.10233e-06
7.76878e-07
7.62044e-07
7.48777e-07
7.20297e-07
7.15115e-07
6.00116e-07
5.59435e-07
4.90764e-07
3.84826e-07
2.76926e-07
1.24871e-06
1.27796e-06
1.48983e-06
1.7045e-06
2.16269e-06
1.15751e-06
1.20145e-06
1.35851e-06
1.5502e-06
1.89917e-06
1.10502e-06
1.10383e-06
1.16873e-06
1.25016e-06
1.44336e-06
1.01439e-06
9.81646e-07
9.81481e-07
9.09625e-07
9.434e-07
7.87012e-07
7.23396e-07
6.38586e-07
4.76819e-07
3.59212e-07
1.49827e-06
1.39781e-06
1.86294e-06
2.00427e-06
3.05481e-06
1.27774e-06
1.3186e-06
1.62144e-06
1.87197e-06
2.60817e-06
1.33686e-06
1.26825e-06
1.36372e-06
1.44755e-06
1.86604e-06
1.39011e-06
1.29296e-06
1.39469e-06
1.09725e-06
1.29598e-06
9.47439e-07
8.37639e-07
7.56279e-07
4.85849e-07
4.8294e-07
1.88811e-06
1.2676e-06
2.45793e-06
1.92848e-06
4.56204e-06
1.2761e-06
1.25826e-06
1.8944e-06
2.09951e-06
3.71689e-06
1.56122e-06
1.2829e-06
1.34051e-06
1.36741e-06
2.2879e-06
2.12999e-06
1.79629e-06
2.36282e-06
1.23911e-06
1.98444e-06
8.96916e-07
6.92774e-07
6.12738e-07
1.50437e-07
7.24112e-07
2.56447e-06
5.07997e-07
3.3151e-06
9.33821e-07
7.08741e-06
9.04135e-07
7.59015e-07
2.00782e-06
2.1656e-06
5.34389e-06
1.62143e-06
1.00953e-06
5.83425e-07
5.31588e-07
2.31062e-06
3.44964e-06
2.52701e-06
4.18795e-06
1.36057e-06
3.19306e-06
2.99015e-07
3.20029e-08
-2.23288e-07
-9.58555e-07
1.20806e-06
-1.21284e-06
-3.81831e-06
3.25595e-06
-1.96388e-06
9.13936e-06
-3.05089e-06
-3.58515e-06
-4.52547e-07
1.02901e-06
6.70911e-06
-1.61623e-06
-3.28328e-06
-3.13875e-06
-2.38506e-06
1.05157e-06
3.24995e-06
1.12277e-06
5.87624e-06
5.71843e-07
4.09157e-06
-3.1597e-06
-3.78564e-06
-2.66127e-06
-3.60085e-06
2.51065e-06
3.46396e-05
1.68897e-05
2.47472e-05
6.62551e-06
4.83443e-05
1.69957e-05
1.94533e-05
1.9347e-05
2.04288e-05
2.69668e-05
2.94704e-05
3.08679e-05
1.3996e-05
1.33899e-05
1.3727e-05
3.42362e-05
3.12166e-05
3.2342e-05
1.94576e-05
2.57759e-05
1.99558e-05
2.32952e-05
1.18603e-05
4.29797e-06
1.26517e-05
-2.30553e-05
-3.00085e-05
-2.37136e-05
-3.41335e-05
-2.50068e-05
-2.63823e-05
-4.12386e-05
-4.09493e-05
-3.39849e-05
-1.12087e-05
-4.05258e-05
-5.21139e-05
-4.1416e-05
-4.21057e-05
-2.43706e-05
-3.17197e-05
-3.66801e-05
-2.24812e-05
-3.18071e-05
-2.47137e-05
-2.1116e-05
-2.8463e-05
-1.4916e-05
-2.63152e-05
7.23017e-06
0.000101958
-5.70076e-06
-4.68289e-07
-6.54236e-05
0.000205787
-3.79167e-05
-2.43518e-05
-2.38364e-05
3.04278e-05
-4.07727e-05
4.26409e-05
0.000116476
-4.2577e-05
2.5383e-06
-9.41851e-06
7.50624e-05
6.70218e-05
7.65339e-05
-1.04019e-05
8.5254e-05
5.5962e-06
6.58558e-05
-9.92146e-06
-6.55102e-05
-2.94521e-05
0.000884976
0.000962435
0.000572807
0.0007829
0.000690404
0.00104322
0.000868812
0.000999863
0.000657042
0.000749545
0.000889303
0.000802366
0.000722429
0.000562386
0.000783113
0.000789533
0.000697068
0.000587897
0.000695229
0.000441433
0.000967815
0.000833725
0.000880918
0.000499801
0.000518573
0.00116757
0.00160401
0.00145877
0.00123336
0.000944709
0.00152765
0.0013766
0.00161271
0.00122524
0.001199
0.00145588
0.00143044
0.00151864
0.000976999
0.00140214
0.00156194
0.0010673
0.00101915
0.00110595
0.000876339
0.00140194
0.00119029
0.00120156
0.00140707
0.00145507
0.00184552
0.00182396
0.00197251
0.00192894
0.00192544
0.00173833
0.001796
0.00212785
0.00165599
0.0017372
0.00186928
0.00186152
0.00202632
0.00245535
0.00163713
0.0019626
0.00193838
0.00169697
0.00191998
0.00196901
0.00234117
0.00198942
0.00177911
0.00255838
0.00171149
0.00224428
0.00202725
0.00246541
0.00301643
0.00322689
0.00229262
0.00282365
0.00244414
0.0028867
0.00315993
0.00204675
0.0020886
0.00247567
0.00305218
0.00261289
0.00207046
0.00231132
0.00257261
0.00274037
0.00261533
0.00221419
0.00226917
0.00287664
0.00261645
0.00241182
0.00334861
0.0037415
0.00321729
0.00349437
0.00349893
0.0032356
0.00365749
0.00305508
0.00338418
0.00356874
0.00272558
0.00306289
0.00308048
0.00328044
0.00336187
0.0025355
0.00292811
0.00298708
0.00344554
0.00322725
0.00290041
0.00281295
0.00302947
0.00269111
0.00363434
0.00419288
0.00408461
0.00332116
0.00379007
0.00361198
0.00373879
0.00399965
0.00368435
0.00379177
0.00380523
0.00406405
0.00396784
0.00348682
0.00367034
0.00360825
0.00357511
0.00367333
0.00358436
0.00377689
0.00390011
0.00361785
0.00374343
0.00332591
0.00387062
0.00384348
0.00455139
0.00457601
0.00440798
0.0043126
0.00422047
0.00440286
0.00433029
0.00401005
0.00428301
0.00427589
0.00452888
0.00449708
0.00477051
0.00426328
0.00405238
0.0042488
0.00428269
0.00424647
0.00407277
0.0041879
0.0036331
0.00426538
0.00429478
0.00442914
0.00419121
0.00511788
0.00481906
0.00530426
0.00506188
0.00479849
0.0050275
0.00460245
0.00455718
0.00474473
0.00465499
0.0052386
0.00485008
0.0047227
0.00475017
0.00479948
0.00550144
0.0049042
0.00486215
0.00476002
0.0045845
0.00501628
0.00482704
0.00477048
0.00478358
0.00502758
0.00504886
0.00501555
0.00546393
0.00522381
0.00532107
0.00513705
0.00496621
0.00558109
0.00526335
0.00497851
0.00518961
0.00517165
0.00497166
0.00534427
0.00524856
0.00523712
0.0052191
0.00523015
0.0053151
0.0053518
0.00511075
0.00530922
0.00505831
0.00547305
0.00559451
0.00519873
0.00583354
0.00590488
0.00567424
0.00565127
0.00565309
0.00578997
0.00591081
0.00581375
0.00583514
0.00529728
0.00567607
0.00563119
0.00580725
0.0055372
0.00545516
0.005701
0.0054897
0.00565207
0.00563711
0.0061614
0.00570642
0.00546803
0.00553151
0.00566471
0.00586911
0.00587973
0.00578968
0.0058469
0.00573741
0.00589827
0.00587045
0.00587489
0.00588439
0.00584788
0.00589407
0.00588816
0.00589211
0.00587247
0.00573378
0.0058903
0.00589548
0.00586024
0.00586008
0.00580168
0.00595575
0.00589549
0.00582559
0.00571893
0.00579528
0.00579522
0.00578543
0.00576907
0.00573332
0.00577083
0.00580076
0.00581017
0.00580024
0.00577983
0.00577794
0.00580208
0.0058014
0.00582161
0.0057796
0.00578037
0.00581829
0.00581458
0.00582869
0.00580184
0.00580237
0.00584227
0.00583488
0.00583811
0.00582141
0.00581617
0.00582091
0.00581347
0.00581063
0.00579449
0.00579195
0.0058201
0.00581551
0.00581139
0.00579957
0.00579309
0.00583028
0.00582213
0.00581917
0.00579766
0.00580155
0.00582187
0.00582069
0.00581411
0.00579952
0.00579611
0.0058376
0.00582566
0.00581751
0.00579709
0.00579884
0.00581406
0.00580998
0.00580698
0.0057959
0.0057968
0.00581397
0.00581163
0.00580832
0.00579981
0.00579732
0.00581893
0.00581497
0.00581348
0.00580097
0.00580206
0.00581728
0.0058146
0.00581249
0.00580403
0.00580296
0.00582495
0.00581956
0.00581671
0.00580725
0.00580511
0.0058111
0.0058088
0.00580633
0.00580014
0.00579881
0.00581131
0.00580958
0.00580701
0.00580163
0.00579945
0.00581389
0.00581158
0.00580981
0.00580312
0.00580191
0.00581393
0.00581205
0.00581037
0.00580502
0.00580321
0.00581799
0.00581499
0.0058131
0.00580738
0.00580535
0.00580909
0.00580773
0.00580573
0.00580226
0.00580021
0.00580942
0.00580819
0.00580626
0.005803
0.00580081
0.0058108
0.00580956
0.00580777
0.00580416
0.00580218
0.00581141
0.00581014
0.00580877
0.00580554
0.00580348
0.00581388
0.00581238
0.0058106
0.00580722
0.00580519
0.00580777
0.00580692
0.00580543
0.0058033
0.00580139
0.00580807
0.00580725
0.00580583
0.00580376
0.00580185
0.00580898
0.00580812
0.00580672
0.00580459
0.00580272
0.00580964
0.00580887
0.00580765
0.00580563
0.00580379
0.00581103
0.00581016
0.0058089
0.00580686
0.00580508
0.0058069
0.00580631
0.00580526
0.00580384
0.00580234
0.00580714
0.00580658
0.00580556
0.00580416
0.00580267
0.00580771
0.00580715
0.00580615
0.00580475
0.00580328
0.00580836
0.00580783
0.00580688
0.00580553
0.00580409
0.00580925
0.0058087
0.00580778
0.00580644
0.00580504
0.0058063
0.00580589
0.00580515
0.00580416
0.00580305
0.00580649
0.0058061
0.00580537
0.00580439
0.00580328
0.00580689
0.0058065
0.00580579
0.00580481
0.00580373
0.00580741
0.00580704
0.00580634
0.00580539
0.00580432
0.00580804
0.00580767
0.005807
0.00580607
0.00580503
0.00580589
0.00580561
0.00580508
0.00580437
0.00580356
0.00580604
0.00580576
0.00580524
0.00580454
0.00580373
0.00580633
0.00580606
0.00580554
0.00580485
0.00580405
0.00580672
0.00580646
0.00580596
0.00580528
0.00580449
0.00580719
0.00580693
0.00580644
0.00580578
0.00580501
0.00580561
0.00580541
0.00580503
0.00580452
0.00580393
0.00580572
0.00580552
0.00580515
0.00580464
0.00580406
0.00580593
0.00580574
0.00580537
0.00580487
0.00580429
0.00580623
0.00580604
0.00580568
0.00580518
0.00580461
0.00580658
0.00580639
0.00580604
0.00580556
0.005805
0.00580541
0.00580527
0.005805
0.00580463
0.0058042
0.00580549
0.00580535
0.00580508
0.00580472
0.00580429
0.00580565
0.00580551
0.00580525
0.00580488
0.00580446
0.00580587
0.00580573
0.00580547
0.00580512
0.0058047
0.00580613
0.005806
0.00580574
0.00580539
0.00580498
0.00580527
0.00580517
0.00580497
0.00580471
0.00580439
0.00580533
0.00580523
0.00580504
0.00580477
0.00580446
0.00580545
0.00580535
0.00580516
0.0058049
0.00580459
0.00580562
0.00580552
0.00580533
0.00580507
0.00580476
0.00580581
0.00580571
0.00580552
0.00580527
0.00580497
0.00580517
0.0058051
0.00580496
0.00580476
0.00580454
0.00580522
0.00580515
0.005805
0.00580481
0.00580459
0.00580531
0.00580523
0.00580509
0.0058049
0.00580468
0.00580543
0.00580536
0.00580522
0.00580503
0.00580481
0.00580557
0.0058055
0.00580536
0.00580518
0.00580496
0.0058051
0.00580505
0.00580495
0.00580481
0.00580464
0.00580514
0.00580508
0.00580498
0.00580484
0.00580468
0.0058052
0.00580515
0.00580505
0.00580491
0.00580475
0.00580529
0.00580524
0.00580514
0.005805
0.00580484
0.0058054
0.00580534
0.00580525
0.00580511
0.00580495
0.00580505
0.00580501
0.00580494
0.00580484
0.00580472
0.00580508
0.00580504
0.00580497
0.00580486
0.00580474
0.00580513
0.00580509
0.00580501
0.00580491
0.00580479
0.00580519
0.00580515
0.00580508
0.00580498
0.00580486
0.00580527
0.00580523
0.00580516
0.00580506
0.00580494
0.00580502
0.00580499
0.00580494
0.00580486
0.00580477
0.00580504
0.00580501
0.00580495
0.00580488
0.00580479
0.00580507
0.00580504
0.00580499
0.00580492
0.00580483
0.00580512
0.00580509
0.00580504
0.00580497
0.00580488
0.00580518
0.00580515
0.0058051
0.00580502
0.00580494
0.00580499
0.00580497
0.00580493
0.00580488
0.00580481
0.00580501
0.00580499
0.00580495
0.00580489
0.00580483
0.00580503
0.00580501
0.00580497
0.00580492
0.00580485
0.00580507
0.00580505
0.00580501
0.00580495
0.00580489
0.00580511
0.00580509
0.00580505
0.005805
0.00580493
0.00580497
0.00580496
0.00580493
0.00580489
0.00580484
0.00580498
0.00580497
0.00580494
0.0058049
0.00580485
0.005805
0.00580499
0.00580496
0.00580492
0.00580487
0.00580503
0.00580501
0.00580499
0.00580495
0.0058049
0.00580506
0.00580505
0.00580502
0.00580498
0.00580493
0.00580496
0.00580495
0.00580493
0.0058049
0.00580487
0.00580497
0.00580496
0.00580494
0.00580491
0.00580487
0.00580498
0.00580497
0.00580495
0.00580492
0.00580489
0.005805
0.00580499
0.00580497
0.00580494
0.00580491
0.00580502
0.00580501
0.00580499
0.00580496
0.00580493
0.00580495
0.00580494
0.00580493
0.00580491
0.00580488
0.00580496
0.00580495
0.00580493
0.00580491
0.00580489
0.00580497
0.00580496
0.00580494
0.00580492
0.0058049
0.00580498
0.00580497
0.00580496
0.00580494
0.00580491
0.005805
0.00580499
0.00580498
0.00580495
0.00580493
0.00580495
0.00580494
0.00580493
0.00580491
0.00580489
0.00580495
0.00580494
0.00580493
0.00580492
0.0058049
0.00580496
0.00580495
0.00580494
0.00580492
0.00580491
0.00580497
0.00580496
0.00580495
0.00580494
0.00580492
0.00580498
0.00580497
0.00580496
0.00580495
0.00580493
0.00580494
0.00580494
0.00580493
0.00580492
0.0058049
0.00580494
0.00580494
0.00580493
0.00580492
0.00580491
0.00580495
0.00580495
0.00580494
0.00580493
0.00580491
0.00580496
0.00580495
0.00580494
0.00580493
0.00580492
0.00580497
0.00580496
0.00580495
0.00580494
0.00580493
0.00580494
0.00580493
0.00580493
0.00580492
0.00580491
0.00580494
0.00580494
0.00580493
0.00580492
0.00580491
0.00580494
0.00580494
0.00580493
0.00580493
0.00580492
0.00580495
0.00580495
0.00580494
0.00580493
0.00580492
0.00580496
0.00580495
0.00580495
0.00580494
0.00580493
0.00580494
0.00580493
0.00580493
0.00580492
0.00580491
0.00580494
0.00580493
0.00580493
0.00580492
0.00580492
0.00580494
0.00580494
0.00580493
0.00580493
0.00580492
0.00580494
0.00580494
0.00580494
0.00580493
0.00580492
0.00580495
0.00580495
0.00580494
0.00580494
0.00580493
0.00580493
0.00580493
0.00580493
0.00580492
0.00580492
0.00580493
0.00580493
0.00580493
0.00580492
0.00580492
0.00580494
0.00580493
0.00580493
0.00580493
0.00580492
0.00580494
0.00580494
0.00580493
0.00580493
0.00580492
0.00580494
0.00580494
0.00580494
0.00580493
0.00580493
0.00580493
0.00580493
0.00580493
0.00580492
0.00580492
0.00580493
0.00580493
0.00580493
0.00580493
0.00580492
0.00580493
0.00580493
0.00580493
0.00580493
0.00580492
0.00580494
0.00580493
0.00580493
0.00580493
0.00580492
0.00580494
0.00580494
0.00580493
0.00580493
0.00580493
0.00580493
0.00580493
0.00580493
0.00580492
0.00580492
0.00580493
0.00580493
0.00580493
0.00580493
0.00580492
0.00580493
0.00580493
0.00580493
0.00580493
0.00580492
0.00580493
0.00580493
0.00580493
0.00580493
0.00580493
0.00580494
0.00580493
0.00580493
0.00580493
0.00580493
0.00580493
0.00580493
0.00580493
0.00580493
0.00580492
0.00580493
0.00580493
0.00580493
0.00580493
0.00580492
0.00580493
0.00580493
0.00580493
0.00580493
0.00580492
0.00580493
0.00580493
0.00580493
0.00580493
0.00580493
0.00580493
0.00580493
0.00580493
0.00580493
0.00580493
0.00580493
0.00580493
0.00580493
0.00580493
0.00580492
0.00580493
0.00580493
0.00580493
0.00580493
0.00580492
0.00580493
0.00580493
0.00580493
0.00580493
0.00580493
0.00580493
0.00580493
0.00580493
0.00580493
0.00580493
0.00580493
0.00580493
0.00580493
0.00580493
0.00580493
0.00580493
0.00580493
0.00580493
0.00580493
0.00580492
0.00580493
0.00580493
0.00580493
0.00580493
0.00580493
0.00580493
0.00580493
0.00580493
0.00580493
0.00580493
0.00580493
0.00580493
0.00580493
0.00580493
0.00580493
0.00580493
0.00580493
0.00580493
0.00580493
0.00580493
0.00580493
0.00580493
0.00580493
0.00580493
0.00580493
0.00580493
0.00580493
0.00580493
0.00580493
0.00580493
0.00580493
0.00580493
0.00580493
0.00580493
0.00580493
0.00580493
0.00580493
0.00580493
0.00580493
0.00580493
0.00580493
0.00580493
0.00580493
0.00580493
0.00580493
0.00580493
0.00580493
0.00580493
0.00580493
0.00580493
0.00580493
0.00580493
0.00580493
0.00580493
0.00580493
0.00580493
0.00580493
0.00580493
0.00580493
0.00580493
0.00580493
0.00580493
0.00580493
0.00580493
0.00580493
0.00580493
0.00580493
0.00580493
0.00580493
0.00580493
0.00580493
0.00580493
0.00580493
0.00580493
0.00580493
0.00580493
0.00580493
0.00580493
0.00580493
0.00580493
0.00580493
0.00580493
0.00580493
0.00580493
0.00580493
0.00580493
0.00580493
0.00580493
0.00580493
0.00580493
0.00580493
0.00580493
0.00580493
0.00580493
0.00580493
0.00580493
0.00580493
0.00580493
0.00580493
0.00580493
0.00580493
0.00580493
0.00580493
0.00580493
0.00580493
0.00580493
0.00580493
0.00580493
0.00580493
0.00580493
0.00580493
0.00580493
0.00580493
0.00580493
0.00580493
0.00580493
0.00580493
0.00580493
0.00580493
0.00580493
0.00580493
0.00580493
0.00580493
0.00580492
0.00580492
0.00580493
0.00580493
0.00580493
0.00580492
0.00580492
0.00580493
0.00580493
0.00580493
0.00580492
0.00580492
0.00580493
0.00580493
0.00580493
0.00580493
0.00580492
0.00580493
0.00580493
0.00580493
0.00580493
0.00580492
0.00580493
0.00580493
0.00580492
0.00580492
0.00580492
0.00580493
0.00580492
0.00580492
0.00580492
0.00580492
0.00580492
0.00580492
0.00580492
0.00580492
0.00580492
0.00580492
0.00580492
0.00580492
0.00580492
0.00580492
0.00580492
0.00580492
0.00580492
0.00580492
0.00580492
0.00580492
0.00580492
0.00580492
0.00580492
0.00580492
0.00580492
0.00580492
0.00580492
0.00580492
0.00580492
0.00580492
0.00580492
0.00580492
0.00580492
0.00580492
0.00580492
0.00580492
0.00580492
0.00580492
0.00580492
0.00580492
0.00580492
0.00580492
0.00580492
0.00580492
0.00580492
0.00580492
0.00580492
0.00580492
0.00580492
0.00580492
0.00580492
0.00580492
0.00580492
0.00580492
0.00580492
0.00580492
0.00580492
0.00580492
0.00580492
0.00580492
0.00580492
0.00580492
0.00580492
0.00580492
0.00580492
0.00580492
0.00580492
0.00580492
0.00580492
)
;

boundaryField
{
    inlet
    {
        type            zeroGradient;
    }
    outlet
    {
        type            fixedValue;
        value           uniform 0;
    }
    repeat_boundary
    {
        type            zeroGradient;
    }
    procBoundary0to1
    {
        type            processor;
        value           nonuniform List<scalar> 
450
(
-9.44204e-11
-7.54815e-11
-6.90186e-11
-7.42732e-11
-9.01596e-11
-3.23674e-10
-2.81121e-10
-2.39563e-10
-1.85688e-10
-1.11975e-10
-6.62941e-10
-5.93264e-10
-4.82715e-10
-2.78142e-10
3.54224e-11
-1.17929e-09
-1.0991e-09
-9.00871e-10
-5.40687e-10
-8.09859e-12
-1.84716e-09
-1.76244e-09
-1.47993e-09
-1.04343e-09
-4.93223e-10
-2.44375e-09
-2.3229e-09
-2.00349e-09
-1.62492e-09
-1.32207e-09
-2.67564e-09
-2.54379e-09
-2.30891e-09
-2.11398e-09
-2.15196e-09
-2.57559e-09
-2.5396e-09
-2.49386e-09
-2.50119e-09
-2.72765e-09
-2.40765e-09
-2.51076e-09
-2.64962e-09
-2.81474e-09
-3.05862e-09
-2.17868e-09
-2.36288e-09
-2.65746e-09
-3.00555e-09
-3.33481e-09
-1.69473e-09
-1.95025e-09
-2.41608e-09
-2.99835e-09
-3.60434e-09
-9.62273e-10
-1.31902e-09
-1.907e-09
-2.65054e-09
-3.56103e-09
1.93038e-12
-4.039e-10
-1.02257e-09
-1.82543e-09
-2.87941e-09
1.46306e-09
1.03111e-09
3.23082e-10
-6.10333e-10
-1.7517e-09
3.66108e-09
3.10596e-09
2.12899e-09
8.26266e-10
-6.53105e-10
6.67693e-09
5.9093e-09
4.48964e-09
2.50871e-09
2.47272e-10
1.06851e-08
9.60303e-09
7.52256e-09
4.56562e-09
1.14861e-09
1.59608e-08
1.43824e-08
1.13745e-08
7.19164e-09
2.3427e-09
2.29278e-08
2.06916e-08
1.64663e-08
1.06904e-08
3.93727e-09
3.21806e-08
2.91019e-08
2.32707e-08
1.52982e-08
5.91785e-09
4.42321e-08
4.00278e-08
3.20852e-08
2.11695e-08
8.37007e-09
5.98938e-08
5.42006e-08
4.34257e-08
2.86059e-08
1.13084e-08
8.08392e-08
7.30848e-08
5.83959e-08
3.82718e-08
1.47902e-08
1.09315e-07
9.87082e-08
7.86423e-08
5.11534e-08
1.90352e-08
1.48076e-07
1.33593e-07
1.06091e-07
6.82778e-08
2.40719e-08
2.00922e-07
1.80988e-07
1.43103e-07
9.10355e-08
3.02814e-08
2.73197e-07
2.45563e-07
1.93261e-07
1.21698e-07
3.84624e-08
3.7244e-07
3.34077e-07
2.61737e-07
1.63266e-07
4.9047e-08
5.09125e-07
4.55687e-07
3.55333e-07
2.19504e-07
6.2614e-08
6.97795e-07
6.22839e-07
4.82938e-07
2.95108e-07
7.96865e-08
9.58705e-07
8.52543e-07
6.5606e-07
3.95687e-07
1.00283e-07
1.31941e-06
1.16759e-06
8.89185e-07
5.27739e-07
1.23737e-07
1.81514e-06
1.59707e-06
1.19849e-06
6.97402e-07
1.46287e-07
2.47552e-06
2.16905e-06
1.59433e-06
9.07218e-07
1.56362e-07
3.26756e-06
2.87856e-06
2.05643e-06
1.14603e-06
1.06118e-07
4.05865e-06
3.69316e-06
2.49852e-06
1.39962e-06
-1.81635e-07
4.59308e-06
4.70682e-06
2.78083e-06
1.8681e-06
-9.60358e-07
3.82018e-06
3.82908e-06
2.08661e-06
3.04853e-06
-2.09879e-06
2.38481e-05
3.72053e-05
2.31454e-05
1.26467e-05
3.98377e-06
-3.32514e-06
-1.99521e-05
-2.99976e-05
1.07843e-06
-1.808e-05
5.91573e-05
0.000140961
9.18499e-05
-7.79871e-05
-7.9099e-05
0.00078049
0.000738108
0.000502963
0.000866229
0.000335821
0.000891616
0.00149249
0.000974944
0.00139366
0.0017384
0.00210028
0.00229845
0.00266283
0.00152263
0.00199173
0.00292281
0.00238412
0.00299919
0.00267533
0.00232482
0.0034162
0.00291326
0.00320923
0.00323133
0.00308125
0.00391827
0.00390669