/*--------------------------------*- C++ -*----------------------------------*\
| =========                 |                                                 |
| \\      /  F ield         | OpenFOAM: The Open Source CFD Toolbox           |
|  \\    /   O peration     | Version:  5.x                                   |
|   \\  /    A nd           | Web:      www.OpenFOAM.org                      |
|    \\/     M anipulation  |                                                 |
\*---------------------------------------------------------------------------*/
FoamFile
{
    version     2.0;
    format      ascii;
    class       volVectorField;
    location    "20000";
    object      U;
}
// * * * * * * * * * * * * * * * * * * * * * * * * * * * * * * * * * * * * * //

dimensions      [0 1 -1 0 0 0 0];

internalField   nonuniform List<vector> 
2250
(
(-1.34392e-12 2.37671e-11 -0.001)
(-2.21145e-11 1.874e-11 -0.001)
(-5.60128e-11 1.91442e-11 -0.001)
(-5.86712e-11 2.03792e-11 -0.001)
(-6.76961e-11 1.01039e-11 -0.001)
(-6.42008e-12 4.76225e-11 -0.001)
(-2.68437e-11 3.96738e-11 -0.001)
(-5.44766e-11 3.94276e-11 -0.001)
(-6.79036e-11 4.50574e-11 -0.001)
(-7.30619e-11 2.77372e-11 -0.001)
(-9.36326e-12 5.84133e-11 -0.001)
(-3.04501e-11 5.79014e-11 -0.001)
(-5.07484e-11 6.4179e-11 -0.001)
(-7.05363e-11 7.24204e-11 -0.001)
(-6.87932e-11 7.22076e-11 -0.001)
(-7.04196e-12 8.85581e-11 -0.001)
(-2.11951e-11 9.72303e-11 -0.001)
(-3.99632e-11 1.0844e-10 -0.001)
(-5.98785e-11 1.09428e-10 -0.001)
(-6.31533e-11 7.15218e-11 -0.001)
(-8.97537e-13 1.21855e-10 -0.000999999)
(-1.07521e-11 1.29289e-10 -0.000999999)
(-3.85578e-11 1.44893e-10 -0.000999999)
(-1.07457e-10 1.40735e-10 -0.001)
(-4.45322e-11 1.52797e-10 -0.001)
(-1.19557e-11 6.4443e-11 -0.001)
(-7.5878e-11 5.23627e-11 -0.001)
(-1.59824e-10 5.33237e-11 -0.001)
(-1.81199e-10 5.25674e-11 -0.001)
(-2.12701e-10 3.2477e-11 -0.001)
(-2.41725e-11 1.37945e-10 -0.001)
(-8.72792e-11 1.18318e-10 -0.001)
(-1.5993e-10 1.1991e-10 -0.001)
(-2.02634e-10 1.2894e-10 -0.001)
(-2.23329e-10 1.03499e-10 -0.001)
(-3.17832e-11 1.84135e-10 -0.001)
(-9.43035e-11 1.81217e-10 -0.001)
(-1.49548e-10 1.97483e-10 -0.001)
(-1.98123e-10 2.13227e-10 -0.001)
(-2.09647e-10 2.22958e-10 -0.001)
(-2.74095e-11 2.71044e-10 -0.001)
(-7.42782e-11 2.92515e-10 -0.001)
(-1.27936e-10 3.15126e-10 -0.001)
(-1.77169e-10 3.07194e-10 -0.001)
(-2.04653e-10 2.20596e-10 -0.001)
(-1.08566e-11 3.6817e-10 -0.000999999)
(-5.07309e-11 3.82789e-10 -0.000999999)
(-1.3488e-10 4.03807e-10 -0.000999999)
(-2.92649e-10 3.8321e-10 -0.001)
(-1.47628e-10 4.11985e-10 -0.001)
(-2.97987e-11 1.08154e-10 -0.001)
(-1.45859e-10 9.06035e-11 -0.001)
(-2.78458e-10 8.77409e-11 -0.001)
(-3.38616e-10 8.19132e-11 -0.001)
(-3.83898e-10 7.61712e-11 -0.001)
(-4.76282e-11 2.48628e-10 -0.001)
(-1.66925e-10 2.20259e-10 -0.001)
(-2.87833e-10 2.23951e-10 -0.001)
(-3.51062e-10 2.33522e-10 -0.001)
(-3.86748e-10 2.36301e-10 -0.001)
(-5.86174e-11 3.53436e-10 -0.001)
(-1.71361e-10 3.45793e-10 -0.001)
(-2.65828e-10 3.70035e-10 -0.001)
(-3.27069e-10 3.90399e-10 -0.001)
(-3.75298e-10 4.18361e-10 -0.001)
(-5.58883e-11 5.06148e-10 -0.001)
(-1.51005e-10 5.23468e-10 -0.001)
(-2.4326e-10 5.47972e-10 -0.001)
(-3.02812e-10 5.44563e-10 -0.001)
(-3.95452e-10 4.76255e-10 -0.001)
(-4.21979e-11 6.57438e-10 -0.000999999)
(-1.30475e-10 6.66984e-10 -0.000999999)
(-2.44832e-10 6.65167e-10 -0.000999999)
(-3.98833e-10 6.13001e-10 -0.001)
(-3.62982e-10 6.1102e-10 -0.001)
(-6.0409e-11 1.62353e-10 -0.001)
(-2.39375e-10 1.41333e-10 -0.001)
(-4.20179e-10 1.38014e-10 -0.001)
(-5.05293e-10 1.38677e-10 -0.001)
(-5.64821e-10 1.46222e-10 -0.001)
(-8.18558e-11 4.05103e-10 -0.001)
(-2.64601e-10 3.74014e-10 -0.001)
(-4.23744e-10 3.81182e-10 -0.001)
(-4.9818e-10 3.95513e-10 -0.001)
(-5.55192e-10 4.22255e-10 -0.001)
(-9.2272e-11 6.06186e-10 -0.001)
(-2.64564e-10 5.98187e-10 -0.001)
(-3.99571e-10 6.1856e-10 -0.001)
(-4.65271e-10 6.26578e-10 -0.001)
(-5.40732e-10 6.57861e-10 -0.001)
(-9.09348e-11 8.4189e-10 -0.001)
(-2.534e-10 8.46126e-10 -0.001)
(-3.95398e-10 8.54838e-10 -0.001)
(-4.58846e-10 8.38004e-10 -0.001)
(-5.72101e-10 8.34551e-10 -0.001)
(-8.95281e-11 1.04438e-09 -0.000999999)
(-2.53245e-10 1.04448e-09 -0.000999999)
(-4.07725e-10 1.01758e-09 -0.000999999)
(-4.85462e-10 9.51171e-10 -0.001)
(-6.24603e-10 8.57653e-10 -0.001)
(-1.06078e-10 2.37209e-10 -0.001)
(-3.55237e-10 2.1836e-10 -0.001)
(-5.74039e-10 2.19725e-10 -0.001)
(-6.63998e-10 2.30299e-10 -0.001)
(-7.59413e-10 2.42093e-10 -0.001)
(-1.25581e-10 6.4103e-10 -0.001)
(-3.73932e-10 6.17672e-10 -0.001)
(-5.63202e-10 6.28569e-10 -0.001)
(-6.42902e-10 6.414e-10 -0.001)
(-7.44663e-10 6.52336e-10 -0.001)
(-1.30779e-10 9.96797e-10 -0.001)
(-3.69645e-10 9.94171e-10 -0.001)
(-5.51455e-10 9.98078e-10 -0.001)
(-6.41525e-10 9.72761e-10 -0.001)
(-7.41963e-10 9.54893e-10 -0.001)
(-1.30077e-10 1.34815e-09 -0.001)
(-3.74613e-10 1.33832e-09 -0.001)
(-5.84649e-10 1.30842e-09 -0.001)
(-6.86087e-10 1.24958e-09 -0.001)
(-7.77912e-10 1.25159e-09 -0.001)
(-1.43086e-10 1.58945e-09 -0.000999999)
(-4.11951e-10 1.58136e-09 -0.000999999)
(-6.40152e-10 1.54031e-09 -0.000999999)
(-6.98403e-10 1.48001e-09 -0.000999999)
(-8.55122e-10 1.34268e-09 -0.001)
(-1.68931e-10 3.4263e-10 -0.001)
(-4.98596e-10 3.33553e-10 -0.001)
(-7.54901e-10 3.38571e-10 -0.001)
(-8.82189e-10 3.4978e-10 -0.001)
(-1.03924e-09 3.44405e-10 -0.001)
(-1.78988e-10 9.82632e-10 -0.001)
(-5.04297e-10 9.76254e-10 -0.001)
(-7.40077e-10 9.83861e-10 -0.001)
(-8.78017e-10 9.77822e-10 -0.001)
(-1.04231e-09 9.42453e-10 -0.001)
(-1.77502e-10 1.55891e-09 -0.001)
(-5.0027e-10 1.56318e-09 -0.001)
(-7.54816e-10 1.54481e-09 -0.001)
(-9.2529e-10 1.48632e-09 -0.001)
(-1.05977e-09 1.41244e-09 -0.001)
(-1.77743e-10 2.0576e-09 -0.001)
(-5.21505e-10 2.03555e-09 -0.001)
(-8.17014e-10 1.97028e-09 -0.001)
(-1.01042e-09 1.87705e-09 -0.001)
(-1.09064e-09 1.8221e-09 -0.001)
(-2.03454e-10 2.32874e-09 -0.000999999)
(-5.91642e-10 2.30973e-09 -0.000999999)
(-9.1338e-10 2.27157e-09 -0.000999999)
(-1.07347e-09 2.24274e-09 -0.000999999)
(-1.07955e-09 2.17229e-09 -0.001)
(-2.45707e-10 4.93931e-10 -0.001)
(-6.87579e-10 4.97394e-10 -0.001)
(-1.03162e-09 5.00761e-10 -0.001)
(-1.27078e-09 5.0142e-10 -0.001)
(-1.48804e-09 4.80175e-10 -0.001)
(-2.43665e-10 1.45497e-09 -0.001)
(-6.83009e-10 1.46432e-09 -0.001)
(-1.02954e-09 1.46155e-09 -0.001)
(-1.29379e-09 1.43592e-09 -0.001)
(-1.51296e-09 1.37849e-09 -0.001)
(-2.39685e-10 2.30694e-09 -0.001)
(-6.8522e-10 2.31072e-09 -0.001)
(-1.06205e-09 2.2812e-09 -0.001)
(-1.35628e-09 2.22519e-09 -0.001)
(-1.53765e-09 2.15802e-09 -0.001)
(-2.44403e-10 2.95936e-09 -0.001)
(-7.13362e-10 2.93241e-09 -0.001)
(-1.11518e-09 2.87423e-09 -0.001)
(-1.41703e-09 2.80278e-09 -0.001)
(-1.55177e-09 2.68786e-09 -0.001)
(-2.72313e-10 3.28312e-09 -0.000999998)
(-7.762e-10 3.25919e-09 -0.000999999)
(-1.19177e-09 3.24323e-09 -0.000999999)
(-1.54264e-09 3.24417e-09 -0.000999999)
(-1.40035e-09 3.32308e-09 -0.001)
(-3.35558e-10 7.11149e-10 -0.001)
(-9.46043e-10 7.22555e-10 -0.001)
(-1.45879e-09 7.20004e-10 -0.001)
(-1.86714e-09 7.1138e-10 -0.001)
(-2.13311e-09 6.99476e-10 -0.001)
(-3.26166e-10 2.09119e-09 -0.001)
(-9.40358e-10 2.10583e-09 -0.001)
(-1.47278e-09 2.09282e-09 -0.001)
(-1.89125e-09 2.06611e-09 -0.001)
(-2.15457e-09 2.03813e-09 -0.001)
(-3.2568e-10 3.27183e-09 -0.001)
(-9.50397e-10 3.2695e-09 -0.001)
(-1.50141e-09 3.24858e-09 -0.001)
(-1.92545e-09 3.22448e-09 -0.001)
(-2.17254e-09 3.19831e-09 -0.001)
(-3.34875e-10 4.10078e-09 -0.001)
(-9.70125e-10 4.0885e-09 -0.001)
(-1.51795e-09 4.08256e-09 -0.001)
(-1.94159e-09 4.07149e-09 -0.001)
(-2.17943e-09 3.95192e-09 -0.001)
(-3.45866e-10 4.53506e-09 -0.000999998)
(-9.76715e-10 4.52315e-09 -0.000999998)
(-1.51855e-09 4.5331e-09 -0.000999999)
(-2.05609e-09 4.54847e-09 -0.000999999)
(-2.016e-09 4.67946e-09 -0.001)
(-4.46816e-10 1.01419e-09 -0.001)
(-1.30361e-09 1.02357e-09 -0.001)
(-2.06287e-09 1.01474e-09 -0.001)
(-2.64201e-09 1.00351e-09 -0.001)
(-2.9645e-09 1.00339e-09 -0.00100001)
(-4.40256e-10 2.94107e-09 -0.001)
(-1.30754e-09 2.94812e-09 -0.001)
(-2.08697e-09 2.92881e-09 -0.001)
(-2.65846e-09 2.90983e-09 -0.001)
(-2.975e-09 2.90556e-09 -0.00100001)
(-4.46366e-10 4.54237e-09 -0.001)
(-1.32423e-09 4.53569e-09 -0.001)
(-2.1053e-09 4.52792e-09 -0.001)
(-2.67043e-09 4.51926e-09 -0.001)
(-2.99594e-09 4.50864e-09 -0.001)
(-4.5577e-10 5.65145e-09 -0.001)
(-1.33103e-09 5.66641e-09 -0.001)
(-2.10361e-09 5.70022e-09 -0.001)
(-2.67784e-09 5.70945e-09 -0.001)
(-3.009e-09 5.67051e-09 -0.001)
(-4.42398e-10 6.25609e-09 -0.000999998)
(-1.28663e-09 6.27037e-09 -0.000999998)
(-2.06243e-09 6.29232e-09 -0.000999998)
(-2.70014e-09 6.30717e-09 -0.000999999)
(-3.00122e-09 6.29418e-09 -0.001)
(-6.04043e-10 1.4182e-09 -0.001)
(-1.8077e-09 1.41586e-09 -0.001)
(-2.88419e-09 1.40214e-09 -0.00100001)
(-3.65086e-09 1.38805e-09 -0.00100001)
(-4.05279e-09 1.38042e-09 -0.00100001)
(-6.1028e-10 4.07151e-09 -0.001)
(-1.83009e-09 4.06294e-09 -0.001)
(-2.91769e-09 4.03813e-09 -0.001)
(-3.67969e-09 4.01792e-09 -0.00100001)
(-4.06742e-09 4.00518e-09 -0.00100001)
(-6.21659e-10 6.26348e-09 -0.001)
(-1.85268e-09 6.25624e-09 -0.001)
(-2.93503e-09 6.24735e-09 -0.001)
(-3.69101e-09 6.2284e-09 -0.001)
(-4.09371e-09 6.21668e-09 -0.00100001)
(-6.29698e-10 7.83724e-09 -0.001)
(-1.85867e-09 7.85855e-09 -0.001)
(-2.94582e-09 7.87835e-09 -0.001)
(-3.71048e-09 7.85403e-09 -0.001)
(-4.10804e-09 7.93451e-09 -0.001)
(-6.1565e-10 8.67127e-09 -0.000999997)
(-1.8271e-09 8.69791e-09 -0.000999997)
(-2.93979e-09 8.7036e-09 -0.000999998)
(-3.63485e-09 8.70123e-09 -0.000999999)
(-4.23299e-09 8.52571e-09 -0.001)
(-8.41719e-10 1.94144e-09 -0.00100001)
(-2.51769e-09 1.92613e-09 -0.00100001)
(-3.98634e-09 1.91207e-09 -0.00100001)
(-5.01503e-09 1.89788e-09 -0.00100001)
(-5.5276e-09 1.89152e-09 -0.00100001)
(-8.62393e-10 5.57667e-09 -0.00100001)
(-2.55583e-09 5.55678e-09 -0.00100001)
(-4.02246e-09 5.53153e-09 -0.00100001)
(-5.04543e-09 5.51321e-09 -0.00100001)
(-5.54011e-09 5.50812e-09 -0.00100001)
(-8.74013e-10 8.61713e-09 -0.001)
(-2.5788e-09 8.61351e-09 -0.001)
(-4.03799e-09 8.59472e-09 -0.001)
(-5.04844e-09 8.57134e-09 -0.00100001)
(-5.55354e-09 8.56221e-09 -0.00100001)
(-8.82793e-10 1.08591e-08 -0.001)
(-2.59535e-09 1.08625e-08 -0.001)
(-4.06502e-09 1.08404e-08 -0.001)
(-5.07813e-09 1.07888e-08 -0.001)
(-5.56424e-09 1.08802e-08 -0.001)
(-8.9174e-10 1.20029e-08 -0.000999996)
(-2.61891e-09 1.20223e-08 -0.000999996)
(-4.11197e-09 1.20018e-08 -0.000999998)
(-5.00872e-09 1.19923e-08 -0.000999999)
(-5.64629e-09 1.18401e-08 -0.001)
(-1.18323e-09 2.62844e-09 -0.00100001)
(-3.47817e-09 2.61263e-09 -0.00100001)
(-5.42901e-09 2.6067e-09 -0.00100001)
(-6.80549e-09 2.60257e-09 -0.00100001)
(-7.49621e-09 2.61101e-09 -0.00100002)
(-1.20639e-09 7.60581e-09 -0.00100001)
(-3.5119e-09 7.59407e-09 -0.00100001)
(-5.4498e-09 7.5798e-09 -0.00100001)
(-6.81457e-09 7.57384e-09 -0.00100001)
(-7.50174e-09 7.58207e-09 -0.00100001)
(-1.212e-09 1.18325e-08 -0.001)
(-3.52607e-09 1.18408e-08 -0.00100001)
(-5.4603e-09 1.18163e-08 -0.00100001)
(-6.81685e-09 1.17906e-08 -0.00100001)
(-7.51408e-09 1.1763e-08 -0.00100001)
(-1.22116e-09 1.49517e-08 -0.001)
(-3.55157e-09 1.49474e-08 -0.001)
(-5.50053e-09 1.48978e-08 -0.001)
(-6.86811e-09 1.48356e-08 -0.001)
(-7.53498e-09 1.4795e-08 -0.00100001)
(-1.24525e-09 1.65231e-08 -0.000999995)
(-3.60952e-09 1.65363e-08 -0.000999996)
(-5.57259e-09 1.64961e-08 -0.000999997)
(-6.91959e-09 1.64717e-08 -0.000999999)
(-7.55241e-09 1.6443e-08 -0.001)
(-1.63235e-09 3.56691e-09 -0.00100001)
(-4.72814e-09 3.56528e-09 -0.00100001)
(-7.31163e-09 3.56979e-09 -0.00100002)
(-9.15722e-09 3.57242e-09 -0.00100002)
(-1.01362e-08 3.57394e-09 -0.00100002)
(-1.64402e-09 1.03844e-08 -0.00100001)
(-4.74151e-09 1.03964e-08 -0.00100001)
(-7.31899e-09 1.03917e-08 -0.00100001)
(-9.17109e-09 1.03817e-08 -0.00100002)
(-1.01659e-08 1.03636e-08 -0.00100002)
(-1.64371e-09 1.62138e-08 -0.00100001)
(-4.75074e-09 1.62357e-08 -0.00100001)
(-7.34131e-09 1.62023e-08 -0.00100001)
(-9.20358e-09 1.61536e-08 -0.00100001)
(-1.0212e-08 1.60821e-08 -0.00100001)
(-1.65362e-09 2.04763e-08 -0.001)
(-4.78515e-09 2.04812e-08 -0.001)
(-7.40184e-09 2.04181e-08 -0.001)
(-9.29161e-09 2.03302e-08 -0.00100001)
(-1.02811e-08 2.01908e-08 -0.00100001)
(-1.67836e-09 2.26376e-08 -0.000999993)
(-4.84919e-09 2.26503e-08 -0.000999994)
(-7.49298e-09 2.2584e-08 -0.000999996)
(-9.4309e-09 2.25134e-08 -0.000999999)
(-1.03215e-08 2.24793e-08 -0.001)
(-2.20452e-09 4.87422e-09 -0.00100002)
(-6.36653e-09 4.88755e-09 -0.00100002)
(-9.85296e-09 4.89065e-09 -0.00100002)
(-1.23863e-08 4.88327e-09 -0.00100002)
(-1.37667e-08 4.86431e-09 -0.00100003)
(-2.20484e-09 1.42031e-08 -0.00100001)
(-6.37211e-09 1.42312e-08 -0.00100002)
(-9.87684e-09 1.42151e-08 -0.00100002)
(-1.2437e-08 1.41764e-08 -0.00100002)
(-1.38371e-08 1.41226e-08 -0.00100003)
(-2.20815e-09 2.21633e-08 -0.00100001)
(-6.39508e-09 2.21867e-08 -0.00100001)
(-9.92802e-09 2.21342e-08 -0.00100001)
(-1.25036e-08 2.2056e-08 -0.00100002)
(-1.39214e-08 2.19657e-08 -0.00100002)
(-2.22441e-09 2.79441e-08 -0.001)
(-6.44504e-09 2.79573e-08 -0.001)
(-1.00085e-08 2.78864e-08 -0.001)
(-1.26059e-08 2.77925e-08 -0.00100001)
(-1.4054e-08 2.76546e-08 -0.00100001)
(-2.24906e-09 3.09229e-08 -0.000999991)
(-6.50781e-09 3.09366e-08 -0.000999992)
(-1.00937e-08 3.08428e-08 -0.000999995)
(-1.27354e-08 3.07126e-08 -0.000999998)
(-1.4216e-08 3.0561e-08 -0.001)
(-2.9606e-09 6.67816e-09 -0.00100002)
(-8.59298e-09 6.69298e-09 -0.00100003)
(-1.33749e-08 6.68115e-09 -0.00100003)
(-1.68735e-08 6.65735e-09 -0.00100003)
(-1.87634e-08 6.62624e-09 -0.00100004)
(-2.96437e-09 1.94173e-08 -0.00100002)
(-8.61993e-09 1.94401e-08 -0.00100002)
(-1.34372e-08 1.93961e-08 -0.00100002)
(-1.69617e-08 1.93256e-08 -0.00100003)
(-1.88626e-08 1.92469e-08 -0.00100004)
(-2.98115e-09 3.02363e-08 -0.00100001)
(-8.66946e-09 3.0252e-08 -0.00100001)
(-1.35168e-08 3.01786e-08 -0.00100002)
(-1.70565e-08 3.00773e-08 -0.00100002)
(-1.89693e-08 2.99792e-08 -0.00100003)
(-3.00723e-09 3.80847e-08 -0.001)
(-8.73736e-09 3.81063e-08 -0.001)
(-1.36133e-08 3.80268e-08 -0.00100001)
(-1.71617e-08 3.79341e-08 -0.00100001)
(-1.91391e-08 3.78696e-08 -0.00100002)
(-3.03319e-09 4.21958e-08 -0.000999987)
(-8.8023e-09 4.22207e-08 -0.000999989)
(-1.36902e-08 4.21113e-08 -0.000999993)
(-1.72137e-08 4.19439e-08 -0.000999998)
(-1.94072e-08 4.16844e-08 -0.001)
(-4.00659e-09 9.12971e-09 -0.00100003)
(-1.16813e-08 9.13411e-09 -0.00100003)
(-1.82426e-08 9.10697e-09 -0.00100004)
(-2.30266e-08 9.07036e-09 -0.00100005)
(-2.55691e-08 9.02451e-09 -0.00100005)
(-4.02752e-09 2.65038e-08 -0.00100003)
(-1.17449e-08 2.65121e-08 -0.00100003)
(-1.83428e-08 2.64413e-08 -0.00100003)
(-2.31546e-08 2.63434e-08 -0.00100004)
(-2.57e-08 2.62276e-08 -0.00100005)
(-4.05735e-09 4.12327e-08 -0.00100002)
(-1.18191e-08 4.12479e-08 -0.00100002)
(-1.84488e-08 4.11501e-08 -0.00100002)
(-2.32865e-08 4.10184e-08 -0.00100003)
(-2.58247e-08 4.08862e-08 -0.00100004)
(-4.09204e-09 5.1945e-08 -0.001)
(-1.19089e-08 5.19762e-08 -0.001)
(-1.85742e-08 5.1862e-08 -0.00100001)
(-2.34193e-08 5.17328e-08 -0.00100001)
(-2.60008e-08 5.16842e-08 -0.00100002)
(-4.12648e-09 5.7606e-08 -0.000999983)
(-1.20041e-08 5.76439e-08 -0.000999985)
(-1.86937e-08 5.75115e-08 -0.00099999)
(-2.34644e-08 5.73218e-08 -0.000999997)
(-2.62811e-08 5.70408e-08 -0.00100001)
(-5.46823e-09 1.24478e-08 -0.00100004)
(-1.59422e-08 1.24456e-08 -0.00100005)
(-2.48789e-08 1.24112e-08 -0.00100005)
(-3.1372e-08 1.23654e-08 -0.00100006)
(-3.47833e-08 1.23131e-08 -0.00100007)
(-5.50503e-09 3.61506e-08 -0.00100004)
(-1.60345e-08 3.61581e-08 -0.00100004)
(-2.50087e-08 3.60661e-08 -0.00100005)
(-3.15323e-08 3.59423e-08 -0.00100006)
(-3.49475e-08 3.57993e-08 -0.00100007)
(-5.54115e-09 5.62751e-08 -0.00100002)
(-1.61294e-08 5.63022e-08 -0.00100003)
(-2.51458e-08 5.61664e-08 -0.00100003)
(-3.1702e-08 5.59889e-08 -0.00100004)
(-3.51037e-08 5.57944e-08 -0.00100005)
(-5.58664e-09 7.09365e-08 -0.001)
(-1.62542e-08 7.09739e-08 -0.001)
(-2.53246e-08 7.07947e-08 -0.00100001)
(-3.19054e-08 7.05797e-08 -0.00100002)
(-3.5314e-08 7.03999e-08 -0.00100003)
(-5.64057e-09 7.87015e-08 -0.000999976)
(-1.64103e-08 7.87406e-08 -0.00099998)
(-2.55422e-08 7.85508e-08 -0.000999987)
(-3.20969e-08 7.83026e-08 -0.000999996)
(-3.55984e-08 7.79986e-08 -0.00100001)
(-7.47505e-09 1.69662e-08 -0.00100006)
(-2.17392e-08 1.69712e-08 -0.00100007)
(-3.38497e-08 1.69332e-08 -0.00100007)
(-4.26238e-08 1.6879e-08 -0.00100009)
(-4.72205e-08 1.68242e-08 -0.0010001)
(-7.5171e-09 4.93355e-08 -0.00100005)
(-2.18483e-08 4.93619e-08 -0.00100005)
(-3.40098e-08 4.92434e-08 -0.00100006)
(-4.28175e-08 4.9084e-08 -0.00100008)
(-4.74298e-08 4.89042e-08 -0.00100009)
(-7.55847e-09 7.6878e-08 -0.00100003)
(-2.19716e-08 7.69224e-08 -0.00100003)
(-3.41974e-08 7.67278e-08 -0.00100004)
(-4.3049e-08 7.64718e-08 -0.00100006)
(-4.76733e-08 7.61624e-08 -0.00100007)
(-7.62099e-09 9.69438e-08 -0.001)
(-2.21498e-08 9.69942e-08 -0.00100001)
(-3.44639e-08 9.673e-08 -0.00100002)
(-4.33845e-08 9.63779e-08 -0.00100003)
(-4.80241e-08 9.59392e-08 -0.00100004)
(-7.69472e-09 1.07569e-07 -0.000999968)
(-2.23752e-08 1.07607e-07 -0.000999973)
(-3.48166e-08 1.07313e-07 -0.000999982)
(-4.38399e-08 1.06919e-07 -0.000999995)
(-4.84333e-08 1.06474e-07 -0.00100001)
(-1.01849e-08 2.31543e-08 -0.00100008)
(-2.95719e-08 2.31729e-08 -0.00100009)
(-4.59878e-08 2.31198e-08 -0.0010001)
(-5.7867e-08 2.30417e-08 -0.00100012)
(-6.40765e-08 2.29497e-08 -0.00100014)
(-1.02305e-08 6.73816e-08 -0.00100007)
(-2.97102e-08 6.74278e-08 -0.00100007)
(-4.62114e-08 6.72549e-08 -0.00100009)
(-5.81526e-08 6.70174e-08 -0.0010001)
(-6.43911e-08 6.67305e-08 -0.00100012)
(-1.02884e-08 1.05055e-07 -0.00100004)
(-2.98898e-08 1.0511e-07 -0.00100005)
(-4.64934e-08 1.04821e-07 -0.00100006)
(-5.85086e-08 1.04426e-07 -0.00100008)
(-6.48015e-08 1.03935e-07 -0.0010001)
(-1.03784e-08 1.32513e-07 -0.001)
(-3.0151e-08 1.32571e-07 -0.00100001)
(-4.69007e-08 1.32186e-07 -0.00100002)
(-5.90408e-08 1.31638e-07 -0.00100004)
(-6.54072e-08 1.30916e-07 -0.00100006)
(-1.0485e-08 1.47048e-07 -0.000999956)
(-3.04762e-08 1.47081e-07 -0.000999963)
(-4.74305e-08 1.46625e-07 -0.000999975)
(-5.97783e-08 1.45989e-07 -0.000999993)
(-6.60991e-08 1.45265e-07 -0.00100001)
(-1.38356e-08 3.16268e-08 -0.00100011)
(-4.01763e-08 3.16483e-08 -0.00100012)
(-6.2485e-08 3.15583e-08 -0.00100014)
(-7.86365e-08 3.14336e-08 -0.00100016)
(-8.70058e-08 3.12873e-08 -0.00100019)
(-1.39017e-08 9.20359e-08 -0.00100009)
(-4.03862e-08 9.20797e-08 -0.0010001)
(-6.28257e-08 9.18095e-08 -0.00100012)
(-7.90651e-08 9.14394e-08 -0.00100014)
(-8.74871e-08 9.09922e-08 -0.00100017)
(-1.3996e-08 1.43505e-07 -0.00100006)
(-4.06635e-08 1.43549e-07 -0.00100006)
(-6.32549e-08 1.43116e-07 -0.00100008)
(-7.96136e-08 1.42508e-07 -0.0010001)
(-8.81363e-08 1.41761e-07 -0.00100013)
(-1.41333e-08 1.81059e-07 -0.001)
(-4.10565e-08 1.81097e-07 -0.00100001)
(-6.38735e-08 1.80533e-07 -0.00100003)
(-8.04237e-08 1.7971e-07 -0.00100005)
(-8.90899e-08 1.78665e-07 -0.00100008)
(-1.43055e-08 2.00983e-07 -0.000999941)
(-4.15433e-08 2.00995e-07 -0.00099995)
(-6.4648e-08 2.00302e-07 -0.000999967)
(-8.14825e-08 1.9932e-07 -0.00099999)
(-9.02211e-08 1.9817e-07 -0.00100002)
(-1.87837e-08 4.31859e-08 -0.00100016)
(-5.45819e-08 4.31955e-08 -0.00100017)
(-8.49082e-08 4.30546e-08 -0.00100019)
(-1.0682e-07 4.28693e-08 -0.00100022)
(-1.18087e-07 4.26553e-08 -0.00100026)
(-1.88936e-08 1.25642e-07 -0.00100013)
(-5.49061e-08 1.25662e-07 -0.00100014)
(-8.54063e-08 1.25254e-07 -0.00100016)
(-1.07434e-07 1.24694e-07 -0.00100019)
(-1.18799e-07 1.24017e-07 -0.00100023)
(-1.90426e-08 1.95913e-07 -0.00100008)
(-5.53252e-08 1.9593e-07 -0.00100009)
(-8.60522e-08 1.95283e-07 -0.00100011)
(-1.08275e-07 1.94354e-07 -0.00100014)
(-1.19787e-07 1.93217e-07 -0.00100018)
(-1.92528e-08 2.47274e-07 -0.001)
(-5.59205e-08 2.47277e-07 -0.00100002)
(-8.69913e-08 2.46429e-07 -0.00100004)
(-1.09504e-07 2.45182e-07 -0.00100007)
(-1.21213e-07 2.43664e-07 -0.00100011)
(-1.9513e-08 2.74661e-07 -0.000999919)
(-5.66518e-08 2.74631e-07 -0.000999932)
(-8.81549e-08 2.73579e-07 -0.000999955)
(-1.11041e-07 2.72075e-07 -0.000999987)
(-1.22967e-07 2.70296e-07 -0.00100002)
(-2.55208e-08 5.89172e-08 -0.00100021)
(-7.41663e-08 5.8913e-08 -0.00100023)
(-1.15326e-07 5.87117e-08 -0.00100026)
(-1.44951e-07 5.84358e-08 -0.0010003)
(-1.60126e-07 5.80924e-08 -0.00100035)
(-2.56877e-08 1.71411e-07 -0.00100018)
(-7.46347e-08 1.71404e-07 -0.00100019)
(-1.16037e-07 1.70805e-07 -0.00100022)
(-1.45862e-07 1.69959e-07 -0.00100026)
(-1.61171e-07 1.68929e-07 -0.00100031)
(-2.59072e-08 2.67373e-07 -0.0010001)
(-7.52563e-08 2.67351e-07 -0.00100012)
(-1.17011e-07 2.66368e-07 -0.00100015)
(-1.47124e-07 2.64963e-07 -0.00100019)
(-1.62625e-07 2.63284e-07 -0.00100024)
(-2.6222e-08 3.3769e-07 -0.00100001)
(-7.61626e-08 3.3763e-07 -0.00100002)
(-1.18438e-07 3.363e-07 -0.00100005)
(-1.48952e-07 3.34417e-07 -0.0010001)
(-1.64712e-07 3.32222e-07 -0.00100015)
(-2.66128e-08 3.75409e-07 -0.00099989)
(-7.73046e-08 3.75279e-07 -0.000999907)
(-1.20235e-07 3.73655e-07 -0.000999939)
(-1.51201e-07 3.71366e-07 -0.000999983)
(-1.67328e-07 3.68683e-07 -0.00100003)
(-3.47058e-08 8.0309e-08 -0.00100029)
(-1.00807e-07 8.02994e-08 -0.00100031)
(-1.56617e-07 8.00159e-08 -0.00100035)
(-1.96654e-07 7.9603e-08 -0.00100041)
(-2.17044e-07 7.90952e-08 -0.00100048)
(-3.49371e-08 2.33726e-07 -0.00100024)
(-1.01458e-07 2.33697e-07 -0.00100026)
(-1.57633e-07 2.32824e-07 -0.0010003)
(-1.97973e-07 2.31576e-07 -0.00100036)
(-2.18505e-07 2.30086e-07 -0.00100043)
(-3.52503e-08 3.64818e-07 -0.00100014)
(-1.02368e-07 3.64733e-07 -0.00100017)
(-1.59067e-07 3.63249e-07 -0.00100021)
(-1.99795e-07 3.61179e-07 -0.00100027)
(-2.20579e-07 3.58748e-07 -0.00100033)
(-3.57199e-08 4.61197e-07 -0.00100001)
(-1.0374e-07 4.60995e-07 -0.00100003)
(-1.61203e-07 4.58929e-07 -0.00100008)
(-2.02481e-07 4.56121e-07 -0.00100013)
(-2.23638e-07 4.52865e-07 -0.0010002)
(-3.63331e-08 5.13233e-07 -0.000999852)
(-1.05534e-07 5.12878e-07 -0.000999875)
(-1.63955e-07 5.10391e-07 -0.000999918)
(-2.05859e-07 5.06944e-07 -0.000999978)
(-2.2755e-07 5.0288e-07 -0.00100005)
(-4.7244e-08 1.09373e-07 -0.0010004)
(-1.37116e-07 1.0937e-07 -0.00100043)
(-2.12789e-07 1.0898e-07 -0.00100048)
(-2.66827e-07 1.08403e-07 -0.00100056)
(-2.94063e-07 1.07713e-07 -0.00100065)
(-4.75487e-08 3.18483e-07 -0.00100033)
(-1.37997e-07 3.18443e-07 -0.00100036)
(-2.14192e-07 3.17207e-07 -0.00100042)
(-2.68636e-07 3.1545e-07 -0.00100049)
(-2.96066e-07 3.13353e-07 -0.00100058)
(-4.79865e-08 4.97557e-07 -0.0010002)
(-1.3929e-07 4.97378e-07 -0.00100023)
(-2.16229e-07 4.95221e-07 -0.00100029)
(-2.71231e-07 4.9224e-07 -0.00100036)
(-2.99009e-07 4.88692e-07 -0.00100045)
(-4.86785e-08 6.29734e-07 -0.00100002)
(-1.41305e-07 6.29312e-07 -0.00100005)
(-2.19352e-07 6.26251e-07 -0.0010001)
(-2.75174e-07 6.22071e-07 -0.00100018)
(-3.0349e-07 6.17117e-07 -0.00100028)
(-4.96081e-08 7.01726e-07 -0.0009998)
(-1.43995e-07 7.01014e-07 -0.000999831)
(-2.23489e-07 6.97258e-07 -0.00099989)
(-2.80365e-07 6.92057e-07 -0.000999972)
(-3.0939e-07 6.85848e-07 -0.00100007)
(-6.44046e-08 1.48785e-07 -0.00100054)
(-1.86752e-07 1.48811e-07 -0.00100059)
(-2.8939e-07 1.48303e-07 -0.00100066)
(-3.62171e-07 1.47557e-07 -0.00100077)
(-3.98261e-07 1.46642e-07 -0.00100089)
(-6.47895e-08 4.33519e-07 -0.00100045)
(-1.87899e-07 4.33498e-07 -0.00100049)
(-2.91238e-07 4.31846e-07 -0.00100057)
(-3.64571e-07 4.29497e-07 -0.00100067)
(-4.00992e-07 4.2663e-07 -0.0010008)
(-6.53811e-08 6.78015e-07 -0.00100027)
(-1.89648e-07 6.77732e-07 -0.00100031)
(-2.94001e-07 6.74746e-07 -0.00100039)
(-3.68135e-07 6.70576e-07 -0.0010005)
(-4.05087e-07 6.65535e-07 -0.00100062)
(-6.63655e-08 8.59426e-07 -0.00100003)
(-1.92489e-07 8.58719e-07 -0.00100007)
(-2.98426e-07 8.54324e-07 -0.00100015)
(-3.73795e-07 8.48194e-07 -0.00100025)
(-4.11527e-07 8.40855e-07 -0.00100038)
(-6.77215e-08 9.59466e-07 -0.00099973)
(-1.96415e-07 9.58245e-07 -0.000999773)
(-3.04552e-07 9.52573e-07 -0.000999854)
(-3.81604e-07 9.44696e-07 -0.000999965)
(-4.20336e-07 9.3529e-07 -0.00100009)
(-8.80108e-08 2.02043e-07 -0.00100074)
(-2.54937e-07 2.02141e-07 -0.0010008)
(-3.9425e-07 2.01555e-07 -0.0010009)
(-4.92054e-07 2.00685e-07 -0.00100105)
(-5.394e-07 1.9957e-07 -0.00100121)
(-8.84716e-08 5.89113e-07 -0.00100062)
(-2.56331e-07 5.8921e-07 -0.00100067)
(-3.96516e-07 5.87213e-07 -0.00100078)
(-4.95043e-07 5.84316e-07 -0.00100092)
(-5.42912e-07 5.80677e-07 -0.00100109)
(-8.92122e-08 9.22649e-07 -0.00100038)
(-2.58502e-07 9.2234e-07 -0.00100043)
(-3.99978e-07 9.18447e-07 -0.00100054)
(-4.99607e-07 9.12887e-07 -0.00100068)
(-5.48327e-07 9.06051e-07 -0.00100085)
(-9.05368e-08 1.17194e-06 -0.00100004)
(-2.62328e-07 1.17087e-06 -0.0010001)
(-4.06012e-07 1.16467e-06 -0.00100021)
(-5.07457e-07 1.15592e-06 -0.00100035)
(-5.57365e-07 1.14533e-06 -0.00100052)
(-9.25125e-08 1.31176e-06 -0.000999639)
(-2.68045e-07 1.30973e-06 -0.000999697)
(-4.14965e-07 1.30119e-06 -0.000999808)
(-5.18944e-07 1.2893e-06 -0.000999958)
(-5.70428e-07 1.2751e-06 -0.00100013)
(-1.20767e-07 2.73612e-07 -0.001001)
(-3.49315e-07 2.73905e-07 -0.00100109)
(-5.38622e-07 2.73435e-07 -0.00100123)
(-6.6959e-07 2.7265e-07 -0.00100143)
(-7.30889e-07 2.71509e-07 -0.00100166)
(-1.21233e-07 7.98511e-07 -0.00100084)
(-3.50724e-07 7.99053e-07 -0.00100092)
(-5.40981e-07 7.97122e-07 -0.00100107)
(-6.72883e-07 7.94089e-07 -0.00100126)
(-7.34943e-07 7.89984e-07 -0.00100149)
(-1.21988e-07 1.25299e-06 -0.00100052)
(-3.52966e-07 1.25297e-06 -0.0010006)
(-5.44724e-07 1.24836e-06 -0.00100074)
(-6.78116e-07 1.24152e-06 -0.00100094)
(-7.41493e-07 1.23278e-06 -0.00100116)
(-1.23634e-07 1.59607e-06 -0.00100006)
(-3.57786e-07 1.59462e-06 -0.00100014)
(-5.5249e-07 1.58614e-06 -0.00100029)
(-6.88495e-07 1.57403e-06 -0.00100049)
(-7.5373e-07 1.55911e-06 -0.00100072)
(-1.26462e-07 1.79288e-06 -0.000999519)
(-3.6598e-07 1.78954e-06 -0.000999599)
(-5.65361e-07 1.77682e-06 -0.00099975)
(-7.05144e-07 1.75904e-06 -0.000999954)
(-7.72895e-07 1.73768e-06 -0.00100019)
(-1.66777e-07 3.69036e-07 -0.00100136)
(-4.81359e-07 3.69879e-07 -0.00100147)
(-7.39104e-07 3.7006e-07 -0.00100168)
(-9.13703e-07 3.69954e-07 -0.00100196)
(-9.91375e-07 3.69346e-07 -0.00100226)
(-1.66966e-07 1.07837e-06 -0.00100114)
(-4.82013e-07 1.08022e-06 -0.00100125)
(-7.40535e-07 1.07957e-06 -0.00100146)
(-9.16274e-07 1.07777e-06 -0.00100173)
(-9.95103e-07 1.07442e-06 -0.00100204)
(-1.67319e-07 1.69661e-06 -0.00100071)
(-4.83228e-07 1.69771e-06 -0.00100082)
(-7.43104e-07 1.69338e-06 -0.00100102)
(-9.20746e-07 1.68632e-06 -0.00100129)
(-1.00163e-06 1.67643e-06 -0.0010016)
(-1.69091e-07 2.16956e-06 -0.0010001)
(-4.88535e-07 2.16799e-06 -0.00100021)
(-7.52004e-07 2.15708e-06 -0.00100041)
(-9.33259e-07 2.14117e-06 -0.00100068)
(-1.01708e-06 2.12106e-06 -0.00100099)
(-1.72991e-07 2.44905e-06 -0.000999364)
(-4.99893e-07 2.44368e-06 -0.000999475)
(-7.69991e-07 2.42493e-06 -0.000999681)
(-9.56764e-07 2.39869e-06 -0.000999957)
(-1.04454e-06 2.367e-06 -0.00100027)
(-2.32458e-07 4.94893e-07 -0.00100182)
(-6.68956e-07 4.97097e-07 -0.00100199)
(-1.02108e-06 4.99235e-07 -0.00100229)
(-1.25239e-06 5.01347e-07 -0.00100267)
(-1.34717e-06 5.02766e-07 -0.0010031)
(-2.31654e-07 1.4486e-06 -0.00100153)
(-6.66894e-07 1.45375e-06 -0.0010017)
(-1.01889e-06 1.45757e-06 -0.00100199)
(-1.25138e-06 1.46071e-06 -0.00100237)
(-1.34812e-06 1.46158e-06 -0.00100279)
(-2.30552e-07 2.2874e-06 -0.00100097)
(-6.64163e-07 2.29163e-06 -0.00100113)
(-1.01626e-06 2.29063e-06 -0.00100141)
(-1.25096e-06 2.28682e-06 -0.00100178)
(-1.35113e-06 2.27881e-06 -0.00100219)
(-2.3179e-07 2.94077e-06 -0.00100017)
(-6.68113e-07 2.9399e-06 -0.00100032)
(-1.0238e-06 2.92738e-06 -0.00100059)
(-1.26325e-06 2.90837e-06 -0.00100096)
(-1.36827e-06 2.88303e-06 -0.00100137)
(-2.36978e-07 3.34186e-06 -0.000999171)
(-6.8321e-07 3.33346e-06 -0.000999323)
(-1.04788e-06 3.3061e-06 -0.000999605)
(-1.29531e-06 3.26794e-06 -0.000999977)
(-1.4066e-06 3.22148e-06 -0.0010004)
(-3.28279e-07 6.58244e-07 -0.00100242)
(-9.41319e-07 6.63588e-07 -0.00100266)
(-1.42495e-06 6.70849e-07 -0.0010031)
(-1.72822e-06 6.78768e-07 -0.00100366)
(-1.83609e-06 6.85634e-07 -0.00100426)
(-3.24831e-07 1.93077e-06 -0.00100205)
(-9.31809e-07 1.94377e-06 -0.00100228)
(-1.41256e-06 1.95989e-06 -0.00100271)
(-1.71684e-06 1.9769e-06 -0.00100324)
(-1.82833e-06 1.99032e-06 -0.00100383)
(-3.1966e-07 3.06411e-06 -0.00100132)
(-9.17848e-07 3.0762e-06 -0.00100154)
(-1.39476e-06 3.08644e-06 -0.00100194)
(-1.70131e-06 3.09501e-06 -0.00100245)
(-1.81914e-06 3.09699e-06 -0.00100301)
(-3.18618e-07 3.96948e-06 -0.00100027)
(-9.15458e-07 3.97143e-06 -0.00100048)
(-1.3939e-06 3.96057e-06 -0.00100086)
(-1.70635e-06 3.94212e-06 -0.00100135)
(-1.8327e-06 3.91392e-06 -0.00100189)
(-3.25205e-07 4.55196e-06 -0.000998938)
(-9.34395e-07 4.53899e-06 -0.000999148)
(-1.42419e-06 4.49959e-06 -0.000999533)
(-1.74795e-06 4.44504e-06 -0.00100003)
(-1.88463e-06 4.37784e-06 -0.00100058)
(-4.71821e-07 8.65338e-07 -0.00100315)
(-1.34852e-06 8.77626e-07 -0.00100352)
(-2.01816e-06 8.97475e-07 -0.00100419)
(-2.40891e-06 9.19048e-07 -0.00100501)
(-2.5134e-06 9.3905e-07 -0.00100587)
(-4.62102e-07 2.54316e-06 -0.00100269)
(-1.32057e-06 2.57436e-06 -0.00100304)
(-1.98054e-06 2.62168e-06 -0.00100367)
(-2.37192e-06 2.67307e-06 -0.00100445)
(-2.48392e-06 2.71813e-06 -0.00100527)
(-4.4654e-07 4.06445e-06 -0.00100179)
(-1.27765e-06 4.09532e-06 -0.00100211)
(-1.9235e-06 4.13609e-06 -0.00100267)
(-2.31726e-06 4.17926e-06 -0.00100338)
(-2.44272e-06 4.2106e-06 -0.00100413)
(-4.39131e-07 5.3258e-06 -0.00100044)
(-1.25694e-06 5.33532e-06 -0.00100073)
(-1.89679e-06 5.33486e-06 -0.00100126)
(-2.2975e-06 5.32776e-06 -0.00100191)
(-2.43908e-06 5.30489e-06 -0.00100263)
(-4.47115e-07 6.18228e-06 -0.000998673)
(-1.27885e-06 6.16182e-06 -0.000998964)
(-1.93123e-06 6.10559e-06 -0.000999491)
(-2.34723e-06 6.02962e-06 -0.00100015)
(-2.50667e-06 5.93481e-06 -0.00100087)
(-6.92545e-07 1.11985e-06 -0.00100398)
(-1.98103e-06 1.14612e-06 -0.00100456)
(-2.91956e-06 1.19633e-06 -0.00100566)
(-3.40795e-06 1.24749e-06 -0.00100689)
(-3.46023e-06 1.29803e-06 -0.00100818)