FoamFile
{version 2.0; format ascii;class vectorField; location 0;object  v;}
346
(
( -3.06751e-07 1.22923e-06 -1.61659e-05 )  
( 3.05544e-06 2.26484e-06 -9.05715e-06 )  
( 1.99001e-06 -1.84184e-07 -1.38282e-05 )  
( 4.91921e-07 -2.96229e-07 -1.31634e-05 )  
( 1.72427e-06 1.49118e-06 -1.01555e-05 )  
( 1.77922e-06 2.42454e-06 -8.33636e-06 )  
( -1.24263e-07 4.25658e-06 -1.43544e-05 )  
( -1.39039e-06 -1.07422e-06 -1.11005e-05 )  
( 2.9218e-06 2.39695e-06 -1.5023e-05 )  
( 3.75966e-06 3.649e-06 -1.05611e-05 )  
( 3.37699e-07 3.54883e-06 -1.4001e-05 )  
( 5.14879e-07 2.4007e-06 -1.4348e-05 )  
( -1.81972e-07 1.53099e-06 -1.33615e-05 )  
( 1.81179e-06 1.16916e-06 -1.24019e-05 )  
( -2.45416e-06 2.38033e-06 -1.73234e-05 )  
( 2.8187e-06 -1.02687e-06 -1.24316e-05 )  
( 4.26596e-06 3.98983e-07 -1.38554e-05 )  
( 4.74708e-06 1.4443e-06 -1.29341e-05 )  
( 3.73685e-06 2.45555e-06 -1.29592e-05 )  
( 6.85732e-06 4.02454e-07 -2.26924e-05 )  
( 5.28784e-07 1.63639e-06 -1.34327e-05 )  
( 4.9261e-06 4.20332e-07 -1.06802e-05 )  
( 2.62179e-06 1.8243e-06 -1.269e-05 )  
( -3.44093e-07 9.0967e-06 -2.95008e-05 )  
( 1.79773e-06 2.42665e-06 -1.44233e-05 )  
( 1.99059e-06 4.9677e-06 -1.33762e-05 )  
( 5.51646e-06 3.66505e-06 -2.87522e-05 )  
( 1.64391e-06 3.11081e-06 -1.55142e-05 )  
( 1.32144e-06 -4.18581e-07 -1.06182e-05 )  
( 3.7273e-06 2.68371e-06 -1.42023e-05 )  
( 8.23622e-07 8.64942e-07 -2.41799e-05 )  
( 4.70845e-06 3.22266e-06 -2.69601e-05 )  
( 4.13989e-08 -5.68285e-06 -1.20534e-05 )  
( 5.874e-06 5.34006e-06 -2.99363e-05 )  
( 8.2485e-08 1.85567e-06 -1.79017e-05 )  
( 5.38394e-06 -8.09997e-07 -2.56903e-05 )  
( 3.0663e-06 3.30355e-06 -2.59212e-05 )  
( 1.68356e-06 4.11018e-06 -2.08879e-05 )  
( -2.98984e-07 4.36854e-06 -1.94739e-05 )  
( 1.65906e-06 -6.84691e-07 -2.19105e-05 )  
( -7.06444e-08 4.67256e-06 -3.54088e-05 )  
( 1.84542e-06 4.82815e-06 -2.01724e-05 )  
( 2.08589e-06 2.5134e-06 -2.53642e-05 )  
( 7.47808e-06 7.58187e-06 -3.11628e-05 )  
( -8.59776e-07 1.99489e-06 -2.88852e-05 )  
( -1.25104e-08 1.27676e-06 -2.55624e-05 )  
( -5.58948e-07 5.50384e-06 -3.85993e-05 )  
( 1.33777e-06 5.27117e-06 -4.24347e-05 )  
( 1.3602e-06 -6.30041e-07 -4.96657e-05 )  
( 4.07439e-06 1.79227e-07 -2.11613e-05 )  
( -2.297e-06 7.49688e-07 -4.28364e-05 )  
( 2.51028e-06 5.36824e-06 -3.7772e-05 )  
( -2.2058e-06 5.48566e-06 -2.77851e-05 )  
( 5.53998e-07 1.15798e-05 -2.99191e-05 )  
( 5.94977e-06 4.16871e-06 -4.03535e-05 )  
( -6.64904e-07 3.01894e-06 -4.17661e-05 )  
( -1.22634e-06 7.62206e-06 -4.91678e-05 )  
( 6.14187e-06 1.83588e-06 -3.69693e-05 )  
( 1.43906e-06 5.32898e-06 -4.65651e-05 )  
( 4.54303e-06 4.05344e-07 -3.72713e-05 )  
( 3.90383e-06 3.92099e-07 -4.34835e-05 )  
( -5.00277e-07 9.72055e-07 -4.26456e-05 )  
( 3.96628e-06 5.77619e-06 -3.96658e-05 )  
( 1.99087e-06 2.34164e-06 -2.84941e-05 )  
( 9.0842e-07 3.26258e-06 -2.45663e-05 )  
( 2.85885e-06 3.26488e-06 -3.95133e-05 )  
( 5.10868e-06 8.33533e-06 -4.07547e-05 )  
( 3.91442e-06 4.00048e-06 -4.87546e-05 )  
( 2.43317e-07 7.57181e-06 -5.39532e-05 )  
( -7.78278e-07 -2.71135e-07 -4.79007e-05 )  
( -2.9241e-06 2.08975e-06 -4.47734e-05 )  
( 4.84472e-06 1.93215e-06 -4.50468e-05 )  
( 4.8201e-06 5.93947e-06 -4.61812e-05 )  
( 6.59197e-06 4.31895e-06 -5.08557e-05 )  
( 3.39861e-06 1.84064e-07 -6.36136e-05 )  
( -2.50276e-06 5.41115e-06 -5.36673e-05 )  
( 1.71584e-06 7.26043e-06 -5.46463e-05 )  
( 8.51494e-06 2.60574e-06 -4.9917e-05 )  
( 6.04382e-06 2.36603e-06 -4.05715e-05 )  
( 8.13648e-06 6.53095e-06 -5.0439e-05 )  
( 3.47402e-06 1.6563e-06 -6.39483e-05 )  
( 3.3999e-06 -1.22694e-07 -6.16523e-05 )  
( 5.28809e-06 4.43977e-06 -3.71645e-05 )  
( 4.44512e-06 6.82306e-06 -3.77339e-05 )  
( 3.55573e-06 1.01604e-05 -6.4314e-05 )  
( 3.6713e-06 3.69407e-06 -5.78803e-05 )  
( 3.19548e-06 4.2714e-06 -6.07824e-05 )  
( 8.2359e-06 9.39551e-06 -5.86173e-05 )  
( 2.10773e-06 5.65265e-06 -5.41102e-05 )  
( 4.09041e-06 5.21774e-06 -5.94638e-05 )  
( 5.00754e-06 4.98559e-06 -5.27938e-05 )  
( 3.7206e-06 -2.14454e-07 -4.40818e-05 )  
( 2.75401e-06 3.91753e-06 -4.62076e-05 )  
( 4.89481e-06 3.91574e-06 -4.98453e-05 )  
( -4.24462e-06 3.97734e-06 -5.39522e-05 )  
( 2.80197e-06 5.64765e-06 -6.38394e-05 )  
( 5.1565e-06 9.38406e-06 -6.98363e-05 )  
( 7.07588e-06 3.97735e-06 -6.04874e-05 )  
( 7.87088e-06 4.90925e-06 -5.54748e-05 )  
( 5.18974e-06 6.48395e-06 -7.76592e-05 )  
( 3.61996e-06 2.96555e-06 -7.24582e-05 )  
( 3.68064e-06 2.64141e-06 -7.80727e-05 )  
( 2.33818e-06 2.37169e-08 -6.82586e-05 )  
( 5.34314e-06 5.98177e-06 -6.59908e-05 )  
( 4.51832e-06 3.76101e-06 -6.87734e-05 )  
( 3.62141e-06 4.54676e-06 -6.45641e-05 )  
( 6.11038e-06 3.20412e-06 -5.13052e-05 )  
( 1.75646e-06 2.66018e-06 -7.77332e-05 )  
( 5.56073e-06 2.99735e-06 -6.18384e-05 )  
( 6.35651e-06 1.18246e-05 -6.14585e-05 )  
( -1.42758e-06 6.22495e-06 -6.77579e-05 )  
( 3.84037e-06 4.85165e-06 -8.40526e-05 )  
( 5.67591e-06 5.97098e-06 -7.54311e-05 )  
( 5.84779e-06 6.27335e-06 -7.66732e-05 )  
( 2.50743e-06 5.77285e-06 -5.58492e-05 )  
( 4.57875e-06 3.5788e-06 -5.64146e-05 )  
( 6.25736e-06 9.14647e-06 -7.70716e-05 )  
( 5.13891e-06 9.5597e-06 -6.85453e-05 )  
( 8.44394e-06 6.32097e-06 -7.53649e-05 )  
( 6.93787e-07 6.47713e-06 -7.12113e-05 )  
( 5.57657e-06 9.4062e-06 -7.08076e-05 )  
( 5.46134e-06 7.60193e-06 -7.92e-05 )  
( -4.17371e-06 1.87197e-05 -5.87325e-05 )  
( 6.57642e-06 6.87842e-06 -6.52302e-05 )  
( 4.80991e-06 9.65187e-06 -8.12969e-05 )  
( 5.318e-06 5.06379e-06 -7.11667e-05 )  
( 5.40374e-06 4.60341e-06 -8.98277e-05 )  
( 3.95401e-06 7.87685e-06 -8.56686e-05 )  
( 5.81577e-06 3.63518e-06 -9.16802e-05 )  
( 2.50912e-06 8.59781e-06 -7.68071e-05 )  
( 6.36472e-06 3.30613e-06 -8.35574e-05 )  
( 6.55608e-06 6.47209e-06 -8.03726e-05 )  
( 2.74875e-06 5.30811e-06 -8.69086e-05 )  
( 3.79998e-06 7.56035e-06 -8.53633e-05 )  
( 7.1986e-06 3.39651e-06 -9.38237e-05 )  
( 5.78151e-06 5.65071e-06 -7.84506e-05 )  
( 9.00017e-07 1.00455e-05 -8.82302e-05 )  
( 3.94004e-06 5.67336e-06 -8.23238e-05 )  
( 4.16583e-06 6.08937e-06 -7.4479e-05 )  
( 4.41531e-06 4.69622e-06 -7.9286e-05 )  
( 8.58105e-06 3.33985e-06 -7.44161e-05 )  
( 5.03032e-06 4.09611e-06 -8.87295e-05 )  
( 4.50949e-06 5.10105e-06 -8.56506e-05 )  
( 5.32727e-06 6.50241e-06 -8.49851e-05 )  
( 1.05229e-05 9.65505e-06 -9.13445e-05 )  
( 9.98626e-06 5.54918e-06 -0.000103292 )  
( 5.4635e-06 5.16243e-06 -9.09898e-05 )  
( 5.87555e-06 3.24362e-08 -9.23567e-05 )  
( 8.85502e-06 4.47937e-06 -9.11903e-05 )  
( 8.18085e-06 3.09657e-06 -9.36968e-05 )  
( 6.14248e-06 3.13316e-06 -9.29779e-05 )  
( 1.06616e-05 -7.54155e-07 -9.47747e-05 )  
( 8.70395e-06 4.03279e-06 -9.54174e-05 )  
( 4.62938e-06 4.97816e-06 -9.45101e-05 )  
( 9.14786e-06 1.05211e-06 -9.7882e-05 )  
( 1.58363e-06 3.63625e-06 -0.000101801 )  
( 6.1225e-06 5.2572e-06 -7.9915e-05 )  
( 8.0836e-06 4.19644e-06 -9.81968e-05 )  
( 4.83722e-06 3.87629e-06 -9.39939e-05 )  
( 8.18393e-06 4.95055e-06 -9.78936e-05 )  
( 9.19045e-06 4.61566e-06 -0.000100393 )  
( 9.55832e-06 1.892e-06 -0.000111107 )  
( 9.59668e-06 3.87197e-06 -0.000103278 )  
( 1.00879e-05 1.90431e-06 -9.94761e-05 )  
( 8.20559e-06 2.24138e-06 -0.000106171 )  
( 1.09368e-05 -6.59028e-07 -0.000106482 )  
( 1.07571e-05 8.73916e-07 -0.000111134 )  
( 8.44012e-06 5.05594e-06 -9.34301e-05 )  
( 9.96398e-06 8.58342e-07 -0.000102127 )  
( 3.73959e-06 2.90566e-07 -0.000107916 )  
( 8.46418e-06 2.16903e-06 -0.000111844 )  
( 6.66696e-06 -1.10657e-06 -0.000114032 )  
( 5.48033e-06 7.86812e-07 -9.76812e-05 )  
( 1.17944e-05 -6.51474e-07 -0.000106873 )  
( 9.14162e-06 -7.85063e-07 -0.000102619 )  
( 9.24093e-06 3.24496e-06 -0.000108526 )  
( 9.70709e-06 -1.1275e-06 -0.000106882 )  
( 9.43639e-06 2.09459e-06 -0.00011213 )  
( 9.11482e-06 -1.45841e-06 -9.7301e-05 )  
( 1.08907e-05 3.9805e-06 -0.000103924 )  
( -1.0382e-06 6.67945e-06 -0.000101109 )  
( 8.07644e-06 2.98152e-06 -8.98754e-05 )  
( 8.9917e-06 2.86057e-06 -0.000108412 )  
( 2.2433e-06 8.64675e-07 -0.000105451 )  
( 9.0378e-06 3.89412e-06 -0.000116787 )  
( 8.89452e-06 -3.03513e-06 -0.000116933 )  
( 8.01356e-06 -3.03643e-07 -0.000107515 )  
( 1.09843e-05 2.63011e-06 -0.000114519 )  
( 1.31197e-05 4.06703e-07 -0.000115374 )  
( 4.76045e-06 9.6185e-07 -0.000119575 )  
( 4.93966e-06 2.46695e-07 -0.000115809 )  
( 9.10942e-06 2.89781e-06 -0.000110138 )  
( 1.20964e-05 2.72574e-06 -0.00011449 )  
( 9.23916e-06 1.5359e-06 -0.000119464 )  
( 7.77958e-06 6.46327e-06 -0.0001141 )  
( 6.13247e-06 1.67381e-07 -0.000114412 )  
( 4.04851e-06 4.01362e-06 -0.000123536 )  
( 1.01933e-05 6.23625e-06 -0.00011426 )  
( 8.47685e-06 1.91051e-06 -0.000115835 )  
( 5.59336e-06 -1.78878e-06 -0.000119013 )  
( 1.03369e-05 -4.96737e-06 -0.000112282 )  
( 1.14723e-05 1.91912e-06 -0.000117438 )  
( 7.91357e-06 -2.29188e-06 -0.000121777 )  
( 8.92866e-06 7.34764e-07 -0.000124183 )  
( 8.15486e-06 -5.31832e-07 -0.00011593 )  
( 1.16957e-05 -9.39624e-07 -0.000119865 )  
( 7.23623e-06 -1.58315e-06 -0.000121081 )  
( 9.05749e-06 -2.7777e-06 -0.000121402 )  
( 7.20157e-06 3.33505e-07 -0.000118617 )  
( 5.57116e-06 4.92093e-06 -0.000125114 )  
( 6.52013e-06 -4.08493e-06 -0.000116501 )  
( 1.04507e-05 1.12384e-06 -0.000121012 )  
( 8.17467e-06 9.25364e-07 -0.000126091 )  
( 7.8156e-06 -2.71523e-06 -0.000119157 )  
( 6.14354e-06 -2.42887e-06 -0.000121607 )  
( 1.01687e-05 7.93269e-07 -0.000125656 )  
( 1.1215e-05 3.03684e-07 -0.000117156 )  
( 5.53246e-06 2.4158e-06 -0.000119839 )  
( 1.3215e-05 2.15415e-06 -0.00012531 )  
( 8.08079e-06 -1.19804e-06 -0.000122865 )  
( 8.8909e-06 -3.00565e-06 -0.000124569 )  
( 6.30185e-06 -1.55278e-06 -0.000123289 )  
( 1.20163e-05 -1.72537e-06 -0.000122239 )  
( 1.04905e-05 -3.09925e-07 -0.00012504 )  
( 8.66096e-06 -3.1457e-06 -0.000125993 )  
( 5.84292e-06 -4.80742e-06 -0.000127401 )  
( 1.08464e-05 -1.84197e-06 -0.000124398 )  
( 6.37378e-06 1.08233e-06 -0.000129923 )  
( 3.96419e-06 -1.1265e-06 -0.000126928 )  
( 5.31198e-06 -3.47007e-06 -0.0001247 )  
( 1.0625e-05 -3.01528e-06 -0.000117745 )  
( 9.17186e-06 -3.80448e-06 -0.000132157 )  
( 7.92664e-06 5.2684e-07 -0.000126589 )  
( 4.48312e-06 -1.59117e-07 -0.000131846 )  
( 9.14228e-06 -8.55099e-06 -0.000129037 )  
( 7.30833e-06 -7.46201e-06 -0.000134418 )  
( 4.45209e-07 -3.66886e-06 -0.000133758 )  
( 3.30942e-06 -3.29132e-06 -0.000135576 )  
( 1.19457e-05 -9.68609e-07 -0.000124962 )  
( 5.95978e-06 -4.86263e-06 -0.000131383 )  
( 3.47166e-06 5.78576e-06 -0.000128926 )  
( 6.11559e-06 -4.53651e-06 -0.000127021 )  
( 8.96378e-06 5.18113e-08 -0.000127775 )  
( 9.23444e-06 1.27855e-06 -0.000125119 )  
( 6.74815e-06 7.36912e-08 -0.000124129 )  
( 9.57693e-06 -6.56282e-06 -0.000126207 )  
( 4.8972e-06 -5.57953e-06 -0.000131086 )  
( 1.14164e-05 1.40908e-06 -0.000127648 )  
( 4.74466e-06 -3.37041e-06 -0.000131178 )  
( 9.38771e-06 -1.22506e-05 -0.000134018 )  
( -2.3964e-06 -3.14874e-06 -0.00013528 )  
( 3.90639e-06 -1.09693e-05 -0.000123936 )  
( 2.05889e-06 -4.33461e-06 -0.000133321 )  
( 3.21472e-06 -4.15485e-06 -0.000137676 )  
( 7.71324e-06 -2.22834e-08 -0.000126804 )  
( 5.98327e-06 -6.39598e-06 -0.000129093 )  
( 6.24832e-06 -2.70414e-06 -0.000132337 )  
( 3.95542e-06 -3.47935e-06 -0.000134832 )  
( 5.10501e-06 3.36746e-06 -0.000128297 )  
( -4.60399e-06 -1.49515e-06 -0.000142725 )  
( -5.83795e-07 -9.61962e-06 -0.000138646 )  
( 2.94572e-06 -5.43199e-06 -0.000137549 )  
( 4.24076e-06 -3.29841e-06 -0.000139695 )  
( 7.69791e-06 -1.16826e-05 -0.00012731 )  
( 9.45896e-06 2.1468e-06 -0.000138229 )  
( -1.17372e-07 -4.99854e-06 -0.000139198 )  
( 1.31181e-05 1.9292e-06 -0.000129398 )  
( -9.65991e-07 -6.82222e-06 -0.000133436 )  
( 9.87843e-07 -1.2421e-05 -0.000131974 )  
( -2.62648e-06 -7.0778e-06 -0.000142336 )  
( 4.42758e-06 -9.52401e-06 -0.000130163 )  
( 1.42588e-06 -4.73323e-06 -0.000137329 )  
( 8.40592e-06 1.14286e-06 -0.000127253 )  
( 2.95451e-06 -1.09205e-05 -0.000139899 )  
( 9.16374e-06 -1.70693e-05 -0.000117042 )  
( -6.94203e-06 -1.69173e-05 -0.000127202 )  
( 2.38267e-06 -6.20805e-06 -0.000126161 )  
( 8.13404e-06 -1.35452e-05 -0.000136542 )  
( -3.45607e-06 -5.56466e-06 -0.000152577 )  
( 2.35799e-06 -3.09252e-06 -0.000143216 )  
( 1.81315e-06 -4.07805e-06 -0.000134871 )  
( 2.76362e-06 3.26976e-06 -0.000131974 )  
( 1.00632e-06 -8.1974e-06 -0.00013741 )  
( -1.08988e-05 1.9913e-05 -0.000140181 )  
( 1.15863e-05 -7.67499e-06 -0.000138221 )  
( 1.69177e-06 -3.25901e-06 -0.000137778 )  
( 2.40147e-06 -4.96273e-06 -0.000140081 )  
( 4.83126e-06 5.30799e-06 -0.000131133 )  
( 7.75457e-07 -2.53672e-06 -0.000137808 )  
( -2.01001e-05 6.97438e-06 -0.000151715 )  
( -1.78221e-06 -1.13297e-05 -0.000150165 )  
( -1.54874e-06 -6.30966e-06 -0.000131908 )  
( 7.38056e-06 -1.4204e-05 -0.000148765 )  
( 1.1476e-06 -2.14859e-06 -0.000141386 )  
( -1.6815e-06 -7.10215e-06 -0.000142577 )  
( -2.05465e-06 -7.9903e-06 -0.000133417 )  
( 1.20019e-05 -1.20381e-05 -0.000137684 )  
( 9.77411e-08 -7.02733e-06 -0.00014059 )  
( 5.64167e-07 9.70673e-07 -0.000143873 )  
( 1.34351e-06 -1.14748e-05 -0.000148676 )  
( -3.37172e-06 -6.46021e-06 -0.000137985 )  
( -9.34801e-07 -4.32558e-06 -0.000128915 )  
( -2.40461e-07 -1.9559e-05 -0.000142224 )  
( -1.32963e-05 -1.11551e-05 -0.000156642 )  
( -1.52092e-06 -6.10909e-07 -0.000136162 )  
( 2.10785e-06 -5.60397e-06 -0.000127747 )  
( 2.9027e-08 -8.2719e-06 -0.000154398 )  
( 5.83821e-06 -8.1955e-06 -0.000144867 )  
( 8.74206e-06 -5.5842e-06 -0.000135349 )  
( -3.52633e-06 7.5253e-07 -0.000142783 )  
( 5.08443e-08 -7.7699e-06 -0.000144299 )  
( -3.36232e-06 -9.97205e-06 -0.000143762 )  
( 4.30924e-06 -1.60718e-05 -0.000149053 )  
( -5.89522e-06 -3.09002e-05 -0.000159852 )  
( 2.03941e-06 -5.06434e-07 -0.00012739 )  
( -2.42961e-06 -1.28819e-06 -0.00012563 )  
( 4.06517e-07 -1.23311e-05 -0.000154659 )  
( -1.27554e-05 -1.35677e-05 -0.000143143 )  
( 9.63122e-06 -3.05382e-05 -0.000158283 )  
( -8.44951e-06 -8.91965e-06 -0.000163883 )  
( 2.40099e-06 1.6151e-05 -0.000134455 )  
( -4.43626e-06 -4.88059e-06 -0.000133471 )  
( 7.46876e-06 3.28365e-06 -0.000152403 )  
( -1.71992e-05 -1.61945e-05 -0.00015187 )  
( -1.7136e-05 -2.29868e-06 -0.000147765 )  
( -1.88994e-05 -2.77448e-05 -0.000166589 )  
( -4.14457e-06 -3.03343e-05 -0.000174529 )  
( 1.14264e-05 -7.16148e-06 -0.000152627 )  
( -8.43006e-06 -5.93404e-06 -0.000157484 )  
( 2.56128e-07 -1.11784e-05 -0.000149263 )  
( -1.92883e-05 -1.11031e-05 -0.00014099 )  
( -2.60007e-07 -3.45441e-05 -0.000158003 )  
( -2.20622e-06 1.0037e-05 -0.000125704 )  
( 1.05609e-05 1.58601e-05 -0.000178022 )  
( -1.84357e-05 -6.89846e-05 -0.000158548 )  
( -3.61748e-05 -2.9624e-06 -0.000144435 )  
( 8.24698e-07 1.29851e-05 -0.000128009 )  
( -8.93216e-06 -1.76049e-05 -0.000149198 )  
( 1.78292e-05 1.06513e-05 -0.000141158 )  
( -3.74157e-06 -9.47548e-06 -0.000129312 )  
( -1.221e-05 2.28184e-06 -0.000138465 )  
( -1.27446e-05 -8.70291e-06 -0.00013924 )  
( -1.12097e-05 -2.71641e-05 -0.000147795 )  
( -1.79541e-05 -3.4397e-05 -0.000128311 )  
( 2.85904e-06 -3.34626e-05 -0.000169746 )  
( -7.64441e-06 -2.80398e-06 -0.000123033 )  
)
