FoamFile
{version 2.0; format ascii;class Cloud<passiveParticle>; location 0;object  positions;}
356
(
( -1685.58 4046.76 499.026 ) 0 
( -3954.88 2494.45 498.554 ) 0 
( -3881.8 4223.55 498.767 ) 0 
( -4880.01 4266.96 498.816 ) 0 
( -2189.98 4909.84 499.53 ) 0 
( -3490.64 1609.39 498.736 ) 0 
( -2876.62 820.923 496.63 ) 0 
( -976.899 2179.89 499.025 ) 0 
( -2363.36 3286.96 497.767 ) 0 
( -4866.48 725.654 498.915 ) 0 
( -291.05 2917.65 498.315 ) 0 
( -551.883 141.938 498.779 ) 0 
( -4953.37 2535.61 497.705 ) 0 
( -1006.24 4782.12 497.214 ) 0 
( -3419.56 3338.38 498.332 ) 0 
( -1958.63 2373.93 496.976 ) 0 
( -4417.84 3380.08 498.553 ) 0 
( -605.819 3866.47 498.801 ) 0 
( -2518.77 1656.69 906.925 ) 0 
( -1110.09 4200.2 1300.97 ) 0 
( -4489.28 1650.39 497.773 ) 0 
( -1283.68 3131.39 499.662 ) 0 
( -1862.53 2959.58 1296.73 ) 0 
( -1509.25 438.504 496.886 ) 0 
( -3866.67 683.992 499.097 ) 0 
( -1636.42 1428.96 497.928 ) 0 
( -2850.09 4159.49 498.151 ) 0 
( -2956.46 2453.62 497.242 ) 0 
( -2794.4 4750.51 1300.46 ) 0 
( -437.909 4943.09 1303.75 ) 0 
( -3089.39 295.058 1316.38 ) 0 
( -4006.72 1282.76 1290.42 ) 0 
( -4469.49 2224.39 1314.65 ) 0 
( -562.56 1140.98 498.817 ) 0 
( -3857.36 4797.32 1315.57 ) 0 
( -715.166 3283.73 1324.78 ) 0 
( -2904.05 3042.9 1300.83 ) 0 
( -1181.52 983.29 1266.52 ) 0 
( -12.0661 1401.95 1323.42 ) 0 
( -437.042 2308.84 1329.48 ) 0 
( -1678.15 1951.97 1357.68 ) 0 
( -4204.07 305.34 1360.04 ) 0 
( -4960.04 2531.82 2128.05 ) 0 
( -3471.12 2183.09 1315.81 ) 0 
( -4369.11 4531.92 2131.09 ) 0 
( -2280.3 3893.09 1288.1 ) 0 
( -30.3765 4030.43 1298.27 ) 0 
( -1524.63 3599.34 1981.25 ) 0 
( -4931.07 3110.79 1312.91 ) 0 
( -2566.52 2208.29 1737.58 ) 0 
( -1034.59 4803.08 2093.01 ) 0 
( -4855.69 4848.35 1310.71 ) 0 
( -3068.99 1243.94 1628.86 ) 0 
( -2153.98 768.877 1183.2 ) 0 
( -3930.64 3070.29 1313.93 ) 0 
( -342.573 464.458 1420.73 ) 0 
( -1798.4 1153.19 2032.7 ) 0 
( -4395.13 3955.09 1315.47 ) 0 
( -3381.21 3920 1309.47 ) 0 
( -4463.61 1622.17 2112.29 ) 0 
( -2783.55 510.835 2242.78 ) 0 
( -1055.99 490.787 2126.01 ) 0 
( -939.379 1657.87 1960.98 ) 0 
( -2372.92 3100.1 2142.91 ) 0 
( -4785.32 640.175 2100.19 ) 0 
( -3410.14 2929.75 2154.19 ) 0 
( -2060.11 4598.19 1961.7 ) 0 
( -1897.8 175.766 2563.68 ) 0 
( -26.5333 1470 2319.03 ) 0 
( -248.514 2970.63 2173 ) 0 
( -3507.34 1876.53 2266.5 ) 0 
( -3800.32 802.029 2146.68 ) 0 
( -2625.45 1464.54 2495.03 ) 0 
( -1841.02 2077.2 2410.59 ) 0 
( -4420.89 3372.74 2129.91 ) 0 
( -1159.82 2633.62 1938.09 ) 0 
( -586.749 3909.97 2117.46 ) 0 
( -1533.49 4205.24 2772.56 ) 0 
( -599.789 2196.49 2728.64 ) 0 
( -4140.06 2518.41 2698.31 ) 0 
( -2965.82 4884.47 2274.97 ) 0 
( -2490.06 740.506 3169.24 ) 0 
( -238.851 542.058 2697.18 ) 0 
( -3413.19 1134.41 3010.53 ) 0 
( -2981.18 3887.23 2223.87 ) 0 
( -1600.96 2982.92 2763.38 ) 0 
( -1510.36 403.326 3455.29 ) 0 
( -3721.64 4869.63 2988.5 ) 0 
( -3838.92 3912.08 2734.28 ) 0 
( -4921.68 3998.07 2768.95 ) 0 
( -1413.5 2167.12 3307.82 ) 0 
( -2784.97 2417.98 2741.49 ) 0 
( -1183.84 1200.1 2819.01 ) 0 
( -4285.69 1612.67 3095.25 ) 0 
( -1170.15 4167.13 3702.63 ) 0 
( -468.184 4568.86 2879.2 ) 0 
( -2417.96 4578.59 3052.2 ) 0 
( -2386.76 3580.83 3017.1 ) 0 
( -3366.01 137.785 2963.37 ) 0 
( -198.107 3951.53 3613.94 ) 0 
( -2308.49 1734.29 3402.27 ) 0 
( -3375.98 3121.8 3133.48 ) 0 
( -713.718 3394.76 2963.61 ) 0 
( -3504.74 2163.52 3382.6 ) 0 
( -3162.88 448.23 3888.87 ) 0 
( -510.23 2221.15 3727.41 ) 0 
( -1303.42 3090.36 3709.75 ) 0 
( -2218.93 2724.84 3505.41 ) 0 
( -4623.65 4720.85 3390.08 ) 0 
( -306.54 1356.78 3270.88 ) 0 
( -503.759 211.498 3600.13 ) 0 
( -1384.53 1318.12 3832.94 ) 0 
( -4203.34 662.806 3397.22 ) 0 
( -4916.01 3040.69 3049.39 ) 0 
( -2912.3 3237.56 4010.72 ) 0 
( -2837.67 2175.4 4124.79 ) 0 
( -1653.82 137.062 4406.85 ) 0 
( -1637.32 1067.18 4771.25 ) 0 
( -4206.57 2795.59 3706.84 ) 0 
( -2390.9 1039.98 4116.55 ) 0 
( -2273.42 4000.59 3915.81 ) 0 
( -1843.94 2121.16 4208.09 ) 0 
( -83.2352 3062.41 4053.63 ) 0 
( -3853.43 4515.8 3990.71 ) 0 
( -4551.51 1356.68 4024.14 ) 0 
( -501.11 1018.25 4190.61 ) 0 
( -4025.18 581.747 4376.05 ) 0 
( -2741.55 4881.6 3977.41 ) 0 
( -3551.54 1363.43 3975.61 ) 0 
( -3158.27 4042.18 3453.81 ) 0 
( -4368.43 3771.49 3568.95 ) 0 
( -673.757 3762.77 4470.31 ) 0 
( -3612.98 2725.71 4506.29 ) 0 
( -315.37 4715.99 4549.19 ) 0 
( -984.426 1804.88 4608 ) 0 
( -4816.05 4313.18 4281.79 ) 0 
( -3412.14 1812.27 4856.22 ) 0 
( -1762.81 4820.65 4172.42 ) 0 
( -3093.88 4097.02 4486.93 ) 0 
( -2424.8 1670.13 4890.42 ) 0 
( -1628.6 3969.13 4677.29 ) 0 
( -89.8465 2248.25 4632.53 ) 0 
( -2011.1 3084.31 4414.32 ) 0 
( -4993.41 3332.68 4211.96 ) 0 
( -3162.32 847.226 4803.95 ) 0 
( -920.972 2801.13 4584.75 ) 0 
( -1093.88 393.898 5269.23 ) 0 
( -1364.55 4839.87 5088.6 ) 0 
( -4807.57 173.978 4844.32 ) 0 
( -1298.59 1527.94 5590.94 ) 0 
( -2464.75 3636.11 5112.03 ) 0 
( -4515.74 2990.3 5017.97 ) 0 
( -4751.36 2275 4362.11 ) 0 
( -2732.79 2683.22 4977.27 ) 0 
( -2391.44 269.499 5067.34 ) 0 
( -4875.59 4595.81 5300.01 ) 0 
( -2368.77 4614.81 4939.17 ) 0 
( -3928.13 4544.51 4985.8 ) 0 
( -3989.16 3652.62 4485.9 ) 0 
( -459.025 1173.58 5176.98 ) 0 
( -4286.29 1348.41 4986.44 ) 0 
( -2180.05 1059.06 5642.78 ) 0 
( -2960.5 2094.18 5751.54 ) 0 
( -3414.5 3359.32 5252.69 ) 0 
( -367.375 3260.93 5277.01 ) 0 
( -3643.48 1364.76 5751.06 ) 0 
( -627.799 4221.64 5358.07 ) 0 
( -3881.28 2399.7 5511.18 ) 0 
( -246.711 434.584 5815.04 ) 0 
( -3970.89 411.709 5357.66 ) 0 
( -1795.46 2393.58 5167.87 ) 0 
( -4563.43 1926.39 6166.22 ) 0 
( -4261.45 3793.9 5553.99 ) 0 
( -2016.07 2032.48 6072.69 ) 0 
( -1286.24 719.694 6193.88 ) 0 
( -4672.19 953.342 5818.04 ) 0 
( -641.899 163.03 6716.19 ) 0 
( -3118.56 4278.94 5507.98 ) 0 
( -1782.18 4128.27 5651.64 ) 0 
( -165.29 2785.18 6132.05 ) 0 
( -2288.41 2961.54 5826.81 ) 0 
( -500.996 1335.73 6162.18 ) 0 
( -4220.64 204.381 6301.53 ) 0 
( -3063.69 550.852 5752.18 ) 0 
( -1362.92 3275.65 5344.55 ) 0 
( -856.05 2420.24 5506.35 ) 0 
( -754.793 3602.99 6131.49 ) 0 
( -4211.06 3037.2 6204.86 ) 0 
( -4852.95 2607.68 6838.27 ) 0 
( -3660.38 2230.04 6468.65 ) 0 
( -4103.85 1159.65 6613.87 ) 0 
( -200.202 2042.91 6800.3 ) 0 
( -3118.59 3368.44 6207.12 ) 0 
( -2855.19 1312.26 6365.28 ) 0 
( -1227.43 4910.72 6075.36 ) 0 
( -2389.86 431.218 6478.58 ) 0 
( -3921.6 4626.41 5989.99 ) 0 
( -235.347 4922.86 5952.09 ) 0 
( -4691.94 4628.96 6626.03 ) 0 
( -1173.32 1931.02 6600.76 ) 0 
( -1388.45 2838.16 6241.16 ) 0 
( -2449.67 4274.93 7246.62 ) 0 
( -700.382 3021.51 6941.41 ) 0 
( -4229.87 1934.2 7232.91 ) 0 
( -1423.42 4123.91 6659.81 ) 0 
( -2205.69 3501.82 6662.77 ) 0 
( -185.67 4226.01 6666.5 ) 0 
( -2720.12 2530.91 6618.12 ) 0 
( -1921.85 1279.97 6722.1 ) 0 
( -2199.92 4681.21 6369.79 ) 0 
( -3121.89 4322.21 6506.86 ) 0 
( -2424.42 769.737 7417.68 ) 0 
( -4012.1 3898.65 6668.55 ) 0 
( -3371.21 692.198 7107.69 ) 0 
( -3603.59 3058.8 7024.33 ) 0 
( -1594.21 163.513 7020.18 ) 0 
( -530.375 3820.42 7516.76 ) 0 
( -3806.14 4800.64 7056.63 ) 0 
( -4907.45 3755.89 7088.19 ) 0 
( -3263.04 1680.79 7201.4 ) 0 
( -864.357 4876.45 7005.4 ) 0 
( -1503.65 3429.85 7373.86 ) 0 
( -1496.98 1704.13 7520.34 ) 0 
( -1834.63 2534.12 7080.22 ) 0 
( -4996.28 1324.14 7424.29 ) 0 
( -3986.78 1124.23 7765.2 ) 0 
( -4512.39 475.336 7216.78 ) 0 
( -887.295 1073.12 7044.93 ) 0 
( -2694.45 3102.29 7437.98 ) 0 
( -984.309 2527.2 7760.87 ) 0 
( -3974.7 108.092 7974.57 ) 0 
( -4421.78 3060.04 7616.82 ) 0 
( -3374.14 3947.21 7435.79 ) 0 
( -2989.42 253.391 8059.34 ) 0 
( -12.0312 2656.02 7566.05 ) 0 
( -3631.79 2152.72 8001.7 ) 0 
( -4017.42 4996.15 8080.49 ) 0 
( -4808.62 4596.76 7618.2 ) 0 
( -2190.78 3723.63 8037.81 ) 0 
( -2439.78 1999.76 7668.74 ) 0 
( -3080.7 4844.13 7770.64 ) 0 
( -72.8829 1379.24 7536.78 ) 0 
( -902.511 295.547 7728.87 ) 0 
( -4872.82 3762.91 8165.25 ) 0 
( -1530.58 4434.1 7604.06 ) 0 
( -299.931 2013.27 8275.56 ) 0 
( -2395.19 4555.24 8553.07 ) 0 
( -1220.3 3760.2 8273.45 ) 0 
( -4404.87 2893.47 8602.41 ) 0 
( -1439.84 4916.66 8474.6 ) 0 
( -2992.06 1270.17 8070.67 ) 0 
( -2813.97 2550.16 8413.87 ) 0 
( -607.768 4713.03 7959.49 ) 0 
( -779.707 4341.43 8956.73 ) 0 
( -4816.42 2219.45 7990.06 ) 0 
( -3913.37 4021.63 8273.88 ) 0 
( -876.979 1210.8 8129.32 ) 0 
( -3510.29 3144.62 8015.58 ) 0 
( -429.519 3152.25 8326.03 ) 0 
( -1910.24 2764.94 8048.74 ) 0 
( -1860.13 173.894 7987.93 ) 0 
( -3610.57 754.05 8661 ) 0 
( -398.752 2542.9 9117.66 ) 0 
( -3007.54 3768.18 8612.67 ) 0 
( -3270.23 4997.99 8743.77 ) 0 
( -2006.16 1200.43 8216.38 ) 0 
( -1154.7 443.407 8706.13 ) 0 
( -1273.39 2911.92 8804.39 ) 0 
( -3493.13 2986.12 9002.49 ) 0 
( -2382.6 91.0538 8836.02 ) 0 
( -1415.41 1978.7 8477.13 ) 0 
( -4183.08 1597.2 8622.73 ) 0 
( -2225.64 3202.35 8889.56 ) 0 
( -180.626 789.727 8710.19 ) 0 
( -331.965 51.4523 9375.15 ) 0 
( -2635.56 1047.51 8977.37 ) 0 
( -3148.44 322.642 9434.97 ) 0 
( -4187.27 3684.07 9173.75 ) 0 
( -3263.48 1827.82 8937.21 ) 0 
( -4063.06 1271.09 9559.59 ) 0 
( -704.227 3453.14 9421.63 ) 0 
( -4078.76 2260.78 9362.47 ) 0 
( -1648.31 1191.6 9148.86 ) 0 
( -721.429 1554.72 9057.44 ) 0 
( -4189.55 4669.15 9008.37 ) 0 
( -2260.25 1972.51 9011.04 ) 0 
( -4579.28 722.398 8901.04 ) 0 
( -1724.79 4043.84 9087.94 ) 0 
( -1393.22 2171.7 9465.11 ) 0 
( -2739.9 3713.89 9575.96 ) 0 
( -1649.81 4972.58 9450.05 ) 0 
( -2169.14 542.734 9703.12 ) 0 
( -3559.64 3285.83 9953.57 ) 0 
( -2730.45 2661.56 9561.44 ) 0 
( -3115.47 1423.66 9838.47 ) 0 
( -2675.77 4707.71 9500.68 ) 0 
( -178.075 4237.14 9748.03 ) 0 
( -4774.96 1899.66 9984.08 ) 0 
( -905.779 804.627 9694.12 ) 0 
( -135.209 2138.52 9992.85 ) 0 
( -4667.22 4417.72 9849.61 ) 0 
( -3460.68 2309.97 10146.4 ) 0 
( -3637.74 668.168 10234.8 ) 0 
( -3559.76 4276.32 9677.51 ) 0 
( -981.25 1654.46 10214.2 ) 0 
( -4439.14 2834.21 10097.5 ) 0 
( -4002.06 1555.3 10516.1 ) 0 
( -1292.66 89.9937 10275.9 ) 0 
( -300.474 30.9208 10377.2 ) 0 
( -922.294 2735.68 10142.2 ) 0 
( -1165.63 4220.76 9896.64 ) 0 
( -1651.07 3261.53 9705.07 ) 0 
( -4623.55 622.481 10073.7 ) 0 
( -2133.9 1590.6 9926 ) 0 
( -175.885 1021.68 10341.5 ) 0 
( -2124.29 4221.54 10178 ) 0 
( -1338.52 3543.72 10611.5 ) 0 
( -2268.01 3833.73 11088 ) 0 
( -2666.38 1998.35 10667.3 ) 0 
( -1504.34 1912.19 11025.6 ) 0 
( -358.845 3514.65 10414.6 ) 0 
( -2081.75 126.159 10888 ) 0 
( -2689.96 826.369 10516.5 ) 0 
( -1878.07 2484.86 10291.7 ) 0 
( -2589.39 3177.68 10405.6 ) 0 
( -558.286 4560.03 10614.2 ) 0 
( -3937.43 4737.28 10479.8 ) 0 
( -4273.74 3747.97 10478.8 ) 0 
( -1652.41 980.168 10553.9 ) 0 
( -3052.74 4060.44 10511.2 ) 0 
( -3429.35 3241.62 10943.7 ) 0 
( -3256.59 1352.34 11150.3 ) 0 
( -2499.26 2750.75 11304.8 ) 0 
( -2826.93 515.929 11489.9 ) 0 
( -825.927 622.658 10987.9 ) 0 
( -2265.27 1315.31 11277.7 ) 0 
( -4796.38 1805.36 11069 ) 0 
( -540.391 2777.41 11065 ) 0 
( -1428.25 4370.82 11165.7 ) 0 
( -4051.79 2459.58 10939.3 ) 0 
( -343.53 1777.52 10974 ) 0 
( -1506.2 2865.41 11326.2 ) 0 
( -4867.62 3103.13 10959.4 ) 0 
( -4938.87 503.23 11041.6 ) 0 
( -3318.12 2250.48 11585.3 ) 0 
( -857.379 2128.6 11756.4 ) 0 
( -4000.98 707.487 11321 ) 0 
( -1655.23 3693.92 11865.6 ) 0 
( -253.772 1070.17 11674.8 ) 0 
( -3190.64 4761.88 11209.9 ) 0 
( -2863.36 1496.01 12058.2 ) 0 
( -2014.62 2082.11 11868.3 ) 0 
( -4169.88 3466.12 11576.6 ) 0 
( -3095.76 3868.07 11647.7 ) 0 
( -584.845 3858.18 11325.8 ) 0 
( -4461.23 4363.01 11244.5 ) 0 
)
