/*--------------------------------*- C++ -*----------------------------------*\
| =========                 |                                                 |
| \\      /  F ield         | OpenFOAM: The Open Source CFD Toolbox           |
|  \\    /   O peration     | Version:  5.x                                   |
|   \\  /    A nd           | Web:      www.OpenFOAM.org                      |
|    \\/     M anipulation  |                                                 |
\*---------------------------------------------------------------------------*/
FoamFile
{
    version     2.0;
    format      ascii;
    class       volScalarField;
    location    "0.04";
    object      p;
}
// * * * * * * * * * * * * * * * * * * * * * * * * * * * * * * * * * * * * * //

dimensions      [0 2 -2 0 0 0 0];

internalField   nonuniform List<scalar> 
2250
(
-4.58382e-10
-4.66544e-10
-4.53794e-10
-4.26538e-10
-3.90998e-10
-4.83605e-10
-4.89137e-10
-4.69249e-10
-4.32815e-10
-3.83658e-10
-5.11165e-10
-5.13888e-10
-4.85367e-10
-4.37919e-10
-3.75838e-10
-5.48992e-10
-5.4843e-10
-5.09664e-10
-4.52798e-10
-3.92285e-10
-6.12152e-10
-6.01208e-10
-5.4596e-10
-4.78278e-10
-4.42232e-10
-1.33739e-09
-1.35369e-09
-1.31634e-09
-1.24541e-09
-1.15376e-09
-1.40218e-09
-1.40954e-09
-1.35522e-09
-1.26221e-09
-1.13897e-09
-1.47598e-09
-1.47606e-09
-1.39966e-09
-1.27787e-09
-1.12313e-09
-1.58236e-09
-1.57273e-09
-1.46773e-09
-1.31547e-09
-1.14973e-09
-1.75807e-09
-1.71713e-09
-1.56311e-09
-1.36371e-09
-1.20239e-09
-2.09086e-09
-2.10594e-09
-2.05431e-09
-1.96681e-09
-1.86357e-09
-2.17744e-09
-2.18076e-09
-2.10969e-09
-1.99676e-09
-1.85903e-09
-2.28145e-09
-2.27439e-09
-2.17452e-09
-2.02434e-09
-1.84609e-09
-2.43569e-09
-2.41345e-09
-2.27374e-09
-2.07286e-09
-1.83962e-09
-2.68355e-09
-2.61542e-09
-2.40373e-09
-2.10064e-09
-1.73326e-09
-2.62741e-09
-2.63941e-09
-2.5879e-09
-2.5077e-09
-2.43263e-09
-2.71847e-09
-2.71954e-09
-2.65141e-09
-2.55059e-09
-2.44779e-09
-2.83081e-09
-2.81907e-09
-2.72382e-09
-2.59401e-09
-2.46717e-09
-2.99781e-09
-2.96843e-09
-2.8392e-09
-2.66785e-09
-2.48302e-09
-3.25149e-09
-3.18046e-09
-2.99303e-09
-2.72272e-09
-2.33099e-09
-2.91171e-09
-2.91732e-09
-2.86708e-09
-2.78808e-09
-2.72108e-09
-2.9913e-09
-2.9866e-09
-2.92233e-09
-2.82853e-09
-2.74452e-09
-3.09005e-09
-3.07039e-09
-2.98641e-09
-2.8836e-09
-2.81205e-09
-3.23572e-09
-3.20077e-09
-3.09907e-09
-2.98736e-09
-2.91163e-09
-3.44177e-09
-3.38676e-09
-3.26039e-09
-3.11115e-09
-2.9031e-09
-2.95283e-09
-2.94445e-09
-2.88606e-09
-2.78954e-09
-2.68817e-09
-3.00858e-09
-2.98954e-09
-2.91889e-09
-2.81507e-09
-2.71576e-09
-3.08326e-09
-3.05152e-09
-2.97246e-09
-2.88053e-09
-2.82139e-09
-3.20039e-09
-3.16066e-09
-3.07438e-09
-2.99104e-09
-2.95645e-09
-3.36962e-09
-3.32338e-09
-3.21949e-09
-3.1234e-09
-3.03605e-09
-2.79742e-09
-2.76996e-09
-2.70366e-09
-2.5985e-09
-2.47406e-09
-2.82376e-09
-2.78782e-09
-2.71487e-09
-2.61696e-09
-2.52539e-09
-2.87888e-09
-2.83887e-09
-2.77149e-09
-2.70244e-09
-2.66402e-09
-2.98162e-09
-2.94124e-09
-2.86996e-09
-2.80851e-09
-2.78437e-09
-3.14717e-09
-3.09521e-09
-2.99548e-09
-2.90663e-09
-2.83856e-09
-2.51908e-09
-2.48117e-09
-2.43403e-09
-2.37103e-09
-2.29813e-09
-2.51939e-09
-2.48052e-09
-2.43838e-09
-2.40044e-09
-2.38725e-09
-2.56583e-09
-2.53405e-09
-2.51054e-09
-2.51128e-09
-2.55897e-09
-2.66172e-09
-2.63461e-09
-2.61407e-09
-2.62799e-09
-2.70412e-09
-2.81155e-09
-2.77216e-09
-2.73815e-09
-2.74986e-09
-2.85093e-09
-2.19996e-09
-2.17821e-09
-2.19841e-09
-2.24464e-09
-2.30461e-09
-2.18575e-09
-2.1742e-09
-2.21195e-09
-2.29177e-09
-2.41214e-09
-2.23159e-09
-2.23594e-09
-2.29981e-09
-2.41466e-09
-2.59002e-09
-2.31637e-09
-2.33119e-09
-2.40946e-09
-2.54841e-09
-2.79657e-09
-2.4189e-09
-2.44105e-09
-2.54282e-09
-2.74625e-09
-3.19148e-09
-1.90501e-09
-1.93383e-09
-2.06543e-09
-2.26848e-09
-2.50868e-09
-1.88943e-09
-1.93755e-09
-2.09284e-09
-2.32294e-09
-2.59788e-09
-1.93503e-09
-2.00359e-09
-2.1851e-09
-2.4345e-09
-2.73639e-09
-2.00563e-09
-2.09252e-09
-2.29625e-09
-2.57071e-09
-2.96832e-09
-2.06555e-09
-2.18104e-09
-2.43083e-09
-2.81485e-09
-3.5779e-09
-1.65562e-09
-1.75936e-09
-2.02353e-09
-2.39996e-09
-2.83796e-09
-1.64177e-09
-1.76687e-09
-2.05187e-09
-2.4403e-09
-2.87957e-09
-1.67517e-09
-1.82012e-09
-2.12636e-09
-2.5193e-09
-2.95083e-09
-1.72283e-09
-1.89055e-09
-2.22313e-09
-2.63906e-09
-3.15107e-09
-1.75181e-09
-1.95337e-09
-2.3394e-09
-2.87078e-09
-3.80936e-09
-1.41874e-09
-1.60357e-09
-2.00495e-09
-2.55819e-09
-3.1999e-09
-1.39254e-09
-1.59387e-09
-2.00745e-09
-2.55983e-09
-3.17898e-09
-1.38866e-09
-1.605e-09
-2.03561e-09
-2.59044e-09
-3.18495e-09
-1.38402e-09
-1.62328e-09
-2.08838e-09
-2.67231e-09
-3.31635e-09
-1.35141e-09
-1.62904e-09
-2.1604e-09
-2.84308e-09
-3.83178e-09
-1.1246e-09
-1.39007e-09
-1.94048e-09
-2.69307e-09
-3.56081e-09
-1.06261e-09
-1.33808e-09
-1.89335e-09
-2.64212e-09
-3.48623e-09
-9.93794e-10
-1.28144e-09
-1.85541e-09
-2.61592e-09
-3.4482e-09
-9.01414e-10
-1.21546e-09
-1.83343e-09
-2.62897e-09
-3.49144e-09
-7.68559e-10
-1.13646e-09
-1.82897e-09
-2.69518e-09
-3.75701e-09
-7.00873e-10
-1.06234e-09
-1.8043e-09
-2.82551e-09
-4.00299e-09
-5.87872e-10
-9.57969e-10
-1.7045e-09
-2.7287e-09
-3.90323e-09
-4.38702e-10
-8.25315e-10
-1.59361e-09
-2.63572e-09
-3.82407e-09
-2.42366e-10
-6.60253e-10
-1.46723e-09
-2.53456e-09
-3.74516e-09
-6.77746e-12
-4.77625e-10
-1.33264e-09
-2.43394e-09
-3.74114e-09
-8.6037e-11
-5.90507e-10
-1.60679e-09
-3.01687e-09
-4.66335e-09
7.55214e-11
-4.41949e-10
-1.46661e-09
-2.88699e-09
-4.55095e-09
3.10936e-10
-2.27391e-10
-1.26852e-09
-2.70019e-09
-4.38119e-09
6.20949e-10
5.88728e-11
-9.98039e-10
-2.43204e-09
-4.10118e-09
9.65724e-10
3.89723e-10
-6.59537e-10
-2.07402e-09
-3.72248e-09
7.99831e-10
7.77227e-11
-1.32723e-09
-3.27891e-09
-5.58821e-09
1.00289e-09
2.67093e-10
-1.14615e-09
-3.10998e-09
-5.44336e-09
1.34694e-09
5.97032e-10
-8.22759e-10
-2.792e-09
-5.12521e-09
1.81374e-09
1.0588e-09
-3.63258e-10
-2.3326e-09
-4.61348e-09
2.33807e-09
1.60963e-09
2.16353e-10
-1.70194e-09
-3.81675e-09
2.10804e-09
1.0847e-09
-8.46008e-10
-3.52033e-09
-6.70071e-09
2.36816e-09
1.34126e-09
-5.94505e-10
-3.28155e-09
-6.48566e-09
2.8796e-09
1.85124e-09
-9.19989e-11
-2.79699e-09
-6.00164e-09
3.58933e-09
2.56415e-09
6.00986e-10
-2.14454e-09
-5.32999e-09
4.41355e-09
3.40148e-09
1.41168e-09
-1.33439e-09
-4.34485e-09
4.0966e-09
2.6865e-09
5.64654e-11
-3.57994e-09
-7.90259e-09
4.46485e-09
3.06341e-09
4.26315e-10
-3.22447e-09
-7.56104e-09
5.22883e-09
3.82792e-09
1.16803e-09
-2.52347e-09
-6.88465e-09
6.28336e-09
4.87154e-09
2.16218e-09
-1.61443e-09
-6.04491e-09
7.51813e-09
6.06139e-09
3.25873e-09
-5.96856e-10
-4.98434e-09
7.11995e-09
5.21618e-09
1.64977e-09
-3.28039e-09
-9.13029e-09
7.67013e-09
5.77576e-09
2.19299e-09
-2.75278e-09
-8.59461e-09
8.78382e-09
6.87662e-09
3.25252e-09
-1.75058e-09
-7.64217e-09
1.02957e-08
8.35433e-09
4.66898e-09
-4.24983e-10
-6.44172e-09
1.20439e-08
1.00205e-08
6.24699e-09
1.06836e-09
-5.02082e-09
1.1589e-08
9.0349e-09
4.2086e-09
-2.46366e-09
-1.03605e-08
1.24033e-08
9.84721e-09
4.99134e-09
-1.70546e-09
-9.59139e-09
1.39891e-08
1.14007e-08
6.48753e-09
-2.82506e-10
-8.24823e-09
1.61239e-08
1.34853e-08
8.51035e-09
1.6595e-09
-6.43806e-09
1.85656e-08
1.58611e-08
1.08476e-08
3.95404e-09
-4.24754e-09
1.79527e-08
1.45231e-08
8.00173e-09
-1.01499e-09
-1.166e-08
1.91284e-08
1.56808e-08
9.11235e-09
4.06599e-11
-1.06517e-08
2.13663e-08
1.78675e-08
1.12202e-08
2.03857e-09
-8.79339e-09
2.43874e-08
2.08282e-08
1.40972e-08
4.80465e-09
-6.15512e-09
2.78479e-08
2.42556e-08
1.74888e-08
8.14156e-09
-2.8583e-09
2.67323e-08
2.21221e-08
1.33287e-08
1.16483e-09
-1.31914e-08
2.84079e-08
2.37627e-08
1.48974e-08
2.62722e-09
-1.18833e-08
3.15725e-08
2.6856e-08
1.78698e-08
5.41815e-09
-9.33718e-09
3.58683e-08
3.10694e-08
2.19346e-08
9.2667e-09
-5.69071e-09
4.08262e-08
3.59793e-08
2.67152e-08
1.38424e-08
-1.19204e-09
3.85916e-08
3.2405e-08
2.05861e-08
4.22109e-09
-1.51343e-08
4.09824e-08
3.47417e-08
2.28147e-08
6.28859e-09
-1.33032e-08
4.5488e-08
3.91439e-08
2.70226e-08
1.02148e-08
-9.75559e-09
5.16119e-08
4.51349e-08
3.27556e-08
1.55606e-08
-4.83836e-09
5.87084e-08
5.20893e-08
3.94172e-08
2.1747e-08
8.99783e-10
5.44029e-08
4.61351e-08
3.03062e-08
8.35262e-09
-1.76883e-08
5.78401e-08
4.94892e-08
3.34961e-08
1.1325e-08
-1.49878e-08
6.42943e-08
5.57808e-08
3.94807e-08
1.68993e-08
-9.92616e-09
7.30446e-08
6.43112e-08
4.75939e-08
2.44154e-08
-3.13564e-09
8.31611e-08
7.41514e-08
5.69444e-08
3.30095e-08
4.52726e-09
7.5267e-08
6.42716e-08
4.31465e-08
1.377e-08
-2.11941e-08
8.02384e-08
6.91065e-08
4.77287e-08
1.80388e-08
-1.72766e-08
8.95216e-08
7.81289e-08
5.62759e-08
2.59746e-08
-1.00339e-08
1.02067e-07
9.0325e-08
6.78128e-08
3.66243e-08
-4.26674e-10
1.16502e-07
1.04347e-07
8.10641e-08
4.87798e-08
1.03746e-08
1.02479e-07
8.79313e-08
5.98659e-08
2.06802e-08
-2.61867e-08
1.09689e-07
9.49175e-08
6.64621e-08
2.67792e-08
-2.06459e-08
1.23094e-07
1.07913e-07
7.87237e-08
3.80808e-08
-1.03918e-08
1.41155e-07
1.25423e-07
9.51967e-08
5.31882e-08
3.17536e-09
1.6184e-07
1.45484e-07
1.14021e-07
7.03291e-08
1.83402e-08
1.37456e-07
1.18358e-07
8.13399e-08
2.93347e-08
-3.33158e-08
1.47948e-07
1.28498e-07
9.08724e-08
3.80652e-08
-2.54851e-08
1.67422e-07
1.47331e-07
1.0855e-07
5.42107e-08
-1.10268e-08
1.9355e-07
1.72563e-07
1.32159e-07
7.56734e-08
8.03852e-09
2.23305e-07
2.01266e-07
1.58889e-07
9.9786e-08
2.91639e-08
1.8159e-07
1.56859e-07
1.08575e-07
4.01079e-08
-4.3249e-08
1.96967e-07
1.71688e-07
1.22435e-07
5.26943e-08
-3.20591e-08
2.25492e-07
1.99183e-07
1.48089e-07
7.59118e-08
-1.1537e-08
2.63525e-07
2.3576e-07
1.82097e-07
1.06524e-07
1.53103e-08
3.06517e-07
2.76975e-07
2.20171e-07
1.40512e-07
4.46978e-08
2.35845e-07
2.0454e-07
1.4258e-07
5.35286e-08
-5.65931e-08
2.58599e-07
2.26406e-07
1.62913e-07
7.18462e-08
-4.04233e-08
3.00807e-07
2.66942e-07
2.00513e-07
1.0557e-07
-1.09275e-08
3.56642e-07
3.20424e-07
2.49857e-07
1.49506e-07
2.71009e-08
4.19186e-07
3.80076e-07
3.0445e-07
1.97596e-07
6.79839e-08
2.99795e-07
2.61653e-07
1.84012e-07
7.02496e-08
-7.37296e-08
3.33798e-07
2.94165e-07
2.14171e-07
9.7172e-08
-5.0151e-08
3.97055e-07
3.54688e-07
2.7004e-07
1.46886e-07
-7.04189e-09
4.79852e-07
4.33589e-07
3.42291e-07
2.10487e-07
4.73393e-08
5.71737e-07
5.20738e-07
4.21223e-07
2.79024e-07
1.04717e-07
3.69658e-07
3.26508e-07
2.3245e-07
9.09893e-08
-9.44108e-08
4.20877e-07
3.75027e-07
2.7759e-07
1.30777e-07
-5.98724e-08
5.17265e-07
4.66827e-07
3.62209e-07
2.05618e-07
4.56138e-09
6.41202e-07
5.84039e-07
4.69011e-07
2.98474e-07
8.30663e-08
7.78115e-07
7.12851e-07
5.84337e-07
3.97265e-07
1.64523e-07
4.34494e-07
3.93938e-07
2.84831e-07
1.16574e-07
-1.16522e-07
5.11714e-07
4.65281e-07
3.52562e-07
1.74664e-07
-6.62605e-08
6.62027e-07
6.07824e-07
4.84577e-07
2.91127e-07
3.31921e-08
8.48444e-07
7.81824e-07
6.43465e-07
4.26865e-07
1.46785e-07
1.05722e-06
9.75726e-07
8.14611e-07
5.72077e-07
2.64066e-07
4.69013e-07
4.54917e-07
3.31862e-07
1.48896e-07
-1.30961e-07
5.83194e-07
5.51957e-07
4.32464e-07
2.27347e-07
-6.12362e-08
8.2688e-07
7.83688e-07
6.49303e-07
4.2071e-07
9.95346e-08
1.10428e-06
1.03482e-06
8.84966e-07
6.13645e-07
2.61372e-07
1.43885e-06
1.33815e-06
1.14573e-06
8.35977e-07
4.34408e-07
4.21187e-07
5.06607e-07
3.47043e-07
1.96735e-07
-1.03138e-07
5.77206e-07
5.96577e-07
4.93091e-07
2.66103e-07
-2.14924e-08
1.00206e-06
1.01516e-06
8.82119e-07
6.35749e-07
2.53047e-07
1.38825e-06
1.32995e-06
1.22454e-06
8.68403e-07
4.72612e-07
1.98969e-06
1.85324e-06
1.64125e-06
1.2444e-06
7.31926e-07
1.8544e-07
5.59628e-07
2.66759e-07
2.86997e-07
4.56631e-08
3.63065e-07
5.04056e-07
4.81864e-07
1.94395e-07
1.06473e-07
1.18959e-06
1.40021e-06
1.2412e-06
1.06307e-06
5.95022e-07
1.60486e-06
1.5556e-06
1.73558e-06
1.12107e-06
8.86539e-07
2.83898e-06
2.63274e-06
2.44679e-06
1.89805e-06
1.25629e-06
-4.34678e-07
6.34015e-07
-1.6412e-08
4.96092e-07
4.80699e-07
-2.96953e-07
1.22778e-07
3.92392e-07
-1.97319e-07
3.98469e-07
1.37629e-06
2.16059e-06
1.79788e-06
2.03065e-06
1.26265e-06
1.62467e-06
1.46868e-06
2.62745e-06
1.23504e-06
1.70238e-06
4.11167e-06
3.85929e-06
3.85001e-06
3.01276e-06
2.16735e-06
-1.83702e-06
1.04202e-06
-6.17696e-07
1.04226e-06
1.95379e-06
-1.82763e-06
-6.1905e-07
3.60998e-07
-1.12477e-06
8.57161e-07
1.33687e-06
3.63501e-06
3.03572e-06
4.43129e-06
2.56362e-06
1.37535e-06
9.6175e-07
4.62032e-06
1.22244e-06
3.1202e-06
5.81921e-06
5.63328e-06
6.30452e-06
4.92667e-06
3.5981e-06
-8.02038e-06
-7.0617e-06
-7.62967e-06
-4.42843e-06
-4.50544e-06
-7.05141e-06
-7.36386e-06
-5.7505e-06
-5.04912e-06
-1.45608e-06
-3.58429e-06
-2.21042e-06
-4.15838e-06
-4.91307e-07
-2.75607e-06
-3.83195e-06
-3.13023e-06
1.28102e-07
-1.01217e-06
2.9252e-06
6.05061e-06
4.49636e-06
4.41143e-06
4.25402e-06
2.6281e-06
-3.43267e-06
1.48146e-05
1.44574e-06
1.38051e-05
2.15951e-05
-4.72015e-06
1.39503e-06
7.59e-06
-2.20531e-06
5.67716e-06
3.51797e-06
2.01534e-05
1.59766e-05
3.22307e-05
1.73083e-05
6.32978e-06
2.2273e-06
2.50383e-05
6.63674e-06
1.41281e-05
1.58429e-05
1.92389e-05
2.54497e-05
2.32197e-05
1.51526e-05
-2.91124e-05
-3.83727e-05
-2.24567e-05
-2.77062e-05
-2.20097e-05
-2.09244e-05
-3.21948e-05
-2.37335e-05
-1.53852e-05
6.8336e-06
-2.07132e-05
-2.7354e-05
-1.65229e-05
-2.12022e-05
-9.65803e-06
-2.69579e-05
-1.28277e-05
-1.41022e-05
-7.00704e-06
1.70152e-05
7.51921e-06
8.77086e-06
1.04645e-05
1.17201e-05
1.47153e-05
-4.24514e-05
2.73565e-05
-3.30093e-05
-5.8584e-06
4.90446e-05
-2.11034e-05
-3.79873e-05
-5.79685e-06
-6.0691e-05
-0.000118729
-5.42028e-05
2.39447e-05
3.74929e-05
0.000115897
1.63984e-05
-1.92718e-05
-3.55468e-05
6.09633e-05
-2.10278e-05
-7.99734e-05
-1.18781e-05
1.96668e-05
5.50893e-05
1.95382e-05
-2.81756e-05
0.000723969
0.00106242
0.000983927
0.000524978
0.000828626
0.00138697
0.000840252
0.000784923
0.000537693
0.00039202
0.00126283
0.00068848
0.000913981
0.000775886
0.000618527
0.000576428
0.000467135
0.00104443
0.000701032
0.000198805
0.000231056
0.000706488
0.000727162
0.000396426
0.00012069
0.00205813
0.00159242
0.00178784
0.00166683
0.000947534
0.00184391
0.00187867
0.00152695
0.00157298
0.00110187
0.00184278
0.00155922
0.00141372
0.00187671
0.00137084
0.00142801
0.0014381
0.00133073
0.00157791
0.00112371
0.00148618
0.0016267
0.0012511
0.00177696
0.00153428
0.00206411
0.00193213
0.00205894
0.00210563
0.00202751
0.0022338
0.00218946
0.00219222
0.00216285
0.00167724
0.00221021
0.00210314
0.00197031
0.0020458
0.00204516
0.00217156
0.00233692
0.00186418
0.00182122
0.00190528
0.0022416
0.00218152
0.00204222
0.00203011
0.00216502
0.00215657
0.00219573
0.00254271
0.00247401
0.00280477
0.00259737
0.0024892
0.00265368
0.00291308
0.0034577
0.0023253
0.00238243
0.0023451
0.00225332
0.00246309
0.0035289
0.00266701
0.00254933
0.00262355
0.00261097
0.00249948
0.00269267
0.00236469
0.00271586
0.00290064
0.00394085
0.00320738
0.00372037
0.0031912
0.00364834
0.002963
0.00300383
0.00324285
0.00334021
0.00339035
0.00308882
0.00325722
0.00268461
0.00314948
0.00327941
0.00360534
0.00350615
0.00291234
0.00344637
0.00302957
0.00311477
0.00295098
0.00298643
0.00338464
0.00314591
0.00472633
0.00475708
0.00407321
0.00436308
0.0042854
0.00411674
0.00360912
0.00400634
0.0037909
0.00368441
0.00379091
0.00375737
0.00444717
0.00388322
0.00422178
0.00359432
0.00359538
0.00360136
0.00408001
0.00378514
0.00337197
0.00331962
0.00404851
0.00397597
0.00350788
0.00527304
0.00524891
0.00423173
0.00472053
0.00455351
0.00483793
0.00474811
0.00459597
0.00450588
0.00461681
0.00453859
0.00441372
0.00455616
0.00464883
0.00477664
0.00476044
0.00415091
0.00445994
0.00443685
0.00469051
0.00443888
0.00470337
0.00445769
0.0044868
0.00447193
0.00563679
0.00571841
0.00550392
0.00518732
0.00588473
0.00534145
0.00565247
0.00537511
0.0051021
0.00595428
0.00502393
0.00509723
0.00496344
0.00516908
0.00503748
0.00509039
0.0051216
0.00499166
0.00497669
0.00507634
0.0049017
0.00485876
0.00464936
0.00451746
0.0049179
0.00567666
0.0059153
0.00603439
0.00590405
0.00599839
0.00581425
0.00591758
0.00618209
0.0057256
0.00619644
0.00573699
0.00570421
0.00560009
0.00551518
0.00568146
0.00508194
0.00572549
0.00562381
0.00554439
0.00493627
0.00522156
0.00538076
0.00541078
0.00505557
0.00530666
0.0063328
0.00628893
0.00624131
0.00624208
0.00620641
0.00642248
0.00628304
0.00622287
0.00615259
0.00625228
0.0062466
0.00627577
0.00623876
0.00580531
0.00608608
0.00617425
0.00628042
0.00609922
0.00600969
0.00606494
0.006223
0.00618846
0.00618876
0.00597319
0.00600079
0.00640675
0.00640831
0.00635373
0.00623136
0.00634646
0.00639876
0.00641062
0.00628182
0.00633507
0.00631068
0.00636297
0.00640695
0.00640445
0.00631216
0.00635881
0.00631733
0.00638524
0.00635594
0.00632013
0.00632948
0.00636797
0.00636596
0.0063674
0.00630713
0.00628804
0.00634351
0.00633211
0.00633249
0.00629743
0.00629298
0.00635104
0.00633955
0.0063276
0.00632146
0.0063192
0.00635345
0.00634538
0.00634211
0.00633348
0.00632617
0.00633314
0.00633988
0.00634984
0.00633636
0.00632818
0.00634863
0.00635163
0.00634519
0.00633605
0.00632916
0.00634824
0.00634183
0.00633251
0.0063253
0.00633006
0.0063452
0.00634157
0.00632117
0.00632861
0.00632552
0.00634377
0.00634437
0.00633959
0.00632718
0.00633362
0.00633195
0.00633573
0.00633299
0.00632635
0.00633451
0.00634644
0.00634724
0.00634359
0.00633123
0.00633127
0.00634185
0.00633926
0.00633732
0.00633423
0.00633401
0.0063422
0.00634012
0.00633682
0.00633621
0.006335
0.00634396
0.00634246
0.00634128
0.00633711
0.0063388
0.00633972
0.0063383
0.00633954
0.00633645
0.00633867
0.00634638
0.00634553
0.00634325
0.00633935
0.00633903
0.00634154
0.00634021
0.00633939
0.00633827
0.00633862
0.00634149
0.00634043
0.00633895
0.00633878
0.00633897
0.00634295
0.00634203
0.00634144
0.00633931
0.00634058
0.00634043
0.00633979
0.00634022
0.00633872
0.00634071
0.00634492
0.00634431
0.00634315
0.00634114
0.0063413
0.00634172
0.00634112
0.00634086
0.0063405
0.00634096
0.00634172
0.00634125
0.00634084
0.00634072
0.0063412
0.00634274
0.00634223
0.00634199
0.00634113
0.00634189
0.00634151
0.00634116
0.00634148
0.00634091
0.00634208
0.00634424
0.00634384
0.00634328
0.0063424
0.0063426
0.00634215
0.00634192
0.00634187
0.00634185
0.00634227
0.00634222
0.00634203
0.00634197
0.00634198
0.00634242
0.00634283
0.00634259
0.00634251
0.00634225
0.00634274
0.00634233
0.00634219
0.00634242
0.00634228
0.00634294
0.00634393
0.00634371
0.00634346
0.00634312
0.00634332
0.00634263
0.00634256
0.0063426
0.0063427
0.00634304
0.00634272
0.00634266
0.0063427
0.00634279
0.00634313
0.00634305
0.00634297
0.00634297
0.00634297
0.0063433
0.00634295
0.00634292
0.00634306
0.00634311
0.00634347
0.00634383
0.00634374
0.00634365
0.00634357
0.00634374
0.00634306
0.00634306
0.00634312
0.00634325
0.00634351
0.00634314
0.00634314
0.0063432
0.00634332
0.00634357
0.00634332
0.00634331
0.00634335
0.00634344
0.00634367
0.0063434
0.00634341
0.0063435
0.00634359
0.00634381
0.00634386
0.00634383
0.00634382
0.00634385
0.006344
0.00634341
0.00634343
0.0063435
0.00634362
0.00634381
0.00634347
0.00634349
0.00634355
0.00634366
0.00634385
0.00634358
0.0063436
0.00634365
0.00634375
0.00634393
0.0063437
0.00634372
0.00634378
0.00634388
0.00634403
0.00634394
0.00634395
0.00634398
0.00634404
0.00634417
0.00634368
0.00634371
0.00634377
0.00634387
0.00634401
0.00634372
0.00634375
0.00634381
0.0063439
0.00634404
0.0063438
0.00634382
0.00634388
0.00634397
0.0063441
0.00634391
0.00634393
0.00634398
0.00634406
0.00634418
0.00634405
0.00634407
0.00634411
0.00634417
0.00634428
0.00634389
0.00634391
0.00634396
0.00634404
0.00634414
0.00634392
0.00634394
0.00634399
0.00634406
0.00634417
0.00634398
0.006344
0.00634404
0.00634411
0.00634421
0.00634405
0.00634407
0.00634411
0.00634418
0.00634427
0.00634415
0.00634417
0.0063442
0.00634426
0.00634434
0.00634404
0.00634406
0.0063441
0.00634416
0.00634424
0.00634406
0.00634408
0.00634412
0.00634418
0.00634425
0.00634411
0.00634412
0.00634416
0.00634421
0.00634429
0.00634416
0.00634418
0.00634421
0.00634426
0.00634433
0.00634423
0.00634425
0.00634428
0.00634432
0.00634438
0.00634416
0.00634417
0.0063442
0.00634425
0.0063443
0.00634417
0.00634419
0.00634422
0.00634426
0.00634431
0.0063442
0.00634422
0.00634424
0.00634429
0.00634434
0.00634424
0.00634426
0.00634428
0.00634432
0.00634437
0.00634429
0.0063443
0.00634433
0.00634436
0.00634441
0.00634424
0.00634425
0.00634427
0.00634431
0.00634435
0.00634425
0.00634426
0.00634429
0.00634432
0.00634436
0.00634427
0.00634428
0.00634431
0.00634434
0.00634437
0.0063443
0.00634431
0.00634433
0.00634436
0.0063444
0.00634434
0.00634435
0.00634437
0.00634439
0.00634443
0.0063443
0.00634431
0.00634433
0.00634435
0.00634438
0.00634431
0.00634432
0.00634433
0.00634436
0.00634439
0.00634433
0.00634433
0.00634435
0.00634437
0.0063444
0.00634435
0.00634435
0.00634437
0.00634439
0.00634442
0.00634437
0.00634438
0.00634439
0.00634441
0.00634444
0.00634435
0.00634435
0.00634437
0.00634438
0.0063444
0.00634435
0.00634436
0.00634437
0.00634439
0.00634441
0.00634436
0.00634437
0.00634438
0.0063444
0.00634442
0.00634438
0.00634438
0.0063444
0.00634441
0.00634443
0.0063444
0.0063444
0.00634441
0.00634443
0.00634445
0.00634438
0.00634438
0.00634439
0.00634441
0.00634442
0.00634438
0.00634439
0.0063444
0.00634441
0.00634443
0.00634439
0.0063444
0.0063444
0.00634442
0.00634443
0.0063444
0.00634441
0.00634442
0.00634443
0.00634444
0.00634442
0.00634442
0.00634443
0.00634444
0.00634445
0.0063444
0.00634441
0.00634441
0.00634442
0.00634443
0.00634441
0.00634441
0.00634442
0.00634443
0.00634444
0.00634441
0.00634442
0.00634442
0.00634443
0.00634444
0.00634442
0.00634442
0.00634443
0.00634444
0.00634445
0.00634443
0.00634443
0.00634444
0.00634445
0.00634446
0.00634442
0.00634442
0.00634443
0.00634443
0.00634444
0.00634442
0.00634443
0.00634443
0.00634444
0.00634444
0.00634443
0.00634443
0.00634443
0.00634444
0.00634445
0.00634443
0.00634444
0.00634444
0.00634445
0.00634445
0.00634444
0.00634444
0.00634445
0.00634445
0.00634446
0.00634443
0.00634443
0.00634444
0.00634444
0.00634445
0.00634443
0.00634444
0.00634444
0.00634444
0.00634445
0.00634444
0.00634444
0.00634444
0.00634445
0.00634445
0.00634444
0.00634444
0.00634445
0.00634445
0.00634446
0.00634445
0.00634445
0.00634445
0.00634446
0.00634446
0.00634444
0.00634444
0.00634445
0.00634445
0.00634445
0.00634444
0.00634444
0.00634445
0.00634445
0.00634445
0.00634445
0.00634445
0.00634445
0.00634445
0.00634446
0.00634445
0.00634445
0.00634445
0.00634446
0.00634446
0.00634445
0.00634445
0.00634446
0.00634446
0.00634446
0.00634445
0.00634445
0.00634445
0.00634445
0.00634446
0.00634445
0.00634445
0.00634445
0.00634445
0.00634446
0.00634445
0.00634445
0.00634445
0.00634446
0.00634446
0.00634445
0.00634445
0.00634446
0.00634446
0.00634446
0.00634446
0.00634446
0.00634446
0.00634446
0.00634446
0.00634445
0.00634445
0.00634446
0.00634446
0.00634446
0.00634445
0.00634445
0.00634446
0.00634446
0.00634446
0.00634446
0.00634446
0.00634446
0.00634446
0.00634446
0.00634446
0.00634446
0.00634446
0.00634446
0.00634446
0.00634446
0.00634446
0.00634446
0.00634446
0.00634446
0.00634446
0.00634446
0.00634446
0.00634446
0.00634446
0.00634446
0.00634446
0.00634446
0.00634446
0.00634446
0.00634446
0.00634446
0.00634446
0.00634446
0.00634446
0.00634446
0.00634446
0.00634446
0.00634446
0.00634446
0.00634446
0.00634446
0.00634446
0.00634446
0.00634447
0.00634446
0.00634446
0.00634446
0.00634446
0.00634446
0.00634446
0.00634446
0.00634446
0.00634446
0.00634446
0.00634446
0.00634446
0.00634446
0.00634446
0.00634446
0.00634446
0.00634446
0.00634446
0.00634446
0.00634446
0.00634446
0.00634446
0.00634446
0.00634446
0.00634447
0.00634446
0.00634446
0.00634446
0.00634446
0.00634446
0.00634446
0.00634446
0.00634446
0.00634446
0.00634446
0.00634446
0.00634446
0.00634446
0.00634446
0.00634446
0.00634446
0.00634446
0.00634446
0.00634446
0.00634447
0.00634446
0.00634446
0.00634447
0.00634447
0.00634447
0.00634446
0.00634446
0.00634446
0.00634446
0.00634447
0.00634446
0.00634446
0.00634446
0.00634446
0.00634447
0.00634446
0.00634446
0.00634446
0.00634447
0.00634447
0.00634446
0.00634446
0.00634447
0.00634447
0.00634447
0.00634447
0.00634447
0.00634447
0.00634447
0.00634447
0.00634446
0.00634446
0.00634447
0.00634447
0.00634447
0.00634446
0.00634447
0.00634447
0.00634447
0.00634447
0.00634447
0.00634447
0.00634447
0.00634447
0.00634447
0.00634447
0.00634447
0.00634447
0.00634447
0.00634447
0.00634447
0.00634447
0.00634447
0.00634447
0.00634447
0.00634447
0.00634447
0.00634447
0.00634447
0.00634447
0.00634447
0.00634447
0.00634447
0.00634447
0.00634447
0.00634447
0.00634447
0.00634447
0.00634447
0.00634447
0.00634447
0.00634447
0.00634447
0.00634447
0.00634447
0.00634447
0.00634447
0.00634447
0.00634447
0.00634447
0.00634447
0.00634447
0.00634447
0.00634447
0.00634447
0.00634447
0.00634447
0.00634447
0.00634447
0.00634447
0.00634447
0.00634447
0.00634447
0.00634447
0.00634447
0.00634447
0.00634447
0.00634447
0.00634447
0.00634447
0.00634447
0.00634447
0.00634447
0.00634447
0.00634447
0.00634447
0.00634447
0.00634447
0.00634447
0.00634447
0.00634447
0.00634447
0.00634447
0.00634447
0.00634447
0.00634447
0.00634447
0.00634447
0.00634447
0.00634447
0.00634447
0.00634447
0.00634447
0.00634447
0.00634447
0.00634447
0.00634447
0.00634447
0.00634447
0.00634447
0.00634447
0.00634447
0.00634447
0.00634447
0.00634447
0.00634447
0.00634447
0.00634447
0.00634447
0.00634447
0.00634447
0.00634447
0.00634447
0.00634447
0.00634447
0.00634447
0.00634447
0.00634447
0.00634447
0.00634447
0.00634447
0.00634447
0.00634447
0.00634447
0.00634447
0.00634447
0.00634447
0.00634447
0.00634447
0.00634447
0.00634447
0.00634447
0.00634447
0.00634447
0.00634447
0.00634447
0.00634447
0.00634447
0.00634447
0.00634447
0.00634447
0.00634447
0.00634447
0.00634447
0.00634447
0.00634447
0.00634447
0.00634447
0.00634447
0.00634447
0.00634447
0.00634447
0.00634447
0.00634447
0.00634447
0.00634447
0.00634447
0.00634447
0.00634447
0.00634447
0.00634447
0.00634447
0.00634447
0.00634447
0.00634447
0.00634447
0.00634447
0.00634447
0.00634447
0.00634447
0.00634447
0.00634447
0.00634447
0.00634447
0.00634447
0.00634447
0.00634447
0.00634447
0.00634447
0.00634447
0.00634447
0.00634447
0.00634447
0.00634447
0.00634447
0.00634447
0.00634447
0.00634447
0.00634447
0.00634447
0.00634447
0.00634447
0.00634447
0.00634447
0.00634447
0.00634447
0.00634447
0.00634447
0.00634447
0.00634447
0.00634447
0.00634447
0.00634447
0.00634447
0.00634447
0.00634447
0.00634447
0.00634447
0.00634447
0.00634447
0.00634447
0.00634447
0.00634447
0.00634447
0.00634447
0.00634447
0.00634447
0.00634447
0.00634447
0.00634447
0.00634447
0.00634447
0.00634447
0.00634447
0.00634447
0.00634447
0.00634447
0.00634447
0.00634447
0.00634447
0.00634447
0.00634447
0.00634447
0.00634447
0.00634447
0.00634447
0.00634447
0.00634447
0.00634447
0.00634447
0.00634447
0.00634447
0.00634447
0.00634447
0.00634447
0.00634447
0.00634447
0.00634447
0.00634447
0.00634447
0.00634447
0.00634447
0.00634447
0.00634447
0.00634447
0.00634447
0.00634447
0.00634447
0.00634447
0.00634447
0.00634447
0.00634447
0.00634447
0.00634447
0.00634447
0.00634447
0.00634447
0.00634447
0.00634447
0.00634447
0.00634447
0.00634447
0.00634447
0.00634447
0.00634447
)
;

boundaryField
{
    inlet
    {
        type            zeroGradient;
    }
    outlet
    {
        type            fixedValue;
        value           uniform 0;
    }
    repeat_boundary
    {
        type            zeroGradient;
    }
    procBoundary0to1
    {
        type            processor;
        value           nonuniform List<scalar> 
450
(
-3.53729e-10
-3.47651e-10
-3.48552e-10
-3.79587e-10
-4.20491e-10
-1.05048e-09
-1.04305e-09
-1.06261e-09
-1.16422e-09
-1.29182e-09
-1.70483e-09
-1.71028e-09
-1.75467e-09
-1.91789e-09
-2.17253e-09
-2.24021e-09
-2.25512e-09
-2.30089e-09
-2.45374e-09
-2.78411e-09
-2.54146e-09
-2.56016e-09
-2.6088e-09
-2.705e-09
-2.94067e-09
-2.56203e-09
-2.59227e-09
-2.67054e-09
-2.72789e-09
-2.76454e-09
-2.42475e-09
-2.47587e-09
-2.58369e-09
-2.61114e-09
-2.48792e-09
-2.35036e-09
-2.42037e-09
-2.52912e-09
-2.50242e-09
-2.23491e-09
-2.48528e-09
-2.56022e-09
-2.65053e-09
-2.57268e-09
-2.15122e-09
-2.83416e-09
-2.8927e-09
-2.95922e-09
-2.88162e-09
-2.39379e-09
-3.32787e-09
-3.34738e-09
-3.38e-09
-3.35061e-09
-2.96845e-09
-3.9019e-09
-3.86778e-09
-3.8535e-09
-3.86741e-09
-3.66629e-09
-4.55465e-09
-4.47569e-09
-4.41664e-09
-4.42534e-09
-4.32128e-09
-5.38992e-09
-5.29787e-09
-5.21074e-09
-5.17026e-09
-5.0667e-09
-6.55701e-09
-6.46418e-09
-6.34097e-09
-6.21967e-09
-6.10406e-09
-8.12777e-09
-7.99615e-09
-7.77601e-09
-7.51501e-09
-7.38656e-09
-1.00882e-08
-9.86727e-09
-9.47155e-09
-8.9861e-09
-8.7261e-09
-1.24282e-08
-1.20931e-08
-1.1458e-08
-1.06517e-08
-9.96644e-09
-1.52001e-08
-1.4733e-08
-1.38008e-08
-1.25639e-08
-1.11852e-08
-1.85591e-08
-1.79232e-08
-1.66421e-08
-1.48855e-08
-1.28023e-08
-2.27963e-08
-2.19189e-08
-2.01973e-08
-1.77942e-08
-1.50027e-08
-2.83211e-08
-2.70823e-08
-2.47005e-08
-2.13656e-08
-1.75386e-08
-3.56296e-08
-3.38714e-08
-3.05191e-08
-2.58847e-08
-2.05404e-08
-4.53604e-08
-4.28781e-08
-3.82139e-08
-3.1866e-08
-2.4501e-08
-5.84909e-08
-5.49859e-08
-4.85164e-08
-3.98047e-08
-2.97506e-08
-7.64482e-08
-7.15077e-08
-6.24637e-08
-5.04227e-08
-3.67852e-08
-1.00983e-07
-9.40661e-08
-8.13726e-08
-6.47028e-08
-4.62189e-08
-1.34126e-07
-1.2443e-07
-1.06552e-07
-8.34456e-08
-5.8335e-08
-1.78332e-07
-1.64542e-07
-1.39113e-07
-1.06919e-07
-7.27567e-08
-2.36559e-07
-2.16568e-07
-1.79686e-07
-1.34289e-07
-8.72666e-08
-3.12298e-07
-2.83002e-07
-2.27662e-07
-1.62803e-07
-9.61545e-08
-4.09763e-07
-3.67472e-07
-2.79491e-07
-1.87166e-07
-8.81356e-08
-5.35011e-07
-4.79608e-07
-3.23487e-07
-2.00003e-07
-3.91623e-08
-7.00852e-07
-6.58864e-07
-3.21418e-07
-2.07243e-07
1.05413e-07
-9.29342e-07
-1.00228e-06
-1.69731e-07
-2.62436e-07
4.61944e-07
-1.22121e-06
-1.57375e-06
3.60704e-07
-3.64402e-07
1.26061e-06
-1.5119e-06
-2.26797e-06
1.92221e-06
-2.92152e-07
3.10312e-06
-4.3204e-06
-5.7212e-06
-2.98759e-06
-3.74185e-06
-2.24335e-06
6.38055e-06
4.15062e-06
2.53172e-05
8.60479e-06
2.25514e-05
1.85474e-06
1.07601e-05
-1.58929e-05
-3.79422e-06
-2.17035e-05
-1.57263e-05
4.52599e-05
3.19865e-05
-8.33879e-05
-1.55533e-05