/*--------------------------------*- C++ -*----------------------------------*\
| =========                 |                                                 |
| \\      /  F ield         | OpenFOAM: The Open Source CFD Toolbox           |
|  \\    /   O peration     | Version:  5.x                                   |
|   \\  /    A nd           | Web:      www.OpenFOAM.org                      |
|    \\/     M anipulation  |                                                 |
\*---------------------------------------------------------------------------*/
FoamFile
{
    version     2.0;
    format      ascii;
    class       volVectorField;
    location    "0.04";
    object      U;
}
// * * * * * * * * * * * * * * * * * * * * * * * * * * * * * * * * * * * * * //

dimensions      [0 1 -1 0 0 0 0];

internalField   nonuniform List<vector> 
2250
(
(-2.85324e-11 -2.77793e-11 -0.000999998)
(-8.24572e-11 -2.88409e-11 -0.000999998)
(-1.28232e-10 -3.05518e-11 -0.000999998)
(-1.64549e-10 -3.33483e-11 -0.000999999)
(-1.77586e-10 -3.85581e-11 -0.000999999)
(-2.95975e-11 -8.00697e-11 -0.000999998)
(-8.53705e-11 -8.27272e-11 -0.000999998)
(-1.33032e-10 -8.66409e-11 -0.000999998)
(-1.72901e-10 -9.36591e-11 -0.000999999)
(-1.83523e-10 -1.05579e-10 -0.000999999)
(-3.10672e-11 -1.25082e-10 -0.000999998)
(-8.90401e-11 -1.28626e-10 -0.000999998)
(-1.3944e-10 -1.33024e-10 -0.000999999)
(-1.83818e-10 -1.40265e-10 -0.000999999)
(-1.89406e-10 -1.48238e-10 -0.000999999)
(-3.28836e-11 -1.59403e-10 -0.000999999)
(-9.30626e-11 -1.62553e-10 -0.000999999)
(-1.44673e-10 -1.65627e-10 -0.000999999)
(-1.88126e-10 -1.70197e-10 -0.000999999)
(-1.88593e-10 -1.68219e-10 -0.001)
(-3.3938e-11 -1.65785e-10 -0.000999999)
(-9.49775e-11 -1.67336e-10 -0.000999999)
(-1.47071e-10 -1.69322e-10 -0.000999999)
(-1.86375e-10 -1.71294e-10 -0.001)
(-1.84584e-10 -1.68781e-10 -0.001)
(-8.24933e-11 -7.97498e-11 -0.000999998)
(-2.37358e-10 -8.19243e-11 -0.000999998)
(-3.68064e-10 -8.53284e-11 -0.000999998)
(-4.72211e-10 -9.22046e-11 -0.000999998)
(-5.13018e-10 -1.04951e-10 -0.000999999)
(-8.46766e-11 -2.28488e-10 -0.000999998)
(-2.43289e-10 -2.33534e-10 -0.000999998)
(-3.79086e-10 -2.42148e-10 -0.000999998)
(-4.92755e-10 -2.59459e-10 -0.000999999)
(-5.27476e-10 -2.85373e-10 -0.000999999)
(-8.72318e-11 -3.52238e-10 -0.000999998)
(-2.51046e-10 -3.58067e-10 -0.000999998)
(-3.94707e-10 -3.68751e-10 -0.000999998)
(-5.16338e-10 -3.87919e-10 -0.000999999)
(-5.37654e-10 -4.05526e-10 -0.000999999)
(-8.98541e-11 -4.39495e-10 -0.000999998)
(-2.5915e-10 -4.42635e-10 -0.000999998)
(-4.08942e-10 -4.52372e-10 -0.000999999)
(-5.29556e-10 -4.71257e-10 -0.000999999)
(-5.32834e-10 -4.63009e-10 -0.000999999)
(-8.96332e-11 -4.63499e-10 -0.000999999)
(-2.63145e-10 -4.64525e-10 -0.000999999)
(-4.2331e-10 -4.71522e-10 -0.000999999)
(-5.27012e-10 -4.79873e-10 -0.000999999)
(-5.53698e-10 -5.05579e-10 -0.001)
(-1.41187e-10 -1.34057e-10 -0.000999997)
(-4.08488e-10 -1.35353e-10 -0.000999997)
(-6.35654e-10 -1.38179e-10 -0.000999998)
(-8.10147e-10 -1.46383e-10 -0.000999998)
(-8.8939e-10 -1.6013e-10 -0.000999998)
(-1.42493e-10 -3.85607e-10 -0.000999997)
(-4.1314e-10 -3.88909e-10 -0.000999998)
(-6.47913e-10 -3.98292e-10 -0.000999998)
(-8.33715e-10 -4.18246e-10 -0.000999998)
(-9.05332e-10 -4.42742e-10 -0.000999999)
(-1.44008e-10 -5.90986e-10 -0.000999998)
(-4.21199e-10 -5.94683e-10 -0.000999998)
(-6.66209e-10 -6.08439e-10 -0.000999998)
(-8.56202e-10 -6.32023e-10 -0.000999998)
(-9.09061e-10 -6.4978e-10 -0.000999999)
(-1.4511e-10 -7.25191e-10 -0.000999998)
(-4.29489e-10 -7.28756e-10 -0.000999998)
(-6.85256e-10 -7.4477e-10 -0.000999998)
(-8.75108e-10 -7.75535e-10 -0.000999999)
(-8.93509e-10 -7.56572e-10 -0.000999999)
(-1.46199e-10 -7.84758e-10 -0.000999998)
(-4.39358e-10 -7.87795e-10 -0.000999998)
(-7.12935e-10 -7.98998e-10 -0.000999999)
(-8.68001e-10 -8.07481e-10 -0.000999999)
(-9.69309e-10 -8.94161e-10 -0.000999999)
(-2.07338e-10 -1.9367e-10 -0.000999997)
(-6.08044e-10 -1.94235e-10 -0.000999997)
(-9.53785e-10 -1.96053e-10 -0.000999997)
(-1.20843e-09 -2.02799e-10 -0.000999998)
(-1.33372e-09 -2.11998e-10 -0.000999998)
(-2.07937e-10 -5.65016e-10 -0.000999997)
(-6.11264e-10 -5.67543e-10 -0.000999997)
(-9.64207e-10 -5.74758e-10 -0.000999997)
(-1.22685e-09 -5.87921e-10 -0.000999998)
(-1.34555e-09 -5.96752e-10 -0.000999998)
(-2.0917e-10 -8.71631e-10 -0.000999997)
(-6.179e-10 -8.76497e-10 -0.000999997)
(-9.76036e-10 -8.87518e-10 -0.000999998)
(-1.23291e-09 -9.014e-10 -0.000999998)
(-1.33723e-09 -9.03629e-10 -0.000999998)
(-2.11111e-10 -1.07432e-09 -0.000999997)
(-6.25438e-10 -1.08156e-09 -0.000999998)
(-9.89101e-10 -1.0946e-09 -0.000999998)
(-1.24304e-09 -1.12028e-09 -0.000999998)
(-1.31146e-09 -1.09625e-09 -0.000999999)
(-2.14198e-10 -1.1817e-09 -0.000999998)
(-6.35936e-10 -1.18834e-09 -0.000999998)
(-1.01464e-09 -1.19945e-09 -0.000999998)
(-1.23452e-09 -1.20468e-09 -0.000999999)
(-1.3663e-09 -1.27389e-09 -0.000999999)
(-2.92784e-10 -2.71263e-10 -0.000999996)
(-8.66439e-10 -2.73799e-10 -0.000999996)
(-1.36703e-09 -2.75689e-10 -0.000999996)
(-1.72774e-09 -2.79271e-10 -0.000999997)
(-1.89758e-09 -2.8049e-10 -0.000999998)
(-2.95357e-10 -8.00113e-10 -0.000999996)
(-8.72056e-10 -8.06215e-10 -0.000999996)
(-1.37518e-09 -8.09562e-10 -0.000999996)
(-1.73603e-09 -8.08789e-10 -0.000999997)
(-1.90084e-09 -7.9429e-10 -0.000999998)
(-2.9784e-10 -1.24737e-09 -0.000999996)
(-8.76004e-10 -1.25529e-09 -0.000999996)
(-1.3723e-09 -1.25696e-09 -0.000999997)
(-1.71599e-09 -1.2491e-09 -0.000999997)
(-1.87794e-09 -1.22438e-09 -0.000999998)
(-3.00787e-10 -1.55556e-09 -0.000999997)
(-8.79147e-10 -1.5632e-09 -0.000999997)
(-1.36899e-09 -1.56655e-09 -0.000999997)
(-1.70351e-09 -1.57204e-09 -0.000999998)
(-1.84417e-09 -1.54396e-09 -0.000999998)
(-3.02285e-10 -1.71025e-09 -0.000999997)
(-8.83763e-10 -1.71608e-09 -0.000999998)
(-1.38105e-09 -1.72403e-09 -0.000999998)
(-1.69338e-09 -1.72502e-09 -0.000999998)
(-1.8589e-09 -1.75668e-09 -0.000999999)
(-4.13247e-10 -3.8288e-10 -0.000999994)
(-1.21891e-09 -3.8814e-10 -0.000999995)
(-1.91962e-09 -3.90296e-10 -0.000999995)
(-2.42511e-09 -3.88483e-10 -0.000999996)
(-2.64019e-09 -3.77122e-10 -0.000999997)
(-4.1856e-10 -1.126e-09 -0.000999995)
(-1.22796e-09 -1.13517e-09 -0.000999995)
(-1.92366e-09 -1.13263e-09 -0.000999995)
(-2.41667e-09 -1.11454e-09 -0.000999996)
(-2.6307e-09 -1.0751e-09 -0.000999997)
(-4.20977e-10 -1.75792e-09 -0.000999995)
(-1.2257e-09 -1.76491e-09 -0.000999995)
(-1.90275e-09 -1.75502e-09 -0.000999996)
(-2.37245e-09 -1.72709e-09 -0.000999997)
(-2.59582e-09 -1.68968e-09 -0.000999997)
(-4.22102e-10 -2.20124e-09 -0.000999996)
(-1.2216e-09 -2.20728e-09 -0.000999996)
(-1.88585e-09 -2.20695e-09 -0.000999997)
(-2.35149e-09 -2.20762e-09 -0.000999997)
(-2.56069e-09 -2.19952e-09 -0.000999998)
(-4.22698e-10 -2.41059e-09 -0.000999997)
(-1.22699e-09 -2.41492e-09 -0.000999997)
(-1.90292e-09 -2.42341e-09 -0.000999997)
(-2.36506e-09 -2.42593e-09 -0.000999998)
(-2.57432e-09 -2.46008e-09 -0.000999999)
(-5.79597e-10 -5.39026e-10 -0.000999992)
(-1.69254e-09 -5.4467e-10 -0.000999993)
(-2.64501e-09 -5.44516e-10 -0.000999994)
(-3.33424e-09 -5.34551e-10 -0.000999994)
(-3.61703e-09 -5.08037e-10 -0.000999996)
(-5.85312e-10 -1.56825e-09 -0.000999993)
(-1.70022e-09 -1.57474e-09 -0.000999993)
(-2.6399e-09 -1.56299e-09 -0.000999994)
(-3.30412e-09 -1.52803e-09 -0.000999995)
(-3.59601e-09 -1.46709e-09 -0.000999996)
(-5.84171e-10 -2.43437e-09 -0.000999993)
(-1.6875e-09 -2.4354e-09 -0.000999994)
(-2.6034e-09 -2.41532e-09 -0.000999995)
(-3.24493e-09 -2.3758e-09 -0.000999995)
(-3.56017e-09 -2.33698e-09 -0.000999997)
(-5.81671e-10 -3.04697e-09 -0.000999994)
(-1.67645e-09 -3.05317e-09 -0.000999995)
(-2.5803e-09 -3.05228e-09 -0.000999995)
(-3.22595e-09 -3.05548e-09 -0.000999996)
(-3.54212e-09 -3.09338e-09 -0.000999997)
(-5.84597e-10 -3.34053e-09 -0.000999995)
(-1.68687e-09 -3.34822e-09 -0.000999996)
(-2.60558e-09 -3.36178e-09 -0.000999996)
(-3.28604e-09 -3.37784e-09 -0.000999997)
(-3.56632e-09 -3.42374e-09 -0.000999999)
(-7.98697e-10 -7.471e-10 -0.00099999)
(-2.31098e-09 -7.49227e-10 -0.00099999)
(-3.58308e-09 -7.43591e-10 -0.000999991)
(-4.50324e-09 -7.25911e-10 -0.000999992)
(-4.90509e-09 -6.90421e-10 -0.000999994)
(-8.00918e-10 -2.15453e-09 -0.00099999)
(-2.3104e-09 -2.15243e-09 -0.000999991)
(-3.56649e-09 -2.12987e-09 -0.000999992)
(-4.45857e-09 -2.08477e-09 -0.000999993)
(-4.8814e-09 -2.01636e-09 -0.000999994)
(-7.94033e-10 -3.32922e-09 -0.000999991)
(-2.2866e-09 -3.32215e-09 -0.000999992)
(-3.52229e-09 -3.29366e-09 -0.000999993)
(-4.39857e-09 -3.2495e-09 -0.000999994)
(-4.8567e-09 -3.20776e-09 -0.000999995)
(-7.8755e-10 -4.17498e-09 -0.000999992)
(-2.26844e-09 -4.17792e-09 -0.000999993)
(-3.49385e-09 -4.16707e-09 -0.000999994)
(-4.37293e-09 -4.15372e-09 -0.000999995)
(-4.86712e-09 -4.18259e-09 -0.000999996)
(-7.89177e-10 -4.59846e-09 -0.000999994)
(-2.27063e-09 -4.60768e-09 -0.000999994)
(-3.49783e-09 -4.61893e-09 -0.000999995)
(-4.41409e-09 -4.64829e-09 -0.000999996)
(-4.93209e-09 -4.72531e-09 -0.000999998)
(-1.08101e-09 -1.01949e-09 -0.000999986)
(-3.11638e-09 -1.01597e-09 -0.000999987)
(-4.81626e-09 -1.00469e-09 -0.000999988)
(-6.04567e-09 -9.84925e-10 -0.00099999)
(-6.63858e-09 -9.54258e-10 -0.000999992)
(-1.0776e-09 -2.93398e-09 -0.000999987)
(-3.1055e-09 -2.92214e-09 -0.000999987)
(-4.79425e-09 -2.89207e-09 -0.000999989)
(-6.00661e-09 -2.85003e-09 -0.00099999)
(-6.62463e-09 -2.79668e-09 -0.000999992)
(-1.0657e-09 -4.53407e-09 -0.000999988)
(-3.07482e-09 -4.51982e-09 -0.000999989)
(-4.75336e-09 -4.48623e-09 -0.00099999)
(-5.96206e-09 -4.44778e-09 -0.000999992)
(-6.61567e-09 -4.40887e-09 -0.000999994)
(-1.05486e-09 -5.70461e-09 -0.00099999)
(-3.04901e-09 -5.69668e-09 -0.00099999)
(-4.7222e-09 -5.66884e-09 -0.000999992)
(-5.9296e-09 -5.63567e-09 -0.000999993)
(-6.64078e-09 -5.61271e-09 -0.000999995)
(-1.04714e-09 -6.31528e-09 -0.000999992)
(-3.02803e-09 -6.31739e-09 -0.000999992)
(-4.692e-09 -6.31368e-09 -0.000999993)
(-5.90594e-09 -6.33433e-09 -0.000999995)
(-6.7441e-09 -6.43623e-09 -0.000999997)
(-1.4507e-09 -1.38187e-09 -0.000999981)
(-4.19104e-09 -1.3748e-09 -0.000999982)
(-6.48863e-09 -1.36126e-09 -0.000999984)
(-8.15129e-09 -1.3464e-09 -0.000999986)
(-9.01432e-09 -1.33182e-09 -0.000999989)
(-1.44377e-09 -3.99074e-09 -0.000999982)
(-4.17568e-09 -3.97444e-09 -0.000999983)
(-6.47233e-09 -3.94406e-09 -0.000999985)
(-8.13711e-09 -3.91631e-09 -0.000999987)
(-9.0203e-09 -3.89396e-09 -0.00099999)
(-1.42967e-09 -6.1851e-09 -0.000999984)
(-4.14475e-09 -6.16822e-09 -0.000999985)
(-6.44283e-09 -6.13521e-09 -0.000999986)
(-8.11696e-09 -6.10855e-09 -0.000999989)
(-9.02664e-09 -6.08039e-09 -0.000999992)
(-1.41537e-09 -7.79332e-09 -0.000999986)
(-4.11403e-09 -7.77696e-09 -0.000999987)
(-6.41266e-09 -7.73772e-09 -0.000999989)
(-8.08278e-09 -7.69315e-09 -0.000999991)
(-9.05252e-09 -7.62257e-09 -0.000999994)
(-1.39876e-09 -8.66163e-09 -0.000999989)
(-4.07408e-09 -8.65676e-09 -0.00099999)
(-6.35854e-09 -8.63591e-09 -0.000999991)
(-8.0018e-09 -8.63436e-09 -0.000999994)
(-9.15924e-09 -8.72558e-09 -0.000999996)
(-1.95261e-09 -1.87871e-09 -0.000999975)
(-5.66416e-09 -1.87272e-09 -0.000999976)
(-8.79978e-09 -1.86122e-09 -0.000999978)
(-1.10699e-08 -1.85421e-09 -0.000999981)
(-1.22846e-08 -1.85741e-09 -0.000999985)
(-1.94676e-09 -5.45035e-09 -0.000999976)
(-5.65368e-09 -5.43829e-09 -0.000999977)
(-8.79761e-09 -5.41371e-09 -0.000999979)
(-1.10868e-08 -5.40072e-09 -0.000999983)
(-1.2312e-08 -5.4063e-09 -0.000999986)
(-1.93406e-09 -8.47197e-09 -0.000999978)
(-5.62792e-09 -8.46053e-09 -0.000999979)
(-8.77887e-09 -8.4306e-09 -0.000999982)
(-1.10838e-08 -8.40908e-09 -0.000999985)
(-1.23253e-08 -8.38457e-09 -0.000999989)
(-1.91957e-09 -1.06764e-08 -0.000999981)
(-5.59627e-09 -1.06636e-08 -0.000999983)
(-8.74616e-09 -1.06163e-08 -0.000999985)
(-1.10414e-08 -1.05569e-08 -0.000999988)
(-1.23379e-08 -1.04188e-08 -0.000999992)
(-1.90129e-09 -1.18821e-08 -0.000999985)
(-5.54718e-09 -1.18777e-08 -0.000999986)
(-8.67158e-09 -1.18394e-08 -0.000999989)
(-1.08864e-08 -1.18062e-08 -0.000999992)
(-1.24416e-08 -1.18814e-08 -0.000999995)
(-2.64987e-09 -2.57167e-09 -0.000999966)
(-7.70583e-09 -2.57039e-09 -0.000999967)
(-1.19983e-08 -2.56249e-09 -0.000999971)
(-1.5111e-08 -2.56027e-09 -0.000999975)
(-1.67754e-08 -2.57309e-09 -0.00099998)
(-2.64874e-09 -7.47873e-09 -0.000999967)
(-7.70613e-09 -7.47676e-09 -0.000999969)
(-1.20104e-08 -7.45696e-09 -0.000999972)
(-1.51499e-08 -7.44728e-09 -0.000999977)
(-1.68141e-08 -7.46247e-09 -0.000999982)
(-2.63899e-09 -1.1643e-08 -0.000999971)
(-7.68448e-09 -1.16413e-08 -0.000999972)
(-1.19915e-08 -1.16073e-08 -0.000999975)
(-1.51457e-08 -1.15745e-08 -0.00099998)
(-1.68133e-08 -1.15403e-08 -0.000999985)
(-2.62535e-09 -1.46749e-08 -0.000999975)
(-7.64832e-09 -1.46688e-08 -0.000999977)
(-1.19437e-08 -1.46061e-08 -0.00099998)
(-1.50839e-08 -1.45225e-08 -0.000999984)
(-1.67925e-08 -1.43636e-08 -0.000999989)
(-2.60541e-09 -1.6313e-08 -0.00099998)
(-7.58735e-09 -1.63072e-08 -0.000999982)
(-1.18443e-08 -1.62402e-08 -0.000999985)
(-1.49031e-08 -1.61643e-08 -0.000999989)
(-1.68476e-08 -1.61798e-08 -0.000999994)
(-3.61896e-09 -3.53508e-09 -0.000999954)
(-1.0526e-08 -3.53801e-09 -0.000999956)
(-1.6396e-08 -3.53041e-09 -0.00099996)
(-2.06635e-08 -3.52484e-09 -0.000999966)
(-2.292e-08 -3.53096e-09 -0.000999973)
(-3.62206e-09 -1.02803e-08 -0.000999956)
(-1.05342e-08 -1.02853e-08 -0.000999958)
(-1.64133e-08 -1.02593e-08 -0.000999962)
(-2.07028e-08 -1.02343e-08 -0.000999968)
(-2.29539e-08 -1.02286e-08 -0.000999976)
(-3.61163e-09 -1.60056e-08 -0.00099996)
(-1.05055e-08 -1.60065e-08 -0.000999962)
(-1.63761e-08 -1.59537e-08 -0.000999967)
(-2.06727e-08 -1.58946e-08 -0.000999973)
(-2.29132e-08 -1.58374e-08 -0.00099998)
(-3.59322e-09 -2.017e-08 -0.000999966)
(-1.0452e-08 -2.01588e-08 -0.000999968)
(-1.63014e-08 -2.00732e-08 -0.000999973)
(-2.05877e-08 -1.99704e-08 -0.000999979)
(-2.28286e-08 -1.98345e-08 -0.000999986)
(-3.56278e-09 -2.23818e-08 -0.000999973)
(-1.03698e-08 -2.23648e-08 -0.000999975)
(-1.61864e-08 -2.22615e-08 -0.00099998)
(-2.0434e-08 -2.21294e-08 -0.000999986)
(-2.27756e-08 -2.20367e-08 -0.000999993)
(-4.95136e-09 -4.85769e-09 -0.000999937)
(-1.43905e-08 -4.86039e-09 -0.00099994)
(-2.24054e-08 -4.84614e-09 -0.000999946)
(-2.824e-08 -4.82801e-09 -0.000999954)
(-3.13016e-08 -4.81098e-09 -0.000999964)
(-4.95423e-09 -1.41126e-08 -0.00099994)
(-1.43965e-08 -1.41137e-08 -0.000999943)
(-2.24146e-08 -1.4067e-08 -0.000999949)
(-2.82575e-08 -1.40089e-08 -0.000999957)
(-3.1318e-08 -1.39501e-08 -0.000999967)
(-4.93564e-09 -2.1957e-08 -0.000999946)
(-1.43455e-08 -2.19489e-08 -0.000999949)
(-2.2343e-08 -2.18667e-08 -0.000999955)
(-2.81774e-08 -2.17687e-08 -0.000999963)
(-3.12184e-08 -2.16624e-08 -0.000999973)
(-4.9055e-09 -2.76476e-08 -0.000999954)
(-1.42647e-08 -2.76279e-08 -0.000999957)
(-2.22344e-08 -2.75209e-08 -0.000999963)
(-2.80549e-08 -2.7393e-08 -0.000999971)
(-3.10509e-08 -2.72675e-08 -0.000999981)
(-4.86453e-09 -3.06531e-08 -0.000999963)
(-1.41657e-08 -3.0627e-08 -0.000999967)
(-2.21064e-08 -3.04953e-08 -0.000999972)
(-2.7924e-08 -3.03033e-08 -0.000999981)
(-3.08425e-08 -3.00663e-08 -0.00099999)
(-6.76688e-09 -6.6576e-09 -0.000999914)
(-1.96581e-08 -6.65537e-09 -0.000999918)
(-3.05974e-08 -6.62898e-09 -0.000999926)
(-3.85597e-08 -6.5934e-09 -0.000999938)
(-4.27295e-08 -6.54816e-09 -0.000999951)
(-6.76487e-09 -1.93301e-08 -0.000999918)
(-1.96534e-08 -1.93198e-08 -0.000999922)
(-3.05919e-08 -1.92437e-08 -0.000999931)
(-3.85505e-08 -1.91421e-08 -0.000999942)
(-4.27238e-08 -1.90161e-08 -0.000999955)
(-6.73371e-09 -3.00624e-08 -0.000999926)
(-1.95724e-08 -3.00449e-08 -0.00099993)
(-3.04773e-08 -2.9929e-08 -0.000999939)
(-3.84061e-08 -2.9777e-08 -0.00099995)
(-4.25512e-08 -2.95995e-08 -0.000999963)
(-6.69196e-09 -3.78325e-08 -0.000999937)
(-1.94635e-08 -3.78211e-08 -0.000999942)
(-3.0324e-08 -3.76893e-08 -0.00099995)
(-3.82232e-08 -3.75097e-08 -0.000999961)
(-4.229e-08 -3.73307e-08 -0.000999974)
(-6.65213e-09 -4.19391e-08 -0.00099995)
(-1.93566e-08 -4.19176e-08 -0.000999955)
(-3.01636e-08 -4.17548e-08 -0.000999963)
(-3.80476e-08 -4.14911e-08 -0.000999974)
(-4.19392e-08 -4.11252e-08 -0.000999987)
(-9.23618e-09 -9.10666e-09 -0.000999883)
(-2.68358e-08 -9.09953e-09 -0.000999889)
(-4.17747e-08 -9.05891e-09 -0.0009999)
(-5.26422e-08 -9.00353e-09 -0.000999915)
(-5.83379e-08 -8.93237e-09 -0.000999933)
(-9.22931e-09 -2.64462e-08 -0.000999888)
(-2.68204e-08 -2.64275e-08 -0.000999894)
(-4.17555e-08 -2.63145e-08 -0.000999905)
(-5.2613e-08 -2.61564e-08 -0.000999921)
(-5.83077e-08 -2.59606e-08 -0.000999939)
(-9.18619e-09 -4.11393e-08 -0.0009999)
(-2.67049e-08 -4.11189e-08 -0.000999905)
(-4.1582e-08 -4.09513e-08 -0.000999916)
(-5.23891e-08 -4.07113e-08 -0.000999932)
(-5.80393e-08 -4.04373e-08 -0.000999949)
(-9.1333e-09 -5.17814e-08 -0.000999915)
(-2.65552e-08 -5.17804e-08 -0.00099992)
(-4.13479e-08 -5.15847e-08 -0.000999931)
(-5.21022e-08 -5.12991e-08 -0.000999946)
(-5.76564e-08 -5.10222e-08 -0.000999964)
(-9.08933e-09 -5.73922e-08 -0.000999933)
(-2.64091e-08 -5.7371e-08 -0.000999938)
(-4.10977e-08 -5.71331e-08 -0.000999949)
(-5.18265e-08 -5.67538e-08 -0.000999964)
(-5.71337e-08 -5.62235e-08 -0.000999982)
(-1.26066e-08 -1.24559e-08 -0.00099984)
(-3.66397e-08 -1.2447e-08 -0.000999848)
(-5.70487e-08 -1.23871e-08 -0.000999863)
(-7.18882e-08 -1.2303e-08 -0.000999884)
(-7.96781e-08 -1.21995e-08 -0.000999909)
(-1.2598e-08 -3.61886e-08 -0.000999848)
(-3.66148e-08 -3.61639e-08 -0.000999856)
(-5.70092e-08 -3.59917e-08 -0.000999871)
(-7.18333e-08 -3.57452e-08 -0.000999892)
(-7.96134e-08 -3.54547e-08 -0.000999916)
(-1.25392e-08 -5.63147e-08 -0.000999863)
(-3.64438e-08 -5.62808e-08 -0.000999871)
(-5.67369e-08 -5.60132e-08 -0.000999886)
(-7.14885e-08 -5.56264e-08 -0.000999907)
(-7.92112e-08 -5.51969e-08 -0.000999931)
(-1.2461e-08 -7.09057e-08 -0.000999884)
(-3.62079e-08 -7.08734e-08 -0.000999892)
(-5.63549e-08 -7.05356e-08 -0.000999907)
(-7.10212e-08 -7.00642e-08 -0.000999927)
(-7.8647e-08 -6.95948e-08 -0.000999951)
(-1.23759e-08 -7.85581e-08 -0.000999908)
(-3.59381e-08 -7.85036e-08 -0.000999916)
(-5.59235e-08 -7.81165e-08 -0.000999931)
(-7.05478e-08 -7.75484e-08 -0.000999951)
(-7.78757e-08 -7.67723e-08 -0.000999975)
(-1.72236e-08 -1.7054e-08 -0.000999782)
(-5.00558e-08 -1.70411e-08 -0.000999793)
(-7.79338e-08 -1.69477e-08 -0.000999813)
(-9.81999e-08 -1.68166e-08 -0.000999842)
(-1.08855e-07 -1.66638e-08 -0.000999876)
(-1.7211e-08 -4.95481e-08 -0.000999793)
(-5.00092e-08 -4.95035e-08 -0.000999803)
(-7.78517e-08 -4.92305e-08 -0.000999824)
(-9.80968e-08 -4.88465e-08 -0.000999853)
(-1.08735e-07 -4.8411e-08 -0.000999886)
(-1.71207e-08 -7.70986e-08 -0.000999813)
(-4.97393e-08 -7.70181e-08 -0.000999824)
(-7.74224e-08 -7.65868e-08 -0.000999845)
(-9.75676e-08 -7.59846e-08 -0.000999873)
(-1.08141e-07 -7.53157e-08 -0.000999906)
(-1.69898e-08 -9.70725e-08 -0.000999842)
(-4.93534e-08 -9.69537e-08 -0.000999852)
(-7.68182e-08 -9.63973e-08 -0.000999873)
(-9.68315e-08 -9.56603e-08 -0.000999901)
(-1.07312e-07 -9.48911e-08 -0.000999934)
(-1.68232e-08 -1.07507e-07 -0.000999875)
(-4.8879e-08 -1.07377e-07 -0.000999886)
(-7.61233e-08 -1.06765e-07 -0.000999906)
(-9.60614e-08 -1.05926e-07 -0.000999934)
(-1.06222e-07 -1.04836e-07 -0.000999966)
(-2.35527e-08 -2.33678e-08 -0.000999702)
(-6.84219e-08 -2.33393e-08 -0.000999717)
(-1.065e-07 -2.31915e-08 -0.000999745)
(-1.34193e-07 -2.2989e-08 -0.000999785)
(-1.48765e-07 -2.27614e-08 -0.000999831)
(-2.35246e-08 -6.78602e-08 -0.000999717)
(-6.83268e-08 -6.77656e-08 -0.000999732)
(-1.06344e-07 -6.73394e-08 -0.00099976)
(-1.34009e-07 -6.67555e-08 -0.000999799)
(-1.48556e-07 -6.61001e-08 -0.000999845)
(-2.33784e-08 -1.05546e-07 -0.000999745)
(-6.79022e-08 -1.05381e-07 -0.00099976)
(-1.05688e-07 -1.04719e-07 -0.000999788)
(-1.33209e-07 -1.03819e-07 -0.000999827)
(-1.47671e-07 -1.02802e-07 -0.000999872)
(-2.31675e-08 -1.32853e-07 -0.000999784)
(-6.73033e-08 -1.32619e-07 -0.000999799)
(-1.04782e-07 -1.31782e-07 -0.000999827)
(-1.321e-07 -1.30686e-07 -0.000999865)
(-1.46444e-07 -1.2949e-07 -0.00099991)
(-2.29011e-08 -1.47095e-07 -0.00099983)
(-6.65787e-08 -1.46855e-07 -0.000999844)
(-1.03747e-07 -1.45937e-07 -0.000999872)
(-1.30917e-07 -1.44703e-07 -0.00099991)
(-1.44914e-07 -1.4318e-07 -0.000999954)
(-3.22206e-08 -3.20267e-08 -0.000999593)
(-9.35635e-08 -3.19662e-08 -0.000999613)
(-1.456e-07 -3.17387e-08 -0.000999652)
(-1.83477e-07 -3.143e-08 -0.000999706)
(-2.03412e-07 -3.10796e-08 -0.000999769)
(-3.21604e-08 -9.2955e-08 -0.000999613)
(-9.33858e-08 -9.2774e-08 -0.000999633)
(-1.45327e-07 -9.21258e-08 -0.000999672)
(-1.83153e-07 -9.12438e-08 -0.000999726)
(-2.03048e-07 -9.02336e-08 -0.000999789)
(-3.19308e-08 -1.4451e-07 -0.000999652)
(-9.27355e-08 -1.44222e-07 -0.000999672)
(-1.4434e-07 -1.4323e-07 -0.000999711)
(-1.81932e-07 -1.41882e-07 -0.000999764)
(-2.01702e-07 -1.40323e-07 -0.000999826)
(-3.16109e-08 -1.81847e-07 -0.000999706)
(-9.18385e-08 -1.81478e-07 -0.000999725)
(-1.42988e-07 -1.80247e-07 -0.000999763)
(-1.80256e-07 -1.78596e-07 -0.000999816)
(-1.99839e-07 -1.76718e-07 -0.000999877)
(-3.12304e-08 -2.01297e-07 -0.000999768)
(-9.07922e-08 -2.00903e-07 -0.000999788)
(-1.41447e-07 -1.99537e-07 -0.000999825)
(-1.78403e-07 -1.97678e-07 -0.000999877)
(-1.97576e-07 -1.95428e-07 -0.000999938)
(-4.40855e-08 -4.39009e-08 -0.000999444)
(-1.27994e-07 -4.37913e-08 -0.000999471)
(-1.99165e-07 -4.34464e-08 -0.000999525)
(-2.51003e-07 -4.29746e-08 -0.000999598)
(-2.78297e-07 -4.24225e-08 -0.000999685)
(-4.39763e-08 -1.27377e-07 -0.000999471)
(-1.27689e-07 -1.27066e-07 -0.000999499)
(-1.98707e-07 -1.26085e-07 -0.000999552)
(-2.50435e-07 -1.24738e-07 -0.000999625)
(-2.77669e-07 -1.23157e-07 -0.000999711)
(-4.36266e-08 -1.97963e-07 -0.000999525)
(-1.26703e-07 -1.97492e-07 -0.000999552)
(-1.97204e-07 -1.95991e-07 -0.000999605)
(-2.48549e-07 -1.93928e-07 -0.000999677)
(-2.75594e-07 -1.91513e-07 -0.000999763)
(-4.31485e-08 -2.49051e-07 -0.000999598)
(-1.25352e-07 -2.48477e-07 -0.000999625)
(-1.95143e-07 -2.46615e-07 -0.000999677)
(-2.45972e-07 -2.44054e-07 -0.000999749)
(-2.72727e-07 -2.41104e-07 -0.000999833)
(-4.26004e-08 -2.75608e-07 -0.000999684)
(-1.23798e-07 -2.74965e-07 -0.000999711)
(-1.92767e-07 -2.72883e-07 -0.000999762)
(-2.43038e-07 -2.70019e-07 -0.000999832)
(-2.69278e-07 -2.66581e-07 -0.000999915)
(-6.03377e-08 -6.02101e-08 -0.000999239)
(-1.75184e-07 -6.00296e-08 -0.000999277)
(-2.72605e-07 -5.95049e-08 -0.00099935)
(-3.43576e-07 -5.87824e-08 -0.000999451)
(-3.80986e-07 -5.79248e-08 -0.00099957)
(-6.01574e-08 -1.74677e-07 -0.000999277)
(-1.74682e-07 -1.74169e-07 -0.000999315)
(-2.71846e-07 -1.72669e-07 -0.000999388)
(-3.42616e-07 -1.70601e-07 -0.000999488)
(-3.79937e-07 -1.68155e-07 -0.000999606)
(-5.96275e-08 -2.71412e-07 -0.000999351)
(-1.73177e-07 -2.70643e-07 -0.000999388)
(-2.69538e-07 -2.68335e-07 -0.00099946)
(-3.39706e-07 -2.65149e-07 -0.000999559)
(-3.7674e-07 -2.61417e-07 -0.000999676)
(-5.89017e-08 -3.41349e-07 -0.000999451)
(-1.71106e-07 -3.404e-07 -0.000999488)
(-2.66353e-07 -3.37512e-07 -0.000999559)
(-3.35719e-07 -3.33513e-07 -0.000999657)
(-3.72326e-07 -3.28904e-07 -0.000999772)
(-5.80625e-08 -3.7759e-07 -0.00099957)
(-1.687e-07 -3.76519e-07 -0.000999606)
(-2.6263e-07 -3.73282e-07 -0.000999675)
(-3.31099e-07 -3.68838e-07 -0.000999771)
(-3.67052e-07 -3.63561e-07 -0.000999884)
(-8.26295e-08 -8.26654e-08 -0.000998958)
(-2.39926e-07 -8.23769e-08 -0.00099901)
(-3.73373e-07 -8.15747e-08 -0.000999111)
(-4.70591e-07 -8.04731e-08 -0.000999249)
(-5.219e-07 -7.91694e-08 -0.000999412)
(-8.23409e-08 -2.39803e-07 -0.000999011)
(-2.39112e-07 -2.38982e-07 -0.000999062)
(-3.72134e-07 -2.36677e-07 -0.000999162)
(-4.69029e-07 -2.3351e-07 -0.0009993)
(-5.20197e-07 -2.29775e-07 -0.000999462)
(-8.15318e-08 -3.72496e-07 -0.000999112)
(-2.368e-07 -3.71231e-07 -0.000999163)
(-3.68583e-07 -3.67664e-07 -0.000999262)
(-4.64566e-07 -3.62754e-07 -0.000999398)
(-5.15288e-07 -3.57004e-07 -0.000999558)
(-8.04129e-08 -4.68252e-07 -0.000999251)
(-2.336e-07 -4.6665e-07 -0.000999302)
(-3.63657e-07 -4.62149e-07 -0.000999398)
(-4.58397e-07 -4.55936e-07 -0.000999532)
(-5.085e-07 -4.48726e-07 -0.000999689)
(-7.90913e-08 -5.17671e-07 -0.000999414)
(-2.29826e-07 -5.1588e-07 -0.000999463)
(-3.57841e-07 -5.10831e-07 -0.000999558)
(-4.51142e-07 -5.03934e-07 -0.000999688)
(-5.00434e-07 -4.95832e-07 -0.000999842)
(-1.13251e-07 -1.13661e-07 -0.000998573)
(-3.28844e-07 -1.132e-07 -0.000998645)
(-5.11739e-07 -1.11972e-07 -0.000998783)
(-6.44986e-07 -1.10295e-07 -0.000998973)
(-7.15392e-07 -1.08326e-07 -0.000999197)
(-1.1279e-07 -3.29659e-07 -0.000998646)
(-3.27531e-07 -3.28331e-07 -0.000998717)
(-5.09739e-07 -3.24788e-07 -0.000998854)
(-6.42489e-07 -3.1995e-07 -0.000999043)
(-7.12653e-07 -3.14277e-07 -0.000999266)
(-1.11545e-07 -5.11842e-07 -0.000998786)
(-3.23972e-07 -5.09772e-07 -0.000998856)
(-5.04287e-07 -5.04268e-07 -0.000998991)
(-6.3567e-07 -4.96735e-07 -0.000999178)
(-7.05137e-07 -4.87931e-07 -0.000999397)
(-1.09815e-07 -6.4298e-07 -0.000998978)
(-3.19028e-07 -6.40335e-07 -0.000999046)
(-4.96703e-07 -6.33362e-07 -0.000999179)
(-6.2619e-07 -6.23791e-07 -0.000999361)
(-6.94721e-07 -6.12637e-07 -0.000999576)
(-1.07756e-07 -7.10297e-07 -0.000999202)
(-3.13164e-07 -7.07336e-07 -0.000999269)
(-4.87706e-07 -6.99506e-07 -0.000999398)
(-6.14945e-07 -6.88836e-07 -0.000999576)
(-6.82405e-07 -6.76408e-07 -0.000999785)
(-1.55376e-07 -1.56547e-07 -0.000998045)
(-4.51104e-07 -1.55806e-07 -0.000998143)
(-7.01873e-07 -1.53921e-07 -0.000998333)
(-8.8454e-07 -1.51365e-07 -0.000998594)
(-9.81204e-07 -1.48386e-07 -0.000998902)
(-1.54633e-07 -4.53904e-07 -0.000998145)
(-4.48987e-07 -4.51753e-07 -0.000998243)
(-6.98662e-07 -4.46308e-07 -0.000998432)
(-8.80567e-07 -4.38919e-07 -0.000998691)
(-9.7683e-07 -4.30318e-07 -0.000998997)
(-1.5271e-07 -7.04302e-07 -0.000998339)
(-4.43503e-07 -7.0094e-07 -0.000998435)
(-6.90303e-07 -6.92463e-07 -0.000998621)
(-8.70176e-07 -6.80945e-07 -0.000998876)
(-9.65371e-07 -6.6755e-07 -0.000999177)
(-1.50038e-07 -8.83979e-07 -0.000998604)
(-4.3588e-07 -8.79695e-07 -0.000998698)
(-6.78667e-07 -8.68928e-07 -0.000998879)
(-8.55706e-07 -8.5426e-07 -0.000999129)
(-9.49473e-07 -8.37215e-07 -0.000999423)
(-1.46866e-07 -9.75538e-07 -0.000998913)
(-4.26827e-07 -9.70702e-07 -0.000999005)
(-6.64816e-07 -9.58605e-07 -0.000999181)
(-8.38464e-07 -9.42158e-07 -0.000999423)
(-9.30674e-07 -9.23103e-07 -0.000999709)
(-2.13434e-07 -2.16038e-07 -0.000997318)
(-6.19454e-07 -2.14837e-07 -0.000997453)
(-9.6339e-07 -2.11938e-07 -0.000997715)
(-1.21376e-06 -2.0804e-07 -0.000998075)
(-1.3465e-06 -2.03536e-07 -0.000998497)
(-2.12228e-07 -6.26126e-07 -0.000997457)
(-6.16044e-07 -6.22642e-07 -0.000997592)
(-9.58265e-07 -6.14264e-07 -0.000997852)
(-1.20748e-06 -6.0299e-07 -0.000998209)
(-1.33959e-06 -5.8997e-07 -0.000998628)
(-2.09244e-07 -9.70728e-07 -0.000997726)
(-6.07579e-07 -9.65284e-07 -0.000997859)
(-9.45458e-07 -9.52221e-07 -0.000998113)
(-1.19168e-06 -9.34631e-07 -0.000998464)
(-1.3222e-06 -9.14324e-07 -0.000998876)
(-2.05101e-07 -1.21701e-06 -0.000998093)
(-5.95804e-07 -1.21008e-06 -0.000998223)
(-9.27612e-07 -1.19344e-06 -0.000998471)
(-1.16965e-06 -1.17099e-06 -0.000998812)
(-1.29807e-06 -1.14507e-06 -0.000999214)
(-2.00187e-07 -1.34129e-06 -0.00099852)
(-5.81789e-07 -1.33343e-06 -0.000998646)
(-9.06296e-07 -1.3147e-06 -0.000998886)
(-1.14331e-06 -1.28938e-06 -0.000999217)
(-1.26939e-06 -1.26019e-06 -0.000999606)
(-2.93686e-07 -2.98821e-07 -0.000996316)
(-8.51797e-07 -2.96862e-07 -0.000996504)
(-1.32359e-06 -2.92392e-07 -0.000996866)
(-1.66649e-06 -2.86457e-07 -0.000997361)
(-1.84861e-06 -2.79675e-07 -0.000997941)
(-2.91718e-07 -8.65605e-07 -0.000996511)
(-8.46302e-07 -8.59931e-07 -0.000996697)
(-1.31546e-06 -8.46999e-07 -0.000997055)
(-1.65666e-06 -8.29824e-07 -0.000997546)
(-1.83783e-06 -8.10204e-07 -0.000998122)
(-2.87046e-07 -1.34059e-06 -0.000996885)
(-8.33166e-07 -1.33172e-06 -0.000997068)
(-1.29583e-06 -1.31153e-06 -0.000997419)
(-1.63271e-06 -1.2847e-06 -0.0009979)
(-1.8116e-06 -1.25407e-06 -0.000998465)
(-2.80554e-07 -1.67821e-06 -0.000997396)
(-8.14873e-07 -1.6669e-06 -0.000997573)
(-1.26844e-06 -1.64112e-06 -0.000997913)
(-1.5993e-06 -1.60682e-06 -0.000998381)
(-1.77518e-06 -1.56765e-06 -0.000998931)
(-2.72847e-07 -1.84641e-06 -0.000997987)
(-7.93055e-07 -1.83362e-06 -0.000998158)
(-1.23565e-06 -1.80448e-06 -0.000998485)
(-1.55923e-06 -1.76552e-06 -0.000998937)
(-1.73168e-06 -1.72099e-06 -0.000999469)
(-4.05195e-07 -4.1447e-07 -0.000994932)
(-1.17362e-06 -4.11227e-07 -0.000995195)
(-1.82066e-06 -4.04298e-07 -0.000995697)
(-2.28943e-06 -3.95277e-07 -0.00099638)
(-2.53846e-06 -3.85146e-07 -0.000997177)
(-4.01936e-07 -1.19995e-06 -0.000995205)
(-1.16471e-06 -1.19056e-06 -0.000995465)
(-1.8078e-06 -1.17047e-06 -0.000995961)
(-2.2742e-06 -1.14435e-06 -0.000996638)
(-2.52192e-06 -1.11502e-06 -0.000997428)
(-3.9448e-07 -1.85591e-06 -0.00099573)
(-1.14409e-06 -1.84124e-06 -0.000995983)
(-1.77764e-06 -1.80982e-06 -0.000996467)
(-2.23808e-06 -1.76898e-06 -0.000997129)
(-2.48274e-06 -1.72316e-06 -0.000997904)
(-3.84134e-07 -2.31869e-06 -0.000996442)
(-1.11539e-06 -2.30004e-06 -0.000996686)
(-1.73554e-06 -2.2599e-06 -0.000997152)
(-2.18767e-06 -2.20758e-06 -0.000997794)
(-2.42833e-06 -2.14885e-06 -0.000998547)
(-3.71889e-07 -2.54529e-06 -0.000997263)
(-1.08117e-06 -2.52432e-06 -0.000997496)
(-1.68504e-06 -2.47877e-06 -0.000997943)
(-2.12703e-06 -2.41888e-06 -0.000998559)
(-2.36308e-06 -2.35144e-06 -0.000999286)
(-5.6156e-07 -5.76772e-07 -0.000993016)
(-1.62194e-06 -5.71208e-07 -0.000993389)
(-2.50833e-06 -5.60417e-07 -0.000994087)
(-3.14671e-06 -5.46699e-07 -0.000995031)
(-3.48471e-06 -5.31786e-07 -0.000996124)
(-5.55971e-07 -1.66914e-06 -0.000993401)
(-1.60729e-06 -1.65307e-06 -0.000993767)
(-2.48801e-06 -1.62163e-06 -0.000994456)
(-3.1234e-06 -1.58189e-06 -0.00099539)
(-3.45982e-06 -1.53869e-06 -0.000996474)
(-5.43699e-07 -2.57733e-06 -0.00099414)
(-1.57435e-06 -2.55234e-06 -0.000994494)
(-2.44147e-06 -2.50296e-06 -0.000995164)
(-3.06935e-06 -2.4408e-06 -0.000996075)
(-3.40229e-06 -2.37325e-06 -0.000997137)
(-5.26728e-07 -3.21146e-06 -0.000995138)