/*--------------------------------*- C++ -*----------------------------------*\
| =========                 |                                                 |
| \\      /  F ield         | OpenFOAM: The Open Source CFD Toolbox           |
|  \\    /   O peration     | Version:  5.x                                   |
|   \\  /    A nd           | Web:      www.OpenFOAM.org                      |
|    \\/     M anipulation  |                                                 |
\*---------------------------------------------------------------------------*/
FoamFile
{
    version     2.0;
    format      ascii;
    class       volVectorField;
    location    "0.01";
    object      U;
}
// * * * * * * * * * * * * * * * * * * * * * * * * * * * * * * * * * * * * * //

dimensions      [0 1 -1 0 0 0 0];

internalField   nonuniform List<vector> 
2250
(
(-3.10319e-11 -1.55228e-10 -0.001)
(-1.03032e-10 -1.37359e-10 -0.001)
(-1.42391e-10 -1.09128e-10 -0.001)
(-1.62001e-10 -8.80349e-11 -0.001)
(-2.65987e-11 -1.17724e-10 -0.001)
(-2.09861e-11 -1.35714e-10 -0.001)
(-6.50149e-11 -1.15148e-10 -0.001)
(-8.36387e-11 -7.57039e-11 -0.001)
(-7.89764e-11 -3.38403e-11 -0.001)
(-8.65745e-11 4.04913e-11 -0.001)
(-1.02255e-11 -7.67828e-11 -0.001)
(-4.2746e-11 -6.387e-11 -0.001)
(-6.10805e-11 -4.78188e-11 -0.001)
(-4.57842e-11 -3.07401e-11 -0.001)
(-7.0402e-11 1.15321e-12 -0.001)
(-7.94193e-12 -3.96584e-11 -0.001)
(-3.58937e-11 -3.84146e-11 -0.001)
(-5.05055e-11 -3.16338e-11 -0.001)
(-2.99972e-11 -2.30827e-11 -0.001)
(-6.19961e-11 -1.74823e-11 -0.001)
(-8.88385e-12 -1.41394e-11 -0.001)
(-3.45682e-11 -1.5128e-11 -0.001)
(-4.5646e-11 -1.29153e-11 -0.001)
(-3.15426e-11 -1.03799e-11 -0.001)
(-6.64999e-11 -1.45475e-11 -0.001)
(-1.00838e-10 -4.17242e-10 -0.001)
(-2.65161e-10 -3.61241e-10 -0.001)
(-3.18036e-10 -3.02805e-10 -0.001)
(-3.78066e-10 -2.57351e-10 -0.001)
(-1.13234e-10 -3.60192e-10 -0.001)
(-6.16148e-11 -3.50673e-10 -0.001)
(-1.71615e-10 -2.92945e-10 -0.001)
(-2.12025e-10 -2.1543e-10 -0.001)
(-2.29995e-10 -1.42313e-10 -0.001)
(-2.39119e-10 4.75848e-12 -0.001)
(-4.25127e-11 -2.13928e-10 -0.001)
(-1.29219e-10 -1.89228e-10 -0.001)
(-1.6739e-10 -1.54442e-10 -0.001)
(-1.5789e-10 -1.21127e-10 -0.001)
(-2.18811e-10 -5.42797e-11 -0.001)
(-3.65353e-11 -1.29173e-10 -0.001)
(-1.11702e-10 -1.25883e-10 -0.001)
(-1.43915e-10 -1.06971e-10 -0.001)
(-1.2982e-10 -9.05232e-11 -0.001)
(-2.15668e-10 -8.42464e-11 -0.001)
(-3.88884e-11 -4.75697e-11 -0.001)
(-1.0654e-10 -5.00941e-11 -0.001)
(-1.31734e-10 -4.27269e-11 -0.001)
(-1.34833e-10 -3.82341e-11 -0.001)
(-2.27173e-10 -4.8067e-11 -0.001)
(-1.34304e-10 -6.2314e-10 -0.001)
(-3.24386e-10 -5.71661e-10 -0.001)
(-3.91798e-10 -5.24509e-10 -0.001)
(-5.08742e-10 -4.78832e-10 -0.001)
(-3.80101e-10 -5.54318e-10 -0.001)
(-9.52839e-11 -5.09891e-10 -0.001)
(-2.51353e-10 -4.63102e-10 -0.001)
(-3.24752e-10 -4.08984e-10 -0.001)
(-4.04108e-10 -3.53477e-10 -0.001)
(-4.55772e-10 -2.26351e-10 -0.001)
(-8.65732e-11 -3.63686e-10 -0.001)
(-2.22459e-10 -3.49531e-10 -0.001)
(-2.82172e-10 -3.14648e-10 -0.001)
(-3.26114e-10 -2.77103e-10 -0.001)
(-4.34303e-10 -2.03021e-10 -0.001)
(-8.0423e-11 -2.43193e-10 -0.001)
(-2.01587e-10 -2.36322e-10 -0.001)
(-2.5231e-10 -2.08864e-10 -0.001)
(-2.92482e-10 -1.89177e-10 -0.001)
(-4.29639e-10 -1.72082e-10 -0.001)
(-7.90815e-11 -8.99061e-11 -0.001)
(-1.87255e-10 -8.88753e-11 -0.001)
(-2.34493e-10 -7.61612e-11 -0.001)
(-2.8865e-10 -7.16337e-11 -0.001)
(-4.32528e-10 -7.30247e-11 -0.001)
(-1.33135e-10 -8.73089e-10 -0.001)
(-3.46078e-10 -8.68803e-10 -0.001)
(-5.13899e-10 -8.53695e-10 -0.001)
(-7.36572e-10 -8.12506e-10 -0.001)
(-7.76801e-10 -7.88622e-10 -0.001)
(-1.26977e-10 -7.31654e-10 -0.001)
(-3.3594e-10 -7.32016e-10 -0.001)
(-4.83265e-10 -7.13173e-10 -0.001)
(-6.43748e-10 -6.576e-10 -0.001)
(-7.65351e-10 -5.38796e-10 -0.001)
(-1.32016e-10 -5.80211e-10 -0.001)
(-3.26135e-10 -5.79763e-10 -0.001)
(-4.39469e-10 -5.48294e-10 -0.001)
(-5.62196e-10 -4.97199e-10 -0.001)
(-7.27208e-10 -4.21135e-10 -0.001)
(-1.25364e-10 -3.84495e-10 -0.001)
(-3.02869e-10 -3.70373e-10 -0.001)
(-4.0068e-10 -3.39193e-10 -0.001)
(-5.16576e-10 -3.13931e-10 -0.001)
(-7.03995e-10 -2.85893e-10 -0.001)
(-1.16919e-10 -1.34319e-10 -0.001)
(-2.7949e-10 -1.26399e-10 -0.001)
(-3.82178e-10 -1.11858e-10 -0.001)
(-5.07782e-10 -1.0878e-10 -0.001)
(-6.95205e-10 -1.04192e-10 -0.001)
(-1.56036e-10 -1.23948e-09 -0.001)
(-4.38779e-10 -1.26976e-09 -0.001)
(-7.40023e-10 -1.27575e-09 -0.001)
(-1.1132e-09 -1.24223e-09 -0.001)
(-1.13743e-09 -1.22465e-09 -0.001)
(-1.72831e-10 -1.08231e-09 -0.001)
(-4.65389e-10 -1.10922e-09 -0.001)
(-7.17488e-10 -1.10841e-09 -0.001)
(-9.91912e-10 -1.04446e-09 -0.001)
(-1.14949e-09 -9.0204e-10 -0.001)
(-1.80728e-10 -8.68641e-10 -0.001)
(-4.62739e-10 -8.71393e-10 -0.001)
(-6.75239e-10 -8.45607e-10 -0.001)
(-9.06821e-10 -7.88249e-10 -0.001)
(-1.10452e-09 -7.05911e-10 -0.001)
(-1.73863e-10 -5.53643e-10 -0.001)
(-4.4064e-10 -5.35758e-10 -0.001)
(-6.34316e-10 -5.09266e-10 -0.001)
(-8.52199e-10 -4.84937e-10 -0.001)
(-1.07039e-09 -4.57318e-10 -0.001)
(-1.61498e-10 -1.84552e-10 -0.001)
(-4.16426e-10 -1.7286e-10 -0.001)
(-6.23105e-10 -1.61608e-10 -0.001)
(-8.53117e-10 -1.62965e-10 -0.001)
(-1.06354e-09 -1.64255e-10 -0.001)
(-2.19811e-10 -1.71187e-09 -0.000999999)
(-6.30364e-10 -1.75223e-09 -0.001)
(-1.06837e-09 -1.76855e-09 -0.001)
(-1.59166e-09 -1.7369e-09 -0.001)
(-1.61967e-09 -1.7639e-09 -0.001)
(-2.42837e-10 -1.52092e-09 -0.001)
(-6.73838e-10 -1.55114e-09 -0.001)
(-1.0673e-09 -1.56524e-09 -0.001)
(-1.46567e-09 -1.51595e-09 -0.001)
(-1.65293e-09 -1.36163e-09 -0.001)
(-2.4698e-10 -1.21733e-09 -0.001)
(-6.71699e-10 -1.21942e-09 -0.001)
(-1.03312e-09 -1.20066e-09 -0.001)
(-1.38796e-09 -1.14822e-09 -0.001)
(-1.59721e-09 -1.07037e-09 -0.001)
(-2.42534e-10 -7.62467e-10 -0.001)
(-6.54783e-10 -7.47563e-10 -0.001)
(-9.96079e-10 -7.27318e-10 -0.001)
(-1.33536e-09 -7.08198e-10 -0.001)
(-1.56415e-09 -6.89548e-10 -0.001)
(-2.30193e-10 -2.51201e-10 -0.001)
(-6.33808e-10 -2.39791e-10 -0.001)
(-9.91765e-10 -2.32019e-10 -0.001)
(-1.3475e-09 -2.37452e-10 -0.001)
(-1.56807e-09 -2.46782e-10 -0.001)
(-3.26269e-10 -2.33484e-09 -0.000999999)
(-9.62786e-10 -2.37897e-09 -0.000999999)
(-1.58857e-09 -2.388e-09 -0.001)
(-2.20354e-09 -2.33657e-09 -0.001)
(-2.30559e-09 -2.34786e-09 -0.001)
(-3.51361e-10 -2.08253e-09 -0.000999999)
(-1.00011e-09 -2.10955e-09 -0.001)
(-1.57865e-09 -2.10998e-09 -0.001)
(-2.08699e-09 -2.05849e-09 -0.001)
(-2.31872e-09 -1.91705e-09 -0.001)
(-3.4914e-10 -1.66602e-09 -0.001)
(-9.86104e-10 -1.66252e-09 -0.001)
(-1.53751e-09 -1.63628e-09 -0.001)
(-2.01068e-09 -1.58509e-09 -0.001)
(-2.24958e-09 -1.5221e-09 -0.001)
(-3.44594e-10 -1.04071e-09 -0.001)
(-9.67037e-10 -1.02481e-09 -0.001)
(-1.50116e-09 -1.00304e-09 -0.001)
(-1.97277e-09 -9.89706e-10 -0.001)
(-2.22537e-09 -9.86853e-10 -0.001)
(-3.3058e-10 -3.44774e-10 -0.001)
(-9.44477e-10 -3.32098e-10 -0.001)
(-1.49939e-09 -3.24817e-10 -0.001)
(-1.99055e-09 -3.33286e-10 -0.001)
(-2.236e-09 -3.46442e-10 -0.001)
(-4.99741e-10 -3.21785e-09 -0.000999998)
(-1.47352e-09 -3.2451e-09 -0.000999998)
(-2.33778e-09 -3.22518e-09 -0.000999999)
(-3.0109e-09 -3.17888e-09 -0.001)
(-3.17704e-09 -3.14372e-09 -0.001)
(-5.07434e-10 -2.88223e-09 -0.000999999)
(-1.45376e-09 -2.88197e-09 -0.000999999)
(-2.26356e-09 -2.82948e-09 -0.001)
(-2.89483e-09 -2.75039e-09 -0.001)
(-3.17875e-09 -2.64756e-09 -0.001)
(-4.93775e-10 -2.27848e-09 -0.001)
(-1.41501e-09 -2.25838e-09 -0.001)
(-2.20616e-09 -2.21562e-09 -0.001)
(-2.82898e-09 -2.16903e-09 -0.001)
(-3.12808e-09 -2.13322e-09 -0.001)
(-4.8286e-10 -1.42074e-09 -0.001)
(-1.38634e-09 -1.39648e-09 -0.001)
(-2.17414e-09 -1.37529e-09 -0.001)
(-2.81238e-09 -1.37316e-09 -0.001)
(-3.11746e-09 -1.37711e-09 -0.001)
(-4.65846e-10 -4.73221e-10 -0.001)
(-1.36403e-09 -4.58047e-10 -0.001)
(-2.17849e-09 -4.54568e-10 -0.001)
(-2.82519e-09 -4.66662e-10 -0.001)
(-3.11841e-09 -4.72885e-10 -0.001)
(-7.2149e-10 -4.42566e-09 -0.000999997)
(-2.09307e-09 -4.42088e-09 -0.000999997)
(-3.24683e-09 -4.38235e-09 -0.000999998)
(-4.10025e-09 -4.36298e-09 -0.000999999)
(-4.2366e-09 -4.40849e-09 -0.001)
(-7.01859e-10 -3.97535e-09 -0.000999998)
(-2.02135e-09 -3.94371e-09 -0.000999998)
(-3.13829e-09 -3.86439e-09 -0.000999999)
(-3.98165e-09 -3.78472e-09 -0.001)
(-4.3151e-09 -3.69654e-09 -0.001)
(-6.82038e-10 -3.1099e-09 -0.000999999)
(-1.97418e-09 -3.07989e-09 -0.000999999)
(-3.08778e-09 -3.04037e-09 -0.001)
(-3.93239e-09 -3.0151e-09 -0.001)
(-4.30608e-09 -2.98314e-09 -0.001)
(-6.65756e-10 -1.94494e-09 -0.001)
(-1.9456e-09 -1.92197e-09 -0.001)
(-3.07341e-09 -1.91697e-09 -0.001)
(-3.92436e-09 -1.92471e-09 -0.001)
(-4.29798e-09 -1.90726e-09 -0.001)
(-6.54002e-10 -6.52447e-10 -0.001)
(-1.93851e-09 -6.43254e-10 -0.001)
(-3.08437e-09 -6.50469e-10 -0.001)
(-3.9149e-09 -6.60253e-10 -0.001)
(-4.27512e-09 -6.4873e-10 -0.001)
(-9.61854e-10 -6.03034e-09 -0.000999995)
(-2.8016e-09 -6.02239e-09 -0.000999996)
(-4.36288e-09 -5.9914e-09 -0.000999997)
(-5.51522e-09 -5.98437e-09 -0.000999998)
(-5.74601e-09 -6.11113e-09 -0.001)
(-9.45213e-10 -5.42447e-09 -0.000999997)
(-2.74704e-09 -5.40494e-09 -0.000999998)
(-4.27947e-09 -5.34947e-09 -0.000999999)
(-5.41694e-09 -5.2947e-09 -0.001)
(-5.8538e-09 -5.21151e-09 -0.001)
(-9.31699e-10 -4.24715e-09 -0.000999999)
(-2.71585e-09 -4.22956e-09 -0.000999999)
(-4.25256e-09 -4.2128e-09 -0.001)
(-5.37726e-09 -4.2094e-09 -0.001)
(-5.85958e-09 -4.16028e-09 -0.001)
(-9.19286e-10 -2.68396e-09 -0.001)
(-2.7042e-09 -2.68273e-09 -0.001)
(-4.25918e-09 -2.69778e-09 -0.001)
(-5.36434e-09 -2.69993e-09 -0.001)
(-5.84128e-09 -2.6602e-09 -0.001)
(-9.23369e-10 -9.12287e-10 -0.001)
(-2.71894e-09 -9.1997e-10 -0.001)
(-4.26124e-09 -9.34145e-10 -0.001)
(-5.32906e-09 -9.30443e-10 -0.001)
(-5.80273e-09 -9.09464e-10 -0.00100001)
(-1.279e-09 -8.19998e-09 -0.000999993)
(-3.7484e-09 -8.20756e-09 -0.000999994)
(-5.8514e-09 -8.17624e-09 -0.000999996)
(-7.39815e-09 -8.14561e-09 -0.000999998)
(-7.87999e-09 -8.27252e-09 -0.001)
(-1.27857e-09 -7.38832e-09 -0.000999996)
(-3.72267e-09 -7.39533e-09 -0.000999997)
(-5.79198e-09 -7.36166e-09 -0.000999998)
(-7.2956e-09 -7.32535e-09 -0.001)
(-7.93631e-09 -7.22257e-09 -0.001)
(-1.27149e-09 -5.81391e-09 -0.000999998)
(-3.7071e-09 -5.8185e-09 -0.000999999)
(-5.7813e-09 -5.82033e-09 -0.001)
(-7.25906e-09 -5.82137e-09 -0.001)
(-7.92852e-09 -5.76675e-09 -0.001)
(-1.27169e-09 -3.72066e-09 -0.000999999)
(-3.71749e-09 -3.747e-09 -0.001)
(-5.79468e-09 -3.76277e-09 -0.001)
(-7.24191e-09 -3.74526e-09 -0.001)
(-7.90456e-09 -3.7083e-09 -0.00100001)
(-1.28793e-09 -1.28274e-09 -0.001)
(-3.7344e-09 -1.30403e-09 -0.001)
(-5.76801e-09 -1.30951e-09 -0.001)
(-7.19025e-09 -1.28882e-09 -0.001)
(-7.86493e-09 -1.27216e-09 -0.00100001)
(-1.73799e-09 -1.11458e-08 -0.000999991)
(-5.05017e-09 -1.11503e-08 -0.000999992)
(-7.82341e-09 -1.11104e-08 -0.000999994)
(-9.804e-09 -1.10654e-08 -0.000999997)
(-1.08926e-08 -1.1072e-08 -0.001)
(-1.7305e-09 -1.00498e-08 -0.000999994)
(-5.02601e-09 -1.00592e-08 -0.000999995)
(-7.80559e-09 -1.00436e-08 -0.000999997)
(-9.80515e-09 -1.0043e-08 -0.001)
(-1.07825e-08 -1.00298e-08 -0.001)
(-1.72768e-09 -7.95397e-09 -0.000999997)
(-5.02407e-09 -7.98009e-09 -0.000999998)
(-7.80701e-09 -7.98685e-09 -0.001)
(-9.79022e-09 -7.97815e-09 -0.001)
(-1.07539e-08 -7.94568e-09 -0.00100001)
(-1.74091e-09 -5.13734e-09 -0.000999999)
(-5.04304e-09 -5.1742e-09 -0.001)
(-7.80341e-09 -5.16562e-09 -0.001)
(-9.76383e-09 -5.12656e-09 -0.00100001)
(-1.07226e-08 -5.09218e-09 -0.00100001)
(-1.75091e-09 -1.78408e-09 -0.001)
(-5.03214e-09 -1.80103e-09 -0.001)
(-7.74384e-09 -1.78667e-09 -0.001)
(-9.69744e-09 -1.75691e-09 -0.00100001)
(-1.06741e-08 -1.73955e-09 -0.00100001)
(-2.34536e-09 -1.51459e-08 -0.000999988)
(-6.78352e-09 -1.51507e-08 -0.000999989)
(-1.04946e-08 -1.51183e-08 -0.000999992)
(-1.31076e-08 -1.50733e-08 -0.000999995)
(-1.49575e-08 -1.49253e-08 -0.001)
(-2.33249e-09 -1.36592e-08 -0.000999992)
(-6.77981e-09 -1.36795e-08 -0.000999994)
(-1.05502e-08 -1.36946e-08 -0.000999996)
(-1.32517e-08 -1.37352e-08 -0.001)
(-1.47153e-08 -1.38424e-08 -0.001)
(-2.33882e-09 -1.08728e-08 -0.000999996)
(-6.79179e-09 -1.09137e-08 -0.000999998)
(-1.05501e-08 -1.09054e-08 -0.001)
(-1.32555e-08 -1.08729e-08 -0.001)
(-1.46414e-08 -1.08618e-08 -0.00100001)
(-2.35196e-09 -7.03924e-09 -0.000999999)
(-6.79073e-09 -7.06034e-09 -0.001)
(-1.05091e-08 -7.01779e-09 -0.001)
(-1.32079e-08 -6.96289e-09 -0.00100001)
(-1.45801e-08 -6.91746e-09 -0.00100001)
(-2.34141e-09 -2.44053e-09 -0.001)
(-6.74294e-09 -2.43937e-09 -0.001)
(-1.04317e-08 -2.41098e-09 -0.001)
(-1.3129e-08 -2.38279e-09 -0.00100001)
(-1.45051e-08 -2.35813e-09 -0.00100001)
(-3.16597e-09 -2.06387e-08 -0.000999983)
(-9.19399e-09 -2.06587e-08 -0.000999985)
(-1.43007e-08 -2.06204e-08 -0.000999989)
(-1.79021e-08 -2.05526e-08 -0.000999994)
(-2.03748e-08 -2.02608e-08 -0.001)
(-3.16038e-09 -1.86307e-08 -0.000999989)
(-9.19841e-09 -1.86679e-08 -0.000999991)
(-1.43397e-08 -1.8668e-08 -0.000999995)
(-1.80296e-08 -1.8667e-08 -0.001)
(-2.00884e-08 -1.87633e-08 -0.00100001)
(-3.1665e-09 -1.48571e-08 -0.000999995)
(-9.19429e-09 -1.48871e-08 -0.000999997)
(-1.42995e-08 -1.48403e-08 -0.001)
(-1.79975e-08 -1.47707e-08 -0.00100001)
(-1.99477e-08 -1.47384e-08 -0.00100001)
(-3.16118e-09 -9.58691e-09 -0.000999999)
(-9.15207e-09 -9.57998e-09 -0.001)
(-1.42228e-08 -9.51537e-09 -0.001)
(-1.79274e-08 -9.45181e-09 -0.00100001)
(-1.9842e-08 -9.3925e-09 -0.00100002)
(-3.13457e-09 -3.30561e-09 -0.001)
(-9.08564e-09 -3.29165e-09 -0.001)
(-1.4143e-08 -3.2638e-09 -0.00100001)
(-1.7839e-08 -3.24e-09 -0.00100001)
(-1.97344e-08 -3.2108e-09 -0.00100002)
(-4.31681e-09 -2.81945e-08 -0.000999977)
(-1.25729e-08 -2.82125e-08 -0.000999979)
(-1.96212e-08 -2.81199e-08 -0.000999985)
(-2.47017e-08 -2.79898e-08 -0.000999992)
(-2.75973e-08 -2.76735e-08 -0.001)
(-4.30602e-09 -2.5479e-08 -0.000999985)
(-1.25261e-08 -2.55021e-08 -0.000999988)
(-1.95283e-08 -2.54222e-08 -0.000999993)
(-2.45982e-08 -2.52964e-08 -0.001)
(-2.73308e-08 -2.51908e-08 -0.00100001)
(-4.28991e-09 -2.02784e-08 -0.000999993)
(-1.24657e-08 -2.02735e-08 -0.000999995)
(-1.94151e-08 -2.01801e-08 -0.001)
(-2.44704e-08 -2.00607e-08 -0.00100001)
(-2.71349e-08 -1.99468e-08 -0.00100002)
(-4.26125e-09 -1.30304e-08 -0.000999998)
(-1.23875e-08 -1.30068e-08 -0.001)
(-1.93149e-08 -1.2934e-08 -0.00100001)
(-2.43645e-08 -1.28549e-08 -0.00100001)
(-2.69863e-08 -1.27572e-08 -0.00100002)
(-4.23243e-09 -4.47683e-09 -0.001)
(-1.23189e-08 -4.46511e-09 -0.001)
(-1.92246e-08 -4.44156e-09 -0.00100001)
(-2.42452e-08 -4.41305e-09 -0.00100002)
(-2.6841e-08 -4.37043e-09 -0.00100002)
(-5.89434e-09 -3.85567e-08 -0.000999968)
(-1.71768e-08 -3.85464e-08 -0.000999972)
(-2.68164e-08 -3.83491e-08 -0.000999979)
(-3.38141e-08 -3.80967e-08 -0.000999989)
(-3.74916e-08 -3.77436e-08 -0.001)
(-5.86779e-09 -3.48523e-08 -0.00099998)
(-1.70545e-08 -3.48426e-08 -0.000999984)
(-2.65728e-08 -3.46629e-08 -0.000999991)
(-3.35063e-08 -3.43996e-08 -0.001)
(-3.71471e-08 -3.41128e-08 -0.00100001)
(-5.81629e-09 -2.76648e-08 -0.00099999)
(-1.69184e-08 -2.76234e-08 -0.000999994)
(-2.63729e-08 -2.74795e-08 -0.001)
(-3.3264e-08 -2.72911e-08 -0.00100001)
(-3.68785e-08 -2.70623e-08 -0.00100002)
(-5.7722e-09 -1.77363e-08 -0.000999998)
(-1.68142e-08 -1.77101e-08 -0.001)
(-2.62396e-08 -1.76209e-08 -0.00100001)
(-3.30886e-08 -1.75037e-08 -0.00100002)
(-3.66668e-08 -1.7338e-08 -0.00100003)
(-5.74399e-09 -6.09046e-09 -0.001)
(-1.67345e-08 -6.08547e-09 -0.00100001)
(-2.61141e-08 -6.05603e-09 -0.00100001)
(-3.29153e-08 -6.01204e-09 -0.00100002)
(-3.64734e-08 -5.94821e-09 -0.00100003)
(-8.05699e-09 -5.27607e-08 -0.000999957)
(-2.3448e-08 -5.26877e-08 -0.000999962)
(-3.65473e-08 -5.23403e-08 -0.000999971)
(-4.60366e-08 -5.18964e-08 -0.000999985)
(-5.11095e-08 -5.13683e-08 -0.001)
(-7.98792e-09 -4.76598e-08 -0.000999973)
(-2.32099e-08 -4.75935e-08 -0.000999978)
(-3.61504e-08 -4.72906e-08 -0.000999988)
(-4.55844e-08 -4.68854e-08 -0.001)
(-5.05599e-08 -4.6459e-08 -0.00100002)
(-7.89756e-09 -3.77594e-08 -0.000999987)
(-2.29847e-08 -3.76861e-08 -0.000999992)
(-3.58384e-08 -3.7466e-08 -0.001)
(-4.5205e-08 -3.71711e-08 -0.00100001)
(-5.01422e-08 -3.68088e-08 -0.00100003)
(-7.84071e-09 -2.41991e-08 -0.000999997)
(-2.28414e-08 -2.41684e-08 -0.001)
(-3.56343e-08 -2.40378e-08 -0.00100001)
(-4.49265e-08 -2.38542e-08 -0.00100002)
(-4.98181e-08 -2.36156e-08 -0.00100004)
(-7.80406e-09 -8.31611e-09 -0.001)
(-2.27301e-08 -8.31111e-09 -0.00100001)
(-3.54527e-08 -8.26637e-09 -0.00100002)
(-4.46932e-08 -8.20038e-09 -0.00100003)
(-4.9554e-08 -8.12225e-09 -0.00100004)
(-1.10125e-08 -7.21866e-08 -0.000999941)
(-3.19943e-08 -7.20209e-08 -0.000999948)
(-4.98122e-08 -7.14934e-08 -0.000999961)
(-6.27624e-08 -7.08013e-08 -0.000999979)
(-6.96981e-08 -6.99713e-08 -0.001)
(-1.08647e-08 -6.51335e-08 -0.000999964)
(-3.15849e-08 -6.4987e-08 -0.00099997)
(-4.92152e-08 -6.45212e-08 -0.000999983)
(-6.20744e-08 -6.3908e-08 -0.001)
(-6.886e-08 -6.32262e-08 -0.00100002)
(-1.0739e-08 -5.15866e-08 -0.000999983)
(-3.12534e-08 -5.14834e-08 -0.000999989)
(-4.87322e-08 -5.11419e-08 -0.001)
(-6.14675e-08 -5.06711e-08 -0.00100002)
(-6.81901e-08 -5.00958e-08 -0.00100004)
(-1.06607e-08 -3.30859e-08 -0.000999996)
(-3.10379e-08 -3.30398e-08 -0.001)
(-4.84012e-08 -3.28332e-08 -0.00100002)
(-6.10274e-08 -3.25379e-08 -0.00100003)
(-6.76843e-08 -3.2182e-08 -0.00100005)
(-1.06073e-08 -1.13782e-08 -0.001)
(-3.08736e-08 -1.13679e-08 -0.00100001)
(-4.81333e-08 -1.12978e-08 -0.00100002)
(-6.06946e-08 -1.11963e-08 -0.00100004)
(-6.7293e-08 -1.10862e-08 -0.00100006)
(-1.50013e-08 -9.87855e-08 -0.00099992)
(-4.35986e-08 -9.85322e-08 -0.000999929)
(-6.79202e-08 -9.77602e-08 -0.000999947)
(-8.56449e-08 -9.66937e-08 -0.000999972)
(-9.50357e-08 -9.54314e-08 -0.001)
(-1.47803e-08 -8.90595e-08 -0.00099995)
(-4.29978e-08 -8.88458e-08 -0.00099996)
(-6.70291e-08 -8.81533e-08 -0.000999977)
(-8.45516e-08 -8.72038e-08 -0.001)
(-9.3751e-08 -8.60826e-08 -0.00100003)
(-1.46141e-08 -7.05903e-08 -0.000999977)
(-4.25166e-08 -7.04454e-08 -0.000999986)
(-6.62768e-08 -6.99084e-08 -0.001)
(-8.35742e-08 -6.91557e-08 -0.00100003)
(-9.26745e-08 -6.82294e-08 -0.00100006)
(-1.44976e-08 -4.5311e-08 -0.000999996)
(-4.2176e-08 -4.52269e-08 -0.001)
(-6.57372e-08 -4.48888e-08 -0.00100002)
(-8.28713e-08 -4.44094e-08 -0.00100005)
(-9.18819e-08 -4.38389e-08 -0.00100007)
(-1.44129e-08 -1.55868e-08 -0.00100001)
(-4.19211e-08 -1.55611e-08 -0.00100001)
(-6.53274e-08 -1.54462e-08 -0.00100003)
(-8.2359e-08 -1.52822e-08 -0.00100006)
(-9.12909e-08 -1.50987e-08 -0.00100008)
(-2.0432e-08 -1.35355e-07 -0.00099989)
(-5.94368e-08 -1.34977e-07 -0.000999903)
(-9.26296e-08 -1.33803e-07 -0.000999928)
(-1.16766e-07 -1.32134e-07 -0.000999962)
(-1.29576e-07 -1.30154e-07 -0.001)
(-2.01236e-08 -1.21986e-07 -0.000999933)
(-5.8551e-08 -1.21673e-07 -0.000999945)
(-9.1263e-08 -1.20608e-07 -0.000999969)
(-1.15058e-07 -1.19134e-07 -0.001)
(-1.27565e-07 -1.17381e-07 -0.00100004)
(-1.98812e-08 -9.6737e-08 -0.000999969)
(-5.78187e-08 -9.64988e-08 -0.000999981)
(-9.00888e-08 -9.56489e-08 -0.001)
(-1.13539e-07 -9.44692e-08 -0.00100004)
(-1.25864e-07 -9.3048e-08 -0.00100008)
(-1.96969e-08 -6.21005e-08 -0.000999995)
(-5.72715e-08 -6.19343e-08 -0.00100001)
(-8.92305e-08 -6.13898e-08 -0.00100003)
(-1.12455e-07 -6.06291e-08 -0.00100006)
(-1.24643e-07 -5.97564e-08 -0.0010001)
(-1.95552e-08 -2.13562e-08 -0.00100001)
(-5.68716e-08 -2.12948e-08 -0.00100002)
(-8.86046e-08 -2.1112e-08 -0.00100004)
(-1.11681e-07 -2.08468e-08 -0.00100008)
(-1.23782e-07 -2.05616e-08 -0.00100011)
(-2.78509e-08 -1.8567e-07 -0.00099985)
(-8.10506e-08 -1.85059e-07 -0.000999868)
(-1.2631e-07 -1.83247e-07 -0.000999901)
(-1.59153e-07 -1.8068e-07 -0.000999947)
(-1.76562e-07 -1.77596e-07 -0.001)
(-2.73922e-08 -1.67297e-07 -0.000999909)
(-7.9694e-08 -1.66783e-07 -0.000999926)
(-1.24185e-07 -1.65123e-07 -0.000999958)
(-1.56482e-07 -1.62831e-07 -0.001)
(-1.73469e-07 -1.60135e-07 -0.00100006)
(-2.70121e-08 -1.3266e-07 -0.000999958)
(-7.85472e-08 -1.3224e-07 -0.000999975)
(-1.22355e-07 -1.30911e-07 -0.00100001)
(-1.54165e-07 -1.29081e-07 -0.00100005)
(-1.70869e-07 -1.26943e-07 -0.0010001)
(-2.67139e-08 -8.51154e-08 -0.000999994)
(-7.76823e-08 -8.48162e-08 -0.00100001)
(-1.21022e-07 -8.39649e-08 -0.00100004)
(-1.52513e-07 -8.2788e-08 -0.00100009)
(-1.69019e-07 -8.14601e-08 -0.00100014)
(-2.64947e-08 -2.92519e-08 -0.00100001)
(-7.70744e-08 -2.91422e-08 -0.00100003)
(-1.20084e-07 -2.88559e-08 -0.00100006)
(-1.51356e-07 -2.84462e-08 -0.0010001)
(-1.67751e-07 -2.80029e-08 -0.00100015)
(-3.79583e-08 -2.54913e-07 -0.000999796)
(-1.10481e-07 -2.53913e-07 -0.00099982)
(-1.72175e-07 -2.5109e-07 -0.000999865)
(-2.16922e-07 -2.47152e-07 -0.000999928)
(-2.40494e-07 -2.42452e-07 -0.001)
(-3.72577e-08 -2.29621e-07 -0.000999876)
(-1.08383e-07 -2.28755e-07 -0.0009999)
(-1.68856e-07 -2.26171e-07 -0.000999944)
(-2.12747e-07 -2.22605e-07 -0.001)
(-2.358e-07 -2.18446e-07 -0.00100008)
(-3.66472e-08 -1.81994e-07 -0.000999944)
(-1.0658e-07 -1.81269e-07 -0.000999967)
(-1.66022e-07 -1.79213e-07 -0.00100001)
(-2.09196e-07 -1.76387e-07 -0.00100007)
(-2.31843e-07 -1.73112e-07 -0.00100014)
(-3.61803e-08 -1.1669e-07 -0.000999994)
(-1.05243e-07 -1.16207e-07 -0.00100002)
(-1.63969e-07 -1.14897e-07 -0.00100006)
(-2.06642e-07 -1.13095e-07 -0.00100012)
(-2.29024e-07 -1.11017e-07 -0.00100019)
(-3.58658e-08 -4.0087e-08 -0.00100002)
(-1.04348e-07 -3.99216e-08 -0.00100004)
(-1.62581e-07 -3.94795e-08 -0.00100008)
(-2.04903e-07 -3.88612e-08 -0.00100014)
(-2.27118e-07 -3.8153e-08 -0.00100021)
(-5.17575e-08 -3.50335e-07 -0.000999723)
(-1.50563e-07 -3.48687e-07 -0.000999755)
(-2.34572e-07 -3.44278e-07 -0.000999817)
(-2.95582e-07 -3.38204e-07 -0.000999902)
(-3.27561e-07 -3.31011e-07 -0.001)
(-5.0635e-08 -3.15417e-07 -0.000999833)
(-1.4727e-07 -3.13938e-07 -0.000999864)
(-2.2941e-07 -3.09934e-07 -0.000999925)
(-2.89062e-07 -3.04409e-07 -0.00100001)
(-3.20418e-07 -2.97938e-07 -0.0010001)
(-4.96678e-08 -2.49826e-07 -0.000999927)
(-1.44461e-07 -2.48633e-07 -0.000999957)
(-2.25039e-07 -2.45468e-07 -0.00100002)
(-2.83586e-07 -2.41118e-07 -0.0010001)
(-3.14346e-07 -2.36058e-07 -0.00100019)
(-4.89582e-08 -1.60121e-07 -0.000999994)
(-1.4242e-07 -1.59369e-07 -0.00100002)
(-2.21888e-07 -1.57359e-07 -0.00100008)
(-2.79647e-07 -1.54582e-07 -0.00100016)
(-3.10019e-07 -1.51366e-07 -0.00100025)
(-4.85088e-08 -5.50083e-08 -0.00100003)
(-1.41101e-07 -5.47621e-08 -0.00100006)
(-2.19806e-07 -5.40808e-08 -0.00100012)
(-2.77033e-07 -5.31248e-08 -0.00100019)
(-3.07167e-07 -5.20263e-08 -0.00100029)
(-7.05363e-08 -4.82002e-07 -0.000999623)
(-2.05086e-07 -4.79336e-07 -0.000999667)
(-3.19451e-07 -4.72492e-07 -0.000999751)
(-4.02637e-07 -4.63097e-07 -0.000999867)
(-4.46066e-07 -4.52082e-07 -0.001)
(-6.87601e-08 -4.33653e-07 -0.000999775)
(-1.99954e-07 -4.31212e-07 -0.000999818)
(-3.11465e-07 -4.25023e-07 -0.000999899)
(-3.92519e-07 -4.16491e-07 -0.00100001)
(-4.35155e-07 -4.06453e-07 -0.00100014)
(-6.72592e-08 -3.43259e-07 -0.000999904)
(-1.95607e-07 -3.41339e-07 -0.000999946)
(-3.04724e-07 -3.36458e-07 -0.00100002)
(-3.84066e-07 -3.29747e-07 -0.00100013)
(-4.25846e-07 -3.21934e-07 -0.00100026)
(-6.61771e-08 -2.19954e-07 -0.000999998)
(-1.92477e-07 -2.18754e-07 -0.00100004)
(-2.99863e-07 -2.15632e-07 -0.00100012)
(-3.7799e-07 -2.11349e-07 -0.00100022)
(-4.19174e-07 -2.06365e-07 -0.00100035)
(-6.55032e-08 -7.55716e-08 -0.00100005)
(-1.9047e-07 -7.51747e-08 -0.00100009)
(-2.96716e-07 -7.40968e-08 -0.00100016)
(-3.74043e-07 -7.26291e-08 -0.00100027)
(-4.14836e-07 -7.09075e-08 -0.00100039)
(-9.60471e-08 -6.63988e-07 -0.000999488)
(-2.79243e-07 -6.59698e-07 -0.000999547)
(-4.34949e-07 -6.49068e-07 -0.000999662)
(-5.48244e-07 -6.34501e-07 -0.00099982)
(-6.07423e-07 -6.17567e-07 -0.00100001)
(-9.33023e-08 -5.96829e-07 -0.000999699)
(-2.71292e-07 -5.92904e-07 -0.000999756)
(-4.22605e-07 -5.83316e-07 -0.000999866)
(-5.32704e-07 -5.70155e-07 -0.00100002)
(-5.90581e-07 -5.54728e-07 -0.0010002)
(-9.09743e-08 -4.72068e-07 -0.000999876)
(-2.64563e-07 -4.68981e-07 -0.000999932)
(-4.12191e-07 -4.61416e-07 -0.00100004)
(-5.19655e-07 -4.51057e-07 -0.00100018)
(-5.76272e-07 -4.38944e-07 -0.00100036)
(-8.93058e-08 -3.02365e-07 -0.001)
(-2.59712e-07 -3.00405e-07 -0.00100006)
(-4.04667e-07 -2.95555e-07 -0.00100016)
(-5.10224e-07 -2.88966e-07 -0.0010003)
(-5.65905e-07 -2.81186e-07 -0.00100047)
(-8.8255e-08 -1.03875e-07 -0.00100007)
(-2.56642e-07 -1.03201e-07 -0.00100013)
(-3.99936e-07 -1.01528e-07 -0.00100023)
(-5.04264e-07 -9.92847e-08 -0.00100037)
(-5.59257e-07 -9.65922e-08 -0.00100053)
(-1.30727e-07 -9.15826e-07 -0.000999306)
(-3.80077e-07 -9.08887e-07 -0.000999386)
(-5.92028e-07 -8.92387e-07 -0.000999542)
(-7.46213e-07 -8.69812e-07 -0.000999757)
(-8.27087e-07 -8.43565e-07 -0.00100001)
(-1.26472e-07 -8.22132e-07 -0.000999597)
(-3.67765e-07 -8.15856e-07 -0.000999674)
(-5.72976e-07 -8.01024e-07 -0.000999823)
(-7.22377e-07 -7.80739e-07 -0.00100003)
(-8.00935e-07 -7.57064e-07 -0.00100027)
(-1.22875e-07 -6.4962e-07 -0.000999842)
(-3.57364e-07 -6.44684e-07 -0.000999917)
(-5.56898e-07 -6.32979e-07 -0.00100006)
(-7.02253e-07 -6.17009e-07 -0.00100026)
(-7.78806e-07 -5.98276e-07 -0.00100049)
(-1.20289e-07 -4.15812e-07 -0.00100002)
(-3.4985e-07 -4.1265e-07 -0.00100009)
(-5.45283e-07 -4.05179e-07 -0.00100023)
(-6.87663e-07 -3.95001e-07 -0.00100042)
(-7.62749e-07 -3.83018e-07 -0.00100064)
(-1.18676e-07 -1.42795e-07 -0.00100011)
(-3.45218e-07 -1.41696e-07 -0.00100018)
(-5.38148e-07 -1.39145e-07 -0.00100032)
(-6.78712e-07 -1.35661e-07 -0.00100051)
(-7.52743e-07 -1.31579e-07 -0.00100073)
(-1.77822e-07 -1.26461e-06 -0.00099906)
(-5.17085e-07 -1.25348e-06 -0.00099917)
(-8.05559e-07 -1.22791e-06 -0.000999382)
(-1.01533e-06 -1.19302e-06 -0.000999673)
(-1.1256e-06 -1.15242e-06 -0.00100002)
(-1.71246e-07 -1.1333e-06 -0.000999463)
(-4.98054e-07 -1.12335e-06 -0.000999567)
(-7.76147e-07 -1.10042e-06 -0.000999768)
(-9.78646e-07 -1.06914e-06 -0.00100004)
(-1.08523e-06 -1.03273e-06 -0.00100037)
(-1.65701e-07 -8.94357e-07 -0.000999801)
(-4.81996e-07 -8.86509e-07 -0.000999902)
(-7.5134e-07 -8.68452e-07 -0.00100009)
(-9.47634e-07 -8.4381e-07 -0.00100036)
(-1.05105e-06 -8.14992e-07 -0.00100067)
(-1.61687e-07 -5.71954e-07 -0.00100004)
(-4.704e-07 -5.66925e-07 -0.00100014)
(-7.33423e-07 -5.5542e-07 -0.00100033)
(-9.25172e-07 -5.3968e-07 -0.00100058)
(-1.02632e-06 -5.21291e-07 -0.00100088)
(-1.59257e-07 -1.96311e-07 -0.00100017)
(-4.63405e-07 -1.94579e-07 -0.00100027)
(-7.22613e-07 -1.90645e-07 -0.00100045)
(-9.11646e-07 -1.85254e-07 -0.0010007)
(-1.0113e-06 -1.78989e-07 -0.00100099)
(-2.41791e-07 -1.74839e-06 -0.00099873)
(-7.03218e-07 -1.73058e-06 -0.000998879)
(-1.09571e-06 -1.69085e-06 -0.000999167)
(-1.38115e-06 -1.63696e-06 -0.000999563)
(-1.53111e-06 -1.5744e-06 -0.00100003)
(-2.31588e-07 -1.56344e-06 -0.000999288)
(-6.73703e-07 -1.54761e-06 -0.000999429)
(-1.05022e-06 -1.51211e-06 -0.000999699)
(-1.32454e-06 -1.46381e-06 -0.00100007)
(-1.46897e-06 -1.40764e-06 -0.00100051)
(-2.22989e-07 -1.2317e-06 -0.000999755)
(-6.48859e-07 -1.21924e-06 -0.000999889)
(-1.01189e-06 -1.19135e-06 -0.00100014)
(-1.27668e-06 -1.15329e-06 -0.0010005)
(-1.41636e-06 -1.10892e-06 -0.00100091)
(-2.16784e-07 -7.86786e-07 -0.00100009)
(-6.30954e-07 -7.78848e-07 -0.00100022)
(-9.84229e-07 -7.61076e-07 -0.00100046)
(-1.24208e-06 -7.3675e-07 -0.0010008)
(-1.37823e-06 -7.0837e-07 -0.0010012)
(-2.13122e-07 -2.69893e-07 -0.00100027)
(-6.20355e-07 -2.67179e-07 -0.00100039)
(-9.67798e-07 -2.61093e-07 -0.00100063)
(-1.22147e-06 -2.52748e-07 -0.00100096)
(-1.35552e-06 -2.43002e-07 -0.00100135)
(-3.28582e-07 -2.42053e-06 -0.000998289)
(-9.55821e-07 -2.39194e-06 -0.000998491)
(-1.48968e-06 -2.33e-06 -0.000998881)
(-1.8782e-06 -2.2465e-06 -0.00099942)
(-2.0821e-06 -2.15024e-06 -0.00100005)
(-3.1262e-07 -2.15825e-06 -0.000999063)
(-9.09828e-07 -2.13301e-06 -0.000999251)
(-1.41916e-06 -2.0779e-06 -0.000999614)
(-1.79079e-06 -2.00319e-06 -0.00100012)
(-1.98648e-06 -1.91658e-06 -0.00100071)
(-2.99262e-07 -1.69652e-06 -0.000999707)
(-8.71293e-07 -1.67679e-06 -0.000999884)
(-1.35982e-06 -1.63359e-06 -0.00100022)
(-1.71688e-06 -1.57473e-06 -0.00100069)
(-1.90553e-06 -1.50629e-06 -0.00100125)
(-2.89678e-07 -1.08225e-06 -0.00100017)
(-8.43597e-07 -1.06973e-06 -0.00100034)
(-1.31705e-06 -1.04221e-06 -0.00100066)
(-1.66347e-06 -1.00459e-06 -0.00100111)
(-1.84676e-06 -9.60781e-07 -0.00100164)
(-2.84104e-07 -3.71054e-07 -0.00100041)
(-8.2746e-07 -3.66766e-07 -0.00100057)
(-1.29202e-06 -3.57347e-07 -0.00100089)
(-1.63209e-06 -3.44418e-07 -0.00100132)
(-1.81228e-06 -3.29356e-07 -0.00100184)
(-4.45947e-07 -3.35578e-06 -0.000997705)
(-1.29787e-06 -3.30972e-06 -0.000997977)
(-2.0241e-06 -3.21265e-06 -0.000998504)
(-2.55326e-06 -3.08298e-06 -0.000999235)
(-2.83078e-06 -2.93508e-06 -0.0010001)
(-4.20854e-07 -2.98069e-06 -0.000998777)
(-1.22586e-06 -2.94042e-06 -0.000999028)
(-1.91441e-06 -2.85451e-06 -0.000999511)
(-2.41836e-06 -2.73873e-06 -0.00100018)
(-2.68395e-06 -2.60543e-06 -0.00100098)
(-4.00067e-07 -2.33642e-06 -0.000999664)
(-1.16593e-06 -2.30517e-06 -0.000999896)
(-1.82237e-06 -2.23814e-06 -0.00100034)
(-2.30418e-06 -2.14701e-06 -0.00100097)
(-2.55937e-06 -2.04145e-06 -0.00100171)
(-3.85191e-07 -1.48832e-06 -0.0010003)
(-1.12305e-06 -1.46849e-06 -0.00100052)
(-1.75619e-06 -1.42596e-06 -0.00100094)
(-2.22164e-06 -1.36777e-06 -0.00100153)
(-2.46885e-06 -1.30012e-06 -0.00100223)
(-3.76658e-07 -5.10071e-07 -0.00100063)
(-1.09844e-06 -5.03279e-07 -0.00100084)
(-1.71808e-06 -4.88734e-07 -0.00100125)
(-2.17386e-06 -4.68763e-07 -0.00100182)
(-2.41631e-06 -4.45495e-07 -0.0010025)
(-6.03711e-07 -4.65899e-06 -0.000996939)
(-1.75903e-06 -4.58421e-06 -0.000997302)
(-2.74794e-06 -4.43099e-06 -0.000998011)
(-3.47088e-06 -4.22919e-06 -0.000999003)
(-3.84914e-06 -4.0024e-06 -0.00100018)
(-5.64025e-07 -4.11688e-06 -0.000998425)
(-1.64564e-06 -4.05247e-06 -0.000998753)
(-2.57647e-06 -3.9182e-06 -0.000999393)
(-3.26214e-06 -3.73807e-06 -0.00100029)
(-3.62423e-06 -3.53266e-06 -0.00100137)
(-5.316e-07 -3.21555e-06 -0.000999641)
(-1.55243e-06 -3.16604e-06 -0.000999941)
(-2.43348e-06 -3.0623e-06 -0.00100053)
(-3.08534e-06 -2.92091e-06 -0.00100135)
(-3.43243e-06 -2.75787e-06 -0.00100234)