FoamFile
{version 2.0; format ascii;class Cloud<passiveParticle>; location 0;object  positions;}
350
(
( -1605.6 -4279.6 498.579 ) 0 
( -364.511 -4453.32 496.105 ) 0 
( -3769.54 -4064.08 498.708 ) 0 
( -2389.92 -1176.52 497.3 ) 0 
( -408.969 -2672.18 499.672 ) 0 
( -1408.45 -2713.33 497.566 ) 0 
( -1529.34 -559.495 496.753 ) 0 
( -4686.2 -1117.75 498.432 ) 0 
( -4619.28 -2192.83 499.224 ) 0 
( -3385.25 -191.814 496.693 ) 0 
( -3313.46 -4954.73 498.64 ) 0 
( -1533.07 -1705.54 499.626 ) 0 
( -4402.32 -159.208 497.82 ) 0 
( -2394.3 -57.6893 499.693 ) 0 
( -3624.95 -2287.11 498.857 ) 0 
( -1301.73 -64.3465 1332.97 ) 0 
( -4336.82 -4886.74 498.545 ) 0 
( -2628.24 -2356.55 499.09 ) 0 
( -888.279 -3567.25 498.578 ) 0 
( -2213.22 -3306.55 498.236 ) 0 
( -2653.82 -4203.74 499.635 ) 0 
( -3388.81 -1194.75 497.954 ) 0 
( -4064.02 -1617.48 1098.96 ) 0 
( -4206.54 -3159.71 498.532 ) 0 
( -1531.09 -4894.6 1281.85 ) 0 
( -506.609 -1608.57 498.019 ) 0 
( -4774.99 -3981.19 498.305 ) 0 
( -661.879 -736.439 960.289 ) 0 
( -3907.29 -638.712 1219.35 ) 0 
( -3210.14 -3236.17 497.518 ) 0 
( -3156.63 -2649.78 1302.73 ) 0 
( -1233.09 -2949.8 1732.47 ) 0 
( -1741.39 -3688.73 1292.53 ) 0 
( -1772.8 -1126.79 1279.04 ) 0 
( -4741.41 -3405.22 1314.47 ) 0 
( -3289.84 -4381.22 1315.47 ) 0 
( -2883.51 -1693.48 1202.01 ) 0 
( -2897.85 -694.233 1208.68 ) 0 
( -349.279 -3281.21 1290.46 ) 0 
( -4699.88 -1798.46 1847.27 ) 0 
( -969.886 -2151.71 1194.89 ) 0 
( -4910.41 -529.887 1273.78 ) 0 
( -2072.72 -2679.19 1263.9 ) 0 
( -4296.29 -4305.54 1312.4 ) 0 
( -4167.17 -2586.32 1314.7 ) 0 
( -5.68681 -2345.55 1365.58 ) 0 
( -3420.88 -1146.85 1927.45 ) 0 
( -2339.91 -4419.41 1620.59 ) 0 
( -906.063 -1315.91 1735.98 ) 0 
( -2731.5 -3553.35 1314.61 ) 0 
( -851.811 -4147.26 1310.42 ) 0 
( -4373.41 -865.595 2072.05 ) 0 
( -3591.39 -169.591 2041.36 ) 0 
( -1690.93 -1939.56 1851.38 ) 0 
( -586.925 -375.257 1954.56 ) 0 
( -3728.64 -3483.61 1315.23 ) 0 
( -2241.54 -99.6916 1667.65 ) 0 
( -2298.31 -3216.38 2147.74 ) 0 
( -2735.64 -460.218 2470.03 ) 0 
( -2270 -4497.49 2635.95 ) 0 
( -120.66 -1172.35 2333.52 ) 0 
( -4277.35 -3737.69 2134.66 ) 0 
( -1631.93 -2613.75 2583.25 ) 0 
( -3824.85 -4628.14 2131.16 ) 0 
( -4822.7 -4577.16 2127.1 ) 0 
( -1535.27 -642.66 2119.06 ) 0 
( -627.123 -2190.15 2133.19 ) 0 
( -2611.49 -2272.97 2048.66 ) 0 
( -261.323 -4566.33 2170.55 ) 0 
( -2436.11 -1291.39 2005.18 ) 0 
( -1463.89 -4295.87 2083.4 ) 0 
( -670.217 -3654.87 2159.79 ) 0 
( -3037.27 -4018.42 2211.11 ) 0 
( -1006.73 -203.392 2843.37 ) 0 
( -3051.01 -1657.47 2702.24 ) 0 
( -4336.2 -28.5616 2690.7 ) 0 
( -3611.5 -2121.8 2017.06 ) 0 
( -708.631 -2910.19 2824.94 ) 0 
( -1594.94 -3592.27 2777.69 ) 0 
( -1045.62 -1269.76 2724.73 ) 0 
( -1951.89 -1688.14 2783.54 ) 0 
( -3395.38 -3086.11 2169.69 ) 0 
( -3703.34 -789.785 2814.97 ) 0 
( -1926.86 -705.655 3034.75 ) 0 
( -164.394 -1900.29 3015.89 ) 0 
( -2569.45 -3623.39 3017.25 ) 0 
( -2548.5 -2626.11 2980.47 ) 0 
( -1109.38 -2108.28 3267.05 ) 0 
( -165.696 -630.887 3171.48 ) 0 
( -4480.26 -968.37 3416.23 ) 0 
( -4337.29 -2751.93 2283.97 ) 0 
( -1579.49 -4909.67 3228.97 ) 0 
( -4185.5 -1655.95 2690.68 ) 0 
( -873.091 -4283.98 2907.15 ) 0 
( -1239.83 -507.717 3765.91 ) 0 
( -2851.69 -886.164 3365.88 ) 0 
( -3034.28 -4467.84 3277.64 ) 0 
( -2153.02 -4234.76 3686.33 ) 0 
( -2343.15 -90.7665 3702.5 ) 0 
( -701.575 -4920.09 3703.83 ) 0 
( -664.245 -1321.73 3691.75 ) 0 
( -3560.14 -2481.76 2948.59 ) 0 
( -2571.46 -1821.73 3571.57 ) 0 
( -3645.01 -415.488 3746.93 ) 0 
( -4459.32 -3242.24 3143.73 ) 0 
( -3137.7 -3066.25 3656.51 ) 0 
( -267.434 -3696.11 3440.64 ) 0 
( -4309.94 -4323.6 2948.25 ) 0 
( -3626.42 -1505.52 3504.06 ) 0 
( -3567 -3656.26 2974.91 ) 0 
( -803.524 -2882.72 3818.03 ) 0 
( -1753.38 -2941.44 3517.28 ) 0 
( -1671.95 -1406.09 3700.09 ) 0 
( -3963.38 -3996.79 3827.17 ) 0 
( -4921.96 -4390.24 3733.65 ) 0 
( -4579.83 -107.531 3913.05 ) 0 
( -1232.3 -3776.32 3689.41 ) 0 
( -3000.26 -3938.74 4123.47 ) 0 
( -124.445 -2062.4 4090.76 ) 0 
( -3030.11 -1274.78 4270.96 ) 0 
( -4397.58 -2269.15 3451.47 ) 0 
( -1482.95 -2255.38 4192.27 ) 0 
( -1159.46 -1383.92 4557.24 ) 0 
( -157.937 -4279.76 4243.67 ) 0 
( -51.3912 -3290.61 4329.45 ) 0 
( -3587.97 -4659.43 4485.82 ) 0 
( -2995.79 -307.952 4520.22 ) 0 
( -2419.04 -2601.36 4176.87 ) 0 
( -1161.01 -4428.54 4441.5 ) 0 
( -4783.22 -3457.93 4061.46 ) 0 
( -3030.87 -3153.71 4738.22 ) 0 
( -684.532 -125.651 4520.96 ) 0 
( -187.86 -1145.88 4552.34 ) 0 
( -3914.61 -3018.16 4283.54 ) 0 
( -3337.64 -2216.17 4139.94 ) 0 
( -2309.1 -4430.51 4652.66 ) 0 
( -2068.74 -780.022 4370.05 ) 0 
( -1979.5 -3485.87 4322.97 ) 0 
( -3107.3 -4068.71 5131.8 ) 0 
( -3979.43 -366.491 4687.02 ) 0 
( -4217.6 -1358.98 4295.49 ) 0 
( -1008.42 -3456.57 4609.3 ) 0 
( -3103.67 -2229.57 5110.45 ) 0 
( -1700.27 -3862.38 5203.39 ) 0 
( -38.3657 -358.215 5245.19 ) 0 
( -2647.93 -1003.8 5152.77 ) 0 
( -3616.13 -1247.61 5084.45 ) 0 
( -4204.33 -3833.3 4783.66 ) 0 
( -1393.81 -560.998 5072.1 ) 0 
( -4575.33 -4767.78 4590.66 ) 0 
( -4060.23 -2190 4826.13 ) 0 
( -1847.38 -2746.79 4983 ) 0 
( -705.499 -2518.36 4762.28 ) 0 
( -2215.99 -1733.67 4625.97 ) 0 
( -1809.9 -42.2084 5816.87 ) 0 
( -1833.72 -1204.5 5696.26 ) 0 
( -1314.89 -1981.53 5343.34 ) 0 
( -3932.29 -4555.14 5418.01 ) 0 
( -2468.43 -3322.9 5546.78 ) 0 
( -785.617 -4239.14 5348.41 ) 0 
( -4601.53 -999.726 5144.17 ) 0 
( -4681.79 -2964.73 4922.55 ) 0 
( -1401.79 -3117.56 5796.58 ) 0 
( -42.9398 -1964.95 5264.56 ) 0 
( -4969.24 -4414.6 5437.68 ) 0 
( -395.661 -3319.3 5386.64 ) 0 
( -4996.76 -2006.25 5116.66 ) 0 
( -682.081 -1212.35 5417.79 ) 0 
( -862.96 -352.381 5891.13 ) 0 
( -3347.9 -362.03 5461.88 ) 0 
( -4091.41 -787.256 5977.08 ) 0 
( -4338.72 -3714 5770.55 ) 0 
( -2262.43 -2105.23 5633.83 ) 0 
( -636.236 -2482.9 5878.44 ) 0 
( -2083.65 -4693.33 5600.92 ) 0 
( -3787.97 -2985.91 5365.01 ) 0 
( -4231.36 -1740.41 5700.99 ) 0 
( -3051.27 -4778.76 5833.17 ) 0 
( -4905.53 -257.13 5739.79 ) 0 
( -3367.91 -3638.58 5994.56 ) 0 
( -4958.84 -2593.42 5923.79 ) 0 
( -1591.52 -708.266 6529.37 ) 0 
( -4941.48 -3405.5 6505.33 ) 0 
( -2486.83 -4040.98 6242.16 ) 0 
( -1090.61 -1567.21 6258.18 ) 0 
( -829.902 -3361.12 6578.6 ) 0 
( -3104.59 -2656.18 6014 ) 0 
( -3286.53 -90.765 6494.03 ) 0 
( -2172.97 -2800.27 6345.93 ) 0 
( -4093.66 -2910.8 6311.77 ) 0 
( -2323.43 -1507.66 6512.34 ) 0 
( -4798.53 -4391.47 6421.07 ) 0 
( -1425.73 -4111.11 6129.65 ) 0 
( -4.90638 -1899.44 6385.65 ) 0 
( -300.502 -849.86 6549.39 ) 0 
( -3800.7 -4443.32 6402.54 ) 0 
( -3076.44 -1570.33 5860.07 ) 0 
( -531.399 -4313.29 6524.61 ) 0 
( -2564.88 -641.05 6078.86 ) 0 
( -556.573 -1597 7161.15 ) 0 
( -3702.72 -2012.03 6502.34 ) 0 
( -349.401 -2566.22 7044.13 ) 0 
( -2890.27 -4754.72 6819.31 ) 0 
( -1278.09 -2469.85 6644.77 ) 0 
( -4512.84 -1436.55 6609.57 ) 0 
( -3412.02 -1068.58 6656.08 ) 0 
( -3338.89 -439.693 7430.53 ) 0 
( -2922.54 -3271.01 6809.07 ) 0 
( -3666.86 -2729.32 7197.12 ) 0 
( -4091.99 -3668.21 6961.89 ) 0 
( -2421.8 -396.794 7036.56 ) 0 
( -1777.76 -3548.95 6877.49 ) 0 
( -2825.77 -2280.36 6895.91 ) 0 
( -4211.13 -549.65 6956.83 ) 0 
( -4716.9 -1310.33 7579.35 ) 0 
( -4487.66 -4492.1 7364.29 ) 0 
( -2562.27 -4000.36 7388.85 ) 0 
( -2002.66 -2653.09 7319.53 ) 0 
( -1819.3 -790.555 7728.69 ) 0 
( -2776.32 -1323.34 7384.21 ) 0 
( -446.585 -3450.08 7497 ) 0 
( -4593.18 -2361.63 6979.26 ) 0 
( -2825.61 -3123.28 7792.5 ) 0 
( -3777.79 -1609.04 7413.42 ) 0 
( -1873.94 -4543.74 6909.55 ) 0 
( -329.282 -4442.69 7502.89 ) 0 
( -4949.49 -339.071 7595.8 ) 0 
( -1553.45 -1556.15 7145 ) 0 
( -3510.64 -4308.35 7461.66 ) 0 
( -2116.3 -1854.44 7915.08 ) 0 
( -944.863 -601.119 7283.82 ) 0 
( -3962.04 -886.052 8078.5 ) 0 
( -1299.82 -4292.26 7688.14 ) 0 
( -4712.5 -3172.58 7568.02 ) 0 
( -3067.73 -2155.34 7856.12 ) 0 
( -1116.69 -2312.11 7630.89 ) 0 
( -2151.5 -4794.51 7835.27 ) 0 
( -3779.64 -3444.6 7885.67 ) 0 
( -1059.05 -1384.41 7998.65 ) 0 
( -170.153 -946.58 7811.61 ) 0 
( -1393.79 -3300.9 7773.05 ) 0 
( -306.842 -149.742 8396.98 ) 0 
( -3018.63 -4134.29 8313.06 ) 0 
( -2053.67 -3885.73 8241.46 ) 0 
( -1971.05 -1177.78 8636.51 ) 0 
( -323.538 -2677.18 8118.5 ) 0 
( -4831.45 -3972.08 8156.85 ) 0 
( -4251.42 -2358.58 7917.48 ) 0 
( -653.771 -3913.5 8356.73 ) 0 
( -2714.27 -702.513 8165.48 ) 0 
( -353.703 -1793.69 8585.32 ) 0 
( -2047.41 -2769.63 8311.36 ) 0 
( -4927.72 -4912.43 8480.59 ) 0 
( -3547.51 -2713.41 8531.24 ) 0 
( -1577.47 -185.56 9358.58 ) 0 
( -4707.68 -231.495 8563.34 ) 0 
( -2144.31 -2110.79 9075.25 ) 0 
( -1225.74 -529.494 8488.91 ) 0 
( -2882.03 -1584.83 8654.1 ) 0 
( -2353.35 -4527.1 8946.14 ) 0 
( -3471.28 -309.128 8730.56 ) 0 
( -4449.04 -3143.22 8563.27 ) 0 
( -4857.4 -1773.3 8454.07 ) 0 
( -1263.17 -2207.86 8613.83 ) 0 
( -3866.82 -1739.08 8599.11 ) 0 
( -195.935 -890.291 9064.2 ) 0 
( -3217.3 -4178.02 9306.47 ) 0 
( -461.149 -3738.69 9321.85 ) 0 
( -4286.54 -2404.08 9216.18 ) 0 
( -2725.49 -769.733 9210.67 ) 0 
( -1409.64 -4200.4 8942.4 ) 0 
( -4651.64 -3824.16 9266.5 ) 0 
( -3772.55 -3348.81 9268.59 ) 0 
( -373.141 -4756.95 8813.2 ) 0 
( -1265.54 -3219.98 8760.21 ) 0 
( -2765.94 -3285.84 8776.78 ) 0 
( -3968.25 -4165.01 8621.93 ) 0 
( -3053.92 -2422.02 9349.85 ) 0 
( -4282.24 -970.735 9083.33 ) 0 
( -1090.3 -1335.42 9080.34 ) 0 
( -535.004 -2643.91 9141.68 ) 0 
( -2020.46 -2671.4 9893.2 ) 0 
( -841.583 -693.28 9804.71 ) 0 
( -479.333 -4811.32 9805.52 ) 0 
( -3754.31 -2685.07 10014.7 ) 0 
( -4157.11 -31.8682 9403.07 ) 0 
( -3428.09 -515.195 9901.27 ) 0 
( -1151.53 -3143.75 9749.64 ) 0 
( -2905.73 -3318.91 9765.87 ) 0 
( -2006.95 -3529.02 9379.9 ) 0 
( -3459.57 -1405.32 9448.75 ) 0 
( -2370.84 -370.686 10055.9 ) 0 
( -2220.59 -4355.93 9921.85 ) 0 
( -1900.8 -1144.72 9632.77 ) 0 
( -2652.47 -1725.52 9943.71 ) 0 
( -1865.67 -3536.08 10370.2 ) 0 
( -2854.6 -2578.05 10435.4 ) 0 
( -4181.81 -1782.13 10026.6 ) 0 
( -1208.76 -2131.54 9672.68 ) 0 
( -287.113 -1747.04 9581.58 ) 0 
( -1782.37 -1814.64 10427.4 ) 0 
( -4776.99 -4732.75 10365 ) 0 
( -4371.51 -801.65 10064 ) 0 
( -4082.45 -4559.2 9633.91 ) 0 
( -4611.15 -3198.68 10048.2 ) 0 
( -1200.19 -4128 9916.63 ) 0 
( -1530.15 -851.218 10513 ) 0 
( -1144.91 -2571.36 10568.5 ) 0 
( -146.703 -2534.25 10534.7 ) 0 
( -3057.87 -80.0263 10721.2 ) 0 
( -3170.44 -4713.93 10148.6 ) 0 
( -1415.8 -4964.28 10419.6 ) 0 
( -3681.51 -4406.71 10950.9 ) 0 
( -723.159 -586.455 11040 ) 0 
( -3406.47 -1335.41 10472 ) 0 
( -491.112 -3579.43 10359.9 ) 0 
( -3710.74 -3795.53 10160.4 ) 0 
( -2036.19 -2761.7 10978.8 ) 0 
( -185.785 -4517.84 10715.2 ) 0 
( -4979.28 -2275.42 10370.9 ) 0 
( -3726.13 -2189.34 10882.1 ) 0 
( -238.754 -1201.62 10418.2 ) 0 
( -1505.03 -1407.52 11343 ) 0 
( -2375.27 -4963.89 10700.4 ) 0 
( -4463.73 -2874.94 10982.5 ) 0 
( -4995.25 -4739.26 11340.5 ) 0 
( -3650.06 -708.416 11224.7 ) 0 
( -655.355 -1848.93 11055.6 ) 0 
( -1096.25 -4154.1 10910.5 ) 0 
( -3509.92 -3165.34 10909.5 ) 0 
( -2324.09 -815.224 11119.4 ) 0 
( -4322.5 -1388.6 10934.4 ) 0 
( -4506.05 -3866.64 10784.2 ) 0 
( -2808.88 -3888.48 10581.6 ) 0 
( -2632.49 -1750.35 10949.3 ) 0 
( -4180.69 -41.1954 10683.6 ) 0 
( -3859.66 -1721.65 11755.6 ) 0 
( -2980.91 -1245.07 11738.5 ) 0 
( -2976.47 -2531.89 11469.2 ) 0 
( -991.722 -3238.22 11297.3 ) 0 
( -2110.94 -2103.45 11727.6 ) 0 
( -2269.1 -201.451 11906.6 ) 0 
( -737.337 -4917.34 11447.3 ) 0 
( -3966.02 -3711.97 11611.2 ) 0 
( -4828.4 -4018.82 12013.4 ) 0 
( -2057.08 -4150.02 11186.2 ) 0 
( -9.13276 -1176.66 11415.9 ) 0 
( -1352.21 -7.53605 11558.3 ) 0 
( -4989.21 -2015.99 11336.1 ) 0 
( -294.078 -2499.14 11723.4 ) 0 
)
