/*--------------------------------*- C++ -*----------------------------------*\
| =========                 |                                                 |
| \\      /  F ield         | OpenFOAM: The Open Source CFD Toolbox           |
|  \\    /   O peration     | Version:  5.x                                   |
|   \\  /    A nd           | Web:      www.OpenFOAM.org                      |
|    \\/     M anipulation  |                                                 |
\*---------------------------------------------------------------------------*/
FoamFile
{
    version     2.0;
    format      ascii;
    class       volScalarField;
    location    "30000";
    object      p;
}
// * * * * * * * * * * * * * * * * * * * * * * * * * * * * * * * * * * * * * //

dimensions      [0 2 -2 0 0 0 0];

internalField   nonuniform List<scalar> 
2250
(
1.81653e-09
1.88474e-09
1.94529e-09
1.99404e-09
2.02151e-09
1.78765e-09
1.86225e-09
1.93206e-09
1.98609e-09
2.01424e-09
1.76523e-09
1.8328e-09
1.90442e-09
1.95932e-09
1.98684e-09
1.71681e-09
1.7827e-09
1.86269e-09
1.92382e-09
1.95354e-09
1.62472e-09
1.71719e-09
1.82492e-09
1.90283e-09
1.93726e-09
5.58615e-09
5.76647e-09
5.91332e-09
6.02224e-09
6.07722e-09
5.53807e-09
5.72214e-09
5.88067e-09
5.99317e-09
6.04357e-09
5.47526e-09
5.63e-09
5.78737e-09
5.89881e-09
5.94642e-09
5.34462e-09
5.47784e-09
5.64913e-09
5.77221e-09
5.82348e-09
5.1333e-09
5.299e-09
5.50705e-09
5.65638e-09
5.71257e-09
9.67275e-09
9.86384e-09
1.00078e-08
1.0101e-08
1.01349e-08
9.63953e-09
9.81333e-09
9.95175e-09
1.00357e-08
1.00571e-08
9.52988e-09
9.65346e-09
9.77948e-09
9.85718e-09
9.8765e-09
9.339e-09
9.41241e-09
9.53341e-09
9.61639e-09
9.64075e-09
9.13258e-09
9.18993e-09
9.27867e-09
9.35514e-09
9.37631e-09
1.40705e-08
1.41433e-08
1.41815e-08
1.41863e-08
1.41637e-08
1.40412e-08
1.40802e-08
1.40921e-08
1.40769e-08
1.404e-08
1.38682e-08
1.38653e-08
1.3854e-08
1.38283e-08
1.37939e-08
1.36228e-08
1.35659e-08
1.35265e-08
1.34942e-08
1.3469e-08
1.34667e-08
1.33367e-08
1.31955e-08
1.31161e-08
1.30846e-08
1.85279e-08
1.84246e-08
1.83241e-08
1.82282e-08
1.81537e-08
1.84793e-08
1.83447e-08
1.82103e-08
1.80929e-08
1.80092e-08
1.82717e-08
1.81261e-08
1.79643e-08
1.78328e-08
1.77543e-08
1.79971e-08
1.78377e-08
1.7639e-08
1.74883e-08
1.74181e-08
1.783e-08
1.7591e-08
1.72993e-08
1.70917e-08
1.70147e-08
2.2765e-08
2.25494e-08
2.23699e-08
2.22234e-08
2.21322e-08
2.27057e-08
2.2472e-08
2.22648e-08
2.21012e-08
2.20073e-08
2.2559e-08
2.23255e-08
2.20887e-08
2.19047e-08
2.1811e-08
2.23711e-08
2.21475e-08
2.1869e-08
2.16501e-08
2.15515e-08
2.21765e-08
2.19226e-08
2.16041e-08
2.13404e-08
2.12291e-08
2.67073e-08
2.6506e-08
2.63445e-08
2.62169e-08
2.61477e-08
2.66778e-08
2.64662e-08
2.62864e-08
2.61456e-08
2.60771e-08
2.66813e-08
2.64473e-08
2.62327e-08
2.60623e-08
2.59826e-08
2.67123e-08
2.64512e-08
2.61802e-08
2.5957e-08
2.58518e-08
2.6664e-08
2.63675e-08
2.60677e-08
2.58005e-08
2.56706e-08
3.05006e-08
3.0402e-08
3.03269e-08
3.02669e-08
3.02429e-08
3.05298e-08
3.04233e-08
3.0336e-08
3.02647e-08
3.02415e-08
3.06851e-08
3.05304e-08
3.04047e-08
3.02976e-08
3.02529e-08
3.09407e-08
3.0699e-08
3.0505e-08
3.03364e-08
3.02528e-08
3.11597e-08
3.08242e-08
3.05698e-08
3.0345e-08
3.02286e-08
3.43211e-08
3.43471e-08
3.43814e-08
3.44072e-08
3.44337e-08
3.44027e-08
3.44265e-08
3.44531e-08
3.44699e-08
3.44951e-08
3.46306e-08
3.46078e-08
3.46017e-08
3.45862e-08
3.45881e-08
3.49723e-08
3.48503e-08
3.4787e-08
3.47211e-08
3.46884e-08
3.53681e-08
3.51202e-08
3.49804e-08
3.48599e-08
3.48022e-08
3.82284e-08
3.83733e-08
3.85161e-08
3.86265e-08
3.86969e-08
3.83404e-08
3.84901e-08
3.86301e-08
3.87358e-08
3.88024e-08
3.8559e-08
3.86848e-08
3.88085e-08
3.88956e-08
3.89469e-08
3.88434e-08
3.89121e-08
3.90134e-08
3.90791e-08
3.91151e-08
3.92067e-08
3.91972e-08
3.92549e-08
3.92986e-08
3.93334e-08
4.21662e-08
4.24285e-08
4.26763e-08
4.28645e-08
4.29691e-08
4.22956e-08
4.25611e-08
4.28122e-08
4.30014e-08
4.30998e-08
4.2479e-08
4.27376e-08
4.29947e-08
4.31845e-08
4.32793e-08
4.2679e-08
4.29232e-08
4.31986e-08
4.34012e-08
4.35036e-08
4.29354e-08
4.31505e-08
4.34401e-08
4.36716e-08
4.38025e-08
4.6012e-08
4.64059e-08
4.67648e-08
4.70286e-08
4.71611e-08
4.61572e-08
4.65446e-08
4.69139e-08
4.71836e-08
4.73065e-08
4.63376e-08
4.67162e-08
4.71128e-08
4.74e-08
4.75296e-08
4.65465e-08
4.6906e-08
4.73489e-08
4.76773e-08
4.7834e-08
4.68341e-08
4.71452e-08
4.76267e-08
4.80186e-08
4.82278e-08
4.96211e-08
5.01869e-08
5.06794e-08
5.10278e-08
5.11904e-08
4.97907e-08
5.03432e-08
5.08501e-08
5.12043e-08
5.13552e-08
5.00273e-08
5.05648e-08
5.11135e-08
5.14968e-08
5.16636e-08
5.03736e-08
5.08559e-08
5.1462e-08
5.19062e-08
5.21157e-08
5.09476e-08
5.13033e-08
5.1907e-08
5.24101e-08
5.26792e-08
5.28764e-08
5.36816e-08
5.43523e-08
5.48137e-08
5.50264e-08
5.30946e-08
5.3888e-08
5.45695e-08
5.5033e-08
5.52402e-08
5.34565e-08
5.42455e-08
5.49748e-08
5.5475e-08
5.57076e-08
5.40416e-08
5.47583e-08
5.55483e-08
5.61215e-08
5.64028e-08
5.50895e-08
5.56024e-08
5.63212e-08
5.69231e-08
5.72458e-08
5.56979e-08
5.68429e-08
5.77748e-08
5.84161e-08
5.87299e-08
5.6009e-08
5.71474e-08
5.80814e-08
5.87243e-08
5.9049e-08
5.65855e-08
5.77424e-08
5.87241e-08
5.94077e-08
5.97612e-08
5.74954e-08
5.85991e-08
5.96431e-08
6.04001e-08
6.07907e-08
5.90262e-08
5.99155e-08
6.08551e-08
6.1613e-08
6.20103e-08
5.80208e-08
5.96663e-08
6.10064e-08
6.19506e-08
6.24477e-08
5.84872e-08
6.01297e-08
6.14658e-08
6.2417e-08
6.29405e-08
5.93914e-08
6.10665e-08
6.24443e-08
6.34313e-08
6.39738e-08
6.07356e-08
6.23882e-08
6.38207e-08
6.4862e-08
6.5415e-08
6.27001e-08
6.42064e-08
6.55419e-08
6.65687e-08
6.71016e-08
5.97944e-08
6.21796e-08
6.41507e-08
6.55731e-08
6.63481e-08
6.04905e-08
6.28746e-08
6.48404e-08
6.62725e-08
6.70739e-08
6.18469e-08
6.4256e-08
6.62469e-08
6.76948e-08
6.84956e-08
6.37714e-08
6.61708e-08
6.81886e-08
6.96546e-08
7.04405e-08
6.62496e-08
6.85694e-08
7.05109e-08
7.19562e-08
7.27138e-08
6.09588e-08
6.43957e-08
6.72864e-08
6.93947e-08
7.05397e-08
6.19665e-08
6.53983e-08
6.82807e-08
7.03898e-08
7.15445e-08
6.39032e-08
6.73259e-08
7.02033e-08
7.22987e-08
7.34353e-08
6.65752e-08
6.99689e-08
7.28329e-08
7.49068e-08
7.6014e-08
6.97649e-08
7.30889e-08
7.59033e-08
7.79563e-08
7.90366e-08
6.13509e-08
6.6232e-08
7.03917e-08
7.34269e-08
7.50468e-08
6.27519e-08
6.76113e-08
7.17524e-08
7.47711e-08
7.63805e-08
6.5398e-08
7.01982e-08
7.42979e-08
7.72759e-08
7.88579e-08
6.90043e-08
7.37306e-08
7.77784e-08
8.07011e-08
8.22402e-08
7.31806e-08
7.78185e-08
8.18289e-08
8.47199e-08
8.6221e-08
6.06014e-08
6.74537e-08
7.33331e-08
7.76141e-08
7.9869e-08
6.24791e-08
6.92875e-08
7.51295e-08
7.93768e-08
8.1607e-08
6.59951e-08
7.27028e-08
7.84653e-08
8.26477e-08
8.48393e-08
7.0801e-08
7.73735e-08
8.30362e-08
8.71258e-08
8.92516e-08
7.64094e-08
8.28344e-08
8.8402e-08
9.24115e-08
9.4463e-08
5.81264e-08
6.77146e-08
7.59498e-08
8.19423e-08
8.5086e-08
6.06116e-08
7.01311e-08
7.82984e-08
8.42379e-08
8.73434e-08
6.52754e-08
7.46556e-08
8.26906e-08
8.85257e-08
9.15685e-08
7.17066e-08
8.08581e-08
8.87088e-08
9.43949e-08
9.73449e-08
7.93265e-08
8.81984e-08
9.58114e-08
1.01335e-07
1.04172e-07
5.32525e-08
6.6677e-08
7.81798e-08
8.65561e-08
9.09549e-08
5.65815e-08
6.98891e-08
8.12746e-08
8.95636e-08
9.39002e-08
6.28645e-08
7.59454e-08
8.71078e-08
9.52181e-08
9.9451e-08
7.15671e-08
8.42603e-08
9.50966e-08
1.02966e-07
1.07069e-07
8.18565e-08
9.40854e-08
1.04497e-07
1.12091e-07
1.16053e-07
4.5312e-08
6.40833e-08
8.01285e-08
9.18214e-08
9.79685e-08
4.98376e-08
6.84003e-08
8.42528e-08
9.57932e-08
1.01835e-07
5.84312e-08
7.6576e-08
9.20471e-08
1.03287e-07
1.09163e-07
7.03255e-08
8.78232e-08
1.02744e-07
1.13584e-07
1.19262e-07
8.42913e-08
1.01037e-07
1.15296e-07
1.25673e-07
1.31141e-07
3.35044e-08
5.96836e-08
8.20419e-08
9.83303e-08
1.0689e-07
3.96938e-08
6.55179e-08
8.7561e-08
1.03592e-07
1.11992e-07
5.15071e-08
7.66015e-08
9.80105e-08
1.13563e-07
1.21714e-07
6.77949e-08
9.18757e-08
1.12405e-07
1.27316e-07
1.35147e-07
8.69396e-08
1.09808e-07
1.2933e-07
1.43477e-07
1.50934e-07
1.66103e-08
5.30875e-08
8.42487e-08
1.06933e-07
1.18855e-07
2.50808e-08
6.09793e-08
9.16249e-08
1.13908e-07
1.25615e-07
4.12897e-08
7.60263e-08
1.05663e-07
1.27212e-07
1.3855e-07
6.3557e-08
9.67587e-08
1.25046e-07
1.45601e-07
1.56417e-07
8.97886e-08
1.21133e-07
1.47868e-07
1.67226e-07
1.77398e-07
-7.23647e-09
4.36849e-08
8.72081e-08
1.189e-07
1.35589e-07
4.38886e-09
5.43744e-08
9.70626e-08
1.28146e-07
1.44529e-07
2.66146e-08
7.48014e-08
1.15914e-07
1.45856e-07
1.61645e-07
5.71389e-08
1.02918e-07
1.41938e-07
1.70323e-07
1.85267e-07
9.30668e-08
1.35982e-07
1.72532e-07
1.99063e-07
2.13011e-07
-4.06632e-08
3.06566e-08
9.16797e-08
1.36191e-07
1.59663e-07
-2.46456e-08
4.5152e-08
1.04833e-07
1.48379e-07
1.71347e-07
5.84381e-09
7.2832e-08
1.30033e-07
1.71745e-07
1.93727e-07
4.77739e-08
1.10928e-07
1.648e-07
2.04018e-07
2.24658e-07
9.69737e-08
1.55652e-07
2.05607e-07
2.41948e-07
2.61073e-07
-8.73125e-08
1.29509e-08
9.89372e-08
1.6181e-07
1.94938e-07
-6.52647e-08
3.25598e-08
1.16387e-07
1.77667e-07
2.09948e-07
-2.33868e-08
6.9983e-08
1.49833e-07
2.08116e-07
2.38789e-07
3.42343e-08
1.21545e-07
1.96048e-07
2.50308e-07
2.78846e-07
1.01519e-07
1.81898e-07
2.5028e-07
3.00011e-07
3.26108e-07
-1.52423e-07
-1.07385e-08
1.11107e-07
2.00533e-07
2.4746e-07
-1.2211e-07
1.56539e-08
1.33986e-07
2.20757e-07
2.66304e-07
-6.44213e-08
6.6124e-08
1.77993e-07
2.59819e-07
3.02797e-07
1.50172e-08
1.35897e-07
2.39137e-07
3.14431e-07
3.53998e-07
1.07537e-07
2.1753e-07
3.11041e-07
3.78982e-07
4.14556e-07
-2.43545e-07
-4.19361e-08
1.31721e-07
2.60253e-07
3.26822e-07
-2.01809e-07
-6.67281e-09
1.61228e-07
2.85252e-07
3.49638e-07
-1.22236e-07
6.10645e-08
2.18433e-07
3.34176e-07
3.94569e-07
-1.22024e-08
1.55511e-07
2.98943e-07
4.03947e-07
4.58955e-07
1.16008e-07
2.66318e-07
3.94014e-07
4.86801e-07
5.35446e-07
-3.72004e-07
-8.21568e-08
1.66351e-07
3.54602e-07
4.48031e-07
-3.14291e-07
-3.55335e-08
2.03534e-07
3.83781e-07
4.74046e-07
-2.04325e-07
5.45309e-08
2.7661e-07
4.42349e-07
5.26851e-07
-5.08616e-08
1.82549e-07
3.823e-07
5.29942e-07
6.06492e-07
1.27766e-07
3.33176e-07
5.07373e-07
6.34372e-07
7.00966e-07
-5.57048e-07
-1.31077e-07
2.22282e-07
5.08952e-07
6.34246e-07
-4.75527e-07
-7.06035e-08
2.67778e-07
5.39146e-07
6.60662e-07
-3.22618e-07
4.627e-08
3.58979e-07
6.01921e-07
7.17307e-07
-1.05731e-07
2.20409e-07
4.98566e-07
7.09498e-07
8.15559e-07
1.44851e-07
4.2511e-07
6.61597e-07
8.35877e-07
9.26567e-07
-8.4035e-07
-1.7643e-07
3.02262e-07
7.71482e-07
9.22886e-07
-7.16835e-07
-1.01856e-07
3.56705e-07
7.94434e-07
9.42511e-07
-5.00389e-07
3.73246e-08
4.68211e-07
8.4069e-07
9.88463e-07
-1.84849e-07
2.75303e-07
6.59977e-07
9.71899e-07
1.11651e-06
1.69434e-07
5.49855e-07
8.65952e-07
1.10375e-06
1.22503e-06
-1.32357e-06
-1.63428e-07
3.92348e-07
1.22741e-06
1.37725e-06
-1.10879e-06
-8.13278e-08
4.56859e-07
1.22749e-06
1.37519e-06
-7.91258e-07
3.68093e-08
5.88525e-07
1.19334e-06
1.36231e-06
-3.05423e-07
3.65164e-07
8.84182e-07
1.37638e-06
1.57115e-06
1.91924e-07
7.07256e-07
1.11217e-06
1.43064e-06
1.59039e-06
-2.17549e-06
-1.21898e-08
4.96144e-07
2.08557e-06
2.02294e-06
-1.74791e-06
7.77316e-08
5.72577e-07
2.04684e-06
1.98394e-06
-1.29809e-06
3.98394e-08
6.76297e-07
1.69334e-06
1.78728e-06
-4.86873e-07
5.48339e-07
1.2191e-06
2.05966e-06
2.31739e-06
1.51513e-07
8.82454e-07
1.36454e-06
1.795e-06
2.03276e-06
-3.63363e-06
3.46275e-07
6.4614e-07
3.60568e-06
3.20937e-06
-2.61728e-06
4.92434e-07
7.13375e-07
3.51921e-06
3.07421e-06
-2.12653e-06
-1.17981e-07
6.10867e-07
2.21605e-06
2.29807e-06
-6.56128e-07
8.90777e-07
1.75816e-06
3.1936e-06
3.51347e-06
-4.39172e-08
1.04766e-06
1.64038e-06
2.23052e-06
2.73247e-06
-6.62199e-06
1.08953e-06
1.49452e-06
7.35922e-06
6.2496e-06
-3.70736e-06
1.3692e-06
1.00377e-06
6.56361e-06
5.18274e-06
-3.37498e-06
-7.48671e-07
3.74879e-08
2.52341e-06
2.69325e-06
-8.17868e-07
1.24194e-06
2.42347e-06
4.79984e-06
5.14654e-06
-3.35954e-07
9.14921e-07
2.02544e-06
2.79812e-06
4.23259e-06
-1.68774e-05
-1.10884e-05
-1.31049e-05
-7.17023e-06
-7.56943e-06
-1.32087e-05
-7.29082e-06
-9.66318e-06
-2.67216e-06
-4.48788e-06
-9.24425e-06
-5.47628e-06
-3.07597e-06
-5.36937e-07
-8.60616e-07
-2.41424e-06
6.83821e-07
2.35889e-06
6.09615e-06
5.63235e-06
-1.89866e-06
6.33755e-08
3.3259e-07
1.57849e-07
6.19129e-07
-4.9974e-06
2.60323e-05
2.40971e-05
5.29663e-05
4.34887e-05
1.47557e-05
2.88165e-05
1.82792e-05
4.8652e-05
3.29079e-05
1.36781e-05
8.19503e-06
3.46323e-06
1.36392e-05
1.57736e-05
7.38439e-06
1.34494e-05
1.26797e-05
1.9623e-05
2.04854e-05
8.99514e-06
2.50804e-06
1.68332e-05
1.728e-05
3.24399e-05
-4.63299e-05
-6.30237e-05
-6.66284e-05
-5.03116e-05
-3.18365e-05
-3.88618e-05
-5.21584e-05
-3.65033e-05
-4.54459e-05
-2.63442e-05
-2.79591e-05
-2.51566e-05
1.31065e-06
-4.26531e-06
-1.14437e-05
6.97723e-06
-7.23828e-06
-2.47989e-06
4.12096e-06
5.35272e-06
-4.49616e-06
2.10737e-05
1.5171e-06
3.21539e-06
3.65544e-06
-7.48523e-05
8.8709e-06
-2.48556e-05
0.000136391
9.04342e-05
7.84165e-05
4.05254e-05
1.64909e-05
0.000151992
2.44604e-05
0.000111786
-4.72457e-05
-8.79745e-05
-2.96114e-05
-1.58693e-05
-6.99004e-05
2.02074e-05
-3.24323e-05
-1.92412e-05
1.36161e-06
-4.42923e-05
-0.000102117
3.79957e-05
1.05597e-05
0.000189116
0.000678764
0.000780357
0.000841907
0.000710562
0.000773864
0.000701864
0.000646041
0.000605479
0.000615967
0.000675971
0.000513595
0.000577045
0.000490041
0.00069847
0.000603394
0.000904126
0.000505439
0.000417538
0.000529768
0.000421722
0.000356895
0.000466052
0.000942672
0.000697196
0.000938111
0.00116003
0.00147843
0.0011188
0.00146675
0.00190266
0.00155111
0.000935056
0.00113018
0.000680885
0.000808619
0.000886064
0.00120626
0.00130813
0.00124602
0.00245301
0.00136447
0.00111882
0.00111251
0.00138623
0.000752615
0.00175665
0.00141025
0.00163017
0.0011501
0.00147721
0.0020947
0.0024401
0.00211262
0.00217543
0.00215365
0.00232363
0.00199925
0.00205505
0.00212626
0.00222925
0.00276045
0.0019288
0.00177327
0.00202276
0.00217506
0.00147104
0.00201659
0.00176994
0.00192926
0.00217402
0.00199743
0.00168051
0.00172673
0.00184162
0.001889
0.00295161
0.00265641
0.00305261
0.00262041
0.0026478
0.002369
0.00268358
0.00269337
0.00258751
0.00259682
0.00299965
0.00263109
0.00268971
0.002573
0.00266147
0.00267827
0.00241552
0.00283271
0.00234049
0.0026531
0.00233795
0.00233172
0.00198867
0.00281785
0.0026591
0.00347024
0.00323561
0.00335816
0.00328855
0.00362222
0.00282805
0.0031835
0.00341311
0.00336938
0.00336778
0.00318787
0.00328007
0.00317305
0.00311481
0.00311813
0.00324067
0.00295979
0.00332038
0.00276264
0.00313976
0.00323633
0.00380151
0.00317918
0.00310304
0.00305821
0.00407334
0.00412228
0.0041639
0.00358692
0.00357798
0.00397582
0.0040231
0.00386462
0.00378367
0.00375319
0.00345864
0.00363871
0.00413156
0.00402105
0.00328882
0.00354286
0.00378007
0.00369289
0.00385916
0.00354398
0.0033356
0.00372117
0.00361937
0.00325096
0.0036394
0.00434994
0.00449496
0.00466721
0.00505734
0.00444473
0.00432724
0.00449289
0.00463929
0.00411788
0.00425077
0.00407509
0.00444799
0.00456811
0.00455353
0.00466453
0.00400683
0.00423085
0.00445224
0.004373
0.00444725
0.00417957
0.004014
0.00433565
0.00415264
0.00429905
0.00535894
0.00485302
0.00492083
0.00512858
0.0049448
0.00461508
0.00495551
0.00500866
0.00511305
0.00499329
0.00478146
0.00512712
0.00486923
0.00584025
0.00500501
0.00477627
0.00546781
0.00499722
0.00469472
0.00474377
0.00475057
0.004836
0.00484518
0.00520125
0.00439407
0.00615632
0.00540723
0.00573374
0.00535212
0.00494578
0.00567317
0.0056805
0.00490083
0.00546598
0.0052698
0.00546143
0.00544764
0.00560716
0.0056677
0.00575157
0.0054507
0.00546877
0.00553085
0.0053827
0.00486878
0.0056086
0.00515274
0.00566075
0.00591418
0.00560191
0.00614337
0.00597828
0.00597985
0.00602473
0.0063792
0.00614156
0.00609028
0.0061384
0.00593648
0.00607495
0.00615782
0.00591074
0.00624159
0.00605483
0.00630418
0.00614218
0.00581533
0.00620713
0.00617507
0.00606185
0.00597128
0.00617852
0.00608833
0.00607597
0.00614378
0.00626981
0.00646084
0.00618735
0.0063701
0.00637765
0.00640462
0.00633724
0.0063633
0.00630753
0.0063741
0.00630978
0.00635986
0.00635166
0.00637842
0.00630341
0.00636601
0.00639512
0.00635083
0.0063873
0.00633957
0.00634087
0.006388
0.00630181
0.00631449
0.00636803
0.00635585
0.00635752
0.00636579
0.00635296
0.00634995
0.00636181
0.00636094
0.00634458
0.00634917
0.00634543
0.00635795
0.00635841
0.00634392
0.00631505
0.00633554
0.00634079
0.00633343
0.0063446
0.00634464
0.00634788
0.00636468
0.00636175
0.00635386
0.00635243
0.00634128
0.0063302
0.00635579
0.00631922
0.00634868
0.00634796
0.00635373
0.00635319
0.00634699
0.00635593
0.00635263
0.00634409
0.00635498
0.006344
0.0063441
0.00634169
0.0063513
0.00635801
0.00634804
0.00635327
0.00634961
0.0063477
0.00635886
0.0063456
0.00634296
0.00634818
0.0063531
0.00635817
0.00634912
0.00635248
0.00635094
0.00635653
0.00635766
0.00635239
0.00635588
0.00635399
0.00635445
0.00635771
0.00635117
0.00634981
0.00634916
0.00635576
0.0063581
0.00635358
0.00635532
0.00635449
0.00636006
0.00636044
0.00635668
0.00635489
0.00635425
0.00635566
0.00635814
0.00635251
0.00635472
0.00635384
0.00635788
0.00635838
0.00635521
0.00635651
0.00635557
0.00635752
0.00635853
0.0063551
0.00635436
0.00635383
0.00635848
0.0063592
0.0063567
0.00635699
0.00635649
0.00636055
0.00636068
0.00635854
0.0063575
0.00635714
0.00635855
0.00635889
0.0063564
0.00635676
0.00635634
0.0063594
0.00635919
0.00635751
0.0063576
0.00635718
0.00635962
0.00635948
0.00635777
0.00635718
0.00635684
0.00636034
0.00636013
0.00635881
0.00635848
0.00635819
0.0063616
0.00636116
0.00636004
0.00635939
0.0063591
0.00636022
0.00635979
0.00635866
0.00635844
0.00635821
0.00636058
0.00636004
0.00635914
0.00635885
0.00635861
0.0063609
0.00636037
0.00635948
0.00635903
0.00635879
0.00636145
0.00636092
0.00636018
0.00635978
0.00635957
0.00636226
0.00636169
0.00636103
0.00636058
0.00636037
0.00636119
0.00636066
0.00636005
0.00635975
0.00635958
0.00636138
0.00636085
0.00636029
0.00635998
0.00635981
0.00636167
0.00636114
0.00636061
0.00636027
0.00636009
0.00636209
0.00636159
0.0063611
0.00636078
0.00636062
0.00636265
0.00636216
0.00636172
0.00636139
0.00636123
0.0063618
0.00636138
0.00636098
0.00636073
0.0063606
0.00636193
0.00636151
0.00636113
0.00636088
0.00636075
0.00636216
0.00636175
0.00636138
0.00636113
0.006361
0.00636249
0.00636209
0.00636175
0.00636151
0.00636138
0.0063629
0.00636252
0.0063622
0.00636196
0.00636184
0.00636224
0.00636192
0.00636165
0.00636146
0.00636136
0.00636233
0.00636202
0.00636175
0.00636156
0.00636147
0.00636251
0.0063622
0.00636194
0.00636176
0.00636166
0.00636276
0.00636246
0.00636221
0.00636203
0.00636194
0.00636307
0.00636278
0.00636254
0.00636237
0.00636228
0.00636256
0.00636232
0.00636213
0.00636199
0.00636191
0.00636263
0.0063624
0.0063622
0.00636206
0.00636199
0.00636276
0.00636253
0.00636235
0.00636221
0.00636214
0.00636295
0.00636273
0.00636255
0.00636241
0.00636235
0.00636317
0.00636297
0.00636279
0.00636266
0.0063626
0.00636279
0.00636262
0.00636248
0.00636237
0.00636232
0.00636284
0.00636267
0.00636253
0.00636243
0.00636238
0.00636294
0.00636278
0.00636264
0.00636254
0.00636249
0.00636308
0.00636292
0.00636279
0.00636269
0.00636264
0.00636325
0.0063631
0.00636297
0.00636287
0.00636282
0.00636296
0.00636284
0.00636273
0.00636266
0.00636262
0.006363
0.00636288
0.00636277
0.0063627
0.00636266
0.00636307
0.00636295
0.00636285
0.00636278
0.00636274
0.00636318
0.00636306
0.00636296
0.00636289
0.00636285
0.0063633
0.00636319
0.00636309
0.00636302
0.00636299
0.00636308
0.00636299
0.00636292
0.00636286
0.00636284
0.00636311
0.00636302
0.00636295
0.0063629
0.00636287
0.00636317
0.00636308
0.00636301
0.00636295
0.00636293
0.00636324
0.00636316
0.00636309
0.00636304
0.00636301
0.00636334
0.00636325
0.00636318
0.00636313
0.00636311
0.00636317
0.00636311
0.00636306
0.00636302
0.00636299
0.0063632
0.00636313
0.00636308
0.00636304
0.00636302
0.00636324
0.00636317
0.00636312
0.00636308
0.00636306
0.00636329
0.00636323
0.00636318
0.00636314
0.00636312
0.00636336
0.0063633
0.00636325
0.00636321
0.00636319
0.00636324
0.00636319
0.00636315
0.00636313
0.00636311
0.00636326
0.00636321
0.00636317
0.00636314
0.00636313
0.00636329
0.00636324
0.0063632
0.00636317
0.00636316
0.00636333
0.00636328
0.00636324
0.00636322
0.0063632
0.00636338
0.00636333
0.0063633
0.00636327
0.00636326
0.00636329
0.00636326
0.00636323
0.00636321
0.00636319
0.0063633
0.00636327
0.00636324
0.00636322
0.00636321
0.00636332
0.00636329
0.00636326
0.00636324
0.00636323
0.00636335
0.00636332
0.00636329
0.00636327
0.00636326
0.00636339
0.00636336
0.00636333
0.00636331
0.0063633
0.00636332
0.0063633
0.00636328
0.00636326
0.00636326
0.00636333
0.00636331
0.00636329
0.00636327
0.00636326
0.00636335
0.00636333
0.0063633
0.00636329
0.00636328
0.00636337
0.00636335
0.00636333
0.00636331
0.00636331
0.0063634
0.00636337
0.00636336
0.00636334
0.00636333
0.00636335
0.00636333
0.00636332
0.00636331
0.0063633
0.00636336
0.00636334
0.00636332
0.00636331
0.00636331
0.00636337
0.00636335
0.00636334
0.00636332
0.00636332
0.00636338
0.00636337
0.00636335
0.00636334
0.00636334
0.0063634
0.00636339
0.00636337
0.00636336
0.00636336
0.00636337
0.00636336
0.00636334
0.00636334
0.00636333
0.00636337
0.00636336
0.00636335
0.00636334
0.00636334
0.00636338
0.00636337
0.00636336
0.00636335
0.00636335
0.00636339
0.00636338
0.00636337
0.00636336
0.00636336
0.00636341
0.0063634
0.00636339
0.00636338
0.00636337
0.00636338
0.00636337
0.00636336
0.00636336
0.00636335
0.00636339
0.00636338
0.00636337
0.00636336
0.00636336
0.00636339
0.00636338
0.00636337
0.00636337
0.00636337
0.0063634
0.00636339
0.00636338
0.00636338
0.00636337
0.00636341
0.0063634
0.00636339
0.00636339
0.00636339
0.00636339
0.00636338
0.00636338
0.00636337
0.00636337
0.00636339
0.00636339
0.00636338
0.00636338
0.00636337
0.0063634
0.00636339
0.00636339
0.00636338
0.00636338
0.00636341
0.0063634
0.00636339
0.00636339
0.00636339
0.00636341
0.00636341
0.0063634
0.0063634
0.00636339
0.0063634
0.00636339
0.00636339
0.00636338
0.00636338
0.0063634
0.00636339
0.00636339
0.00636339
0.00636338
0.0063634
0.0063634
0.00636339
0.00636339
0.00636339
0.00636341
0.0063634
0.0063634
0.0063634
0.00636339
0.00636341
0.00636341
0.0063634
0.0063634
0.0063634
0.0063634
0.0063634
0.00636339
0.00636339
0.00636339
0.0063634
0.0063634
0.0063634
0.00636339
0.00636339
0.00636341
0.0063634
0.0063634
0.0063634
0.0063634
0.00636341
0.00636341
0.0063634
0.0063634
0.0063634
0.00636341
0.00636341
0.00636341
0.00636341
0.0063634
0.0063634
0.0063634
0.0063634
0.0063634
0.0063634
0.00636341
0.0063634
0.0063634
0.0063634
0.0063634
0.00636341
0.0063634
0.0063634
0.0063634
0.0063634
0.00636341
0.00636341
0.00636341
0.0063634
0.0063634
0.00636341
0.00636341
0.00636341
0.00636341
0.00636341
0.00636341
0.0063634
0.0063634
0.0063634
0.0063634
0.00636341
0.0063634
0.0063634
0.0063634
0.0063634
0.00636341
0.00636341
0.00636341
0.0063634
0.0063634
0.00636341
0.00636341
0.00636341
0.00636341
0.00636341
0.00636341
0.00636341
0.00636341
0.00636341
0.00636341
0.00636341
0.00636341
0.0063634
0.0063634
0.0063634
0.00636341
0.00636341
0.00636341
0.0063634
0.0063634
0.00636341
0.00636341
0.00636341
0.00636341
0.00636341
0.00636341
0.00636341
0.00636341
0.00636341
0.00636341
0.00636341
0.00636341
0.00636341
0.00636341
0.00636341
0.00636341
0.00636341
0.00636341
0.00636341
0.00636341
0.00636341
0.00636341
0.00636341
0.00636341
0.00636341
0.00636341
0.00636341
0.00636341
0.00636341
0.00636341
0.00636341
0.00636341
0.00636341
0.00636341
0.00636341
0.00636341
0.00636341
0.00636341
0.00636341
0.00636341
0.00636341
0.00636341
0.00636341
0.00636341
0.00636341
0.00636341
0.00636341
0.00636341
0.00636341
0.00636341
0.00636341
0.00636341
0.00636341
0.00636341
0.00636341
0.00636341
0.00636341
0.00636341
0.00636341
0.00636341
0.00636341
0.00636341
0.00636341
0.00636341
0.00636341
0.00636341
0.00636341
0.00636341
0.00636341
0.00636341
0.00636341
0.00636341
0.00636341
0.00636341
0.00636341
0.00636341
0.00636341
0.00636341
0.00636341
0.00636341
0.00636341
0.00636341
0.00636341
0.00636341
0.00636341
0.00636341
0.00636341
0.00636341
0.00636341
0.00636341
0.00636341
0.00636341
0.00636341
0.00636341
0.00636341
0.00636341
0.00636341
0.00636341
0.00636341
0.00636341
0.00636341
0.00636341
0.00636341
0.00636341
0.00636341
0.00636341
0.00636341
0.00636341
0.00636341
0.00636341
0.00636341
0.00636341
0.00636341
0.00636341
0.00636341
0.00636341
0.00636341
0.00636341
0.00636341
0.00636341
0.00636341
0.00636341
0.00636341
0.00636341
0.00636341
0.00636341
0.00636341
0.00636341
0.00636341
0.00636341
0.00636341
0.00636341
0.00636341
0.00636341
0.00636341
0.00636341
0.00636341
0.00636341
0.00636341
0.00636341
0.00636341
0.00636341
0.00636341
0.00636341
0.00636341
0.00636341
0.00636341
0.00636341
0.00636341
0.00636341
0.00636341
0.00636341
0.00636341
0.00636341
0.00636341
0.00636341
0.00636341
0.00636341
0.00636341
0.00636341
0.00636341
0.00636341
0.00636341
0.00636341
0.00636341
0.00636341
0.00636341
0.00636341
0.00636341
0.00636341
0.00636341
0.00636341
0.00636341
0.00636341
0.00636341
0.00636341
0.00636341
0.00636341
0.00636341
0.00636341
0.00636341
0.00636341
0.00636341
0.00636341
0.00636341
0.00636341
0.00636341
0.00636341
0.00636341
0.00636341
0.00636341
0.00636341
0.00636341
0.00636341
0.00636341
0.00636341
0.00636341
0.00636341
0.00636341
0.00636341
0.00636341
0.00636341
0.00636341
0.00636341
0.00636341
0.00636341
0.00636341
0.00636341
0.00636341
0.00636341
0.00636341
0.00636341
0.00636341
0.00636341
0.00636341
0.00636341
0.00636341
0.00636341
0.00636341
0.00636341
0.00636341
0.00636341
0.00636341
0.00636341
0.00636341
0.00636341
0.00636341
0.00636341
0.00636341
0.00636341
0.00636341
0.00636341
0.00636341
0.00636341
0.00636341
0.00636341
0.00636341
0.00636341
0.00636341
0.00636341
0.00636341
0.00636341
0.00636341
0.00636341
0.00636341
0.00636341
0.00636341
0.00636341
0.00636341
0.00636341
0.00636341
0.00636341
0.00636341
0.00636341
0.00636341
0.00636341
0.00636341
0.00636341
0.00636341
0.00636341
0.00636341
0.00636341
0.00636341
0.00636341
0.00636341
0.00636341
0.00636341
0.00636341
0.00636341
0.00636341
0.00636341
0.00636341
0.00636341
0.00636341
0.00636341
0.00636341
0.00636341
0.00636341
0.00636341
0.00636341
0.00636341
0.00636341
0.00636341
0.00636341
0.00636341
0.00636341
0.00636341
0.00636341
0.00636341
0.00636341
0.00636341
0.00636341
0.00636341
0.00636341
0.00636341
0.00636341
0.00636341
0.00636341
0.00636341
0.00636341
0.00636341
0.00636341
0.00636341
0.00636341
0.00636341
0.00636341
0.00636341
0.00636341
0.00636341
0.00636341
0.00636341
0.00636341
0.00636341
0.00636341
0.00636341
)
;

boundaryField
{
    inlet
    {
        type            zeroGradient;
    }
    outlet
    {
        type            fixedValue;
        value           uniform 0;
    }
    repeat_boundary
    {
        type            zeroGradient;
    }
    procBoundary1to0
    {
        type            processor;
        value           nonuniform List<scalar> 
450
(
1.80972e-09
1.78612e-09
1.77175e-09
1.73769e-09
1.67152e-09
5.57627e-09
5.54112e-09
5.49012e-09
5.36754e-09
5.1559e-09
9.67375e-09
9.65641e-09
9.56059e-09
9.34503e-09
9.00012e-09
1.40884e-08
1.40853e-08
1.39606e-08
1.37231e-08
1.33704e-08
1.85556e-08
1.854e-08
1.84186e-08
1.82675e-08
1.80949e-08
2.27988e-08
2.27611e-08
2.26838e-08
2.26695e-08
2.27742e-08
2.67508e-08
2.67223e-08
2.67297e-08
2.68308e-08
2.70842e-08
3.05454e-08
3.05659e-08
3.06745e-08
3.08448e-08
3.10642e-08
3.43322e-08
3.44095e-08
3.45937e-08
3.47954e-08
3.48822e-08
3.81497e-08
3.82637e-08
3.84731e-08
3.86824e-08
3.87144e-08
4.19362e-08
4.2063e-08
4.22538e-08
4.24554e-08
4.25485e-08
4.55762e-08
4.57026e-08
4.58622e-08
4.604e-08
4.61666e-08
4.89335e-08
4.90726e-08
4.92461e-08
4.94363e-08
4.95178e-08
5.18806e-08
5.20766e-08
5.23755e-08
5.27392e-08
5.29208e-08
5.43039e-08
5.46133e-08
5.51742e-08
5.59298e-08
5.65308e-08
5.60924e-08
5.65735e-08
5.75143e-08
5.88233e-08
6.01017e-08
5.71287e-08
5.78496e-08
5.92714e-08
6.12542e-08
6.34196e-08
5.72484e-08
5.82857e-08
6.02836e-08
6.30575e-08
6.62838e-08
5.61551e-08
5.75853e-08
6.02638e-08
6.39526e-08
6.82989e-08
5.33222e-08
5.52335e-08
5.87881e-08
6.36571e-08
6.93211e-08
4.79545e-08
5.04967e-08
5.53023e-08
6.18862e-08
6.95116e-08
3.90757e-08
4.25154e-08
4.91172e-08
5.81659e-08
6.8731e-08
2.55899e-08
3.03262e-08
3.94246e-08
5.19008e-08
6.6578e-08
6.08617e-09
1.26545e-08
2.51864e-08
4.24395e-08
6.27544e-08
-2.15457e-08
-1.24482e-08
4.83888e-09
2.87466e-08
5.67965e-08
-6.04545e-08
-4.78587e-08
-2.38983e-08
9.18093e-09
4.78188e-08
-1.15093e-07
-9.75866e-08
-6.42316e-08
-1.84431e-08
3.49144e-08
-1.91756e-07
-1.67368e-07
-1.20873e-07
-5.72164e-08
1.69829e-08
-2.9947e-07
-2.65421e-07
-2.00528e-07
-1.11657e-07
-8.0815e-09
-4.50994e-07
-4.03349e-07
-3.12566e-07
-1.87929e-07
-4.29649e-08
-6.64443e-07
-5.97816e-07
-4.70558e-07
-2.94421e-07
-9.05784e-08
-9.64412e-07
-8.71761e-07
-6.93869e-07
-4.41951e-07
-1.54337e-07
-1.37588e-06
-1.25145e-06
-1.00901e-06
-6.40833e-07
-2.38148e-07
-1.90521e-06
-1.75382e-06
-1.45108e-06
-8.82998e-07
-3.4653e-07
-2.552e-06
-2.39506e-06
-2.10308e-06
-1.09985e-06
-4.8827e-07
-3.33174e-06
-3.26557e-06
-3.1944e-06
-1.20402e-06
-7.17688e-07
-3.86623e-06
-4.72215e-06
-5.1541e-06
-1.27872e-06
-8.5227e-07
-1.27885e-05
-1.14067e-05
-1.11528e-05
-4.67853e-06
-1.36605e-06
2.36072e-05
4.40547e-06
8.71801e-07
1.8554e-05
8.65665e-06
-6.12741e-05
-3.51873e-05
-2.91096e-05
-2.47903e-05
8.07011e-06
0.000133455
-9.6835e-05
-6.32041e-06
7.98094e-05
-3.68061e-05
0.000607209
0.000690247
0.000731052
0.000391683
0.00047994
0.000920261
0.0011596
0.00131908
0.000748503
0.00147406
0.00192172
0.00174427
0.00158586
0.00198851
0.00171957
0.00322173
0.00320353
0.00257507
0.00261722
0.00245705
0.00350114
0.00354268
0.00333555
0.00322079
0.00404966
0.00362645
0.00382108
0.00363096
0.00390074
0.00380733
0.0042395
0.00432088
0.00413112
0.00425659
0.00416385
0.00486385
0.00475245
0.0048813
0.00465035
0.00519131
0.00535539
0.00511973
0.00533163
0.00554879
0.00589694
0.00603747
0.00626398
0.00591206
0.0060794
0.00606751
0.00641646
0.00642855
0.00637498
0.00636875
0.00634239
0.0063563