/*--------------------------------*- C++ -*----------------------------------*\
| =========                 |                                                 |
| \\      /  F ield         | OpenFOAM: The Open Source CFD Toolbox           |
|  \\    /   O peration     | Version:  5.x                                   |
|   \\  /    A nd           | Web:      www.OpenFOAM.org                      |
|    \\/     M anipulation  |                                                 |
\*---------------------------------------------------------------------------*/
FoamFile
{
    version     2.0;
    format      ascii;
    class       volVectorField;
    location    "30000";
    object      stored_U;
}
// * * * * * * * * * * * * * * * * * * * * * * * * * * * * * * * * * * * * * //

dimensions      [0 1 -1 0 0 0 0];

internalField   nonuniform List<vector> 
2250
(
(-8.97715e-11 2.97881e-11 -0.000999996)
(-8.50139e-11 2.59473e-11 -0.000999996)
(-7.45989e-11 2.42364e-11 -0.000999996)
(-4.6124e-11 2.30315e-11 -0.000999997)
(-1.52548e-11 2.30378e-11 -0.000999997)
(-9.46708e-11 8.6526e-11 -0.000999996)
(-9.07992e-11 7.77402e-11 -0.000999996)
(-7.76702e-11 7.50486e-11 -0.000999996)
(-4.73662e-11 7.24237e-11 -0.000999996)
(-1.52308e-11 7.23941e-11 -0.000999997)
(-9.38856e-11 1.28373e-10 -0.000999996)
(-9.66859e-11 1.21213e-10 -0.000999996)
(-8.00559e-11 1.17465e-10 -0.000999996)
(-4.87235e-11 1.16751e-10 -0.000999996)
(-1.51692e-11 1.173e-10 -0.000999996)
(-1.09801e-10 1.54133e-10 -0.000999995)
(-1.01654e-10 1.43159e-10 -0.000999996)
(-8.21287e-11 1.42599e-10 -0.000999996)
(-4.73027e-11 1.44728e-10 -0.000999996)
(-1.44608e-11 1.46426e-10 -0.000999996)
(-1.2195e-10 1.66248e-10 -0.000999995)
(-1.08263e-10 1.6176e-10 -0.000999995)
(-7.84765e-11 1.54673e-10 -0.000999996)
(-4.46107e-11 1.60149e-10 -0.000999996)
(-1.32079e-11 1.60416e-10 -0.000999996)
(-2.62135e-10 8.63271e-11 -0.000999996)
(-2.50035e-10 7.61564e-11 -0.000999996)
(-2.16611e-10 7.10355e-11 -0.000999997)
(-1.3467e-10 6.78317e-11 -0.000999997)
(-4.39313e-11 6.75377e-11 -0.000999997)
(-2.7423e-10 2.50375e-10 -0.000999996)
(-2.65879e-10 2.2715e-10 -0.000999996)
(-2.25352e-10 2.18215e-10 -0.000999996)
(-1.38272e-10 2.13615e-10 -0.000999997)
(-4.41724e-11 2.13115e-10 -0.000999997)
(-2.7275e-10 3.72886e-10 -0.000999996)
(-2.82677e-10 3.46054e-10 -0.000999996)
(-2.30539e-10 3.39731e-10 -0.000999996)
(-1.3959e-10 3.41379e-10 -0.000999996)
(-4.40948e-11 3.42347e-10 -0.000999996)
(-3.04742e-10 4.62499e-10 -0.000999996)
(-2.99101e-10 4.17591e-10 -0.000999996)
(-2.3002e-10 4.13476e-10 -0.000999996)
(-1.34996e-10 4.18766e-10 -0.000999996)
(-4.25535e-11 4.20967e-10 -0.000999996)
(-3.12781e-10 4.45802e-10 -0.000999995)
(-3.31737e-10 4.71324e-10 -0.000999995)
(-2.29349e-10 4.62872e-10 -0.000999996)
(-1.31263e-10 4.7105e-10 -0.000999996)
(-4.10937e-11 4.66753e-10 -0.000999996)
(-4.59685e-10 1.43777e-10 -0.000999996)
(-4.37751e-10 1.32061e-10 -0.000999997)
(-3.70154e-10 1.23825e-10 -0.000999997)
(-2.33772e-10 1.1967e-10 -0.000999997)
(-7.66926e-11 1.20909e-10 -0.000999997)
(-4.76923e-10 4.18572e-10 -0.000999996)
(-4.58577e-10 3.9306e-10 -0.000999997)
(-3.83305e-10 3.81692e-10 -0.000999997)
(-2.36894e-10 3.76981e-10 -0.000999997)
(-7.53544e-11 3.76249e-10 -0.000999997)
(-4.77487e-10 6.3477e-10 -0.000999996)
(-4.7545e-10 6.069e-10 -0.000999996)
(-3.8695e-10 5.95086e-10 -0.000999996)
(-2.38893e-10 5.99776e-10 -0.000999997)
(-7.6785e-11 5.98336e-10 -0.000999997)
(-4.90109e-10 8.41032e-10 -0.000999996)
(-4.98256e-10 7.69908e-10 -0.000999996)
(-3.90415e-10 7.3359e-10 -0.000999996)
(-2.32443e-10 7.34473e-10 -0.000999996)
(-7.55845e-11 7.30377e-10 -0.000999996)
(-4.23371e-10 7.38147e-10 -0.000999995)
(-5.82803e-10 7.89743e-10 -0.000999995)
(-4.22352e-10 8.15535e-10 -0.000999996)
(-2.4062e-10 8.27092e-10 -0.000999996)
(-7.94164e-11 8.16955e-10 -0.000999996)
(-6.94661e-10 2.092e-10 -0.000999997)
(-6.54101e-10 2.01631e-10 -0.000999997)
(-5.41985e-10 1.91933e-10 -0.000999997)
(-3.47102e-10 1.88389e-10 -0.000999997)
(-1.16919e-10 1.90642e-10 -0.000999998)
(-7.15401e-10 6.034e-10 -0.000999997)
(-6.72742e-10 5.96588e-10 -0.000999997)
(-5.56403e-10 5.8382e-10 -0.000999997)
(-3.48702e-10 5.79352e-10 -0.000999997)
(-1.14518e-10 5.79594e-10 -0.000999997)
(-7.2472e-10 9.29826e-10 -0.000999996)
(-6.7499e-10 9.31575e-10 -0.000999997)
(-5.60323e-10 9.13932e-10 -0.000999997)
(-3.50852e-10 9.15702e-10 -0.000999997)
(-1.15749e-10 9.13827e-10 -0.000999997)
(-7.31807e-10 1.20148e-09 -0.000999996)
(-6.88677e-10 1.19858e-09 -0.000999996)
(-5.72258e-10 1.14226e-09 -0.000999996)
(-3.47001e-10 1.13093e-09 -0.000999997)
(-1.14594e-10 1.12438e-09 -0.000999997)
(-6.80179e-10 1.25759e-09 -0.000999996)
(-7.34206e-10 1.20501e-09 -0.000999996)
(-6.27947e-10 1.25099e-09 -0.000999996)
(-3.66531e-10 1.26311e-09 -0.000999996)
(-1.20114e-10 1.25643e-09 -0.000999996)
(-9.73804e-10 2.97742e-10 -0.000999997)
(-9.1532e-10 2.93943e-10 -0.000999998)
(-7.40823e-10 2.85804e-10 -0.000999998)
(-4.75119e-10 2.82445e-10 -0.000999998)
(-1.61353e-10 2.85465e-10 -0.000999998)
(-9.96386e-10 8.51078e-10 -0.000999997)
(-9.29243e-10 8.62643e-10 -0.000999997)
(-7.53965e-10 8.51417e-10 -0.000999998)
(-4.75888e-10 8.47432e-10 -0.000999998)
(-1.5811e-10 8.49134e-10 -0.000999998)
(-1.01405e-09 1.29897e-09 -0.000999997)
(-9.16915e-10 1.34734e-09 -0.000999997)
(-7.57617e-10 1.33485e-09 -0.000999997)
(-4.76729e-10 1.33174e-09 -0.000999997)
(-1.58362e-10 1.3289e-09 -0.000999998)
(-1.04568e-09 1.59974e-09 -0.000999996)
(-8.93409e-10 1.69458e-09 -0.000999996)
(-7.69545e-10 1.66974e-09 -0.000999997)
(-4.79243e-10 1.65843e-09 -0.000999997)
(-1.58404e-10 1.64894e-09 -0.000999997)
(-1.13574e-09 2.05267e-09 -0.000999996)
(-8.46922e-10 1.83297e-09 -0.000999996)
(-7.93671e-10 1.83811e-09 -0.000999996)
(-4.94211e-10 1.84304e-09 -0.000999996)
(-1.64609e-10 1.83457e-09 -0.000999996)
(-1.31062e-09 4.25005e-10 -0.000999998)
(-1.22949e-09 4.21473e-10 -0.000999999)
(-9.76484e-10 4.15191e-10 -0.000999999)
(-6.25249e-10 4.12204e-10 -0.000999999)
(-2.1278e-10 4.1443e-10 -0.000999999)
(-1.32612e-09 1.2164e-09 -0.000999998)
(-1.2419e-09 1.22769e-09 -0.000999998)
(-9.87785e-10 1.21844e-09 -0.000999999)
(-6.26463e-10 1.21295e-09 -0.000999999)
(-2.10176e-10 1.21247e-09 -0.000999999)
(-1.34149e-09 1.84154e-09 -0.000999997)
(-1.23002e-09 1.90753e-09 -0.000999998)
(-9.93192e-10 1.90361e-09 -0.000999998)
(-6.30067e-10 1.89548e-09 -0.000999998)
(-2.11327e-10 1.88843e-09 -0.000999998)
(-1.40277e-09 2.21851e-09 -0.000999996)
(-1.17988e-09 2.35451e-09 -0.000999997)
(-9.99784e-10 2.37268e-09 -0.000999997)
(-6.37872e-10 2.36577e-09 -0.000999997)
(-2.13542e-10 2.35492e-09 -0.000999998)
(-1.62541e-09 2.98039e-09 -0.000999996)
(-1.07587e-09 2.69605e-09 -0.000999996)
(-9.81824e-10 2.64344e-09 -0.000999996)
(-6.43207e-10 2.62989e-09 -0.000999997)
(-2.17673e-10 2.61483e-09 -0.000999997)
(-1.72944e-09 6.00947e-10 -0.000999999)
(-1.6078e-09 5.93788e-10 -0.001)
(-1.26744e-09 5.89095e-10 -0.001)
(-8.11683e-10 5.85985e-10 -0.001)
(-2.77239e-10 5.8576e-10 -0.001)
(-1.73848e-09 1.73314e-09 -0.000999999)
(-1.62293e-09 1.72656e-09 -0.000999999)
(-1.27778e-09 1.71675e-09 -0.001)
(-8.15472e-10 1.70794e-09 -0.001)
(-2.76884e-10 1.70275e-09 -0.001)
(-1.74151e-09 2.64915e-09 -0.000999998)
(-1.62749e-09 2.67852e-09 -0.000999999)
(-1.28854e-09 2.67456e-09 -0.000999999)
(-8.23961e-10 2.66012e-09 -0.000999999)
(-2.79726e-10 2.64775e-09 -0.000999999)
(-1.80085e-09 3.25458e-09 -0.000999997)
(-1.59759e-09 3.31864e-09 -0.000999998)
(-1.29612e-09 3.33626e-09 -0.000999998)
(-8.37122e-10 3.32664e-09 -0.000999998)
(-2.84188e-10 3.31127e-09 -0.000999998)
(-1.99196e-09 3.96102e-09 -0.000999996)
(-1.54575e-09 3.79531e-09 -0.000999996)
(-1.28039e-09 3.72591e-09 -0.000999997)
(-8.42419e-10 3.69975e-09 -0.000999997)
(-2.88705e-10 3.67769e-09 -0.000999997)
(-2.26884e-09 8.35501e-10 -0.001)
(-2.08347e-09 8.27524e-10 -0.001)
(-1.64405e-09 8.23205e-10 -0.001)
(-1.0546e-09 8.19256e-10 -0.001)
(-3.61892e-10 8.16794e-10 -0.001)
(-2.2775e-09 2.42336e-09 -0.001)
(-2.09989e-09 2.40373e-09 -0.001)
(-1.6555e-09 2.39044e-09 -0.001)
(-1.06145e-09 2.3778e-09 -0.001)
(-3.63484e-10 2.36752e-09 -0.001)
(-2.27842e-09 3.75103e-09 -0.000999999)
(-2.12057e-09 3.73307e-09 -0.001)
(-1.67314e-09 3.71689e-09 -0.001)
(-1.07495e-09 3.69596e-09 -0.001)
(-3.68325e-10 3.67746e-09 -0.001)
(-2.3067e-09 4.72186e-09 -0.000999998)
(-2.13413e-09 4.6795e-09 -0.000999999)
(-1.69253e-09 4.65984e-09 -0.000999999)
(-1.09369e-09 4.63794e-09 -0.000999999)
(-3.74901e-10 4.61431e-09 -0.001)
(-2.36696e-09 5.24761e-09 -0.000999996)
(-2.1824e-09 5.21831e-09 -0.000999997)
(-1.71449e-09 5.18014e-09 -0.000999997)
(-1.1113e-09 5.15445e-09 -0.000999998)
(-3.82939e-10 5.12921e-09 -0.000999998)
(-2.98584e-09 1.14863e-09 -0.001)
(-2.71459e-09 1.14491e-09 -0.001)
(-2.14927e-09 1.13953e-09 -0.001)
(-1.38133e-09 1.1344e-09 -0.00100001)
(-4.75517e-10 1.12954e-09 -0.00100001)
(-2.99918e-09 3.33611e-09 -0.001)
(-2.72895e-09 3.32101e-09 -0.001)
(-2.16388e-09 3.30261e-09 -0.001)
(-1.39174e-09 3.28665e-09 -0.001)
(-4.79114e-10 3.27172e-09 -0.001)
(-3.01367e-09 5.19652e-09 -0.001)
(-2.75345e-09 5.16188e-09 -0.001)
(-2.18774e-09 5.13038e-09 -0.001)
(-1.40847e-09 5.10473e-09 -0.001)
(-4.85044e-10 5.08147e-09 -0.001)
(-3.01832e-09 6.54336e-09 -0.000999999)
(-2.79523e-09 6.50236e-09 -0.001)
(-2.22092e-09 6.45593e-09 -0.001)
(-1.43065e-09 6.42202e-09 -0.001)
(-4.925e-10 6.39038e-09 -0.001)
(-3.04835e-09 7.20118e-09 -0.000999997)
(-2.84111e-09 7.15511e-09 -0.000999998)
(-2.2678e-09 7.14801e-09 -0.000999998)
(-1.46125e-09 7.13009e-09 -0.000999999)
(-5.04107e-10 7.10415e-09 -0.000999999)
(-3.96352e-09 1.57409e-09 -0.00100001)
(-3.58264e-09 1.57406e-09 -0.00100001)
(-2.84232e-09 1.56728e-09 -0.00100001)
(-1.82968e-09 1.5613e-09 -0.00100001)
(-6.3112e-10 1.55444e-09 -0.00100001)
(-3.9827e-09 4.56593e-09 -0.001)
(-3.59635e-09 4.56198e-09 -0.00100001)
(-2.86049e-09 4.54039e-09 -0.00100001)
(-1.84299e-09 4.52263e-09 -0.00100001)
(-6.36198e-10 4.50436e-09 -0.00100001)
(-4.0129e-09 7.10718e-09 -0.001)
(-3.61525e-09 7.09008e-09 -0.001)
(-2.88709e-09 7.05388e-09 -0.00100001)
(-1.86039e-09 7.02658e-09 -0.00100001)
(-6.41875e-10 7.00049e-09 -0.00100001)
(-4.02835e-09 8.88658e-09 -0.001)
(-3.64984e-09 8.93095e-09 -0.001)
(-2.92384e-09 8.88324e-09 -0.001)
(-1.88254e-09 8.84774e-09 -0.001)
(-6.48641e-10 8.81247e-09 -0.001)
(-4.14068e-09 1.00026e-08 -0.000999997)
(-3.61859e-09 9.83645e-09 -0.000999999)
(-2.96992e-09 9.82809e-09 -0.000999999)
(-1.91359e-09 9.81363e-09 -0.001)
(-6.59869e-10 9.78686e-09 -0.001)
(-5.31121e-09 2.15548e-09 -0.00100001)
(-4.78957e-09 2.15359e-09 -0.00100001)
(-3.79963e-09 2.14679e-09 -0.00100001)
(-2.4473e-09 2.141e-09 -0.00100001)
(-8.44763e-10 2.13248e-09 -0.00100001)
(-5.33421e-09 6.24981e-09 -0.00100001)
(-4.80749e-09 6.24238e-09 -0.00100001)
(-3.81945e-09 6.22219e-09 -0.00100001)
(-2.46214e-09 6.20498e-09 -0.00100001)
(-8.50793e-10 6.18361e-09 -0.00100001)
(-5.37024e-09 9.70368e-09 -0.00100001)
(-4.82667e-09 9.69965e-09 -0.00100001)
(-3.8443e-09 9.6722e-09 -0.00100001)
(-2.47847e-09 9.64612e-09 -0.00100001)
(-8.55761e-10 9.61703e-09 -0.00100001)
(-5.41115e-09 1.21351e-08 -0.001)
(-4.83923e-09 1.21907e-08 -0.001)
(-3.87278e-09 1.21742e-08 -0.00100001)
(-2.49832e-09 1.21471e-08 -0.00100001)
(-8.61178e-10 1.21129e-08 -0.00100001)
(-5.60697e-09 1.37295e-08 -0.000999998)
(-4.78757e-09 1.3532e-08 -0.001)
(-3.88738e-09 1.3488e-08 -0.001)
(-2.51576e-09 1.34674e-08 -0.001)
(-8.66418e-10 1.34349e-08 -0.001)
(-7.16215e-09 2.94682e-09 -0.00100002)
(-6.45465e-09 2.93849e-09 -0.00100002)
(-5.11692e-09 2.9328e-09 -0.00100002)
(-3.29464e-09 2.9279e-09 -0.00100002)
(-1.1372e-09 2.91709e-09 -0.00100002)
(-7.18748e-09 8.55118e-09 -0.00100001)
(-6.48114e-09 8.52332e-09 -0.00100002)
(-5.13727e-09 8.50592e-09 -0.00100002)
(-3.311e-09 8.4908e-09 -0.00100002)
(-1.14458e-09 8.46493e-09 -0.00100002)
(-7.217e-09 1.32844e-08 -0.00100001)
(-6.51273e-09 1.32508e-08 -0.00100001)
(-5.15925e-09 1.3228e-08 -0.00100001)
(-3.32541e-09 1.32054e-08 -0.00100002)
(-1.14887e-09 1.31723e-08 -0.00100002)
(-7.26187e-09 1.66754e-08 -0.001)
(-6.53783e-09 1.66591e-08 -0.00100001)
(-5.18243e-09 1.66496e-08 -0.00100001)
(-3.34074e-09 1.66309e-08 -0.00100001)
(-1.15208e-09 1.65983e-08 -0.00100001)
(-7.41398e-09 1.86063e-08 -0.000999999)
(-6.5385e-09 1.85274e-08 -0.001)
(-5.18678e-09 1.84659e-08 -0.001)
(-3.3439e-09 1.84386e-08 -0.001)
(-1.1494e-09 1.83952e-08 -0.00100001)
(-9.68592e-09 4.01681e-09 -0.00100002)
(-8.7284e-09 4.00325e-09 -0.00100003)
(-6.91847e-09 3.99856e-09 -0.00100003)
(-4.45233e-09 3.99411e-09 -0.00100003)
(-1.53652e-09 3.98069e-09 -0.00100003)
(-9.7167e-09 1.16668e-08 -0.00100002)
(-8.76355e-09 1.16197e-08 -0.00100002)
(-6.94087e-09 1.16035e-08 -0.00100003)
(-4.47106e-09 1.15907e-08 -0.00100003)
(-1.54525e-09 1.15598e-08 -0.00100003)
(-9.73909e-09 1.81571e-08 -0.00100002)
(-8.80907e-09 1.80769e-08 -0.00100002)
(-6.96073e-09 1.80502e-08 -0.00100002)
(-4.48204e-09 1.80334e-08 -0.00100002)
(-1.54807e-09 1.79959e-08 -0.00100002)
(-9.761e-09 2.28927e-08 -0.00100001)
(-8.87091e-09 2.27768e-08 -0.00100001)
(-6.98403e-09 2.27382e-08 -0.00100001)
(-4.48995e-09 2.27207e-08 -0.00100002)
(-1.54798e-09 2.26842e-08 -0.00100002)
(-9.78559e-09 2.51784e-08 -0.001)
(-8.96354e-09 2.52472e-08 -0.001)
(-7.01587e-09 2.52141e-08 -0.00100001)
(-4.49124e-09 2.5188e-08 -0.00100001)
(-1.54077e-09 2.51311e-08 -0.00100001)
(-1.31115e-08 5.46381e-09 -0.00100003)
(-1.18187e-08 5.44992e-09 -0.00100004)
(-9.37152e-09 5.44476e-09 -0.00100004)
(-6.02858e-09 5.43995e-09 -0.00100004)
(-2.07971e-09 5.42496e-09 -0.00100004)
(-1.31536e-08 1.58747e-08 -0.00100003)
(-1.18607e-08 1.58263e-08 -0.00100003)
(-9.39952e-09 1.58089e-08 -0.00100004)
(-6.04949e-09 1.57979e-08 -0.00100004)
(-2.08829e-09 1.57616e-08 -0.00100004)
(-1.31816e-08 2.47268e-08 -0.00100002)
(-1.19081e-08 2.46316e-08 -0.00100003)
(-9.41796e-09 2.45992e-08 -0.00100003)
(-6.05683e-09 2.4589e-08 -0.00100003)
(-2.08966e-09 2.4542e-08 -0.00100003)
(-1.31959e-08 3.12424e-08 -0.00100001)
(-1.19889e-08 3.10821e-08 -0.00100002)
(-9.44161e-09 3.10108e-08 -0.00100002)
(-6.05845e-09 3.09923e-08 -0.00100002)
(-2.08791e-09 3.09397e-08 -0.00100002)
(-1.31061e-08 3.42559e-08 -0.001)
(-1.21397e-08 3.43743e-08 -0.00100001)
(-9.50645e-09 3.43737e-08 -0.00100001)
(-6.06667e-09 3.43476e-08 -0.00100001)
(-2.0824e-09 3.42712e-08 -0.00100001)
(-1.7757e-08 7.43504e-09 -0.00100005)
(-1.60152e-08 7.42087e-09 -0.00100005)
(-1.27046e-08 7.41226e-09 -0.00100006)
(-8.16889e-09 7.40631e-09 -0.00100006)
(-2.81595e-09 7.38941e-09 -0.00100006)
(-1.78167e-08 2.15996e-08 -0.00100004)
(-1.60692e-08 2.15556e-08 -0.00100005)
(-1.27437e-08 2.15317e-08 -0.00100005)
(-8.19316e-09 2.15181e-08 -0.00100005)
(-2.82409e-09 2.14705e-08 -0.00100006)
(-1.78675e-08 3.36421e-08 -0.00100003)
(-1.61152e-08 3.35539e-08 -0.00100004)
(-1.27667e-08 3.35139e-08 -0.00100004)
(-8.20394e-09 3.35009e-08 -0.00100005)
(-2.82754e-09 3.34301e-08 -0.00100005)
(-1.79147e-08 4.24991e-08 -0.00100002)
(-1.61983e-08 4.23443e-08 -0.00100003)
(-1.2796e-08 4.22526e-08 -0.00100003)
(-8.21119e-09 4.22274e-08 -0.00100003)
(-2.83026e-09 4.21399e-08 -0.00100004)
(-1.78235e-08 4.67941e-08 -0.00100001)
(-1.63617e-08 4.68486e-08 -0.00100001)
(-1.28819e-08 4.68353e-08 -0.00100002)
(-8.23312e-09 4.67875e-08 -0.00100002)
(-2.83328e-09 4.66761e-08 -0.00100002)
(-2.40675e-08 1.01312e-08 -0.00100006)
(-2.17161e-08 1.01101e-08 -0.00100007)
(-1.72302e-08 1.00939e-08 -0.00100008)
(-1.10725e-08 1.0084e-08 -0.00100008)
(-3.81409e-09 1.00605e-08 -0.00100008)
(-2.41557e-08 2.94268e-08 -0.00100006)
(-2.1796e-08 2.93703e-08 -0.00100007)
(-1.72896e-08 2.93275e-08 -0.00100007)
(-1.11077e-08 2.92993e-08 -0.00100008)
(-3.82562e-09 2.92278e-08 -0.00100008)
(-2.42479e-08 4.58227e-08 -0.00100005)
(-2.1859e-08 4.57208e-08 -0.00100005)
(-1.73345e-08 4.56555e-08 -0.00100006)
(-1.11365e-08 4.56166e-08 -0.00100006)
(-3.83653e-09 4.55028e-08 -0.00100007)
(-2.43639e-08 5.78498e-08 -0.00100003)
(-2.19644e-08 5.76766e-08 -0.00100004)
(-1.73928e-08 5.75499e-08 -0.00100004)
(-1.11707e-08 5.74928e-08 -0.00100005)
(-3.85116e-09 5.73487e-08 -0.00100005)
(-2.43689e-08 6.39444e-08 -0.00100001)
(-2.21589e-08 6.38735e-08 -0.00100002)
(-1.75159e-08 6.37915e-08 -0.00100002)
(-1.12238e-08 6.36935e-08 -0.00100003)
(-3.86913e-09 6.3527e-08 -0.00100003)
(-3.26463e-08 1.38102e-08 -0.00100009)
(-2.94582e-08 1.3776e-08 -0.0010001)
(-2.33689e-08 1.37471e-08 -0.00100011)
(-1.50115e-08 1.37274e-08 -0.00100011)
(-5.16955e-09 1.36905e-08 -0.00100012)
(-3.27805e-08 4.01127e-08 -0.00100008)
(-2.95792e-08 4.00207e-08 -0.00100009)
(-2.34628e-08 3.99405e-08 -0.0010001)
(-1.50706e-08 3.98805e-08 -0.00100011)
(-5.19013e-09 3.97708e-08 -0.00100011)
(-3.29375e-08 6.24569e-08 -0.00100006)
(-2.96897e-08 6.23016e-08 -0.00100007)
(-2.35544e-08 6.2178e-08 -0.00100008)
(-1.51324e-08 6.20849e-08 -0.00100009)
(-5.2123e-09 6.19104e-08 -0.00100009)
(-3.31593e-08 7.88025e-08 -0.00100004)
(-2.98597e-08 7.85598e-08 -0.00100005)
(-2.36782e-08 7.83658e-08 -0.00100006)
(-1.52159e-08 7.82429e-08 -0.00100007)
(-5.24427e-09 7.80205e-08 -0.00100007)
(-3.33453e-08 8.73157e-08 -0.00100002)
(-3.01263e-08 8.70588e-08 -0.00100003)
(-2.3868e-08 8.68525e-08 -0.00100003)
(-1.53226e-08 8.66801e-08 -0.00100004)
(-5.28262e-09 8.64347e-08 -0.00100004)
(-4.42899e-08 1.88187e-08 -0.00100012)
(-3.99537e-08 1.87649e-08 -0.00100014)
(-3.16835e-08 1.87171e-08 -0.00100015)
(-2.03508e-08 1.86811e-08 -0.00100016)
(-7.00871e-09 1.86255e-08 -0.00100016)
(-4.44919e-08 5.46718e-08 -0.00100011)
(-4.01341e-08 5.45153e-08 -0.00100013)
(-3.18289e-08 5.43753e-08 -0.00100014)
(-2.04456e-08 5.42678e-08 -0.00100015)
(-7.042e-09 5.41068e-08 -0.00100015)
(-4.47383e-08 8.51254e-08 -0.00100009)
(-4.03309e-08 8.48687e-08 -0.0010001)
(-3.19927e-08 8.46473e-08 -0.00100011)
(-2.05528e-08 8.44747e-08 -0.00100012)
(-7.07842e-09 8.42202e-08 -0.00100013)
(-4.51021e-08 1.07325e-07 -0.00100006)
(-4.06144e-08 1.06968e-07 -0.00100007)
(-3.22211e-08 1.06673e-07 -0.00100008)
(-2.0706e-08 1.06453e-07 -0.00100009)
(-7.13238e-09 1.06129e-07 -0.0010001)
(-4.5548e-08 1.19085e-07 -0.00100002)
(-4.09833e-08 1.186e-07 -0.00100004)
(-3.25031e-08 1.18218e-07 -0.00100005)
(-2.08857e-08 1.17945e-07 -0.00100006)
(-7.19609e-09 1.1759e-07 -0.00100006)
(-6.00644e-08 2.56336e-08 -0.00100017)
(-5.41564e-08 2.55483e-08 -0.00100019)
(-4.29307e-08 2.5474e-08 -0.0010002)
(-2.75744e-08 2.54174e-08 -0.00100022)
(-9.49689e-09 2.5338e-08 -0.00100022)
(-6.03623e-08 7.44897e-08 -0.00100015)
(-5.44232e-08 7.42289e-08 -0.00100017)
(-4.31455e-08 7.40042e-08 -0.00100019)
(-2.77146e-08 7.38346e-08 -0.0010002)
(-9.54578e-09 7.36052e-08 -0.00100021)
(-6.07261e-08 1.15991e-07 -0.00100012)
(-5.47517e-08 1.15568e-07 -0.00100014)
(-4.34089e-08 1.15204e-07 -0.00100016)
(-2.78826e-08 1.14925e-07 -0.00100017)
(-9.60181e-09 1.14562e-07 -0.00100017)
(-6.12622e-08 1.46181e-07 -0.00100008)
(-5.52137e-08 1.45633e-07 -0.0010001)
(-4.37858e-08 1.45173e-07 -0.00100012)
(-2.81291e-08 1.44819e-07 -0.00100013)
(-9.68534e-09 1.44351e-07 -0.00100013)
(-6.19857e-08 1.62193e-07 -0.00100003)
(-5.57593e-08 1.61481e-07 -0.00100005)
(-4.42166e-08 1.60883e-07 -0.00100007)
(-2.84168e-08 1.6047e-07 -0.00100008)
(-9.78726e-09 1.59963e-07 -0.00100008)
(-8.1415e-08 3.49041e-08 -0.00100023)
(-7.33561e-08 3.47749e-08 -0.00100026)
(-5.81286e-08 3.46634e-08 -0.00100028)
(-3.7329e-08 3.45796e-08 -0.00100029)
(-1.28551e-08 3.44676e-08 -0.0010003)
(-8.18458e-08 1.01448e-07 -0.00100021)
(-7.37424e-08 1.01047e-07 -0.00100024)
(-5.84378e-08 1.00704e-07 -0.00100026)
(-3.75306e-08 1.0045e-07 -0.00100027)
(-1.29256e-08 1.00125e-07 -0.00100028)
(-8.23821e-08 1.57993e-07 -0.00100017)
(-7.4249e-08 1.57332e-07 -0.0010002)
(-5.8839e-08 1.56766e-07 -0.00100022)
(-3.7784e-08 1.56345e-07 -0.00100023)
(-1.30102e-08 1.55829e-07 -0.00100024)
(-8.31649e-08 1.99147e-07 -0.00100011)
(-7.49729e-08 1.9828e-07 -0.00100014)
(-5.9421e-08 1.97552e-07 -0.00100016)
(-3.81582e-08 1.97e-07 -0.00100018)
(-1.31366e-08 1.96324e-07 -0.00100018)
(-8.41779e-08 2.20825e-07 -0.00100005)
(-7.58443e-08 2.19816e-07 -0.00100007)
(-6.0111e-08 2.18929e-07 -0.00100009)
(-3.86188e-08 2.18297e-07 -0.00100011)
(-1.33008e-08 2.17569e-07 -0.00100012)
(-1.10292e-07 4.75221e-08 -0.00100032)
(-9.92906e-08 4.73328e-08 -0.00100035)
(-7.8644e-08 4.71662e-08 -0.00100038)
(-5.04854e-08 4.70424e-08 -0.0010004)
(-1.73821e-08 4.68842e-08 -0.00100041)
(-1.10906e-07 1.38127e-07 -0.00100029)
(-9.98446e-08 1.37541e-07 -0.00100032)
(-7.90894e-08 1.37032e-07 -0.00100035)
(-5.0775e-08 1.36656e-07 -0.00100037)
(-1.74836e-08 1.36197e-07 -0.00100038)
(-1.11711e-07 2.15136e-07 -0.00100023)
(-1.00589e-07 2.14154e-07 -0.00100027)
(-7.96839e-08 2.13309e-07 -0.0010003)
(-5.11516e-08 2.12686e-07 -0.00100032)
(-1.76102e-08 2.11957e-07 -0.00100033)
(-1.12892e-07 2.71254e-07 -0.00100016)
(-1.01677e-07 2.69925e-07 -0.00100019)
(-8.05533e-08 2.68794e-07 -0.00100022)
(-5.17058e-08 2.67956e-07 -0.00100024)
(-1.77975e-08 2.66997e-07 -0.00100025)
(-1.14369e-07 3.00794e-07 -0.00100006)
(-1.03049e-07 2.99238e-07 -0.0010001)
(-8.16421e-08 2.97897e-07 -0.00100013)
(-5.24133e-08 2.96914e-07 -0.00100015)
(-1.80444e-08 2.95852e-07 -0.00100016)
(-1.49328e-07 6.47036e-08 -0.00100044)
(-1.34303e-07 6.44261e-08 -0.00100048)
(-1.0631e-07 6.4182e-08 -0.00100052)
(-6.82094e-08 6.40011e-08 -0.00100055)
(-2.34768e-08 6.37794e-08 -0.00100056)
(-1.50193e-07 1.88056e-07 -0.0010004)
(-1.35095e-07 1.87209e-07 -0.00100044)
(-1.06946e-07 1.86468e-07 -0.00100048)
(-6.86221e-08 1.85918e-07 -0.00100051)
(-2.3621e-08 1.85271e-07 -0.00100052)
(-1.51381e-07 2.9291e-07 -0.00100032)
(-1.36168e-07 2.91479e-07 -0.00100037)
(-1.07812e-07 2.90238e-07 -0.0010004)
(-6.9176e-08 2.8932e-07 -0.00100043)
(-2.38087e-08 2.88292e-07 -0.00100045)
(-1.53152e-07 3.69359e-07 -0.00100021)
(-1.37775e-07 3.67379e-07 -0.00100026)
(-1.09099e-07 3.65671e-07 -0.0010003)
(-6.99934e-08 3.64415e-07 -0.00100033)
(-2.40832e-08 3.63069e-07 -0.00100034)
(-1.55438e-07 4.09795e-07 -0.00100009)
(-1.39856e-07 4.07347e-07 -0.00100014)
(-1.1076e-07 4.05279e-07 -0.00100018)
(-7.10489e-08 4.03757e-07 -0.0010002)
(-2.44401e-08 4.02187e-07 -0.00100022)
(-2.02077e-07 8.80899e-08 -0.0010006)
(-1.81536e-07 8.76964e-08 -0.00100066)
(-1.43569e-07 8.73533e-08 -0.00100071)
(-9.20505e-08 8.70964e-08 -0.00100075)
(-3.16691e-08 8.67891e-08 -0.00100076)
(-2.03271e-07 2.56027e-07 -0.00100054)
(-1.82639e-07 2.54818e-07 -0.0010006)
(-1.44456e-07 2.53764e-07 -0.00100066)
(-9.26276e-08 2.52974e-07 -0.00100069)
(-3.18704e-08 2.5207e-07 -0.00100071)
(-2.04958e-07 3.98794e-07 -0.00100044)
(-1.84174e-07 3.96713e-07 -0.0010005)
(-1.45699e-07 3.94906e-07 -0.00100055)
(-9.34291e-08 3.93561e-07 -0.00100059)
(-3.21427e-08 3.9211e-07 -0.00100061)
(-2.07544e-07 5.029e-07 -0.00100029)
(-1.86537e-07 4.99954e-07 -0.00100036)
(-1.47599e-07 4.97407e-07 -0.00100041)
(-9.46403e-08 4.9552e-07 -0.00100045)
(-3.25498e-08 4.93602e-07 -0.00100047)
(-2.1103e-07 5.58122e-07 -0.00100012)
(-1.89667e-07 5.54388e-07 -0.00100019)
(-1.50112e-07 5.51202e-07 -0.00100024)
(-9.62412e-08 5.48865e-07 -0.00100028)
(-3.30857e-08 5.46562e-07 -0.0010003)
(-2.73316e-07 1.19926e-07 -0.00100082)
(-2.45172e-07 1.19399e-07 -0.0010009)
(-1.93666e-07 1.18937e-07 -0.00100097)
(-1.2406e-07 1.18586e-07 -0.00100102)
(-4.26597e-08 1.18168e-07 -0.00100104)
(-2.74917e-07 3.48564e-07 -0.00100074)
(-2.46659e-07 3.46895e-07 -0.00100082)
(-1.94868e-07 3.45436e-07 -0.00100089)
(-1.24845e-07 3.44335e-07 -0.00100094)
(-4.2932e-08 3.4309e-07 -0.00100097)
(-2.77225e-07 5.42917e-07 -0.0010006)
(-2.48809e-07 5.39944e-07 -0.00100068)
(-1.96614e-07 5.37354e-07 -0.00100075)
(-1.25974e-07 5.35416e-07 -0.0010008)
(-4.33164e-08 5.3337e-07 -0.00100083)
(-2.80935e-07 6.84677e-07 -0.0010004)
(-2.52235e-07 6.80311e-07 -0.00100049)
(-1.99384e-07 6.76532e-07 -0.00100056)
(-1.2776e-07 6.73706e-07 -0.00100061)
(-4.39246e-08 6.70938e-07 -0.00100063)
(-2.86108e-07 7.59935e-07 -0.00100017)
(-2.56954e-07 7.54306e-07 -0.00100026)
(-2.03191e-07 7.49419e-07 -0.00100033)
(-1.30214e-07 7.45822e-07 -0.00100038)
(-4.47549e-08 7.42473e-07 -0.00100041)
(-3.69504e-07 1.63297e-07 -0.00100112)
(-3.30805e-07 1.62645e-07 -0.00100122)
(-2.60902e-07 1.62058e-07 -0.00100132)
(-1.66934e-07 1.61605e-07 -0.00100138)
(-5.73638e-08 1.61052e-07 -0.00100141)
(-3.7154e-07 4.74574e-07 -0.00100101)
(-3.32718e-07 4.72412e-07 -0.00100112)
(-2.62467e-07 4.70483e-07 -0.00100122)
(-1.67959e-07 4.69013e-07 -0.00100128)
(-5.77175e-08 4.67326e-07 -0.00100131)
(-3.74542e-07 7.39053e-07 -0.00100082)
(-3.35586e-07 7.34965e-07 -0.00100093)
(-2.64826e-07 7.31353e-07 -0.00100102)
(-1.69499e-07 7.28626e-07 -0.00100109)
(-5.82469e-08 7.25765e-07 -0.00100112)
(-3.7976e-07 9.31994e-07 -0.00100055)
(-3.40436e-07 9.2562e-07 -0.00100066)
(-2.6879e-07 9.20058e-07 -0.00100076)
(-1.7209e-07 9.15878e-07 -0.00100082)
(-5.91421e-08 9.11885e-07 -0.00100086)
(-3.87401e-07 1.0346e-06 -0.00100024)
(-3.47521e-07 1.02604e-06 -0.00100035)
(-2.74529e-07 1.01855e-06 -0.00100045)
(-1.75826e-07 1.01298e-06 -0.00100052)
(-6.04277e-08 1.00808e-06 -0.00100055)
(-4.99392e-07 2.22453e-07 -0.00100152)
(-4.45926e-07 2.21767e-07 -0.00100167)
(-3.50963e-07 2.21109e-07 -0.00100179)
(-2.24194e-07 2.20583e-07 -0.00100188)
(-7.69635e-08 2.19868e-07 -0.00100192)
(-5.01719e-07 6.46298e-07 -0.00100138)
(-4.48181e-07 6.43794e-07 -0.00100153)
(-3.52857e-07 6.41458e-07 -0.00100165)
(-2.25453e-07 6.39623e-07 -0.00100174)
(-7.74034e-08 6.37381e-07 -0.00100178)
(-5.05286e-07 1.00606e-06 -0.00100112)
(-4.517e-07 1.00073e-06 -0.00100126)
(-3.55843e-07 9.95905e-07 -0.00100139)
(-2.27455e-07 9.9218e-07 -0.00100148)
(-7.81044e-08 9.88231e-07 -0.00100152)
(-5.12316e-07 1.26837e-06 -0.00100075)
(-4.58364e-07 1.25925e-06 -0.0010009)
(-3.61386e-07 1.25117e-06 -0.00100103)
(-2.31137e-07 1.24504e-06 -0.00100112)
(-7.93905e-08 1.23931e-06 -0.00100116)
(-5.23518e-07 1.40812e-06 -0.00100032)
(-4.68894e-07 1.39509e-06 -0.00100048)
(-3.69998e-07 1.38364e-06 -0.00100061)
(-2.36799e-07 1.37502e-06 -0.0010007)
(-8.13612e-08 1.36774e-06 -0.00100075)
(-6.74906e-07 3.03329e-07 -0.00100208)
(-6.00579e-07 3.029e-07 -0.00100228)
(-4.71379e-07 3.02384e-07 -0.00100244)
(-3.00422e-07 3.01907e-07 -0.00100256)
(-1.02969e-07 3.01026e-07 -0.00100261)
(-6.76958e-07 8.8072e-07 -0.00100189)
(-6.02751e-07 8.78485e-07 -0.00100208)
(-4.73326e-07 8.76158e-07 -0.00100225)
(-3.01794e-07 8.74163e-07 -0.00100237)
(-1.03468e-07 8.71292e-07 -0.00100242)
(-6.80383e-07 1.36977e-06 -0.00100152)
(-6.06401e-07 1.36345e-06 -0.00100172)
(-4.76657e-07 1.35745e-06 -0.00100188)
(-3.0416e-07 1.35263e-06 -0.001002)
(-1.04327e-07 1.34728e-06 -0.00100206)
(-6.89217e-07 1.72564e-06 -0.00100103)
(-6.15094e-07 1.71299e-06 -0.00100123)
(-4.84112e-07 1.70153e-06 -0.00100139)
(-3.0925e-07 1.69264e-06 -0.00100151)
(-1.06138e-07 1.68444e-06 -0.00100157)
(-7.05424e-07 1.91559e-06 -0.00100045)
(-6.30512e-07 1.8958e-06 -0.00100065)
(-4.96937e-07 1.87826e-06 -0.00100082)
(-3.17815e-07 1.86492e-06 -0.00100094)
(-1.09155e-07 1.85405e-06 -0.00100101)
(-9.12421e-07 4.14342e-07 -0.00100284)
(-8.08351e-07 4.14946e-07 -0.00100311)
(-6.32205e-07 4.15159e-07 -0.00100333)
(-4.01548e-07 4.15092e-07 -0.00100348)
(-1.37226e-07 4.14111e-07 -0.00100355)
(-9.12658e-07 1.20172e-06 -0.00100258)
(-8.09177e-07 1.2015e-06 -0.00100284)
(-6.33335e-07 1.20045e-06 -0.00100306)
(-4.02591e-07 1.19904e-06 -0.00100321)
(-1.37673e-07 1.19558e-06 -0.00100329)
(-9.13803e-07 1.86579e-06 -0.00100208)
(-8.11319e-07 1.8598e-06 -0.00100234)
(-6.35953e-07 1.85341e-06 -0.00100255)
(-4.04845e-07 1.84778e-06 -0.00100271)
(-1.38596e-07 1.84066e-06 -0.00100278)
(-9.23597e-07 2.34687e-06 -0.0010014)
(-8.21601e-07 2.33012e-06 -0.00100166)
(-6.45312e-07 2.31438e-06 -0.00100188)
(-4.11608e-07 2.30176e-06 -0.00100203)
(-1.41111e-07 2.28998e-06 -0.00100211)
(-9.46683e-07 2.60401e-06 -0.00100061)
(-8.43807e-07 2.57408e-06 -0.00100088)
(-6.64212e-07 2.5472e-06 -0.00100111)
(-4.24556e-07 2.52645e-06 -0.00100127)
(-1.45768e-07 2.50995e-06 -0.00100135)
(-1.23462e-06 5.6783e-07 -0.00100389)
(-1.08789e-06 5.71311e-07 -0.00100425)
(-8.4719e-07 5.73681e-07 -0.00100454)
(-5.35129e-07 5.74959e-07 -0.00100475)
(-1.81675e-07 5.74055e-07 -0.00100484)
(-1.22937e-06 1.64375e-06 -0.00100352)
(-1.08422e-06 1.64986e-06 -0.00100387)
(-8.45236e-07 1.65331e-06 -0.00100416)
(-5.34696e-07 1.65454e-06 -0.00100436)
(-1.8182e-07 1.65071e-06 -0.00100446)
(-1.22295e-06 2.54402e-06 -0.00100283)
(-1.0806e-06 2.54215e-06 -0.00100317)
(-8.44221e-07 2.53791e-06 -0.00100345)
(-5.35512e-07 2.53284e-06 -0.00100365)
(-1.82604e-07 2.52347e-06 -0.00100374)
(-1.23065e-06 3.19048e-06 -0.00100191)
(-1.09038e-06 3.16984e-06 -0.00100225)
(-8.54485e-07 3.14928e-06 -0.00100252)
(-5.44009e-07 3.13189e-06 -0.00100272)
(-1.86126e-07 3.11472e-06 -0.00100282)
(-1.26258e-06 3.53518e-06 -0.00100084)
(-1.1218e-06 3.49024e-06 -0.00100119)
(-8.82035e-07 3.44905e-06 -0.00100148)
(-5.6366e-07 3.41656e-06 -0.00100169)
(-1.93462e-07 3.39093e-06 -0.00100179)
(-1.67323e-06 7.82547e-07 -0.00100533)
(-1.46556e-06 7.93146e-07 -0.00100583)
(-1.13623e-06 8.00993e-07 -0.00100622)
(-7.10526e-07 8.05954e-07 -0.00100651)
(-2.37067e-07 8.05363e-07 -0.00100661)
(-1.65438e-06 2.25812e-06 -0.00100481)
(-1.44998e-06 2.28075e-06 -0.00100529)
(-1.12564e-06 2.29633e-06 -0.00100566)
(-7.0597e-07 2.30558e-06 -0.00100594)
(-2.36554e-07 2.30145e-06 -0.00100604)
(-1.6284e-06 3.4754e-06 -0.00100385)
(-1.43037e-06 3.48737e-06 -0.00100429)
(-1.11367e-06 3.4919e-06 -0.00100465)
(-7.0223e-07 3.49161e-06 -0.00100491)
(-2.37111e-07 3.47857e-06 -0.00100502)
(-1.62595e-06 4.33501e-06 -0.00100259)
(-1.43355e-06 4.31322e-06 -0.00100301)
(-1.12131e-06 4.28864e-06 -0.00100336)
(-7.12209e-07 4.26605e-06 -0.00100361)
(-2.42583e-07 4.23982e-06 -0.00100373)
(-1.66844e-06 4.78889e-06 -0.00100116)
(-1.47673e-06 4.72174e-06 -0.00100159)
(-1.16067e-06 4.65835e-06 -0.00100195)
(-7.42268e-07 4.60706e-06 -0.00100222)
(-2.54666e-07 4.56562e-06 -0.00100235)
(-2.27218e-06 1.08795e-06 -0.00100733)
(-1.98063e-06 1.11567e-06 -0.00100803)
(-1.53185e-06 1.13645e-06 -0.00100856)
(-9.38536e-07 1.15114e-06 -0.00100899)
(-2.97062e-07 1.15037e-06 -0.00100906)