/*--------------------------------*- C++ -*----------------------------------*\
| =========                 |                                                 |
| \\      /  F ield         | OpenFOAM: The Open Source CFD Toolbox           |
|  \\    /   O peration     | Version:  5.x                                   |
|   \\  /    A nd           | Web:      www.OpenFOAM.org                      |
|    \\/     M anipulation  |                                                 |
\*---------------------------------------------------------------------------*/
FoamFile
{
    version     2.0;
    format      ascii;
    class       volVectorField;
    location    "30000";
    object      U;
}
// * * * * * * * * * * * * * * * * * * * * * * * * * * * * * * * * * * * * * //

dimensions      [0 1 -1 0 0 0 0];

internalField   nonuniform List<vector> 
2250
(
(-1.27481e-10 4.4267e-11 -0.001)
(-1.49622e-10 3.72557e-11 -0.001)
(-1.29432e-10 3.09302e-11 -0.001)
(-8.43454e-11 2.70924e-11 -0.001)
(-2.89991e-11 2.67575e-11 -0.001)
(-1.32992e-10 1.12424e-10 -0.001)
(-1.63339e-10 1.03986e-10 -0.001)
(-1.39877e-10 9.57532e-11 -0.001)
(-8.8637e-11 9.00574e-11 -0.001)
(-2.93363e-11 8.99734e-11 -0.001)
(-1.24679e-10 1.64243e-10 -0.000999999)
(-1.66619e-10 1.61421e-10 -0.001)
(-1.43612e-10 1.52578e-10 -0.001)
(-9.01118e-11 1.4831e-10 -0.001)
(-2.89605e-11 1.48005e-10 -0.001)
(-1.32536e-10 2.24879e-10 -0.000999999)
(-1.74951e-10 2.01481e-10 -0.000999999)
(-1.52984e-10 1.82879e-10 -0.001)
(-9.29207e-11 1.73515e-10 -0.001)
(-2.93585e-11 1.71706e-10 -0.001)
(-1.44943e-10 1.93526e-10 -0.000999999)
(-2.08662e-10 1.81658e-10 -0.000999999)
(-1.71567e-10 1.78942e-10 -0.000999999)
(-1.00949e-10 1.86457e-10 -0.000999999)
(-3.04501e-11 1.88016e-10 -0.001)
(-3.57059e-10 1.10314e-10 -0.001)
(-4.13327e-10 9.83366e-11 -0.001)
(-3.44287e-10 8.7421e-11 -0.001)
(-2.16488e-10 8.24522e-11 -0.001)
(-7.13225e-11 8.44076e-11 -0.001)
(-3.64709e-10 3.05918e-10 -0.001)
(-4.37121e-10 2.95559e-10 -0.001)
(-3.60862e-10 2.81403e-10 -0.001)
(-2.19735e-10 2.75566e-10 -0.001)
(-6.93357e-11 2.78604e-10 -0.001)
(-3.42724e-10 4.69898e-10 -0.001)
(-4.38656e-10 4.68483e-10 -0.001)
(-3.6493e-10 4.558e-10 -0.001)
(-2.19141e-10 4.52154e-10 -0.001)
(-6.78807e-11 4.5245e-10 -0.001)
(-3.59763e-10 6.3358e-10 -0.000999999)
(-4.51287e-10 5.83402e-10 -0.001)
(-3.77184e-10 5.54011e-10 -0.001)
(-2.22207e-10 5.40411e-10 -0.001)
(-6.81703e-11 5.38082e-10 -0.001)
(-3.83928e-10 5.76856e-10 -0.000999999)
(-5.18261e-10 5.47273e-10 -0.000999999)
(-4.07905e-10 5.4885e-10 -0.000999999)
(-2.34003e-10 5.69602e-10 -0.001)
(-6.9171e-11 5.72899e-10 -0.001)
(-5.5451e-10 1.60418e-10 -0.001)
(-6.0484e-10 1.57369e-10 -0.001)
(-4.8844e-10 1.51958e-10 -0.001)
(-2.97153e-10 1.52382e-10 -0.001)
(-9.35853e-11 1.59759e-10 -0.001)
(-5.55317e-10 4.90176e-10 -0.001)
(-6.14496e-10 4.98456e-10 -0.001)
(-4.94415e-10 4.9611e-10 -0.001)
(-2.89588e-10 4.99122e-10 -0.001)
(-8.6066e-11 5.054e-10 -0.001)
(-5.23897e-10 7.85352e-10 -0.001)
(-6.00068e-10 8.07609e-10 -0.001)
(-4.8873e-10 8.04545e-10 -0.001)
(-2.87412e-10 8.09717e-10 -0.001)
(-8.64607e-11 8.06378e-10 -0.001)
(-5.23641e-10 1.03959e-09 -0.001)
(-5.95299e-10 1.00193e-09 -0.001)
(-4.92291e-10 9.84361e-10 -0.001)
(-2.8614e-10 9.85879e-10 -0.001)
(-8.77798e-11 9.80365e-10 -0.001)
(-5.18021e-10 1.01075e-09 -0.000999999)
(-6.5521e-10 9.69622e-10 -0.001)
(-5.0474e-10 9.93378e-10 -0.001)
(-2.89424e-10 1.02357e-09 -0.001)
(-9.00109e-11 1.02439e-09 -0.001)
(-7.22154e-10 2.23968e-10 -0.001)
(-7.0939e-10 2.33291e-10 -0.001)
(-5.63401e-10 2.3669e-10 -0.001)
(-3.38245e-10 2.43103e-10 -0.001)
(-1.05682e-10 2.52331e-10 -0.001)
(-7.12894e-10 7.04819e-10 -0.001)
(-6.98104e-10 7.35838e-10 -0.001)
(-5.54768e-10 7.47772e-10 -0.001)
(-3.22739e-10 7.58594e-10 -0.001)
(-9.61621e-11 7.64337e-10 -0.001)
(-6.77112e-10 1.13932e-09 -0.001)
(-6.67863e-10 1.18888e-09 -0.001)
(-5.41793e-10 1.19697e-09 -0.001)
(-3.2082e-10 1.20733e-09 -0.001)
(-9.8635e-11 1.19905e-09 -0.001)
(-6.53253e-10 1.40263e-09 -0.001)
(-6.40495e-10 1.46305e-09 -0.001)
(-5.36306e-10 1.47185e-09 -0.001)
(-3.18288e-10 1.48734e-09 -0.001)
(-1.02065e-10 1.47866e-09 -0.001)
(-6.63047e-10 1.55766e-09 -0.001)
(-5.98646e-10 1.46599e-09 -0.001)
(-5.17468e-10 1.51573e-09 -0.001)
(-3.1111e-10 1.54459e-09 -0.001)
(-1.04431e-10 1.54297e-09 -0.001)
(-9.08679e-10 3.22183e-10 -0.001)
(-8.13767e-10 3.33963e-10 -0.001)
(-6.4292e-10 3.42722e-10 -0.001)
(-3.90186e-10 3.50072e-10 -0.001)
(-1.24315e-10 3.57508e-10 -0.001)
(-8.98961e-10 9.79484e-10 -0.001)
(-7.94953e-10 1.01216e-09 -0.001)
(-6.28209e-10 1.03158e-09 -0.001)
(-3.75486e-10 1.04537e-09 -0.001)
(-1.16441e-10 1.04867e-09 -0.001)
(-8.68026e-10 1.54037e-09 -0.001)
(-7.63406e-10 1.60104e-09 -0.001)
(-6.11096e-10 1.6208e-09 -0.001)
(-3.71859e-10 1.63434e-09 -0.001)
(-1.19264e-10 1.62422e-09 -0.001)
(-8.31115e-10 1.82175e-09 -0.001)
(-7.14571e-10 1.9624e-09 -0.001)
(-5.94885e-10 2.00262e-09 -0.001)
(-3.68884e-10 2.02929e-09 -0.001)
(-1.23418e-10 2.01841e-09 -0.001)
(-8.83368e-10 2.1925e-09 -0.001)
(-5.82528e-10 2.0783e-09 -0.001)
(-5.44106e-10 2.12168e-09 -0.001)
(-3.5202e-10 2.14473e-09 -0.001)
(-1.26165e-10 2.13753e-09 -0.001)
(-1.18658e-09 4.54679e-10 -0.001)
(-1.03274e-09 4.60256e-10 -0.001)
(-8.14056e-10 4.67746e-10 -0.001)
(-5.06814e-10 4.73273e-10 -0.001)
(-1.67435e-10 4.76708e-10 -0.001)
(-1.18196e-09 1.3197e-09 -0.001)
(-1.02183e-09 1.33997e-09 -0.001)
(-8.02705e-10 1.35935e-09 -0.001)
(-4.97925e-10 1.37259e-09 -0.001)
(-1.63409e-10 1.37303e-09 -0.001)
(-1.16278e-09 2.00944e-09 -0.001)
(-9.95272e-10 2.07022e-09 -0.001)
(-7.83083e-10 2.10198e-09 -0.001)
(-4.91427e-10 2.1215e-09 -0.001)
(-1.64652e-10 2.11637e-09 -0.001)
(-1.1422e-09 2.41133e-09 -0.001)
(-9.2935e-10 2.55663e-09 -0.001)
(-7.51375e-10 2.6156e-09 -0.001)
(-4.7931e-10 2.64853e-09 -0.001)
(-1.64404e-10 2.64592e-09 -0.001)
(-1.19928e-09 2.95209e-09 -0.001)
(-7.91009e-10 2.8335e-09 -0.001)
(-6.91076e-10 2.85475e-09 -0.001)
(-4.55914e-10 2.87054e-09 -0.001)
(-1.62203e-10 2.86309e-09 -0.001)
(-1.60779e-09 6.15794e-10 -0.001)
(-1.42725e-09 6.13806e-10 -0.001)
(-1.12359e-09 6.18218e-10 -0.001)
(-7.13755e-10 6.2172e-10 -0.001)
(-2.42844e-10 6.21052e-10 -0.001)
(-1.61093e-09 1.74656e-09 -0.001)
(-1.42772e-09 1.75638e-09 -0.001)
(-1.1179e-09 1.77311e-09 -0.001)
(-7.11096e-10 1.78574e-09 -0.001)
(-2.42794e-10 1.7856e-09 -0.001)
(-1.60087e-09 2.63288e-09 -0.001)
(-1.40364e-09 2.68685e-09 -0.001)
(-1.09643e-09 2.72846e-09 -0.001)
(-6.99181e-10 2.7552e-09 -0.001)
(-2.40059e-10 2.76094e-09 -0.001)
(-1.61151e-09 3.26496e-09 -0.001)
(-1.33222e-09 3.35972e-09 -0.001)
(-1.04948e-09 3.41977e-09 -0.001)
(-6.73232e-10 3.45849e-09 -0.001)
(-2.3181e-10 3.46792e-09 -0.001)
(-1.63378e-09 3.88741e-09 -0.001)
(-1.24877e-09 3.81192e-09 -0.001)
(-9.97508e-10 3.81277e-09 -0.001)
(-6.44185e-10 3.82518e-09 -0.001)
(-2.23981e-10 3.82054e-09 -0.001)
(-2.19792e-09 8.21128e-10 -0.001)
(-1.99737e-09 8.17113e-10 -0.00100001)
(-1.57712e-09 8.18853e-10 -0.00100001)
(-1.01302e-09 8.20543e-10 -0.00100001)
(-3.50043e-10 8.17709e-10 -0.00100001)
(-2.20684e-09 2.33185e-09 -0.001)
(-2.00358e-09 2.34027e-09 -0.001)
(-1.57671e-09 2.35227e-09 -0.00100001)
(-1.0145e-09 2.36314e-09 -0.00100001)
(-3.51984e-10 2.36324e-09 -0.00100001)
(-2.20711e-09 3.54703e-09 -0.001)
(-1.98097e-09 3.5965e-09 -0.001)
(-1.55727e-09 3.63364e-09 -0.001)
(-9.99397e-10 3.66129e-09 -0.00100001)
(-3.46111e-10 3.67296e-09 -0.00100001)
(-2.23448e-09 4.4864e-09 -0.001)
(-1.91707e-09 4.53431e-09 -0.001)
(-1.51183e-09 4.5789e-09 -0.001)
(-9.67994e-10 4.61577e-09 -0.001)
(-3.33302e-10 4.62791e-09 -0.001)
(-2.24778e-09 5.21803e-09 -0.001)
(-1.88828e-09 5.15125e-09 -0.001)
(-1.4756e-09 5.14678e-09 -0.001)
(-9.41176e-10 5.15427e-09 -0.001)
(-3.25004e-10 5.14792e-09 -0.001)
(-2.99416e-09 1.10827e-09 -0.00100001)
(-2.74545e-09 1.10564e-09 -0.00100001)
(-2.17991e-09 1.10411e-09 -0.00100001)
(-1.40782e-09 1.10343e-09 -0.00100001)
(-4.88841e-10 1.09929e-09 -0.00100001)
(-3.00855e-09 3.18248e-09 -0.00100001)
(-2.75492e-09 3.19177e-09 -0.00100001)
(-2.18627e-09 3.19358e-09 -0.00100001)
(-1.41317e-09 3.19822e-09 -0.00100001)
(-4.91801e-10 3.19573e-09 -0.00100001)
(-3.02159e-09 4.91359e-09 -0.001)
(-2.73977e-09 4.9517e-09 -0.00100001)
(-2.17762e-09 4.96519e-09 -0.00100001)
(-1.40212e-09 4.98085e-09 -0.00100001)
(-4.86136e-10 4.98664e-09 -0.00100001)
(-3.04681e-09 6.17738e-09 -0.001)
(-2.70347e-09 6.24841e-09 -0.001)
(-2.15701e-09 6.26881e-09 -0.001)
(-1.38189e-09 6.28732e-09 -0.00100001)
(-4.76381e-10 6.28568e-09 -0.00100001)
(-3.16797e-09 7.20202e-09 -0.001)
(-2.64858e-09 7.04287e-09 -0.001)
(-2.13843e-09 7.03262e-09 -0.001)
(-1.3727e-09 7.02674e-09 -0.001)
(-4.7548e-10 7.00824e-09 -0.001)
(-4.07634e-09 1.5187e-09 -0.00100001)
(-3.72732e-09 1.51625e-09 -0.00100001)
(-2.96955e-09 1.51088e-09 -0.00100001)
(-1.92047e-09 1.50724e-09 -0.00100001)
(-6.66386e-10 1.5024e-09 -0.00100001)
(-4.09715e-09 4.40216e-09 -0.00100001)
(-3.74232e-09 4.40772e-09 -0.00100001)
(-2.98422e-09 4.39572e-09 -0.00100001)
(-1.92968e-09 4.38955e-09 -0.00100001)
(-6.69613e-10 4.3811e-09 -0.00100001)
(-4.11998e-09 6.85802e-09 -0.00100001)
(-3.74111e-09 6.88135e-09 -0.00100001)
(-2.9934e-09 6.86456e-09 -0.00100001)
(-1.93021e-09 6.85723e-09 -0.00100001)
(-6.67661e-10 6.84674e-09 -0.00100001)
(-4.14471e-09 8.56677e-09 -0.001)
(-3.73597e-09 8.67756e-09 -0.00100001)
(-3.00818e-09 8.66299e-09 -0.00100001)
(-1.93398e-09 8.64915e-09 -0.00100001)
(-6.66812e-10 8.62257e-09 -0.00100001)
(-4.38235e-09 9.94577e-09 -0.001)
(-3.64489e-09 9.68512e-09 -0.001)
(-3.02142e-09 9.66309e-09 -0.001)
(-1.95344e-09 9.635e-09 -0.001)
(-6.77382e-10 9.59735e-09 -0.001)
(-5.55866e-09 2.09159e-09 -0.00100001)
(-5.04567e-09 2.08811e-09 -0.00100002)
(-4.01837e-09 2.07965e-09 -0.00100002)
(-2.59415e-09 2.07332e-09 -0.00100002)
(-8.97121e-10 2.06808e-09 -0.00100002)
(-5.58503e-09 6.09545e-09 -0.00100001)
(-5.06735e-09 6.08986e-09 -0.00100001)
(-4.04082e-09 6.06501e-09 -0.00100002)
(-2.60667e-09 6.04697e-09 -0.00100002)
(-9.00108e-10 6.03082e-09 -0.00100002)
(-5.61388e-09 9.5151e-09 -0.00100001)
(-5.0861e-09 9.52161e-09 -0.00100001)
(-4.06894e-09 9.48206e-09 -0.00100001)
(-2.62154e-09 9.44931e-09 -0.00100001)
(-9.0334e-10 9.4186e-09 -0.00100001)
(-5.647e-09 1.19118e-08 -0.00100001)
(-5.10065e-09 1.19881e-08 -0.00100001)
(-4.1129e-09 1.19554e-08 -0.00100001)
(-2.65154e-09 1.19074e-08 -0.00100001)
(-9.12529e-10 1.18558e-08 -0.00100001)
(-5.90841e-09 1.35771e-08 -0.001)
(-5.04253e-09 1.33155e-08 -0.001)
(-4.14907e-09 1.32682e-08 -0.00100001)
(-2.69764e-09 1.32174e-08 -0.00100001)
(-9.31928e-10 1.31601e-08 -0.00100001)
(-7.57859e-09 2.87525e-09 -0.00100002)
(-6.83243e-09 2.87014e-09 -0.00100002)
(-5.4293e-09 2.85927e-09 -0.00100002)
(-3.49344e-09 2.85146e-09 -0.00100002)
(-1.20353e-09 2.8456e-09 -0.00100003)
(-7.61091e-09 8.39102e-09 -0.00100002)
(-6.86162e-09 8.37081e-09 -0.00100002)
(-5.45838e-09 8.33458e-09 -0.00100002)
(-3.5083e-09 8.30774e-09 -0.00100002)
(-1.20625e-09 8.28372e-09 -0.00100002)
(-7.64641e-09 1.30938e-08 -0.00100001)
(-6.90245e-09 1.30741e-08 -0.00100002)
(-5.50279e-09 1.30146e-08 -0.00100002)
(-3.53485e-09 1.29625e-08 -0.00100002)
(-1.21388e-09 1.29132e-08 -0.00100002)
(-7.69736e-09 1.64328e-08 -0.00100001)
(-6.94119e-09 1.64497e-08 -0.00100001)
(-5.56963e-09 1.63977e-08 -0.00100001)
(-3.58428e-09 1.63267e-08 -0.00100001)
(-1.23061e-09 1.6255e-08 -0.00100002)
(-7.90476e-09 1.8438e-08 -0.001)
(-6.9376e-09 1.82188e-08 -0.00100001)
(-5.62504e-09 1.81451e-08 -0.00100001)
(-3.6454e-09 1.80808e-08 -0.00100001)
(-1.25413e-09 1.80079e-08 -0.00100001)
(-1.03146e-08 3.9334e-09 -0.00100003)
(-9.25939e-09 3.92643e-09 -0.00100003)
(-7.34037e-09 3.91457e-09 -0.00100003)
(-4.70872e-09 3.90721e-09 -0.00100003)
(-1.61794e-09 3.89975e-09 -0.00100003)
(-1.03552e-08 1.14672e-08 -0.00100002)
(-9.29616e-09 1.14342e-08 -0.00100003)
(-7.37368e-09 1.139e-08 -0.00100003)
(-4.72506e-09 1.13598e-08 -0.00100003)
(-1.62104e-09 1.13272e-08 -0.00100003)
(-1.04017e-08 1.7871e-08 -0.00100002)
(-9.35502e-09 1.78259e-08 -0.00100002)
(-7.42894e-09 1.77497e-08 -0.00100002)
(-4.75859e-09 1.76879e-08 -0.00100003)
(-1.63184e-09 1.76219e-08 -0.00100003)
(-1.04741e-08 2.24398e-08 -0.00100001)
(-9.41799e-09 2.24143e-08 -0.00100002)
(-7.51136e-09 2.23483e-08 -0.00100002)
(-4.81819e-09 2.22709e-08 -0.00100002)
(-1.65298e-09 2.21844e-08 -0.00100002)
(-1.06808e-08 2.50401e-08 -0.001)
(-9.44651e-09 2.48074e-08 -0.00100001)
(-7.57137e-09 2.47155e-08 -0.00100001)
(-4.87872e-09 2.46465e-08 -0.00100001)
(-1.67555e-09 2.45617e-08 -0.00100001)
(-1.40146e-08 5.35654e-09 -0.00100004)
(-1.25591e-08 5.34852e-09 -0.00100004)
(-9.93957e-09 5.33794e-09 -0.00100004)
(-6.36696e-09 5.33207e-09 -0.00100005)
(-2.18629e-09 5.32002e-09 -0.00100005)
(-1.40636e-08 1.55894e-08 -0.00100003)
(-1.26021e-08 1.5549e-08 -0.00100004)
(-9.97517e-09 1.55024e-08 -0.00100004)
(-6.38688e-09 1.5472e-08 -0.00100004)
(-2.19237e-09 1.54264e-08 -0.00100004)
(-1.4121e-08 2.42606e-08 -0.00100003)
(-1.26712e-08 2.42037e-08 -0.00100003)
(-1.00358e-08 2.41172e-08 -0.00100003)
(-6.42526e-09 2.40522e-08 -0.00100004)
(-2.20642e-09 2.39693e-08 -0.00100004)
(-1.421e-08 3.04358e-08 -0.00100002)
(-1.27461e-08 3.0413e-08 -0.00100002)
(-1.01262e-08 3.03469e-08 -0.00100003)
(-6.48772e-09 3.02776e-08 -0.00100003)
(-2.229e-09 3.01816e-08 -0.00100003)
(-1.44506e-08 3.39591e-08 -0.00100001)
(-1.276e-08 3.36989e-08 -0.00100001)
(-1.01698e-08 3.35945e-08 -0.00100001)
(-6.53094e-09 3.35237e-08 -0.00100002)
(-2.24411e-09 3.34278e-08 -0.00100002)
(-1.903e-08 7.28195e-09 -0.00100005)
(-1.7057e-08 7.27109e-09 -0.00100005)
(-1.3494e-08 7.26136e-09 -0.00100006)
(-8.64827e-09 7.25457e-09 -0.00100006)
(-2.97316e-09 7.23256e-09 -0.00100006)
(-1.90897e-08 2.11623e-08 -0.00100004)
(-1.71109e-08 2.11124e-08 -0.00100005)
(-1.35365e-08 2.10635e-08 -0.00100005)
(-8.67977e-09 2.10286e-08 -0.00100006)
(-2.98705e-09 2.09623e-08 -0.00100006)
(-1.91576e-08 3.2909e-08 -0.00100004)
(-1.719e-08 3.28381e-08 -0.00100004)
(-1.36038e-08 3.27432e-08 -0.00100005)
(-8.7253e-09 3.26731e-08 -0.00100005)
(-3.00485e-09 3.25712e-08 -0.00100005)
(-1.92555e-08 4.12924e-08 -0.00100002)
(-1.72776e-08 4.12707e-08 -0.00100003)
(-1.37007e-08 4.12e-08 -0.00100003)
(-8.78773e-09 4.11375e-08 -0.00100004)
(-3.02606e-09 4.10304e-08 -0.00100004)
(-1.95212e-08 4.60284e-08 -0.00100001)
(-1.72824e-08 4.57806e-08 -0.00100002)
(-1.37351e-08 4.56616e-08 -0.00100002)
(-8.81361e-09 4.5584e-08 -0.00100002)
(-3.03249e-09 4.54682e-08 -0.00100003)
(-2.5859e-08 9.90142e-09 -0.00100007)
(-2.32133e-08 9.88175e-09 -0.00100007)
(-1.8376e-08 9.86749e-09 -0.00100008)
(-1.17955e-08 9.85411e-09 -0.00100009)
(-4.0629e-09 9.81795e-09 -0.00100009)
(-2.5942e-08 2.87504e-08 -0.00100006)
(-2.32928e-08 2.86791e-08 -0.00100007)
(-1.84392e-08 2.86174e-08 -0.00100008)
(-1.18488e-08 2.85678e-08 -0.00100008)
(-4.08808e-09 2.84752e-08 -0.00100008)
(-2.60323e-08 4.47124e-08 -0.00100005)
(-2.3393e-08 4.46054e-08 -0.00100006)
(-1.85229e-08 4.4492e-08 -0.00100006)
(-1.1905e-08 4.44079e-08 -0.00100007)
(-4.10847e-09 4.4282e-08 -0.00100007)
(-2.61548e-08 5.62137e-08 -0.00100003)
(-2.35144e-08 5.61244e-08 -0.00100004)
(-1.86356e-08 5.60187e-08 -0.00100005)
(-1.19716e-08 5.59415e-08 -0.00100005)
(-4.12835e-09 5.58054e-08 -0.00100005)
(-2.64292e-08 6.25019e-08 -0.00100001)
(-2.35879e-08 6.22678e-08 -0.00100002)
(-1.87032e-08 6.21182e-08 -0.00100003)
(-1.20076e-08 6.20178e-08 -0.00100003)
(-4.13631e-09 6.18611e-08 -0.00100004)
(-3.51777e-08 1.34668e-08 -0.00100009)
(-3.16421e-08 1.34331e-08 -0.0010001)
(-2.50703e-08 1.34069e-08 -0.00100011)
(-1.61131e-08 1.33823e-08 -0.00100012)
(-5.55718e-09 1.33329e-08 -0.00100012)
(-3.53041e-08 3.90986e-08 -0.00100008)
(-3.17642e-08 3.89946e-08 -0.00100009)
(-2.51698e-08 3.89045e-08 -0.0010001)
(-1.61925e-08 3.88316e-08 -0.00100011)
(-5.59168e-09 3.87114e-08 -0.00100011)
(-3.5441e-08 6.08356e-08 -0.00100007)
(-3.18999e-08 6.06726e-08 -0.00100008)
(-2.5282e-08 6.05229e-08 -0.00100009)
(-1.62619e-08 6.04128e-08 -0.00100009)
(-5.6135e-09 6.02495e-08 -0.0010001)
(-3.5629e-08 7.66254e-08 -0.00100004)
(-3.20785e-08 7.64272e-08 -0.00100006)
(-2.54282e-08 7.62578e-08 -0.00100006)
(-1.6347e-08 7.61359e-08 -0.00100007)
(-5.63814e-09 7.59394e-08 -0.00100008)
(-3.59314e-08 8.50618e-08 -0.00100002)
(-3.22674e-08 8.47836e-08 -0.00100003)
(-2.55697e-08 8.45715e-08 -0.00100004)
(-1.64294e-08 8.44217e-08 -0.00100005)
(-5.66239e-09 8.41952e-08 -0.00100005)
(-4.78714e-08 1.83214e-08 -0.00100012)
(-4.31247e-08 1.827e-08 -0.00100014)
(-3.41888e-08 1.82263e-08 -0.00100015)
(-2.1981e-08 1.81899e-08 -0.00100016)
(-7.58113e-09 1.81306e-08 -0.00100017)
(-4.80632e-08 5.32163e-08 -0.00100011)
(-4.33048e-08 5.30668e-08 -0.00100013)
(-3.43354e-08 5.29334e-08 -0.00100014)
(-2.20843e-08 5.28322e-08 -0.00100015)
(-7.62036e-09 5.26784e-08 -0.00100015)
(-4.82746e-08 8.28472e-08 -0.00100009)
(-4.34947e-08 8.26094e-08 -0.00100011)
(-3.449e-08 8.23971e-08 -0.00100012)
(-2.21757e-08 8.22419e-08 -0.00100013)
(-7.64781e-09 8.20158e-08 -0.00100013)
(-4.85731e-08 1.04428e-07 -0.00100006)
(-4.37571e-08 1.0412e-07 -0.00100008)
(-3.4701e-08 1.03856e-07 -0.00100009)
(-2.23034e-08 1.03657e-07 -0.0010001)
(-7.68714e-09 1.03366e-07 -0.0010001)
(-4.89659e-08 1.15901e-07 -0.00100003)
(-4.40666e-08 1.15505e-07 -0.00100004)
(-3.4948e-08 1.15182e-07 -0.00100005)
(-2.24594e-08 1.14949e-07 -0.00100006)
(-7.73742e-09 1.14619e-07 -0.00100007)
(-6.51131e-08 2.49421e-08 -0.00100017)
(-5.8686e-08 2.48675e-08 -0.00100019)
(-4.65356e-08 2.48025e-08 -0.00100021)
(-2.99064e-08 2.4754e-08 -0.00100022)
(-1.03066e-08 2.46813e-08 -0.00100023)
(-6.53956e-08 7.24889e-08 -0.00100015)
(-5.89417e-08 7.22685e-08 -0.00100017)
(-4.67399e-08 7.20737e-08 -0.00100019)
(-3.00378e-08 7.19325e-08 -0.0010002)
(-1.03519e-08 7.1726e-08 -0.00100021)
(-6.57139e-08 1.12901e-07 -0.00100013)
(-5.92201e-08 1.12544e-07 -0.00100015)
(-4.69625e-08 1.12226e-07 -0.00100016)
(-3.01719e-08 1.11995e-07 -0.00100017)
(-1.03943e-08 1.11673e-07 -0.00100018)
(-6.61719e-08 1.42335e-07 -0.00100008)
(-5.96194e-08 1.41867e-07 -0.0010001)
(-4.72858e-08 1.41452e-07 -0.00100012)
(-3.03694e-08 1.41141e-07 -0.00100013)
(-1.04564e-08 1.40721e-07 -0.00100014)
(-6.67664e-08 1.57983e-07 -0.00100004)
(-6.01026e-08 1.57371e-07 -0.00100006)
(-4.76823e-08 1.56874e-07 -0.00100007)
(-3.06223e-08 1.56516e-07 -0.00100009)
(-1.05394e-08 1.5604e-07 -0.00100009)
(-8.84942e-08 3.39774e-08 -0.00100023)
(-7.97339e-08 3.38701e-08 -0.00100026)
(-6.32182e-08 3.37771e-08 -0.00100028)
(-4.06029e-08 3.37101e-08 -0.0010003)
(-1.39822e-08 3.36121e-08 -0.00100031)
(-8.89004e-08 9.87821e-08 -0.00100021)
(-8.00924e-08 9.8453e-08 -0.00100024)
(-6.35021e-08 9.81687e-08 -0.00100026)
(-4.07818e-08 9.79639e-08 -0.00100028)
(-1.40426e-08 9.76758e-08 -0.00100029)
(-8.93673e-08 1.5388e-07 -0.00100017)
(-8.05092e-08 1.53337e-07 -0.0010002)
(-6.38312e-08 1.52861e-07 -0.00100022)
(-4.09836e-08 1.52518e-07 -0.00100024)
(-1.4108e-08 1.52063e-07 -0.00100025)
(-9.00512e-08 1.94001e-07 -0.00100011)
(-8.11157e-08 1.93275e-07 -0.00100014)
(-6.4317e-08 1.92644e-07 -0.00100017)
(-4.12787e-08 1.92178e-07 -0.00100018)
(-1.42016e-08 1.91582e-07 -0.00100019)
(-9.09626e-08 2.15311e-07 -0.00100005)
(-8.18662e-08 2.14371e-07 -0.00100008)
(-6.49197e-08 2.1362e-07 -0.0010001)
(-4.16622e-08 2.13079e-07 -0.00100012)
(-1.43287e-08 2.12394e-07 -0.00100013)
(-1.20189e-07 4.6296e-08 -0.00100032)
(-1.08218e-07 4.61408e-08 -0.00100035)
(-8.57702e-08 4.60081e-08 -0.00100038)
(-5.50611e-08 4.59106e-08 -0.00100041)
(-1.89532e-08 4.57738e-08 -0.00100042)
(-1.2076e-07 1.34595e-07 -0.00100029)
(-1.08722e-07 1.34113e-07 -0.00100032)
(-8.61693e-08 1.33703e-07 -0.00100036)
(-5.53144e-08 1.33406e-07 -0.00100038)
(-1.90388e-08 1.33004e-07 -0.00100039)
(-1.21425e-07 2.09655e-07 -0.00100023)
(-1.0933e-07 2.08857e-07 -0.00100027)
(-8.66458e-08 2.08169e-07 -0.0010003)
(-5.56076e-08 2.07672e-07 -0.00100032)
(-1.91342e-08 2.07031e-07 -0.00100033)
(-1.22416e-07 2.64311e-07 -0.00100016)
(-1.10213e-07 2.63236e-07 -0.00100019)
(-8.73487e-08 2.62315e-07 -0.00100023)
(-5.60412e-08 2.61633e-07 -0.00100025)
(-1.92753e-08 2.6079e-07 -0.00100026)
(-1.2375e-07 2.93332e-07 -0.00100007)
(-1.11326e-07 2.9194e-07 -0.0010001)
(-8.82376e-08 2.90819e-07 -0.00100014)
(-5.6611e-08 2.90004e-07 -0.00100016)
(-1.9466e-08 2.89022e-07 -0.00100017)
(-1.63152e-07 6.30614e-08 -0.00100043)
(-1.46788e-07 6.28422e-08 -0.00100048)
(-1.16265e-07 6.26565e-08 -0.00100052)
(-7.46069e-08 6.2519e-08 -0.00100055)
(-2.56748e-08 6.23314e-08 -0.00100057)
(-1.63931e-07 1.83307e-07 -0.00100039)
(-1.47486e-07 1.82632e-07 -0.00100044)
(-1.16819e-07 1.82061e-07 -0.00100048)
(-7.49576e-08 1.81644e-07 -0.00100051)
(-2.57925e-08 1.81088e-07 -0.00100053)
(-1.64846e-07 2.85507e-07 -0.00100032)
(-1.48335e-07 2.84383e-07 -0.00100037)
(-1.17484e-07 2.83415e-07 -0.00100041)
(-7.53706e-08 2.82707e-07 -0.00100044)
(-2.59285e-08 2.81809e-07 -0.00100046)
(-1.6625e-07 3.59976e-07 -0.00100021)
(-1.49586e-07 3.58421e-07 -0.00100026)
(-1.18488e-07 3.57088e-07 -0.00100031)
(-7.60031e-08 3.56089e-07 -0.00100034)
(-2.61387e-08 3.54895e-07 -0.00100035)
(-1.68167e-07 3.99512e-07 -0.00100009)
(-1.51223e-07 3.97475e-07 -0.00100014)
(-1.198e-07 3.95795e-07 -0.00100019)
(-7.68508e-08 3.94563e-07 -0.00100022)
(-2.64254e-08 3.93158e-07 -0.00100023)
(-2.21353e-07 8.58574e-08 -0.00100059)
(-1.98971e-07 8.55679e-08 -0.00100066)
(-1.57459e-07 8.53209e-08 -0.00100071)
(-1.00983e-07 8.51399e-08 -0.00100075)
(-3.47404e-08 8.48889e-08 -0.00100077)
(-2.22376e-07 2.49545e-07 -0.00100054)
(-1.99908e-07 2.48649e-07 -0.0010006)
(-1.582e-07 2.47882e-07 -0.00100066)
(-1.0145e-07 2.47318e-07 -0.0010007)
(-3.48956e-08 2.46561e-07 -0.00100072)
(-2.23603e-07 3.88672e-07 -0.00100043)
(-2.01044e-07 3.87123e-07 -0.0010005)
(-1.59103e-07 3.85782e-07 -0.00100056)
(-1.02018e-07 3.84786e-07 -0.0010006)
(-3.50852e-08 3.83535e-07 -0.00100062)
(-2.25574e-07 4.90124e-07 -0.00100029)
(-2.02809e-07 4.87876e-07 -0.00100036)
(-1.60528e-07 4.85935e-07 -0.00100042)
(-1.02931e-07 4.84477e-07 -0.00100046)
(-3.53935e-08 4.82786e-07 -0.00100048)
(-2.2833e-07 5.44005e-07 -0.00100013)
(-2.05233e-07 5.41008e-07 -0.0010002)
(-1.6248e-07 5.38471e-07 -0.00100025)
(-1.04196e-07 5.36595e-07 -0.0010003)
(-3.58252e-08 5.34582e-07 -0.00100032)
(-3.00154e-07 1.16873e-07 -0.0010008)
(-2.69475e-07 1.16523e-07 -0.00100089)
(-2.13016e-07 1.16218e-07 -0.00100097)
(-1.365e-07 1.15995e-07 -0.00100102)
(-4.6936e-08 1.15662e-07 -0.00100105)
(-3.01441e-07 3.39669e-07 -0.00100073)
(-2.70675e-07 3.38542e-07 -0.00100082)
(-2.1397e-07 3.37557e-07 -0.0010009)
(-1.37101e-07 3.36823e-07 -0.00100095)
(-4.7137e-08 3.35798e-07 -0.00100098)
(-3.03026e-07 5.29032e-07 -0.00100059)
(-2.72144e-07 5.26931e-07 -0.00100068)
(-2.15161e-07 5.25096e-07 -0.00100076)
(-1.37867e-07 5.23717e-07 -0.00100081)
(-4.73974e-08 5.2198e-07 -0.00100084)
(-3.05747e-07 6.6717e-07 -0.0010004)
(-2.74624e-07 6.63915e-07 -0.00100049)
(-2.17171e-07 6.61079e-07 -0.00100057)
(-1.39173e-07 6.58954e-07 -0.00100062)
(-4.78467e-08 6.56563e-07 -0.00100065)
(-3.09731e-07 7.406e-07 -0.00100017)
(-2.78235e-07 7.36153e-07 -0.00100027)
(-2.20093e-07 7.32301e-07 -0.00100034)
(-1.41059e-07 7.29435e-07 -0.0010004)
(-4.84902e-08 7.26533e-07 -0.00100043)
(-4.06871e-07 1.59118e-07 -0.0010011)
(-3.64668e-07 1.58755e-07 -0.00100122)
(-2.87859e-07 1.58425e-07 -0.00100132)
(-1.84258e-07 1.58172e-07 -0.00100139)
(-6.33194e-08 1.57733e-07 -0.00100143)
(-4.08379e-07 4.62378e-07 -0.001001)
(-3.66101e-07 4.61087e-07 -0.00100112)
(-2.89019e-07 4.5992e-07 -0.00100122)
(-1.85009e-07 4.59016e-07 -0.00100129)
(-6.3578e-08 4.57642e-07 -0.00100133)
(-4.10262e-07 7.20041e-07 -0.00100081)
(-3.67885e-07 7.17301e-07 -0.00100093)
(-2.90507e-07 7.14867e-07 -0.00100103)
(-1.85998e-07 7.13002e-07 -0.0010011)
(-6.39229e-08 7.10618e-07 -0.00100114)
(-4.13892e-07 9.08028e-07 -0.00100055)
(-3.71293e-07 9.03349e-07 -0.00100067)
(-2.93301e-07 8.99237e-07 -0.00100077)
(-1.87832e-07 8.96149e-07 -0.00100085)
(-6.45582e-08 8.92778e-07 -0.00100088)
(-4.19699e-07 1.0081e-06 -0.00100024)
(-3.76676e-07 1.00138e-06 -0.00100036)
(-2.97666e-07 9.95525e-07 -0.00100047)
(-1.90649e-07 9.91144e-07 -0.00100054)
(-6.5523e-08 9.86919e-07 -0.00100058)
(-5.51529e-07 2.16717e-07 -0.00100149)
(-4.93205e-07 2.16498e-07 -0.00100166)
(-3.88614e-07 2.16257e-07 -0.0010018)
(-2.4841e-07 2.16035e-07 -0.00100189)
(-8.52986e-08 2.15481e-07 -0.00100194)
(-5.53005e-07 6.2957e-07 -0.00100136)
(-4.94667e-07 6.28433e-07 -0.00100152)
(-3.8986e-07 6.27303e-07 -0.00100166)
(-2.49261e-07 6.26342e-07 -0.00100176)
(-8.56031e-08 6.24577e-07 -0.00100181)
(-5.54805e-07 9.79996e-07 -0.0010011)
(-4.965e-07 9.76767e-07 -0.00100126)
(-3.91489e-07 9.73774e-07 -0.0010014)
(-2.50395e-07 9.71396e-07 -0.0010015)
(-8.60076e-08 9.68208e-07 -0.00100155)
(-5.59354e-07 1.23553e-06 -0.00100074)
(-5.00915e-07 1.22905e-06 -0.00100091)
(-3.95207e-07 1.22325e-06 -0.00100105)
(-2.52877e-07 1.21882e-06 -0.00100115)
(-8.68726e-08 1.21406e-06 -0.0010012)
(-5.67773e-07 1.37193e-06 -0.00100033)
(-5.08781e-07 1.36172e-06 -0.00100049)
(-4.0166e-07 1.3528e-06 -0.00100064)
(-2.57116e-07 1.34607e-06 -0.00100074)
(-8.83474e-08 1.33985e-06 -0.00100079)
(-7.47868e-07 2.95425e-07 -0.00100204)
(-6.66823e-07 2.95757e-07 -0.00100226)
(-5.242e-07 2.95911e-07 -0.00100245)
(-3.34446e-07 2.95915e-07 -0.00100258)
(-1.14691e-07 2.95299e-07 -0.00100264)
(-7.48556e-07 8.57736e-07 -0.00100185)
(-6.67692e-07 8.57669e-07 -0.00100207)
(-5.25097e-07 8.57254e-07 -0.00100226)
(-3.35149e-07 8.56659e-07 -0.00100239)
(-1.14962e-07 8.54568e-07 -0.00100246)
(-7.49142e-07 1.33397e-06 -0.0010015)
(-6.68697e-07 1.33098e-06 -0.00100172)
(-5.26271e-07 1.32789e-06 -0.0010019)
(-3.36106e-07 1.32523e-06 -0.00100203)
(-1.15329e-07 1.3211e-06 -0.0010021)
(-7.5413e-07 1.6806e-06 -0.00100102)
(-6.73808e-07 1.67211e-06 -0.00100124)
(-5.30815e-07 1.66426e-06 -0.00100142)
(-3.39279e-07 1.65805e-06 -0.00100155)
(-1.16471e-07 1.65135e-06 -0.00100162)
(-7.66023e-07 1.86613e-06 -0.00100045)
(-6.85033e-07 1.85077e-06 -0.00100067)
(-5.40246e-07 1.83719e-06 -0.00100086)
(-3.4565e-07 1.82678e-06 -0.00100099)
(-1.18732e-07 1.81754e-06 -0.00100106)
(-1.01489e-06 4.03464e-07 -0.00100278)
(-9.01569e-07 4.05286e-07 -0.00100309)
(-7.06702e-07 4.06579e-07 -0.00100334)
(-4.49587e-07 4.07306e-07 -0.00100352)
(-1.53768e-07 4.06764e-07 -0.0010036)
(-1.01293e-06 1.17013e-06 -0.00100253)
(-9.00274e-07 1.17336e-06 -0.00100283)
(-7.061e-07 1.17538e-06 -0.00100307)
(-4.49503e-07 1.17627e-06 -0.00100325)
(-1.53824e-07 1.17408e-06 -0.00100333)
(-1.00954e-06 1.81661e-06 -0.00100204)
(-8.98196e-07 1.81588e-06 -0.00100234)
(-7.05228e-07 1.81416e-06 -0.00100258)
(-4.49453e-07 1.81204e-06 -0.00100275)
(-1.53945e-07 1.80686e-06 -0.00100284)
(-1.01328e-06 2.28513e-06 -0.00100139)
(-9.02773e-07 2.27488e-06 -0.00100168)
(-7.09901e-07 2.26487e-06 -0.00100192)
(-4.53137e-07 2.25652e-06 -0.00100209)
(-1.55395e-07 2.24711e-06 -0.00100217)
(-1.02944e-06 2.5361e-06 -0.00100062)
(-9.18458e-07 2.51324e-06 -0.00100091)
(-7.23479e-07 2.49263e-06 -0.00100116)
(-4.62605e-07 2.47653e-06 -0.00100134)
(-1.58835e-07 2.46259e-06 -0.00100143)
(-1.37914e-06 5.52875e-07 -0.00100381)
(-1.21977e-06 5.58318e-07 -0.00100422)
(-9.5291e-07 5.62445e-07 -0.00100456)
(-6.03349e-07 5.65049e-07 -0.0010048)
(-2.05102e-07 5.64854e-07 -0.00100491)
(-1.37033e-06 1.60026e-06 -0.00100345)
(-1.21263e-06 1.61195e-06 -0.00100385)
(-9.4807e-07 1.6204e-06 -0.00100418)
(-6.01029e-07 1.62544e-06 -0.00100442)
(-2.04604e-07 1.62365e-06 -0.00100453)
(-1.35668e-06 2.47624e-06 -0.00100278)
(-1.20216e-06 2.48282e-06 -0.00100317)
(-9.41342e-07 2.48615e-06 -0.00100349)
(-5.98084e-07 2.48681e-06 -0.00100371)
(-2.04105e-07 2.48053e-06 -0.00100382)
(-1.35482e-06 3.10547e-06 -0.00100189)
(-1.20278e-06 3.09511e-06 -0.00100226)
(-9.4402e-07 3.08373e-06 -0.00100257)
(-6.01609e-07 3.07328e-06 -0.0010028)
(-2.05926e-07 3.05992e-06 -0.00100291)
(-1.37578e-06 3.44174e-06 -0.00100085)
(-1.2239e-06 3.40795e-06 -0.00100123)
(-9.63035e-07 3.37674e-06 -0.00100155)
(-6.15592e-07 3.35175e-06 -0.00100178)
(-2.11272e-07 3.3302e-06 -0.0010019)
(-1.87796e-06 7.6196e-07 -0.00100522)
(-1.65335e-06 7.75803e-07 -0.00100579)
(-1.28744e-06 7.8653e-07 -0.00100625)
(-8.08123e-07 7.93748e-07 -0.00100659)
(-2.70287e-07 7.94271e-07 -0.00100672)
(-1.85329e-06 2.19819e-06 -0.00100472)
(-1.63199e-06 2.23e-06 -0.00100526)
(-1.27199e-06 2.25375e-06 -0.0010057)
(-8.00402e-07 2.26942e-06 -0.00100602)
(-2.68748e-07 2.26844e-06 -0.00100615)
(-1.81574e-06 3.38168e-06 -0.00100378)
(-1.60117e-06 3.40739e-06 -0.00100429)
(-1.25059e-06 3.42418e-06 -0.0010047)
(-7.90517e-07 3.43341e-06 -0.001005)
(-2.67314e-07 3.42517e-06 -0.00100513)
(-1.79818e-06 4.21719e-06 -0.00100256)
(-1.58956e-06 4.21192e-06 -0.00100304)
(-1.24587e-06 4.20218e-06 -0.00100343)
(-7.92431e-07 4.19106e-06 -0.00100372)
(-2.70102e-07 4.17084e-06 -0.00100386)
(-1.82359e-06 4.65982e-06 -0.00100117)
(-1.61618e-06 4.61022e-06 -0.00100165)
(-1.27126e-06 4.56279e-06 -0.00100205)
(-8.13208e-07 4.52368e-06 -0.00100234)
(-2.79014e-07 4.48869e-06 -0.0010025)
(-2.56359e-06 1.0595e-06 -0.00100718)
(-2.25002e-06 1.09278e-06 -0.00100799)
(-1.75039e-06 1.11829e-06 -0.00100861)
(-1.07942e-06 1.13699e-06 -0.00100912)
(-3.43648e-07 1.13782e-06 -0.00100922)
(-2.50477e-06 3.04174e-06 -0.00100645)
(-2.1954e-06 3.12073e-06 -0.0010072)
(-1.70943e-06 3.17845e-06 -0.00100777)
(-1.0597e-06 3.2217e-06 -0.00100825)
(-3.41262e-07 3.21895e-06 -0.00100835)
(-2.41444e-06 4.63339e-06 -0.00100513)
(-2.11779e-06 4.70582e-06 -0.00100578)
(-1.65282e-06 4.75357e-06 -0.0010063)
(-1.0346e-06 4.78702e-06 -0.0010067)
(-3.40672e-07 4.77037e-06 -0.00100683)
(-2.35884e-06 5.72096e-06 -0.00100345)
(-2.07532e-06 5.73439e-06 -0.00100404)
(-1.62811e-06 5.73399e-06 -0.00100452)
(-1.03311e-06 5.72862e-06 -0.0010049)
(-3.48199e-07 5.69276e-06 -0.00100505)
(-2.38675e-06 6.28311e-06 -0.00100159)
(-2.10476e-06 6.21103e-06 -0.00100217)
(-1.65832e-06 6.13752e-06 -0.00100266)
(-1.06391e-06 6.07578e-06 -0.00100303)
(-3.64738e-07 6.01371e-06 -0.00100321)
(-3.5056e-06 1.49014e-06 -0.00100985)
(-3.08642e-06 1.57116e-06 -0.00101114)
(-2.41916e-06 1.62835e-06 -0.00101191)