/*--------------------------------*- C++ -*----------------------------------*\
| =========                 |                                                 |
| \\      /  F ield         | OpenFOAM: The Open Source CFD Toolbox           |
|  \\    /   O peration     | Version:  5.x                                   |
|   \\  /    A nd           | Web:      www.OpenFOAM.org                      |
|    \\/     M anipulation  |                                                 |
\*---------------------------------------------------------------------------*/
FoamFile
{
    version     2.0;
    format      ascii;
    class       volScalarField;
    location    "600";
    object      p;
}
// * * * * * * * * * * * * * * * * * * * * * * * * * * * * * * * * * * * * * //

dimensions      [0 2 -2 0 0 0 0];

internalField   nonuniform List<scalar> 
90
(
-7.09479e-11
-2.21237e-10
-3.92873e-10
-5.97198e-10
-8.43821e-10
-1.13859e-09
-1.48255e-09
-1.87127e-09
-2.29477e-09
-2.73845e-09
-3.18515e-09
-3.61858e-09
-4.02805e-09
-4.41445e-09
-4.79692e-09
-5.21993e-09
-5.75947e-09
-6.54914e-09
-7.72257e-09
-9.47515e-09
-1.20519e-08
-1.57544e-08
-2.0952e-08
-2.8101e-08
-3.77729e-08
-5.06978e-08
-6.78261e-08
-9.04108e-08
-1.20116e-07
-1.5916e-07
-2.10537e-07
-2.78349e-07
-3.67669e-07
-4.82524e-07
-6.26302e-07
-8.32631e-07
-1.23508e-06
-1.95029e-06
6.45695e-07
-1.06796e-05
3.02872e-06
0.00044154
0.00123914
0.00194444
0.00268807
0.0036633
0.00468525
0.00563007
0.00638029
0.00695781
0.0077154
0.00846092
0.00857933
0.00858283
0.00858386
0.00858489
0.00858572
0.00858634
0.0085868
0.00858715
0.00858741
0.0085876
0.00858774
0.00858785
0.00858793
0.00858799
0.00858804
0.00858807
0.0085881
0.00858812
0.00858814
0.00858815
0.00858816
0.00858816
0.00858817
0.00858817
0.00858818
0.00858818
0.00858818
0.00858818
0.00858818
0.00858818
0.00858818
0.00858818
0.00858817
0.00858817
0.00858817
0.00858817
0.00858816
0.00858816
)
;

boundaryField
{
    inlet
    {
        type            zeroGradient;
    }
    outlet
    {
        type            fixedValue;
        value           uniform 0;
    }
    repeat_boundary
    {
        type            zeroGradient;
    }
    procBoundary0to1
    {
        type            processor;
        value           nonuniform List<scalar> 
90
(
7.43417e-12
1.26045e-11
-6.89864e-12
-6.40798e-11
-1.6752e-10
-3.19914e-10
-5.17436e-10
-7.49735e-10
-1.00056e-09
-1.24898e-09
-1.47102e-09
-1.64162e-09
-1.73642e-09
-1.73322e-09
-1.61262e-09
-1.35757e-09
-9.52256e-10
-3.59208e-10
4.22066e-10
1.41717e-09
2.66583e-09
4.23071e-09
6.2033e-09
8.69427e-09
1.18556e-08
1.59428e-08
2.12824e-08
2.83211e-08
3.76706e-08
5.01647e-08
6.68866e-08
8.91056e-08
1.18684e-07
1.61716e-07
2.34607e-07
3.31262e-07
2.43252e-07
-2.55301e-07
4.67255e-06
-1.12061e-05
1.48386e-05
0.000596588
0.00134163
0.00218536
0.00302145
0.00394517
0.00495133
0.00571892
0.00636041
0.00712357
0.00783386
0.00848653
0.00859296
0.00859013
0.00858933
0.00858905
0.00858883
0.00858866
0.00858853
0.00858843
0.00858836
0.00858831
0.00858827
0.00858824
0.00858822
0.00858821
0.0085882
0.00858819
0.00858819
0.00858819
0.00858818
0.00858818
0.00858818
0.00858818
0.00858818
0.00858818
0.00858818
0.00858818
0.00858818
0.00858818
0.00858818
0.00858818
0.00858818
0.00858818
0.00858817
0.00858817
0.00858817
0.00858817
0.00858817
0.00858817
)
;
    }
    procBoundary0to2
    {
        type            processor;
        value           nonuniform List<scalar> 
90
(
1.89719e-11
5.0199e-11
5.74417e-11
2.81374e-11
-4.5728e-11
-1.6645e-10
-3.29965e-10
-5.2588e-10
-7.38202e-10
-9.46733e-10
-1.12899e-09
-1.26244e-09
-1.32684e-09
-1.30641e-09
-1.19158e-09
-9.80226e-10
-6.78183e-10
-2.99182e-10
1.36415e-10
6.01195e-10
1.06064e-09
1.47224e-09
1.78352e-09
1.92865e-09
1.82295e-09
1.35563e-09
3.82306e-10
-1.28465e-09
-3.88691e-09
-7.7381e-09
-1.33034e-08
-2.14211e-08
-3.29951e-08
-4.51839e-08
-4.60348e-08
-4.91201e-08
-2.90582e-07
-1.02872e-06
4.11756e-06
-1.37259e-05
1.41185e-05
0.000697102
0.00140584
0.00212006
0.00292949
0.00376664
0.00453399
0.00525478
0.00609555
0.00696596
0.00772208
0.00841785
0.00858242
0.00858821
0.00858681
0.00858724
0.00858751
0.00858768
0.00858781
0.00858791
0.00858798
0.00858803
0.00858806
0.00858809
0.00858811
0.00858813
0.00858814
0.00858815
0.00858816
0.00858816
0.00858817
0.00858817
0.00858817
0.00858818
0.00858818
0.00858818
0.00858818
0.00858818
0.00858818
0.00858818
0.00858818
0.00858818
0.00858818
0.00858818
0.00858817
0.00858817
0.00858817
0.00858817
0.00858817
0.00858817
)
;
    }
}


// ************************************************************************* //
