/*--------------------------------*- C++ -*----------------------------------*\
| =========                 |                                                 |
| \\      /  F ield         | OpenFOAM: The Open Source CFD Toolbox           |
|  \\    /   O peration     | Version:  5.x                                   |
|   \\  /    A nd           | Web:      www.OpenFOAM.org                      |
|    \\/     M anipulation  |                                                 |
\*---------------------------------------------------------------------------*/
FoamFile
{
    version     2.0;
    format      ascii;
    class       volVectorField;
    location    "600";
    object      U;
}
// * * * * * * * * * * * * * * * * * * * * * * * * * * * * * * * * * * * * * //

dimensions      [0 1 -1 0 0 0 0];

internalField   nonuniform List<vector> 
90
(
(1.55302e-09 -3.67335e-09 -0.00099999)
(2.36022e-09 -7.23798e-09 -0.000999989)
(3.4506e-09 -1.15044e-08 -0.000999988)
(4.67258e-09 -1.63112e-08 -0.000999986)
(6.02471e-09 -2.1852e-08 -0.000999983)
(7.51544e-09 -2.83979e-08 -0.000999979)
(9.13983e-09 -3.62862e-08 -0.000999974)
(1.08714e-08 -4.59373e-08 -0.000999967)
(1.26551e-08 -5.78729e-08 -0.000999959)
(1.43983e-08 -7.27506e-08 -0.000999947)
(1.5956e-08 -9.14001e-08 -0.000999933)
(1.711e-08 -1.14872e-07 -0.000999915)
(1.75389e-08 -1.44504e-07 -0.00099989)
(1.67771e-08 -1.82001e-07 -0.000999859)
(1.41592e-08 -2.29548e-07 -0.000999817)
(8.74942e-09 -2.89944e-07 -0.000999764)
(-7.36864e-10 -3.6677e-07 -0.000999693)
(-1.61007e-08 -4.64644e-07 -0.000999601)
(-3.99893e-08 -5.89588e-07 -0.000999479)
(-7.60506e-08 -7.49383e-07 -0.00099932)
(-1.29297e-07 -9.54094e-07 -0.000999111)
(-2.06612e-07 -1.21677e-06 -0.000998837)
(-3.17391e-07 -1.55434e-06 -0.000998477)
(-4.74313e-07 -1.98883e-06 -0.000998004)
(-6.94675e-07 -2.54891e-06 -0.000997383)
(-1.00205e-06 -3.27193e-06 -0.000996567)
(-1.42834e-06 -4.20664e-06 -0.000995492)
(-2.01667e-06 -5.41674e-06 -0.000994076)
(-2.82519e-06 -6.98551e-06 -0.00099221)
(-3.93222e-06 -9.02193e-06 -0.000989746)
(-5.44316e-06 -1.16688e-05 -0.000986492)
(-7.5009e-06 -1.51158e-05 -0.000982234)
(-1.03073e-05 -1.96293e-05 -0.000976775)
(-1.41775e-05 -2.56264e-05 -0.000969272)
(-1.95675e-05 -3.36597e-05 -0.000955778)
(-2.54234e-05 -4.19761e-05 -0.000937535)
(-3.21612e-05 -5.13797e-05 -0.000937876)
(-3.4627e-05 -5.39269e-05 -0.00105912)
(-4.00331e-05 -5.6585e-05 -0.000376538)
(8.10399e-05 0.000107236 -0.00194306)
(-4.81061e-06 -6.56278e-06 -0.00167642)
(-3.06804e-05 -5.88817e-05 -0.0015397)
(-2.11364e-05 -4.6534e-05 -0.00238389)
(-5.58866e-05 -4.36435e-05 -0.00214498)
(-7.41082e-05 -5.70672e-05 -0.0024101)
(-2.68162e-05 -5.38439e-06 -0.00181443)
(-4.27265e-05 5.52306e-05 -0.00259264)
(1.3585e-05 9.45936e-05 -0.00174844)
(4.00753e-05 0.000117848 -0.00234918)
(-2.05562e-05 1.61273e-05 -0.00229619)
(1.53836e-05 1.99215e-05 -0.0016787)
(2.79202e-05 4.07341e-05 -0.00164859)
(-1.00431e-05 3.759e-05 -0.00184604)
(6.52247e-06 1.93716e-06 -0.00100844)
(6.33772e-05 3.24603e-05 -0.000886776)
(6.28453e-05 2.99259e-05 -0.000917149)
(4.99886e-05 2.26138e-05 -0.000943581)
(3.90383e-05 1.66246e-05 -0.000957026)
(3.04978e-05 1.21843e-05 -0.000966558)
(2.38623e-05 8.90214e-06 -0.000974028)
(1.87016e-05 6.48475e-06 -0.00097985)
(1.46812e-05 4.70398e-06 -0.000984353)
(1.15434e-05 3.39461e-06 -0.000987833)
(9.09024e-06 2.43544e-06 -0.000990527)
(7.16895e-06 1.7356e-06 -0.000992615)
(5.66177e-06 1.22696e-06 -0.000994235)
(4.47757e-06 8.58834e-07 -0.000995494)
(3.54576e-06 5.93746e-07 -0.000996473)
(2.81154e-06 4.04033e-07 -0.000997236)
(2.23228e-06 2.69315e-07 -0.000997831)
(1.77471e-06 1.74577e-07 -0.000998297)
(1.41288e-06 1.08769e-07 -0.000998661)
(1.12642e-06 6.37629e-08 -0.000998946)
(8.99393e-07 3.35885e-08 -0.00099917)
(7.19232e-07 1.38633e-08 -0.000999345)
(5.76062e-07 1.38119e-09 -0.000999483)
(4.62124e-07 -6.14639e-09 -0.00099959)
(3.7129e-07 -1.03964e-08 -0.000999674)
(2.98742e-07 -1.25476e-08 -0.000999739)
(2.40696e-07 -1.34174e-08 -0.000999789)
(1.94184e-07 -1.3559e-08 -0.000999829)
(1.56879e-07 -1.33367e-08 -0.000999859)
(1.26966e-07 -1.29765e-08 -0.000999884)
(1.03033e-07 -1.26069e-08 -0.000999904)
(8.3986e-08 -1.22883e-08 -0.000999921)
(6.89816e-08 -1.20365e-08 -0.000999936)
(5.73514e-08 -1.18429e-08 -0.00099995)
(4.85151e-08 -1.16797e-08 -0.000999962)
(4.20163e-08 -1.14669e-08 -0.000999976)
(3.90527e-08 -1.12337e-08 -0.000999986)
)
;

boundaryField
{
    inlet
    {
        type            zeroGradient;
    }
    outlet
    {
        type            zeroGradient;
    }
    repeat_boundary
    {
        type            slip;
    }
    procBoundary0to1
    {
        type            processor;
        value           nonuniform List<vector> 
90
(
(1.553e-09 -2.45972e-09 -0.00099998)
(2.36019e-09 -4.42973e-09 -0.000999978)
(3.45055e-09 -6.86109e-09 -0.000999976)
(4.67245e-09 -9.5872e-09 -0.000999972)
(6.02459e-09 -1.26739e-08 -0.000999968)
(7.5155e-09 -1.62117e-08 -0.000999963)
(9.13992e-09 -2.02922e-08 -0.000999956)
(1.08713e-08 -2.50048e-08 -0.000999949)
(1.2655e-08 -3.04356e-08 -0.00099994)
(1.43981e-08 -3.66626e-08 -0.00099993)
(1.59558e-08 -4.37498e-08 -0.000999918)
(1.71097e-08 -5.17347e-08 -0.000999905)
(1.75383e-08 -6.06097e-08 -0.000999891)
(1.67761e-08 -7.02952e-08 -0.000999874)
(1.41575e-08 -8.05998e-08 -0.000999856)
(8.74647e-09 -9.11666e-08 -0.000999837)
(-7.421e-10 -1.01408e-07 -0.000999817)
(-1.61101e-08 -1.10381e-07 -0.000999797)
(-4.00064e-08 -1.16566e-07 -0.000999781)
(-7.60819e-08 -1.17703e-07 -0.00099977)
(-1.29354e-07 -1.10489e-07 -0.00099977)
(-2.06718e-07 -9.01409e-08 -0.000999788)
(-3.17586e-07 -4.98747e-08 -0.000999832)
(-4.74671e-07 1.96321e-08 -0.000999917)
(-6.95322e-07 1.31559e-07 -0.00100006)
(-1.00322e-06 3.04495e-07 -0.00100029)
(-1.43046e-06 5.64175e-07 -0.00100065)
(-2.02049e-06 9.4611e-07 -0.00100119)
(-2.83211e-06 1.49915e-06 -0.00100198)
(-3.94474e-06 2.2903e-06 -0.00100311)
(-5.46556e-06 3.41127e-06 -0.00100473)
(-7.53943e-06 4.9878e-06 -0.00100705)
(-1.03669e-05 7.19488e-06 -0.00101054)
(-1.42642e-05 1.03041e-05 -0.00101538)
(-1.98538e-05 1.48563e-05 -0.00101793)
(-2.58526e-05 1.98639e-05 -0.00101172)
(-3.25952e-05 2.64618e-05 -0.00103924)
(-3.44634e-05 2.99761e-05 -0.00127301)
(-3.79685e-05 2.97574e-05 -0.000356493)
(7.31019e-05 -4.31761e-05 -0.00258769)
(-1.75787e-06 3.32212e-06 -0.00120652)
(-6.24395e-05 2.41553e-05 -0.00298274)
(-1.49407e-05 2.76828e-05 -0.00192697)
(-7.69192e-05 3.65052e-05 -0.00319258)
(-6.61451e-05 -2.35167e-05 -0.00226441)
(-7.20026e-05 5.13139e-07 -0.00325305)
(-3.04341e-05 7.02693e-05 -0.00197455)
(-1.05113e-05 0.000149446 -0.00331871)
(3.89814e-05 5.76755e-05 -0.0023291)
(-2.71081e-05 -5.25478e-06 -0.00275437)
(-9.91075e-06 -1.35842e-05 -0.00265061)
(1.99461e-05 1.73055e-05 -0.00168326)
(-8.67818e-06 1.58535e-05 -0.0024711)
(7.87822e-05 -4.2439e-05 -0.00109107)
(8.21606e-05 -5.7141e-05 -0.00107571)
(6.36911e-05 -4.69281e-05 -0.00108732)
(4.93144e-05 -3.59447e-05 -0.00107197)
(3.8569e-05 -2.74777e-05 -0.00105579)
(3.02193e-05 -2.10113e-05 -0.00104331)
(2.36987e-05 -1.60692e-05 -0.00103383)
(1.86054e-05 -1.22993e-05 -0.00102648)
(1.46244e-05 -9.41932e-06 -0.00102076)
(1.15098e-05 -7.21794e-06 -0.0010163)
(9.07028e-06 -5.53549e-06 -0.00101281)
(7.15706e-06 -4.24943e-06 -0.00101009)
(5.65465e-06 -3.26574e-06 -0.00100796)
(4.4733e-06 -2.51268e-06 -0.00100628)
(3.54319e-06 -1.93563e-06 -0.00100497)
(2.80999e-06 -1.49304e-06 -0.00100393)
(2.23133e-06 -1.15328e-06 -0.00100312)
(1.77414e-06 -8.92261e-07 -0.00100247)
(1.41253e-06 -6.91565e-07 -0.00100197)
(1.12621e-06 -5.37122e-07 -0.00100156)
(8.99261e-07 -4.18152e-07 -0.00100125)
(7.19151e-07 -3.26388e-07 -0.00100099)
(5.76012e-07 -2.55481e-07 -0.00100079)
(4.62093e-07 -2.0056e-07 -0.00100063)
(3.7127e-07 -1.57886e-07 -0.00100051)
(2.9873e-07 -1.24599e-07 -0.0010004)
(2.40689e-07 -9.85165e-08 -0.00100032)
(1.94179e-07 -7.79787e-08 -0.00100026)
(1.56876e-07 -6.17328e-08 -0.0010002)
(1.26964e-07 -4.8838e-08 -0.00100016)
(1.03032e-07 -3.85936e-08 -0.00100012)
(8.39855e-08 -3.04815e-08 -0.00100009)
(6.89814e-08 -2.41222e-08 -0.00100007)
(5.73518e-08 -1.92338e-08 -0.00100005)
(4.85183e-08 -1.55788e-08 -0.00100004)
(4.20126e-08 -1.29154e-08 -0.00100002)
(3.90522e-08 -1.1688e-08 -0.00100002)
)
;
    }
    procBoundary0to2
    {
        type            processor;
        value           nonuniform List<vector> 
90
(
(2.767e-09 -3.67367e-09 -0.00100003)
(5.16851e-09 -7.23804e-09 -0.00100003)
(8.09317e-09 -1.15038e-08 -0.00100003)
(1.13959e-08 -1.63107e-08 -0.00100004)
(1.52022e-08 -2.18515e-08 -0.00100004)
(1.97018e-08 -2.83981e-08 -0.00100005)
(2.5135e-08 -3.62873e-08 -0.00100006)
(3.18044e-08 -4.59379e-08 -0.00100008)
(4.00928e-08 -5.78735e-08 -0.0010001)
(5.04868e-08 -7.27515e-08 -0.00100012)
(6.3607e-08 -9.14014e-08 -0.00100015)
(8.02488e-08 -1.14874e-07 -0.00100019)
(1.01435e-07 -1.44507e-07 -0.00100023)
(1.28486e-07 -1.82007e-07 -0.00100029)
(1.63113e-07 -2.29557e-07 -0.00100037)
(2.07535e-07 -2.89958e-07 -0.00100046)
(2.6464e-07 -3.66795e-07 -0.00100058)
(3.38186e-07 -4.64684e-07 -0.00100074)
(4.33071e-07 -5.89654e-07 -0.00100093)
(5.55693e-07 -7.49493e-07 -0.00100118)
(7.14412e-07 -9.54278e-07 -0.0010015)
(9.20184e-07 -1.21708e-06 -0.0010019)
(1.18735e-06 -1.55486e-06 -0.00100242)
(1.53461e-06 -1.98971e-06 -0.00100309)
(1.98654e-06 -2.5504e-06 -0.00100394)
(2.5756e-06 -3.27448e-06 -0.00100504)
(3.3445e-06 -4.21101e-06 -0.00100646)
(4.34952e-06 -5.42425e-06 -0.00100829)
(5.66497e-06 -6.99847e-06 -0.00101066)
(7.38904e-06 -9.0443e-06 -0.00101373)
(9.65162e-06 -1.17072e-05 -0.00101771)
(1.26251e-05 -1.51786e-05 -0.00102293)
(1.65409e-05 -1.97152e-05 -0.00102999)
(2.17162e-05 -2.5674e-05 -0.00103915)
(2.85624e-05 -3.3517e-05 -0.00104657)
(3.71398e-05 -4.3194e-05 -0.00104391)
(4.5627e-05 -5.17781e-05 -0.00108161)
(4.8289e-05 -5.28096e-05 -0.00134073)
(4.35867e-05 -5.16147e-05 -0.00036026)
(-6.67238e-05 9.6225e-05 -0.00276869)
(6.04211e-06 -3.24735e-06 -0.00131115)
(6.90931e-05 -0.000103401 -0.00294044)
(6.10694e-05 -4.83758e-05 -0.00232439)
(1.91284e-05 -6.47465e-05 -0.00316122)
(-4.0284e-05 -5.2492e-05 -0.00217218)
(-6.34198e-05 -2.74865e-05 -0.00320806)
(-2.52998e-05 6.0948e-05 -0.00224881)
(-4.75082e-05 0.000177328 -0.00334799)
(4.523e-06 7.87028e-05 -0.00180149)
(-5.68525e-05 1.63511e-05 -0.00331499)
(-1.8992e-05 2.04905e-05 -0.00206006)
(-1.17874e-05 4.05284e-05 -0.00204864)
(-1.12261e-05 0.000128226 -0.00206005)
(2.62517e-05 6.8746e-05 -0.00145111)
(-1.9492e-05 4.56084e-05 -0.000919823)
(-1.56939e-05 3.21648e-05 -0.00102018)
(-9.23701e-06 2.25678e-05 -0.0010177)
(-5.36729e-06 1.64856e-05 -0.0010106)
(-2.87127e-06 1.21017e-05 -0.00100593)
(-1.21348e-06 8.85789e-06 -0.00100311)
(-1.45577e-07 6.4614e-06 -0.0010013)
(5.19666e-07 4.69166e-06 -0.00100016)
(9.07767e-07 3.38808e-06 -0.000999449)
(1.10532e-06 2.43197e-06 -0.000999028)
(1.17546e-06 1.73375e-06 -0.000998811)
(1.16395e-06 1.22597e-06 -0.000998733)
(1.10296e-06 8.58303e-07 -0.000998744)
(1.01452e-06 5.93461e-07 -0.000998809)
(9.13346e-07 4.0388e-07 -0.000998904)
(8.08997e-07 2.69233e-07 -0.000999012)
(7.07465e-07 1.74533e-07 -0.000999124)
(6.12296e-07 1.08745e-07 -0.000999233)
(5.2539e-07 6.37501e-08 -0.000999335)
(4.47562e-07 3.35816e-08 -0.000999429)
(3.78927e-07 1.38596e-08 -0.000999513)
(3.19167e-07 1.37913e-09 -0.000999588)
(2.67691e-07 -6.14753e-09 -0.000999652)
(2.23788e-07 -1.03971e-08 -0.000999708)
(1.86683e-07 -1.2548e-08 -0.000999755)
(1.55593e-07 -1.34176e-08 -0.000999795)
(1.29762e-07 -1.35592e-08 -0.000999829)
(1.08481e-07 -1.33368e-08 -0.000999857)
(9.11036e-08 -1.29768e-08 -0.000999881)
(7.70456e-08 -1.26071e-08 -0.000999901)
(6.57927e-08 -1.2288e-08 -0.000999918)
(5.68959e-08 -1.20363e-08 -0.000999934)
(4.99611e-08 -1.18428e-08 -0.000999948)
(4.46196e-08 -1.16798e-08 -0.000999961)
(4.05638e-08 -1.1467e-08 -0.000999975)
(3.85977e-08 -1.12339e-08 -0.000999986)
)
;
    }
}


// ************************************************************************* //
