/*--------------------------------*- C++ -*----------------------------------*\
| =========                 |                                                 |
| \\      /  F ield         | OpenFOAM: The Open Source CFD Toolbox           |
|  \\    /   O peration     | Version:  5.x                                   |
|   \\  /    A nd           | Web:      www.OpenFOAM.org                      |
|    \\/     M anipulation  |                                                 |
\*---------------------------------------------------------------------------*/
FoamFile
{
    version     2.0;
    format      ascii;
    class       volScalarField;
    location    "30000";
    object      p;
}
// * * * * * * * * * * * * * * * * * * * * * * * * * * * * * * * * * * * * * //

dimensions      [0 2 -2 0 0 0 0];

internalField   nonuniform List<scalar> 
2250
(
2.29139e-09
2.25587e-09
2.12148e-09
1.9323e-09
1.7151e-09
2.26027e-09
2.23284e-09
2.13617e-09
2.00318e-09
1.86061e-09
2.24943e-09
2.23453e-09
2.17197e-09
2.08683e-09
2.00563e-09
2.24697e-09
2.24293e-09
2.20451e-09
2.15197e-09
2.11162e-09
2.24662e-09
2.2477e-09
2.22056e-09
2.18343e-09
2.16079e-09
6.77598e-09
6.66133e-09
6.31956e-09
5.86508e-09
5.36021e-09
6.68399e-09
6.601e-09
6.35595e-09
6.02849e-09
5.68567e-09
6.66237e-09
6.61724e-09
6.45744e-09
6.24261e-09
6.02844e-09
6.66367e-09
6.64848e-09
6.54477e-09
6.40437e-09
6.27755e-09
6.6642e-09
6.65852e-09
6.57833e-09
6.46956e-09
6.37828e-09
1.1001e-08
1.08352e-08
1.04324e-08
9.94032e-09
9.44985e-09
1.08909e-08
1.07759e-08
1.04809e-08
1.00982e-08
9.73703e-09
1.08781e-08
1.08156e-08
1.06128e-08
1.03393e-08
1.00642e-08
1.08929e-08
1.08652e-08
1.07194e-08
1.05179e-08
1.0307e-08
1.08929e-08
1.08675e-08
1.07423e-08
1.05685e-08
1.03809e-08
1.48803e-08
1.47259e-08
1.44223e-08
1.40659e-08
1.37482e-08
1.48208e-08
1.47192e-08
1.44851e-08
1.41724e-08
1.38979e-08
1.48389e-08
1.47769e-08
1.45917e-08
1.4327e-08
1.40531e-08
1.487e-08
1.48276e-08
1.46666e-08
1.44304e-08
1.41526e-08
1.48664e-08
1.48128e-08
1.4656e-08
1.44289e-08
1.41461e-08
1.85073e-08
1.84276e-08
1.83247e-08
1.81594e-08
1.79938e-08
1.85386e-08
1.84831e-08
1.83808e-08
1.82073e-08
1.8014e-08
1.85885e-08
1.85384e-08
1.84144e-08
1.82099e-08
1.79567e-08
1.86257e-08
1.85676e-08
1.84189e-08
1.81829e-08
1.78675e-08
1.86168e-08
1.85349e-08
1.83704e-08
1.81204e-08
1.77785e-08
2.21093e-08
2.21328e-08
2.2248e-08
2.22983e-08
2.22359e-08
2.22116e-08
2.2208e-08
2.22426e-08
2.22247e-08
2.2087e-08
2.22638e-08
2.22275e-08
2.21812e-08
2.20707e-08
2.18563e-08
2.22835e-08
2.22141e-08
2.21054e-08
2.19181e-08
2.16234e-08
2.22671e-08
2.21719e-08
2.20344e-08
2.18168e-08
2.14942e-08
2.59273e-08
2.60319e-08
2.62839e-08
2.65202e-08
2.66192e-08
2.60254e-08
2.60582e-08
2.61805e-08
2.62927e-08
2.6264e-08
2.60301e-08
2.6008e-08
2.60321e-08
2.60293e-08
2.59129e-08
2.60054e-08
2.59406e-08
2.58947e-08
2.58058e-08
2.5622e-08
2.59798e-08
2.58994e-08
2.58241e-08
2.57028e-08
2.55032e-08
3.00711e-08
3.01998e-08
3.04514e-08
3.07654e-08
3.10566e-08
3.00745e-08
3.01217e-08
3.02626e-08
3.04414e-08
3.05679e-08
2.99952e-08
2.99902e-08
3.00621e-08
3.01516e-08
3.01897e-08
2.99146e-08
2.98758e-08
2.99001e-08
2.9932e-08
2.99271e-08
2.98807e-08
2.98424e-08
2.98476e-08
2.98575e-08
2.98432e-08
3.44317e-08
3.45284e-08
3.46674e-08
3.49032e-08
3.52791e-08
3.43016e-08
3.43456e-08
3.44524e-08
3.46197e-08
3.48587e-08
3.41512e-08
3.41667e-08
3.42592e-08
3.44003e-08
3.45753e-08
3.40366e-08
3.4039e-08
3.41201e-08
3.42482e-08
3.43995e-08
3.40034e-08
3.40198e-08
3.40959e-08
3.42143e-08
3.43469e-08
3.87288e-08
3.87713e-08
3.87825e-08
3.88676e-08
3.9152e-08
3.85328e-08
3.85702e-08
3.86334e-08
3.87496e-08
3.8996e-08
3.83896e-08
3.84296e-08
3.85263e-08
3.8678e-08
3.89005e-08
3.8301e-08
3.83494e-08
3.84628e-08
3.86328e-08
3.8843e-08
3.82898e-08
3.83576e-08
3.84749e-08
3.86406e-08
3.88241e-08
4.26869e-08
4.27044e-08
4.26792e-08
4.27027e-08
4.2893e-08
4.25895e-08
4.2637e-08
4.26935e-08
4.2787e-08
4.29851e-08
4.25738e-08
4.26479e-08
4.27562e-08
4.29092e-08
4.3109e-08
4.25922e-08
4.26872e-08
4.28191e-08
4.29967e-08
4.32015e-08
4.2633e-08
4.27418e-08
4.28771e-08
4.30521e-08
4.32465e-08
4.61999e-08
4.62543e-08
4.63219e-08
4.64696e-08
4.67693e-08
4.63781e-08
4.64673e-08
4.65797e-08
4.6734e-08
4.6971e-08
4.66022e-08
4.67268e-08
4.68814e-08
4.70786e-08
4.73039e-08
4.67976e-08
4.69424e-08
4.71096e-08
4.73228e-08
4.75728e-08
4.6915e-08
4.70579e-08
4.72236e-08
4.74397e-08
4.77092e-08
4.93285e-08
4.94718e-08
4.97266e-08
5.01604e-08
5.08451e-08
4.98867e-08
5.00529e-08
5.02947e-08
5.06221e-08
5.111e-08
5.04144e-08
5.06108e-08
5.08732e-08
5.12091e-08
5.16295e-08
5.08208e-08
5.10247e-08
5.12837e-08
5.16262e-08
5.20673e-08
5.10235e-08
5.12087e-08
5.14644e-08
5.18186e-08
5.22928e-08
5.2163e-08
5.24303e-08
5.29329e-08
5.3731e-08
5.49577e-08
5.31229e-08
5.34036e-08
5.38578e-08
5.44745e-08
5.54016e-08
5.3967e-08
5.42614e-08
5.47151e-08
5.53155e-08
5.61216e-08
5.45827e-08
5.48676e-08
5.53073e-08
5.59116e-08
5.67152e-08
5.48706e-08
5.5129e-08
5.55682e-08
5.61923e-08
5.70221e-08
5.47186e-08
5.51502e-08
5.59586e-08
5.71469e-08
5.88788e-08
5.60694e-08
5.65023e-08
5.72529e-08
5.82657e-08
5.9705e-08
5.72193e-08
5.76444e-08
5.83813e-08
5.93784e-08
6.07038e-08
5.80351e-08
5.84389e-08
5.91611e-08
6.01683e-08
6.14785e-08
5.84165e-08
5.87972e-08
5.95232e-08
6.0555e-08
6.18759e-08
5.69049e-08
5.7542e-08
5.87182e-08
6.03469e-08
6.25247e-08
5.86648e-08
5.9284e-08
6.04097e-08
6.19305e-08
6.39312e-08
6.01361e-08
6.0732e-08
6.18417e-08
6.33634e-08
6.53047e-08
6.11737e-08
6.17463e-08
6.28486e-08
6.43885e-08
6.63104e-08
6.16769e-08
6.22369e-08
6.33469e-08
6.4907e-08
6.68182e-08
5.85284e-08
5.9408e-08
6.10329e-08
6.32354e-08
6.59858e-08
6.08008e-08
6.16465e-08
6.32364e-08
6.54056e-08
6.80935e-08
6.2689e-08
6.35061e-08
6.50829e-08
6.72594e-08
6.99247e-08
6.40301e-08
6.48306e-08
6.6409e-08
6.85983e-08
7.12293e-08
6.47105e-08
6.55114e-08
6.70958e-08
6.92871e-08
7.18843e-08
5.93247e-08
6.05051e-08
6.27109e-08
6.57042e-08
6.93101e-08
6.23354e-08
6.34693e-08
6.56449e-08
6.86362e-08
7.22062e-08
6.4848e-08
6.5956e-08
6.81169e-08
7.10965e-08
7.46335e-08
6.66529e-08
6.77546e-08
6.99154e-08
7.28812e-08
7.636e-08
6.76004e-08
6.87098e-08
7.08627e-08
7.38054e-08
7.7235e-08
5.89806e-08
6.05545e-08
6.35325e-08
6.76018e-08
7.24315e-08
6.30999e-08
6.46168e-08
6.75459e-08
7.15803e-08
7.63228e-08
6.65696e-08
6.80656e-08
7.09658e-08
7.49479e-08
7.96037e-08
6.90862e-08
7.05775e-08
7.34543e-08
7.73835e-08
8.19535e-08
7.04248e-08
7.19156e-08
7.47631e-08
7.86527e-08
8.31764e-08
5.71149e-08
5.9214e-08
6.32194e-08
6.8736e-08
7.5305e-08
6.28886e-08
6.49252e-08
6.88436e-08
7.42402e-08
8.06097e-08
6.7782e-08
6.97926e-08
7.36475e-08
7.89383e-08
8.51362e-08
7.13436e-08
7.33307e-08
7.7123e-08
8.23219e-08
8.83932e-08
7.32304e-08
7.51988e-08
7.89462e-08
8.41021e-08
9.01377e-08
5.3258e-08
5.60762e-08
6.14626e-08
6.89205e-08
7.78535e-08
6.14343e-08
6.41771e-08
6.94227e-08
7.66533e-08
8.52416e-08
6.83702e-08
7.10593e-08
7.6187e-08
8.32464e-08
9.15717e-08
7.34089e-08
7.60437e-08
8.10669e-08
8.79918e-08
9.61217e-08
7.6058e-08
7.86621e-08
8.36301e-08
9.05027e-08
9.85801e-08
4.68119e-08
5.06295e-08
5.79111e-08
6.79959e-08
8.00052e-08
5.83834e-08
6.20865e-08
6.9147e-08
7.88802e-08
9.04073e-08
6.81893e-08
7.17917e-08
7.86564e-08
8.81201e-08
9.9279e-08
7.52951e-08
7.88145e-08
8.55248e-08
9.4786e-08
1.05656e-07
7.90196e-08
8.25017e-08
8.91339e-08
9.83013e-08
1.09065e-07
3.69899e-08
4.2203e-08
5.21226e-08
6.58251e-08
8.20012e-08
5.33017e-08
5.83261e-08
6.78841e-08
8.10427e-08
9.65266e-08
6.71134e-08
7.19733e-08
8.12098e-08
9.39212e-08
1.08845e-07
7.71105e-08
8.18495e-08
9.0848e-08
1.03237e-07
1.17751e-07
8.2347e-08
8.70277e-08
9.58977e-08
1.08112e-07
1.22426e-07
2.27724e-08
2.99143e-08
4.34709e-08
6.21287e-08
8.40704e-08
4.56743e-08
5.25154e-08
6.54765e-08
8.32758e-08
1.04148e-07
6.5051e-08
7.1629e-08
8.40668e-08
1.01137e-07
1.21112e-07
7.90594e-08
8.54443e-08
9.75037e-08
1.14058e-07
1.33434e-07
8.63845e-08
9.26656e-08
1.04521e-07
1.20782e-07
1.39807e-07
2.7824e-09
1.25501e-08
3.1038e-08
5.63823e-08
8.61137e-08
3.48267e-08
4.41229e-08
6.16618e-08
8.56804e-08
1.13788e-07
6.18954e-08
7.07756e-08
8.75039e-08
1.10401e-07
1.37126e-07
8.14243e-08
8.99998e-08
1.06143e-07
1.28238e-07
1.54051e-07
9.16121e-08
1.00024e-07
1.15863e-07
1.37505e-07
1.62772e-07
-2.49407e-08
-1.16225e-08
1.35298e-08
4.79656e-08
8.83101e-08
1.98059e-08
3.23881e-08
5.60905e-08
8.84855e-08
1.26341e-07
5.75085e-08
6.94639e-08
9.19519e-08
1.2265e-07
1.584e-07
8.4644e-08
9.61483e-08
1.1776e-07
1.47228e-07
1.81534e-07
9.87717e-08
1.1004e-07
1.31203e-07
1.60016e-07
1.93501e-07
-6.31616e-08
-4.50373e-08
-1.08196e-08
3.60492e-08
9.08828e-08
-6.68393e-10
1.63566e-08
4.84195e-08
9.21668e-08
1.43192e-07
5.18114e-08
6.79177e-08
9.8173e-08
1.39333e-07
1.87133e-07
8.94724e-08
1.04926e-07
1.33888e-07
1.73193e-07
2.18675e-07
1.09038e-07
1.24152e-07
1.52455e-07
1.90815e-07
2.35061e-07
-1.15552e-07
-9.08464e-08
-4.42177e-08
1.95772e-08
9.39286e-08
-2.81388e-08
-5.03866e-09
3.84067e-08
9.75211e-08
1.66143e-07
4.49114e-08
6.66791e-08
1.07461e-07
1.62676e-07
2.2639e-07
9.71261e-08
1.17959e-07
1.56849e-07
2.09302e-07
2.69437e-07
1.24181e-07
1.44524e-07
1.82442e-07
2.33477e-07
2.91769e-07
-1.86774e-07
-1.5303e-07
-8.93338e-08
-2.42084e-09
9.85427e-08
-6.43525e-08
-3.29206e-08
2.60817e-08
1.06008e-07
1.98171e-07
3.72248e-08
6.67914e-08
1.21929e-07
1.96074e-07
2.80737e-07
1.09439e-07
1.37712e-07
1.90111e-07
2.60171e-07
3.39425e-07
1.46731e-07
1.74328e-07
2.25286e-07
2.93207e-07
3.69669e-07
-2.8276e-07
-2.36694e-07
-1.49456e-07
-3.1019e-08
1.06413e-07
-1.11205e-07
-6.83244e-08
1.20831e-08
1.20219e-07
2.43939e-07
2.96585e-08
7.00889e-08
1.44976e-07
2.44712e-07
3.56912e-07
1.29042e-07
1.67848e-07
2.38838e-07
3.32709e-07
4.36653e-07
1.80157e-07
2.18134e-07
2.87016e-07
3.77838e-07
4.77426e-07
-4.10711e-07
-3.47959e-07
-2.28043e-07
-6.70373e-08
1.20004e-07
-1.70448e-07
-1.1185e-07
-1.62109e-09
1.44827e-07
3.10632e-07
2.3803e-08
7.96019e-08
1.82057e-07
3.16889e-07
4.6492e-07
1.59435e-07
2.1371e-07
3.1071e-07
4.37846e-07
5.72763e-07
2.28916e-07
2.82498e-07
3.76356e-07
4.99669e-07
6.27341e-07
-5.78241e-07
-4.93688e-07
-3.26977e-07
-1.09503e-07
1.45242e-07
-2.43015e-07
-1.63285e-07
-1.02708e-08
1.8862e-07
4.10058e-07
2.1945e-08
9.98957e-08
2.41698e-07
4.26427e-07
6.19355e-07
2.04495e-07
2.82905e-07
4.16629e-07
5.94019e-07
7.63867e-07
2.9788e-07
3.77094e-07
5.04991e-07
6.79606e-07
8.35854e-07
-7.8923e-07
-6.80508e-07
-4.3968e-07
-1.53149e-07
1.94361e-07
-3.2732e-07
-2.22033e-07
-3.52386e-09
2.67933e-07
5.59221e-07
2.66453e-08
1.3676e-07
3.35984e-07
5.97191e-07
8.37392e-07
2.66466e-07
3.86218e-07
5.69195e-07
8.37257e-07
1.02688e-06
3.9016e-07
5.17972e-07
6.83536e-07
9.61139e-07
1.11809e-06
-1.02154e-06
-9.0916e-07
-5.19837e-07
-1.80111e-07
2.90012e-07
-4.14652e-07
-2.93166e-07
3.86959e-08
4.14596e-07
7.72243e-07
3.94242e-08
1.94572e-07
4.77706e-07
8.7584e-07
1.12339e-06
3.4037e-07
5.41722e-07
7.70026e-07
1.25369e-06
1.35814e-06
5.00981e-07
7.4322e-07
8.97033e-07
1.45356e-06
1.46079e-06
-1.18605e-06
-1.17119e-06
-4.2748e-07
-1.18966e-07
4.63815e-07
-4.79292e-07
-4.15531e-07
1.42079e-07
7.00013e-07
1.02359e-06
5.84231e-08
2.67169e-07
6.68101e-07
1.3525e-06
1.42955e-06
3.99527e-07
7.8925e-07
9.71213e-07
2.0321e-06
1.69951e-06
6.02334e-07
1.14048e-06
1.06177e-06
2.39201e-06
1.7915e-06
-1.13289e-06
-1.43487e-06
3.71917e-08
2.53189e-07
7.35076e-07
-4.46913e-07
-6.56371e-07
3.32881e-07
1.26878e-06
1.26067e-06
9.41209e-08
3.21493e-07
8.96148e-07
2.10511e-06
1.67843e-06
3.63443e-07
1.16968e-06
1.09961e-06
3.47109e-06
2.01131e-06
6.2935e-07
1.83635e-06
1.07742e-06
4.14351e-06
2.08595e-06
-6.5237e-07
-1.82138e-06
1.11467e-06
1.1875e-06
1.02593e-06
8.27203e-08
-1.11036e-06
6.20439e-07
2.24481e-06
1.45158e-06
2.25183e-07
1.33754e-07
1.13687e-06
3.03203e-06
1.76399e-06
1.34626e-09
1.58814e-06
1.07842e-06
5.80627e-06
2.30841e-06
4.7864e-07
2.91122e-06
8.94874e-07
7.47024e-06
2.45391e-06
-9.48888e-06
-9.56889e-06
-2.67185e-06
-5.42614e-06
-1.25804e-06
-9.61329e-06
-1.02664e-05
-5.15349e-06
-3.18297e-06
-1.68416e-08
-6.49208e-06
-5.77632e-06
-3.3898e-06
-2.53209e-06
1.3278e-07
-2.64532e-06
-1.95043e-06
-2.46106e-06
3.88794e-06
1.38686e-06
-2.26663e-07
1.77875e-06
-6.0843e-07
4.0102e-06
3.23536e-06
2.37844e-05
1.53316e-05
3.00731e-05
2.76554e-05
1.37148e-05
2.63989e-05
1.29442e-05
2.03723e-05
2.63645e-05
5.73155e-06
1.53301e-05
8.16516e-06
1.49194e-05
1.96902e-05
6.3826e-06
7.09914e-06
1.36473e-05
8.88034e-06
3.18185e-05
6.50896e-06
6.37428e-06
1.89959e-05
5.76046e-06
4.57564e-05
1.68143e-06
-4.39922e-05
-3.91992e-05
-2.41247e-05
-3.34169e-05
2.22411e-07
-4.99019e-05
-4.67271e-05
-3.45463e-05
-2.68393e-05
1.76989e-05
-2.86499e-05
-2.90004e-05
-2.29005e-05
-2.01747e-05
1.03622e-06
-7.48773e-06
-2.19889e-05
-2.02408e-05
-6.8436e-06
5.64195e-07
5.72732e-06
-1.14946e-05
3.49216e-06
-5.62888e-06
5.41283e-05
4.61222e-05
-2.05409e-06
0.00013046
8.24766e-05
-1.19145e-05
0.000114116
-2.81439e-05
6.07151e-05
4.71335e-05
-8.23343e-05
1.40779e-05
-5.71482e-05
6.30907e-06
-2.9356e-06
-5.66763e-05
-1.72848e-05
-1.89503e-05
-4.03938e-05
9.0126e-06
-5.84221e-05
-9.9176e-06
-2.25065e-06
-5.31508e-05
0.000181484
-6.31996e-05
0.0011727
0.00064814
0.000499243
0.000640942
0.000851842
0.000955574
0.000977548
0.000529287
0.000664674
0.000276185
0.000973746
0.000703774
0.000589224
0.000739929
0.000748237
0.000747137
0.00104517
0.000883589
0.000932386
0.000829482
0.00120936
0.00054072
0.000773702
0.000880027
0.00071222
0.00176692
0.00158585
0.00118848
0.00102365
0.00127749
0.00148086
0.00143621
0.00113287
0.00148862
0.00163263
0.0019678
0.0015185
0.00121604
0.00121802
0.00190952
0.00141839
0.0016629
0.0015306
0.0017116
0.00173629
0.00132009
0.00127529
0.00141358
0.00118703
0.00187725
0.00192913
0.00220326
0.00233137
0.0021203
0.00262522
0.00201916
0.00183394
0.00196925
0.00199748
0.0020375
0.00199938
0.002119
0.00187383
0.0028511
0.00207248
0.00191722
0.00186036
0.00190603
0.00192943
0.00193421
0.00159984
0.00212868
0.00209479
0.00203633
0.00198571
0.00211795
0.00251803
0.00213712
0.00265963
0.0027939
0.00240365
0.00232427
0.00258038
0.00211761
0.00263564
0.00236897
0.00281785
0.00214102
0.00198663
0.00231108
0.00284691
0.00246089
0.00275072
0.00193694
0.0024979
0.00278477
0.00267097
0.00338523
0.00204093
0.0022683
0.00308716
0.00349962
0.00273903
0.00324673
0.00257952
0.00293184
0.0028892
0.00319738
0.00297281
0.00299929
0.00313943
0.00325569
0.00308995
0.00287412
0.00289358
0.00326774
0.00329527
0.0032978
0.00316264
0.00325592
0.00311067
0.00311447
0.0033613
0.0031219
0.00285591
0.00367892
0.00354358
0.00358706
0.00349759
0.00382147
0.00291392
0.00362548
0.00358292
0.00367329
0.00330675
0.0034883
0.00396496
0.00395295
0.00379042
0.00330709
0.00355066
0.00358685
0.0037831
0.00366954
0.00386485
0.00381885
0.0037088
0.00389896
0.00376196
0.00342925
0.00474505
0.00371098
0.00394958
0.00439228
0.00439609
0.0045779
0.00411985
0.00399079
0.00415887
0.00412607
0.00459772
0.00414832
0.00442473
0.00430634
0.00418277
0.00357006
0.00403178
0.00423855
0.00390995
0.00467835
0.00470236
0.00407804
0.0043753
0.00416173
0.00478205
0.00513057
0.00528812
0.00488757
0.00532647
0.00452284
0.00523929
0.00523754
0.00466721
0.00491249
0.00486536
0.00509028
0.0042946
0.0047985
0.0046758
0.00489954
0.00592645
0.00519793
0.00467552
0.00482054
0.00503518
0.00540114
0.00537828
0.00453739
0.00470591
0.00504383
0.00542564
0.0057489
0.00548822
0.00520297
0.0054993
0.00545204
0.00574771
0.00554699
0.005713
0.00529993
0.00551414
0.00583793
0.00570616
0.00583754
0.00586859
0.00563257
0.00568369
0.00559716
0.00558778
0.00531479
0.00578881
0.005799
0.00604264
0.00624012
0.00548193
0.00586058
0.00614093
0.00600855
0.00618626
0.00638566
0.00623452
0.00616636
0.00608845
0.00623619
0.0061197
0.006214
0.00621604
0.00616542
0.00623227
0.00626504
0.00595345
0.00610302
0.0063134
0.00626247
0.00618513
0.00623296
0.00632019
0.00642864
0.00636487
0.00635577
0.00638885
0.00636027
0.00638487
0.00641653
0.00639283
0.00641063
0.00640831
0.00638852
0.00633907
0.00639709
0.00643256
0.0063862
0.00636475
0.00638822
0.00638634
0.00641749
0.00642838
0.00642021
0.00640794
0.00643742
0.00636085
0.00640984
0.00637403
0.00641788
0.00642123
0.00637076
0.00634581
0.00637603
0.00632262
0.00637073
0.0063898
0.00637974
0.00638067
0.00636814
0.0063716
0.0063744
0.00638842
0.00638557
0.00637196
0.00637876
0.0063795
0.0063884
0.00638886
0.00638593
0.00637938
0.00638912
0.00639416
0.00638964
0.00639984
0.00638697
0.00636368
0.0063579
0.00636837
0.00635942
0.00636595
0.00637974
0.00637411
0.00637763
0.00636074
0.00636928
0.0063745
0.00637078
0.0063688
0.0063635
0.00636656
0.00638347
0.00638177
0.00637968
0.00637847
0.00637462
0.00637621
0.0063825
0.00637548
0.00638078
0.00637721
0.00636793
0.0063632
0.00636796
0.00635978
0.00636518
0.00637505
0.00637113
0.00637283
0.00636521
0.00636786
0.00637172
0.00637164
0.00637137
0.00636905
0.00636876
0.00637661
0.00637621
0.00637485
0.00637358
0.0063711
0.00637504
0.00637689
0.00637362
0.00637565
0.00637231
0.00636682
0.00636478
0.00636672
0.00636253
0.00636451
0.00637122
0.00636915
0.00636981
0.00636574
0.00636647
0.00636985
0.00636966
0.00636937
0.00636796
0.00636741
0.00637279
0.00637233
0.00637145
0.00637046
0.00636893
0.00637218
0.00637279
0.00637114
0.00637158
0.00636958
0.00636623
0.0063653
0.00636589
0.00636378
0.00636417
0.00636872
0.00636768
0.00636772
0.00636562
0.00636552
0.00636846
0.00636823
0.00636786
0.00636701
0.00636642
0.00637008
0.00636973
0.00636916
0.00636839
0.00636741
0.00636994
0.00637006
0.00636921
0.00636903
0.00636783
0.00636566
0.00636519
0.00636529
0.00636422
0.00636397
0.00636702
0.00636651
0.00636634
0.00636529
0.00636489
0.00636733
0.00636712
0.0063668
0.00636619
0.00636565
0.00636817
0.00636793
0.00636754
0.00636698
0.00636632
0.00636826
0.0063682
0.00636771
0.00636736
0.00636664
0.00636524
0.00636499
0.00636483
0.00636425
0.00636384
0.00636595
0.00636571
0.00636548
0.00636492
0.00636449
0.00636638
0.00636622
0.00636595
0.00636551
0.00636507
0.00636685
0.00636669
0.0063664
0.006366
0.00636553
0.006367
0.00636689
0.00636659
0.00636624
0.00636577
0.00636483
0.00636469
0.00636448
0.00636412
0.00636376
0.00636527
0.00636513
0.00636492
0.00636457
0.00636422
0.00636563
0.00636551
0.00636529
0.00636498
0.00636464
0.00636592
0.00636581
0.0063656
0.0063653
0.00636496
0.00636606
0.00636596
0.00636575
0.00636547
0.00636513
0.00636449
0.00636439
0.00636422
0.00636397
0.0063637
0.00636479
0.0063647
0.00636453
0.00636429
0.00636403
0.00636505
0.00636497
0.00636481
0.00636458
0.00636432
0.00636526
0.00636517
0.00636502
0.0063648
0.00636455
0.00636536
0.00636528
0.00636513
0.00636492
0.00636467
0.00636422
0.00636415
0.00636402
0.00636384
0.00636364
0.00636443
0.00636437
0.00636425
0.00636407
0.00636388
0.00636463
0.00636456
0.00636444
0.00636428
0.00636409
0.00636477
0.00636471
0.00636459
0.00636443
0.00636425
0.00636485
0.00636479
0.00636467
0.00636452
0.00636433
0.00636401
0.00636396
0.00636387
0.00636374
0.00636359
0.00636417
0.00636412
0.00636403
0.00636391
0.00636376
0.00636431
0.00636427
0.00636418
0.00636406
0.00636391
0.00636442
0.00636437
0.00636429
0.00636417
0.00636403
0.00636447
0.00636443
0.00636434
0.00636422
0.00636409
0.00636386
0.00636382
0.00636375
0.00636366
0.00636355
0.00636398
0.00636394
0.00636388
0.00636378
0.00636368
0.00636408
0.00636405
0.00636398
0.00636389
0.00636379
0.00636416
0.00636412
0.00636406
0.00636397
0.00636387
0.0063642
0.00636416
0.0063641
0.00636401
0.00636391
0.00636375
0.00636372
0.00636367
0.0063636
0.00636352
0.00636383
0.00636381
0.00636376
0.00636369
0.00636361
0.00636391
0.00636388
0.00636383
0.00636377
0.00636369
0.00636396
0.00636394
0.00636389
0.00636383
0.00636375
0.00636399
0.00636397
0.00636392
0.00636386
0.00636378
0.00636366
0.00636364
0.0063636
0.00636355
0.00636349
0.00636373
0.00636371
0.00636367
0.00636362
0.00636356
0.00636378
0.00636376
0.00636373
0.00636368
0.00636362
0.00636382
0.0063638
0.00636377
0.00636372
0.00636366
0.00636384
0.00636382
0.00636379
0.00636374
0.00636368
0.0063636
0.00636358
0.00636356
0.00636352
0.00636348
0.00636365
0.00636363
0.0063636
0.00636357
0.00636352
0.00636369
0.00636367
0.00636365
0.00636361
0.00636357
0.00636372
0.0063637
0.00636368
0.00636364
0.0063636
0.00636373
0.00636372
0.00636369
0.00636366
0.00636361
0.00636355
0.00636354
0.00636352
0.00636349
0.00636346
0.00636359
0.00636358
0.00636356
0.00636353
0.0063635
0.00636362
0.00636361
0.00636359
0.00636356
0.00636353
0.00636364
0.00636363
0.00636361
0.00636358
0.00636355
0.00636365
0.00636364
0.00636362
0.00636359
0.00636356
0.00636352
0.00636351
0.00636349
0.00636347
0.00636345
0.00636354
0.00636353
0.00636352
0.0063635
0.00636348
0.00636356
0.00636356
0.00636354
0.00636352
0.0063635
0.00636358
0.00636357
0.00636356
0.00636354
0.00636352
0.00636359
0.00636358
0.00636357
0.00636355
0.00636353
0.00636349
0.00636348
0.00636347
0.00636346
0.00636344
0.00636351
0.0063635
0.00636349
0.00636348
0.00636346
0.00636353
0.00636352
0.00636351
0.0063635
0.00636348
0.00636354
0.00636353
0.00636352
0.00636351
0.00636349
0.00636354
0.00636354
0.00636353
0.00636351
0.0063635
0.00636347
0.00636347
0.00636346
0.00636345
0.00636344
0.00636348
0.00636348
0.00636347
0.00636346
0.00636345
0.0063635
0.00636349
0.00636349
0.00636348
0.00636346
0.00636351
0.0063635
0.00636349
0.00636348
0.00636347
0.00636351
0.00636351
0.0063635
0.00636349
0.00636348
0.00636346
0.00636345
0.00636345
0.00636344
0.00636343
0.00636347
0.00636346
0.00636346
0.00636345
0.00636344
0.00636348
0.00636347
0.00636347
0.00636346
0.00636345
0.00636348
0.00636348
0.00636347
0.00636347
0.00636346
0.00636348
0.00636348
0.00636348
0.00636347
0.00636346
0.00636345
0.00636344
0.00636344
0.00636343
0.00636343
0.00636345
0.00636345
0.00636345
0.00636344
0.00636344
0.00636346
0.00636346
0.00636345
0.00636345
0.00636344
0.00636346
0.00636346
0.00636346
0.00636345
0.00636345
0.00636347
0.00636346
0.00636346
0.00636346
0.00636345
0.00636344
0.00636344
0.00636343
0.00636343
0.00636342
0.00636344
0.00636344
0.00636344
0.00636343
0.00636343
0.00636345
0.00636345
0.00636344
0.00636344
0.00636343
0.00636345
0.00636345
0.00636345
0.00636344
0.00636344
0.00636345
0.00636345
0.00636345
0.00636344
0.00636344
0.00636343
0.00636343
0.00636343
0.00636342
0.00636342
0.00636344
0.00636343
0.00636343
0.00636343
0.00636343
0.00636344
0.00636344
0.00636344
0.00636343
0.00636343
0.00636344
0.00636344
0.00636344
0.00636343
0.00636343
0.00636344
0.00636344
0.00636344
0.00636344
0.00636343
0.00636343
0.00636343
0.00636342
0.00636342
0.00636342
0.00636343
0.00636343
0.00636343
0.00636342
0.00636342
0.00636343
0.00636343
0.00636343
0.00636343
0.00636342
0.00636343
0.00636343
0.00636343
0.00636343
0.00636343
0.00636343
0.00636343
0.00636343
0.00636343
0.00636343
0.00636342
0.00636342
0.00636342
0.00636342
0.00636342
0.00636342
0.00636342
0.00636342
0.00636342
0.00636342
0.00636343
0.00636343
0.00636342
0.00636342
0.00636342
0.00636343
0.00636343
0.00636343
0.00636342
0.00636342
0.00636343
0.00636343
0.00636343
0.00636342
0.00636342
0.00636342
0.00636342
0.00636342
0.00636342
0.00636342
0.00636342
0.00636342
0.00636342
0.00636342
0.00636342
0.00636342
0.00636342
0.00636342
0.00636342
0.00636342
0.00636342
0.00636342
0.00636342
0.00636342
0.00636342
0.00636342
0.00636342
0.00636342
0.00636342
0.00636342
0.00636342
0.00636342
0.00636342
0.00636341
0.00636341
0.00636342
0.00636342
0.00636342
0.00636342
0.00636341
0.00636342
0.00636342
0.00636342
0.00636342
0.00636342
0.00636342
0.00636342
0.00636342
0.00636342
0.00636342
0.00636342
0.00636342
0.00636342
0.00636342
0.00636342
0.00636341
0.00636341
0.00636341
0.00636341
0.00636341
0.00636342
0.00636342
0.00636341
0.00636341
0.00636341
0.00636342
0.00636342
0.00636342
0.00636341
0.00636341
0.00636342
0.00636342
0.00636342
0.00636342
0.00636341
0.00636342
0.00636342
0.00636342
0.00636342
0.00636342
0.00636341
0.00636341
0.00636341
0.00636341
0.00636341
0.00636341
0.00636341
0.00636341
0.00636341
0.00636341
0.00636341
0.00636341
0.00636341
0.00636341
0.00636341
0.00636341
0.00636341
0.00636341
0.00636341
0.00636341
0.00636341
0.00636341
0.00636341
0.00636341
0.00636341
0.00636341
0.00636341
0.00636341
0.00636341
0.00636341
0.00636341
0.00636341
0.00636341
0.00636341
0.00636341
0.00636341
0.00636341
0.00636341
0.00636341
0.00636341
0.00636341
0.00636341
0.00636341
0.00636341
0.00636341
0.00636341
0.00636341
0.00636341
0.00636341
0.00636341
0.00636341
0.00636341
0.00636341
0.00636341
0.00636341
0.00636341
0.00636341
0.00636341
0.00636341
0.00636341
0.00636341
0.00636341
0.00636341
0.00636341
0.00636341
0.00636341
0.00636341
0.00636341
0.00636341
0.00636341
0.00636341
0.00636341
0.00636341
0.00636341
0.00636341
0.00636341
0.00636341
0.00636341
0.00636341
0.00636341
0.00636341
0.00636341
0.00636341
0.00636341
0.00636341
0.00636341
0.00636341
0.00636341
0.00636341
0.00636341
0.00636341
0.00636341
0.00636341
0.00636341
0.00636341
0.00636341
0.00636341
0.00636341
0.00636341
0.00636341
0.00636341
0.00636341
0.00636341
0.00636341
0.00636341
0.00636341
0.00636341
0.00636341
0.00636341
0.00636341
0.00636341
0.00636341
0.00636341
0.00636341
0.00636341
0.00636341
0.00636341
0.00636341
0.00636341
0.00636341
0.00636341
0.00636341
0.00636341
0.00636341
0.00636341
0.00636341
0.00636341
0.00636341
0.00636341
0.00636341
0.00636341
0.00636341
0.00636341
0.00636341
0.00636341
0.00636341
0.00636341
0.00636341
0.00636341
0.00636341
0.00636341
0.00636341
0.00636341
0.00636341
0.00636341
0.00636341
0.00636341
0.00636341
0.00636341
0.00636341
0.00636341
0.00636341
0.00636341
0.00636341
0.00636341
0.00636341
0.00636341
0.00636341
0.00636341
0.00636341
0.00636341
0.00636341
0.00636341
0.00636341
0.00636341
0.00636341
0.00636341
0.00636341
0.00636341
0.00636341
0.00636341
0.00636341
0.00636341
0.00636341
0.00636341
0.00636341
0.00636341
0.00636341
0.00636341
0.00636341
0.00636341
0.00636341
0.00636341
0.00636341
0.00636341
0.00636341
0.00636341
0.00636341
0.00636341
0.00636341
0.00636341
0.00636341
0.00636341
0.00636341
0.00636341
0.00636341
0.00636341
0.00636341
0.00636341
0.00636341
0.00636341
0.00636341
0.00636341
0.00636341
0.00636341
0.00636341
0.00636341
0.00636341
0.00636341
0.00636341
0.00636341
0.00636341
0.00636341
0.00636341
0.00636341
0.00636341
0.00636341
0.00636341
0.00636341
0.00636341
0.00636341
0.00636341
0.00636341
0.00636341
0.00636341
0.00636341
0.00636341
0.00636341
0.00636341
0.00636341
0.00636341
0.00636341
0.00636341
0.00636341
0.00636341
0.00636341
0.00636341
0.00636341
0.00636341
0.00636341
0.00636341
0.00636341
0.00636341
0.00636341
0.00636341
0.00636341
0.00636341
0.00636341
0.00636341
0.00636341
)
;

boundaryField
{
    inlet
    {
        type            zeroGradient;
    }
    outlet
    {
        type            fixedValue;
        value           uniform 0;
    }
    repeat_boundary
    {
        type            zeroGradient;
    }
    procBoundary2to0
    {
        type            processor;
        value           nonuniform List<scalar> 
450
(
2.27509e-09
2.22615e-09
2.07963e-09
1.88311e-09
1.67152e-09
6.72125e-09
6.57081e-09
6.19655e-09
5.70009e-09
5.1559e-09
1.09199e-08
1.07155e-08
1.02768e-08
9.68325e-09
9.00012e-09
1.4802e-08
1.46375e-08
1.43444e-08
1.39274e-08
1.33704e-08
1.84523e-08
1.83975e-08
1.83667e-08
1.83001e-08
1.80949e-08
2.20958e-08
2.21573e-08
2.23455e-08
2.25739e-08
2.27742e-08
2.59714e-08
2.61048e-08
2.637e-08
2.66944e-08
2.70842e-08
3.01643e-08
3.03062e-08
3.05143e-08
3.07562e-08
3.10642e-08
3.45242e-08
3.46196e-08
3.47053e-08
3.48053e-08
3.48822e-08
3.87395e-08
3.8767e-08
3.87523e-08
3.8761e-08
3.87144e-08
4.25308e-08
4.25207e-08
4.24948e-08
4.25214e-08
4.25485e-08
4.58139e-08
4.58315e-08
4.58933e-08
4.602e-08
4.61666e-08
4.86749e-08
4.87844e-08
4.90172e-08
4.93106e-08
4.95178e-08
5.12038e-08
5.14586e-08
5.19525e-08
5.25392e-08
5.29208e-08
5.33879e-08
5.38356e-08
5.46729e-08
5.57031e-08
5.65308e-08
5.51028e-08
5.57755e-08
5.70032e-08
5.85828e-08
6.01017e-08
5.61074e-08
5.70297e-08
5.87042e-08
6.09575e-08
6.34196e-08
5.60472e-08
5.72676e-08
5.95069e-08
6.26205e-08
6.62838e-08
5.44765e-08
5.60854e-08
5.90771e-08
6.32763e-08
6.82989e-08
5.08464e-08
5.29931e-08
5.7027e-08
6.26628e-08
6.93211e-08
4.44733e-08
4.73795e-08
5.28838e-08
6.05379e-08
6.95116e-08
3.4482e-08
3.84411e-08
4.59871e-08
5.64495e-08
6.8731e-08
1.97105e-08
2.51252e-08
3.54752e-08
4.97745e-08
6.6578e-08
-1.41047e-09
6.03435e-09
2.02392e-08
3.98024e-08
6.27544e-08
-3.10764e-08
-2.0821e-08
-1.34153e-09
2.54284e-08
5.67965e-08
-7.24037e-08
-5.83192e-08
-3.16565e-08
4.93893e-09
4.78188e-08
-1.29769e-07
-1.10488e-07
-7.39544e-08
-2.38303e-08
3.49144e-08
-2.09191e-07
-1.82779e-07
-1.32609e-07
-6.37846e-08
1.69829e-08
-3.18732e-07
-2.82505e-07
-2.13612e-07
-1.19129e-07
-8.0815e-09
-4.69241e-07
-4.19601e-07
-3.25027e-07
-1.95466e-07
-4.29649e-08
-6.75536e-07
-6.078e-07
-4.77798e-07
-3.00517e-07
-9.05784e-08
-9.58481e-07
-8.67128e-07
-6.87272e-07
-4.46173e-07
-1.54337e-07
-1.35152e-06
-1.2317e-06
-9.77325e-07
-6.55495e-07
-2.38148e-07
-1.9233e-06
-1.77735e-06
-1.39885e-06
-9.91111e-07
-3.4653e-07
-2.8127e-06
-2.65805e-06
-2.07973e-06
-1.60107e-06
-4.8827e-07
-4.187e-06
-4.0015e-06
-3.19176e-06
-2.70164e-06
-7.17688e-07
-6.15849e-06
-5.81144e-06
-4.96607e-06
-4.61154e-06
-8.5227e-07
-1.60056e-05
-1.61091e-05
-1.14649e-05
-9.67949e-06
-1.36605e-06
3.64558e-06
7.15558e-06
4.57291e-07
-1.4774e-06
8.65665e-06
-3.1978e-05
-3.31168e-05
-2.24485e-05
-2.44254e-05
8.07011e-06
-1.8829e-05
3.98955e-05
-3.78437e-05
-4.60295e-05
-3.68061e-05
0.000858314
0.000773233
0.000887287
0.000484003
0.00047994
0.00133832
0.00110439
0.00114903
0.00136968
0.00147406
0.00238226
0.00191026
0.00167547
0.00254518
0.00171957
0.00214379
0.00218231
0.00301954
0.00265406
0.00245705
0.00282291
0.00285303
0.00302561
0.00272471
0.00404966
0.00359375
0.00372659
0.0032967
0.00379337
0.00380733
0.00363445
0.00436096
0.00434192
0.00446017
0.00416385
0.00517564
0.00498139
0.00488621
0.00481755
0.00519131
0.00537905
0.00554595
0.00531733
0.00570408
0.00589694
0.0065658
0.00609848
0.00587695
0.00601787
0.00606751
0.0064379