/*--------------------------------*- C++ -*----------------------------------*\
| =========                 |                                                 |
| \\      /  F ield         | OpenFOAM: The Open Source CFD Toolbox           |
|  \\    /   O peration     | Version:  5.x                                   |
|   \\  /    A nd           | Web:      www.OpenFOAM.org                      |
|    \\/     M anipulation  |                                                 |
\*---------------------------------------------------------------------------*/
FoamFile
{
    version     2.0;
    format      ascii;
    class       surfaceScalarField;
    location    "800";
    object      phi;
}
// * * * * * * * * * * * * * * * * * * * * * * * * * * * * * * * * * * * * * //

dimensions      [0 3 -1 0 0 0 0];

internalField   nonuniform List<scalar> 
89
(
-0.0249997
-0.0249997
-0.0249996
-0.0249995
-0.0249994
-0.0249992
-0.024999
-0.0249988
-0.0249984
-0.024998
-0.0249975
-0.0249968
-0.0249959
-0.0249947
-0.0249932
-0.0249913
-0.0249887
-0.0249854
-0.024981
-0.0249754
-0.024968
-0.0249583
-0.0249456
-0.024929
-0.0249073
-0.0248788
-0.0248414
-0.0247923
-0.0247277
-0.0246428
-0.0245311
-0.024384
-0.0241899
-0.0239329
-0.023591
-0.0231625
-0.02267
-0.0222149
-0.0217657
-0.0230052
-0.0229665
-0.0224636
-0.0221753
-0.021661
-0.021173
-0.020876
-0.0208933
-0.0213425
-0.02179
-0.0216661
-0.0216507
-0.0217973
-0.0221609
-0.0226121
-0.0231298
-0.0235564
-0.0238825
-0.024134
-0.0243282
-0.0244783
-0.0245944
-0.0246842
-0.0247538
-0.0248078
-0.0248497
-0.0248823
-0.0249077
-0.0249275
-0.024943
-0.0249551
-0.0249646
-0.024972
-0.0249779
-0.0249825
-0.0249861
-0.024989
-0.0249913
-0.024993
-0.0249945
-0.0249956
-0.0249965
-0.0249972
-0.0249978
-0.0249982
-0.0249986
-0.0249989
-0.0249992
-0.0249994
-0.0249995
)
;

boundaryField
{
    inlet
    {
        type            calculated;
        value           uniform -0.0249997;
    }
    outlet
    {
        type            calculated;
        value           uniform 0.0249997;
    }
    repeat_boundary
    {
        type            calculated;
        value           uniform 0;
    }
    procBoundary0to1
    {
        type            processor;
        value           nonuniform List<scalar> 
90
(
8.89762e-09
1.2534e-08
1.7488e-08
2.28862e-08
2.85561e-08
3.43996e-08
4.02578e-08
4.58464e-08
5.06318e-08
5.37163e-08
5.39107e-08
4.9802e-08
3.9852e-08
2.36579e-08
-7.27329e-09
-7.25422e-08
-1.67127e-07
-3.06548e-07
-5.0964e-07
-8.01702e-07
-1.21714e-06
-1.80263e-06
-2.62076e-06
-3.75464e-06
-5.32018e-06
-7.472e-06
-1.0418e-05
-1.44376e-05
-1.99058e-05
-2.73261e-05
-3.73746e-05
-5.0962e-05
-6.93726e-05
-9.46782e-05
-0.000129643
-0.000165335
-0.000194032
-0.000182301
-0.000191064
0.000535768
-1.87956e-05
-0.000191303
-9.81396e-05
-0.000290783
-0.000272026
-0.000221857
-0.00018009
-4.82338e-05
9.14287e-05
-0.000164788
-7.18127e-05
1.74396e-05
1.89342e-06
0.0002396
0.000330165
0.000297766
0.000236388
0.000186189
0.000146596
0.000115501
9.11089e-05
7.19604e-05
5.69097e-05
4.50648e-05
3.57314e-05
2.83676e-05
2.25505e-05
1.79494e-05
1.43055e-05
1.14161e-05
9.1224e-06
7.29955e-06
5.84978e-06
4.69526e-06
3.77426e-06
3.03779e-06
2.44853e-06
1.97635e-06
1.59744e-06
1.29301e-06
1.04821e-06
8.51285e-07
6.92948e-07
5.65836e-07
4.64121e-07
3.83165e-07
3.19126e-07
2.68528e-07
2.29092e-07
2.11191e-07
)
;
    }
    procBoundary0to2
    {
        type            processor;
        value           nonuniform List<scalar> 
90
(
-2.61785e-08
-4.83885e-08
-7.56248e-08
-1.06712e-07
-1.42867e-07
-1.85828e-07
-2.37763e-07
-3.01367e-07
-3.80012e-07
-4.77941e-07
-6.00503e-07
-7.54471e-07
-9.48437e-07
-1.19332e-06
-1.50297e-06
-1.89515e-06
-2.39314e-06
-3.02666e-06
-3.83404e-06
-4.86477e-06
-6.18285e-06
-7.8712e-06
-1.00373e-05
-1.28208e-05
-1.6403e-05
-2.10199e-05
-2.6979e-05
-3.46816e-05
-4.46523e-05
-5.75781e-05
-7.43593e-05
-9.61811e-05
-0.000124669
-0.000162301
-0.000212322
-0.000263164
-0.000298459
-0.000272866
-0.000258214
0.00070364
-1.99206e-05
-0.000311654
-0.00019015
-0.000223558
-0.000216002
-7.51829e-05
0.000197473
0.000497398
0.000356029
4.08475e-05
5.63736e-05
0.000129185
0.000361584
0.000211567
0.000187582
0.000128882
8.97182e-05
6.5269e-05
4.76631e-05
3.46016e-05
2.49542e-05
1.7887e-05
1.27145e-05
8.94458e-06
6.21211e-06
4.24468e-06
2.83959e-06
1.84639e-06
1.15348e-06
6.78324e-07
3.60644e-07
1.59994e-07
1.25294e-08
-9.10675e-08
-1.65345e-07
-1.7407e-07
-1.82907e-07
-1.79138e-07
-1.68148e-07
-1.53943e-07
-1.38873e-07
-1.24325e-07
-1.11055e-07
-9.93823e-08
-8.92896e-08
-8.07702e-08
-7.42285e-08
-6.94967e-08
-6.58788e-08
-6.39484e-08
)
;
    }
}


// ************************************************************************* //
