/*--------------------------------*- C++ -*----------------------------------*\
  =========                 |
  \\      /  F ield         | OpenFOAM: The Open Source CFD Toolbox
   \\    /   O peration     | Website:  https://openfoam.org
    \\  /    A nd           | Version:  9
     \\/     M anipulation  |
\*---------------------------------------------------------------------------*/
FoamFile
{
    format      ascii;
    class       volVectorField;
    location    "300";
    object      U;
}
// * * * * * * * * * * * * * * * * * * * * * * * * * * * * * * * * * * * * * //

dimensions      [0 1 -1 0 0 0 0];

internalField   nonuniform List<vector> 
360
(
(1.514e-09 -1.52087e-09 -0.001)
(1.51399e-09 -1.60921e-09 -0.000999985)
(1.4261e-09 -1.52126e-09 -0.00100002)
(1.42564e-09 -1.60922e-09 -0.00100001)
(3.27317e-09 -3.39544e-09 -0.001)
(3.27315e-09 -3.61637e-09 -0.000999984)
(3.05278e-09 -3.39591e-09 -0.00100003)
(3.05222e-09 -3.61638e-09 -0.00100001)
(5.20887e-09 -5.66555e-09 -0.001)
(5.20885e-09 -5.81976e-09 -0.000999982)
(5.05355e-09 -5.66459e-09 -0.00100003)
(5.05459e-09 -5.81975e-09 -0.001)
(7.19264e-09 -8.35909e-09 -0.000999999)
(7.19253e-09 -8.11308e-09 -0.000999979)
(7.4381e-09 -8.35867e-09 -0.00100003)
(7.4383e-09 -8.11308e-09 -0.001)
(9.23783e-09 -1.16442e-08 -0.000999996)
(9.23757e-09 -1.05329e-08 -0.000999975)
(1.0348e-08 -1.16433e-08 -0.00100003)
(1.03483e-08 -1.05328e-08 -0.001)
(1.13741e-08 -1.57149e-08 -0.000999992)
(1.13742e-08 -1.31369e-08 -0.00099997)
(1.39516e-08 -1.57144e-08 -0.00100004)
(1.39522e-08 -1.31369e-08 -0.000999997)
(1.36421e-08 -2.07952e-08 -0.000999988)
(1.36423e-08 -1.59985e-08 -0.000999964)
(1.84406e-08 -2.07968e-08 -0.00100005)
(1.84398e-08 -1.59986e-08 -0.000999994)
(1.60894e-08 -2.71567e-08 -0.000999983)
(1.60894e-08 -1.9206e-08 -0.000999957)
(2.40404e-08 -2.7157e-08 -0.00100006)
(2.40402e-08 -1.9206e-08 -0.000999991)
(1.87641e-08 -3.51201e-08 -0.000999977)
(1.8764e-08 -2.28602e-08 -0.000999949)
(3.10241e-08 -3.51202e-08 -0.00100007)
(3.10239e-08 -2.28602e-08 -0.000999989)
(2.17062e-08 -4.50944e-08 -0.000999971)
(2.17062e-08 -2.70692e-08 -0.000999939)
(3.97316e-08 -4.50946e-08 -0.00100008)
(3.97314e-08 -2.70692e-08 -0.000999985)
(2.49339e-08 -5.76002e-08 -0.000999963)
(2.49338e-08 -3.19404e-08 -0.000999929)
(5.05938e-08 -5.76005e-08 -0.00100011)
(5.05935e-08 -3.19405e-08 -0.000999982)
(2.84314e-08 -7.33067e-08 -0.000999954)
(2.84313e-08 -3.75725e-08 -0.000999917)
(6.41659e-08 -7.33072e-08 -0.00100013)
(6.41655e-08 -3.75726e-08 -0.000999978)
(3.21341e-08 -9.3078e-08 -0.000999941)
(3.21339e-08 -4.40425e-08 -0.000999903)
(8.11702e-08 -9.30788e-08 -0.00100017)
(8.11695e-08 -4.40426e-08 -0.000999973)
(3.59012e-08 -1.18034e-07 -0.000999925)
(3.59009e-08 -5.13855e-08 -0.000999887)
(1.02551e-07 -1.18036e-07 -0.00100021)
(1.0255e-07 -5.13857e-08 -0.000999966)
(3.94797e-08 -1.49631e-07 -0.000999904)
(3.94793e-08 -5.95671e-08 -0.00099987)
(1.29545e-07 -1.49633e-07 -0.00100027)
(1.29543e-07 -5.95675e-08 -0.000999956)
(4.24562e-08 -1.89758e-07 -0.000999875)
(4.24555e-08 -6.84447e-08 -0.00099985)
(1.63772e-07 -1.89761e-07 -0.00100034)
(1.63769e-07 -6.84454e-08 -0.000999942)
(4.41915e-08 -2.40869e-07 -0.000999835)
(4.41904e-08 -7.77145e-08 -0.000999827)
(2.0735e-07 -2.40875e-07 -0.00100042)
(2.07345e-07 -7.77156e-08 -0.000999921)
(4.37333e-08 -3.06147e-07 -0.000999783)
(4.37314e-08 -8.68363e-08 -0.000999803)
(2.63051e-07 -3.06156e-07 -0.00100053)
(2.63042e-07 -8.68381e-08 -0.000999891)
(3.96934e-08 -3.89717e-07 -0.000999712)
(3.96901e-08 -9.49212e-08 -0.000999779)
(3.345e-07 -3.89731e-07 -0.00100068)
(3.34486e-07 -9.49243e-08 -0.000999849)
(3.00823e-08 -4.9692e-07 -0.000999618)
(3.00766e-08 -1.00559e-07 -0.000999754)
(4.26461e-07 -4.96943e-07 -0.00100086)
(4.26437e-07 -1.00564e-07 -0.00099979)
(1.21923e-08 -6.34641e-07 -0.000999494)
(1.21821e-08 -1.01711e-07 -0.000999732)
(5.45152e-07 -6.34681e-07 -0.00100108)
(5.45113e-07 -1.0172e-07 -0.000999708)
(-1.77949e-08 -8.11865e-07 -0.000999328)
(-1.78134e-08 -9.54719e-08 -0.000999715)
(6.98646e-07 -8.11932e-07 -0.00100138)
(6.98581e-07 -9.54889e-08 -0.000999596)
(-6.53667e-08 -1.04038e-06 -0.000999107)
(-6.54005e-08 -7.76203e-08 -0.000999711)
(8.97469e-07 -1.04049e-06 -0.00100175)
(8.9736e-07 -7.76512e-08 -0.000999443)
(-1.38499e-07 -1.33575e-06 -0.000998811)
(-1.38561e-07 -4.19972e-08 -0.000999727)
(1.15538e-06 -1.33594e-06 -0.00100224)
(1.15519e-06 -4.20538e-08 -0.000999237)
(-2.48065e-07 -1.71828e-06 -0.000998417)
(-2.4818e-07 1.99491e-08 -0.000999776)
(1.49037e-06 -1.71861e-06 -0.00100286)
(1.49006e-06 1.98448e-08 -0.000998959)
(-4.09153e-07 -2.21456e-06 -0.000997892)
(-4.09364e-07 1.20465e-07 -0.000999875)
(1.92622e-06 -2.21513e-06 -0.00100366)
(1.92569e-06 1.20273e-07 -0.000998581)
(-6.42717e-07 -2.85949e-06 -0.000997192)
(-6.43107e-07 2.77098e-07 -0.00100005)
(2.49444e-06 -2.86046e-06 -0.0010047)
(2.49351e-06 2.76741e-07 -0.000998067)
(-9.77499e-07 -3.69888e-06 -0.000996259)
(-9.78218e-07 5.14257e-07 -0.00100034)
(3.23659e-06 -3.70056e-06 -0.00100603)
(3.23498e-06 5.13593e-07 -0.000997371)
(-1.45287e-06 -4.79304e-06 -0.000995015)
(-1.4542e-06 8.65859e-07 -0.00100078)
(4.20762e-06 -4.79598e-06 -0.00100777)
(4.2048e-06 8.64624e-07 -0.000996427)
(-2.12263e-06 -6.22139e-06 -0.000993357)
(-2.12509e-06 1.37883e-06 -0.00100146)
(5.48024e-06 -6.22654e-06 -0.00101003)
(5.47531e-06 1.37653e-06 -0.00099515)
(-3.06007e-06 -8.08857e-06 -0.000991146)
(-3.06465e-06 2.11793e-06 -0.00100246)
(7.15085e-06 -8.09763e-06 -0.00101296)
(7.14217e-06 2.11365e-06 -0.000993421)
(-4.36497e-06 -1.05327e-05 -0.000988202)
(-4.37345e-06 3.17235e-06 -0.00100392)
(9.34744e-06 -1.05486e-05 -0.0010168)
(9.33221e-06 3.16442e-06 -0.000991089)
(-6.174e-06 -1.3738e-05 -0.000984294)
(-6.18922e-06 4.6651e-06 -0.00100606)
(1.2241e-05 -1.37653e-05 -0.00102184)
(1.22158e-05 4.65126e-06 -0.000987971)
(-8.68369e-06 -1.79677e-05 -0.000979002)
(-8.70146e-06 6.76485e-06 -0.00100894)
(1.60614e-05 -1.79984e-05 -0.00102828)
(1.60409e-05 6.7527e-06 -0.000983696)
(-1.22546e-05 -2.37308e-05 -0.000970605)
(-1.21569e-05 9.69227e-06 -0.00101153)
(2.11077e-05 -2.35732e-05 -0.001035)
(2.12984e-05 9.80228e-06 -0.000976288)
(-1.65326e-05 -3.03375e-05 -0.000960805)
(-1.68674e-05 1.37833e-05 -0.0010131)
(2.77904e-05 -3.08768e-05 -0.00104067)
(2.72281e-05 1.34424e-05 -0.000966551)
(-2.27345e-05 -3.96419e-05 -0.00097063)
(-2.2952e-05 1.93649e-05 -0.00104411)
(3.64309e-05 -4.00265e-05 -0.00107859)
(3.60867e-05 1.91688e-05 -0.000976643)
(-2.94242e-05 -4.89661e-05 -0.00105558)
(-2.9533e-05 2.56757e-05 -0.00123243)
(4.50539e-05 -4.8956e-05 -0.00129618)
(4.50941e-05 2.5556e-05 -0.00110352)
(-4.83873e-05 -7.21697e-05 -0.000424587)
(-4.72004e-05 3.68896e-05 -0.00035601)
(5.91539e-05 -6.94962e-05 -0.000348452)
(6.14403e-05 3.7664e-05 -0.000357469)
(4.38243e-05 5.65347e-05 -0.00194292)
(4.21849e-05 -2.04828e-05 -0.00256999)
(-3.29234e-05 5.38425e-05 -0.00275285)
(-3.24707e-05 -2.01774e-05 -0.00211209)
(-6.16043e-06 -7.75373e-06 -0.00167836)
(-2.39943e-06 2.83822e-06 -0.0012102)
(5.93254e-06 -4.54289e-06 -0.00131593)
(5.86033e-06 4.05874e-06 -0.00158115)
(-3.15679e-05 -6.00268e-05 -0.001543)
(-6.25487e-05 2.29354e-05 -0.00297697)
(6.87942e-05 -0.000104285 -0.002938)
(4.61665e-05 1.51611e-05 -0.00166178)
(-2.20703e-05 -4.81602e-05 -0.00238503)
(-1.58522e-05 2.50657e-05 -0.00192849)
(6.03009e-05 -5.00261e-05 -0.00232813)
(6.70192e-05 3.76146e-05 -0.00284913)
(-5.70357e-05 -4.62804e-05 -0.00214975)
(-7.78482e-05 3.39786e-05 -0.00318718)
(1.87681e-05 -6.67627e-05 -0.00316034)
(1.53361e-05 1.8025e-05 -0.00163293)
(-7.56265e-05 -6.03022e-05 -0.00240883)
(-6.85998e-05 -2.7428e-05 -0.00226489)
(-4.23223e-05 -5.64307e-05 -0.00217788)
(-4.74661e-05 -3.16266e-05 -0.00269912)
(-3.05924e-05 -1.02262e-05 -0.00182197)
(-7.38307e-05 -3.61845e-06 -0.00324432)
(-6.43102e-05 -3.10825e-05 -0.00320451)
(-3.60757e-05 -1.39283e-06 -0.00206281)
(-4.56155e-05 5.08072e-05 -0.00258339)
(-3.42348e-05 6.3419e-05 -0.00197955)
(-2.82875e-05 5.6851e-05 -0.00226206)
(-3.48597e-05 9.34473e-05 -0.00250904)
(7.59469e-06 8.85563e-05 -0.00176414)
(-1.25377e-05 0.000143659 -0.0033022)
(-4.76192e-05 0.000170866 -0.00333651)
(-1.90033e-05 8.42362e-05 -0.0020214)
(3.63308e-05 0.000111145 -0.00232825)
(3.65824e-05 4.91893e-05 -0.00234409)
(-1.87807e-07 7.13849e-05 -0.0018302)
(-1.23046e-05 4.58815e-05 -0.00264749)
(-2.65849e-05 8.08266e-06 -0.00232058)
(-3.67758e-05 -2.51904e-06 -0.00272472)
(-5.55955e-05 7.03639e-06 -0.00329634)
(-8.76811e-06 -2.21139e-06 -0.00166074)
(8.88856e-06 1.08925e-05 -0.00163074)
(-2.44285e-05 -1.10605e-05 -0.00265958)
(-3.84447e-05 2.74628e-05 -0.00206239)
(-4.73731e-05 -2.7257e-05 -0.00268292)
(2.43791e-05 6.26685e-05 -0.00166931)
(3.651e-05 -1.07304e-05 -0.0016761)
(-2.32947e-05 3.17149e-05 -0.00206652)
(1.82525e-05 -7.1565e-06 -0.00115028)
(2.43948e-05 2.78437e-05 -0.00183766)
(1.1652e-07 5.05574e-05 -0.00244787)
(2.96499e-05 5.7852e-05 -0.00205345)
(-2.67915e-05 9.68139e-05 -0.0019613)
(3.29827e-05 1.03789e-06 -0.000998029)
(9.31507e-05 -5.0027e-05 -0.00110353)
(-1.96844e-05 3.84914e-05 -0.00147159)
(-1.13043e-06 -1.03328e-05 -0.00103545)
(6.96039e-05 3.36256e-05 -0.000887696)
(7.56622e-05 -5.78422e-05 -0.00107485)
(-3.03285e-05 3.86473e-05 -0.000959369)
(-2.91222e-05 -5.34605e-05 -0.000928747)
(5.58898e-05 2.97813e-05 -0.000923372)
(5.57491e-05 -4.48602e-05 -0.00108005)
(-2.01524e-05 3.02834e-05 -0.00101664)
(-1.98547e-05 -4.49938e-05 -0.00094432)
(4.27549e-05 2.20035e-05 -0.000948382)
(4.25098e-05 -3.37365e-05 -0.00106524)
(-1.31895e-05 2.19457e-05 -0.00101974)
(-1.3241e-05 -3.39334e-05 -0.000965663)
(3.27564e-05 1.60239e-05 -0.000961434)
(3.26115e-05 -2.53769e-05 -0.00104993)
(-8.71964e-06 1.59604e-05 -0.00101369)
(-8.76423e-06 -2.54865e-05 -0.000975785)
(2.51414e-05 1.16522e-05 -0.000970642)
(2.50588e-05 -1.90986e-05 -0.00103817)
(-5.65232e-06 1.1617e-05 -0.00100882)
(-5.67557e-06 -1.91591e-05 -0.000982545)
(1.93305e-05 8.45828e-06 -0.000977674)
(1.92834e-05 -1.43757e-05 -0.00102928)
(-3.52883e-06 8.43939e-06 -0.00100558)
(-3.54076e-06 -1.44093e-05 -0.000987489)
(1.48899e-05 6.12691e-06 -0.000983016)
(1.48629e-05 -1.08231e-05 -0.00102251)
(-2.07513e-06 6.11677e-06 -0.00100339)
(-2.08123e-06 -1.08418e-05 -0.000991101)
(1.14906e-05 4.42792e-06 -0.000987059)
(1.14751e-05 -8.15077e-06 -0.00101733)
(-1.09693e-06 4.42247e-06 -0.0010019)
(-1.10002e-06 -8.16118e-06 -0.000993722)
(8.88372e-06 3.19255e-06 -0.00099012)
(8.87478e-06 -6.14083e-06 -0.00101336)
(-4.54902e-07 3.18962e-06 -0.0010009)
(-4.56435e-07 -6.14657e-06 -0.000995624)
(6.88069e-06 2.29765e-06 -0.000992441)
(6.87552e-06 -4.63047e-06 -0.00101032)
(-5.05354e-08 2.29607e-06 -0.00100026)
(-5.14126e-08 -4.6338e-06 -0.000996988)
(5.33876e-06 1.64956e-06 -0.000994204)
(5.33575e-06 -3.49403e-06 -0.00100798)
(1.93333e-07 1.64869e-06 -0.000999866)
(1.92909e-07 -3.49584e-06 -0.000997949)
(4.14953e-06 1.18049e-06 -0.000995545)
(4.14778e-06 -2.63797e-06 -0.00100618)
(3.29992e-07 1.18001e-06 -0.000999641)
(3.29775e-07 -2.63896e-06 -0.000998627)
(3.23057e-06 8.41806e-07 -0.000996567)
(3.22954e-06 -1.99303e-06 -0.00100479)
(3.95093e-07 8.4154e-07 -0.000999525)
(3.94978e-07 -1.99358e-06 -0.000999103)
(2.5191e-06 5.97634e-07 -0.000997348)
(2.5185e-06 -1.50678e-06 -0.00100372)
(4.14307e-07 5.97485e-07 -0.000999481)
(4.14245e-07 -1.50709e-06 -0.000999432)
(1.96727e-06 4.21901e-07 -0.000997947)
(1.96692e-06 -1.1399e-06 -0.00100289)
(4.0525e-07 4.21816e-07 -0.000999482)
(4.05215e-07 -1.14007e-06 -0.000999658)
(1.53853e-06 2.95736e-07 -0.000998408)
(1.53832e-06 -8.62898e-07 -0.00100225)
(3.79761e-07 2.95687e-07 -0.000999509)
(3.79741e-07 -8.62992e-07 -0.000999811)
(1.20489e-06 2.05455e-07 -0.000998763)
(1.20476e-06 -6.53637e-07 -0.00100176)
(3.45716e-07 2.05427e-07 -0.00099955)
(3.45703e-07 -6.53689e-07 -0.000999912)
(9.44879e-07 1.41134e-07 -0.000999037)
(9.44804e-07 -4.9548e-07 -0.00100137)
(3.0822e-07 1.41118e-07 -0.000999598)
(3.08212e-07 -4.95509e-07 -0.000999978)
(7.41994e-07 9.55697e-08 -0.00099925)
(7.41949e-07 -3.75908e-07 -0.00100107)
(2.70489e-07 9.55604e-08 -0.000999647)
(2.70484e-07 -3.75924e-07 -0.00100002)
(5.83493e-07 6.35281e-08 -0.000999416)
(5.83466e-07 -2.85487e-07 -0.00100084)
(2.34462e-07 6.35227e-08 -0.000999694)
(2.34458e-07 -2.85496e-07 -0.00100004)
(4.59532e-07 4.1204e-08 -0.000999545)
(4.59516e-07 -2.171e-07 -0.00100066)
(2.01218e-07 4.12008e-08 -0.000999738)
(2.01216e-07 -2.17105e-07 -0.00100006)
(3.62483e-07 2.58293e-08 -0.000999645)
(3.62473e-07 -1.65366e-07 -0.00100052)
(1.71282e-07 2.58274e-08 -0.000999778)
(1.7128e-07 -1.65369e-07 -0.00100006)
(2.86425e-07 1.53912e-08 -0.000999723)
(2.86419e-07 -1.26214e-07 -0.00100041)
(1.44816e-07 1.53901e-08 -0.000999813)
(1.44815e-07 -1.26215e-07 -0.00100006)
(2.26754e-07 8.42924e-09 -0.000999784)
(2.2675e-07 -9.65603e-08 -0.00100032)
(1.21762e-07 8.42858e-09 -0.000999843)
(1.21762e-07 -9.65613e-08 -0.00100006)
(1.79891e-07 3.88608e-09 -0.000999831)
(1.79889e-07 -7.40745e-08 -0.00100025)
(1.01929e-07 3.88569e-09 -0.00099987)
(1.01929e-07 -7.4075e-08 -0.00100006)
(1.43047e-07 9.93532e-10 -0.000999868)
(1.43046e-07 -5.6994e-08 -0.0010002)
(8.50591e-08 9.93295e-10 -0.000999892)
(8.50587e-08 -5.69943e-08 -0.00100005)
(1.14061e-07 -7.85415e-10 -0.000999896)
(1.1406e-07 -4.39921e-08 -0.00100016)
(7.08538e-08 -7.85565e-10 -0.000999912)
(7.08535e-08 -4.39923e-08 -0.00100004)
(9.12508e-08 -1.83638e-09 -0.000999919)
(9.12503e-08 -3.40734e-08 -0.00100012)
(5.90136e-08 -1.83652e-09 -0.000999928)
(5.90135e-08 -3.40735e-08 -0.00100004)
(7.33128e-08 -2.43454e-09 -0.000999936)
(7.33124e-08 -2.64961e-08 -0.0010001)
(4.92509e-08 -2.43484e-09 -0.000999942)
(4.9251e-08 -2.64961e-08 -0.00100003)
(5.92392e-08 -2.7702e-09 -0.00099995)
(5.92388e-08 -2.07108e-08 -0.00100008)
(4.12983e-08 -2.77069e-09 -0.000999953)
(4.12986e-08 -2.07107e-08 -0.00100003)
(4.826e-08 -2.96389e-09 -0.000999961)
(4.82602e-08 -1.63131e-08 -0.00100006)
(3.49111e-08 -2.96321e-09 -0.000999963)
(3.49104e-08 -1.63134e-08 -0.00100002)
(3.97899e-08 -3.08995e-09 -0.00099997)
(3.97899e-08 -1.3011e-08 -0.00100005)
(2.9869e-08 -3.08984e-09 -0.000999972)
(2.98688e-08 -1.3011e-08 -0.00100002)
(3.33845e-08 -3.19449e-09 -0.000999978)
(3.33845e-08 -1.05948e-08 -0.00100003)
(2.59844e-08 -3.19436e-09 -0.000999979)
(2.59842e-08 -1.05944e-08 -0.00100001)
(2.86873e-08 -3.31511e-09 -0.000999984)
(2.86878e-08 -8.92335e-09 -0.00100002)
(2.30797e-08 -3.3148e-09 -0.000999985)
(2.30766e-08 -8.92218e-09 -0.00100001)
(2.53521e-08 -3.46406e-09 -0.00099999)
(2.53515e-08 -7.85855e-09 -0.00100001)
(2.09568e-08 -3.4645e-09 -0.000999991)
(2.096e-08 -7.85984e-09 -0.00100001)
(2.36276e-08 -3.37462e-09 -0.000999995)
(2.36275e-08 -7.19e-09 -0.00100001)
(1.98121e-08 -3.37476e-09 -0.000999996)
(1.98122e-08 -7.19023e-09 -0.001)
)
;

boundaryField
{
    inlet
    {
        type            zeroGradient;
    }
    outlet
    {
        type            zeroGradient;
    }
    repeat_boundary
    {
        type            slip;
    }
}


// ************************************************************************* //
