/*--------------------------------*- C++ -*----------------------------------*\
| =========                 |                                                 |
| \\      /  F ield         | OpenFOAM: The Open Source CFD Toolbox           |
|  \\    /   O peration     | Version:  5.x                                   |
|   \\  /    A nd           | Web:      www.OpenFOAM.org                      |
|    \\/     M anipulation  |                                                 |
\*---------------------------------------------------------------------------*/
FoamFile
{
    version     2.0;
    format      ascii;
    class       surfaceScalarField;
    location    "0.004";
    object      phi;
}
// * * * * * * * * * * * * * * * * * * * * * * * * * * * * * * * * * * * * * //

dimensions      [0 3 -1 0 0 0 0];

internalField   nonuniform List<scalar> 
179
(
-2.49985e-10
-2.49985e-10
-2.49984e-10
-2.49984e-10
-2.49983e-10
-2.49983e-10
-2.49982e-10
-2.49981e-10
-2.49979e-10
-2.49978e-10
-2.49976e-10
-2.49974e-10
-2.49972e-10
-2.4997e-10
-2.49967e-10
-2.49964e-10
-2.4996e-10
-2.49956e-10
-2.49952e-10
-2.49947e-10
-2.49941e-10
-2.49935e-10
-2.49928e-10
-2.4992e-10
-2.49912e-10
-2.49903e-10
-2.49892e-10
-2.49881e-10
-2.49868e-10
-2.49854e-10
-2.49838e-10
-2.4982e-10
-2.49801e-10
-2.4978e-10
-2.49756e-10
-2.4973e-10
-2.49701e-10
-2.49669e-10
-2.49634e-10
-2.49595e-10
-2.49552e-10
-2.49504e-10
-2.49451e-10
-2.49393e-10
-2.49328e-10
-2.49257e-10
-2.49178e-10
-2.4909e-10
-2.48994e-10
-2.48887e-10
-2.48769e-10
-2.48639e-10
-2.48495e-10
-2.48336e-10
-2.48161e-10
-2.47968e-10
-2.47755e-10
-2.4752e-10
-2.47262e-10
-2.46978e-10
-2.46665e-10
-2.46321e-10
-2.45944e-10
-2.45531e-10
-2.45078e-10
-2.44582e-10
-2.44041e-10
-2.4345e-10
-2.42808e-10
-2.4211e-10
-2.41355e-10
-2.40539e-10
-2.39663e-10
-2.38724e-10
-2.37728e-10
-2.36686e-10
-2.35631e-10
-2.34644e-10
-2.33891e-10
-2.33804e-10
-2.34352e-10
-2.34202e-10
-2.24195e-10
-2.22739e-10
-2.28745e-10
-2.4043e-10
-2.43898e-10
-2.50436e-10
-2.47161e-10
-2.4015e-10
-2.37364e-10
-2.35753e-10
-2.43743e-10
-2.50249e-10
-2.53755e-10
-2.61599e-10
-2.73594e-10
-2.81331e-10
-2.88184e-10
-2.89183e-10
-2.91326e-10
-2.9419e-10
-2.93081e-10
-2.91746e-10
-2.90177e-10
-2.87356e-10
-2.84049e-10
-2.80745e-10
-2.77665e-10
-2.74868e-10
-2.72349e-10
-2.70085e-10
-2.6805e-10
-2.66222e-10
-2.64579e-10
-2.63104e-10
-2.61778e-10
-2.60587e-10
-2.59517e-10
-2.58555e-10
-2.57691e-10
-2.56914e-10
-2.56217e-10
-2.55589e-10
-2.55026e-10
-2.54519e-10
-2.54064e-10
-2.53654e-10
-2.53286e-10
-2.52955e-10
-2.52658e-10
-2.5239e-10
-2.5215e-10
-2.51933e-10
-2.51739e-10
-2.51564e-10
-2.51407e-10
-2.51266e-10
-2.51139e-10
-2.51025e-10
-2.50922e-10
-2.5083e-10
-2.50747e-10
-2.50672e-10
-2.50605e-10
-2.50544e-10
-2.5049e-10
-2.50441e-10
-2.50397e-10
-2.50357e-10
-2.50321e-10
-2.50289e-10
-2.5026e-10
-2.50234e-10
-2.5021e-10
-2.50189e-10
-2.5017e-10
-2.50153e-10
-2.50137e-10
-2.50123e-10
-2.50111e-10
-2.501e-10
-2.50089e-10
-2.5008e-10
-2.50072e-10
-2.50065e-10
-2.50058e-10
-2.50052e-10
-2.50046e-10
-2.50041e-10
-2.50036e-10
-2.50032e-10
-2.50028e-10
-2.50024e-10
-2.50021e-10
-2.50017e-10
-2.50014e-10
-2.50011e-10
-2.50008e-10
)
;

boundaryField
{
    inlet
    {
        type            calculated;
        value           uniform -2.50005e-10;
    }
    outlet
    {
        type            calculated;
        value           uniform 2.49985e-10;
    }
    repeat_boundary
    {
        type            calculated;
        value           uniform 0;
    }
    procBoundary1to0
    {
        type            processor;
        value           nonuniform List<scalar> 
180
(
-1.64433e-17
-3.00164e-18
5.85552e-18
1.07343e-17
1.28067e-17
1.28237e-17
1.08555e-17
6.78981e-18
4.88307e-19
-8.15725e-18
-1.92091e-17
-3.26833e-17
-4.8554e-17
-6.67619e-17
-8.72232e-17
-1.09842e-16
-1.34527e-16
-1.61205e-16
-1.8984e-16
-2.2045e-16
-2.53126e-16
-2.88051e-16
-3.25516e-16
-3.65944e-16
-4.09904e-16
-4.58133e-16
-5.11554e-16
-5.71306e-16
-6.38829e-16
-7.16058e-16
-8.04603e-16
-9.03216e-16
-1.01297e-15
-1.13458e-15
-1.27066e-15
-1.42311e-15
-1.59398e-15
-1.78544e-15
-2.00011e-15
-2.24092e-15
-2.51122e-15
-2.81482e-15
-3.15609e-15
-3.54008e-15
-3.97274e-15
-4.46141e-15
-5.01537e-15
-5.64614e-15
-6.36961e-15
-7.1206e-15
-7.93389e-15
-8.83284e-15
-9.82386e-15
-1.0913e-14
-1.21056e-14
-1.34058e-14
-1.4816e-14
-1.63355e-14
-1.79604e-14
-1.96815e-14
-2.14829e-14
-2.33394e-14
-2.52138e-14
-2.70527e-14
-2.87821e-14
-3.03001e-14
-3.14683e-14
-3.21016e-14
-3.18224e-14
-3.03905e-14
-2.73899e-14
-2.22405e-14
-1.41434e-14
-1.89441e-15
1.66251e-14
4.47726e-14
8.91456e-14
1.58794e-13
2.31297e-13
3.88556e-13
3.02159e-13
-2.09738e-14
-4.30423e-12
-4.18867e-13
3.69517e-12
9.75175e-12
8.17804e-13
4.3577e-12
-5.50182e-13
-4.70769e-12
-2.8848e-12
-1.50025e-12
1.38148e-13
2.04533e-12
1.23938e-12
2.72689e-12
6.72061e-12
2.64473e-12
3.15466e-12
1.45656e-12
3.83122e-12
4.88116e-12
9.20445e-13
-1.94214e-13
-6.89922e-13
-2.16995e-12
-2.7025e-12
-2.72266e-12
-2.54173e-12
-2.31344e-12
-2.08969e-12
-1.88362e-12
-1.69692e-12
-1.52846e-12
-1.37663e-12
-1.23983e-12
-1.11658e-12
-1.00554e-12
-9.05527e-13
-8.15437e-13
-7.34293e-13
-6.6121e-13
-5.95389e-13
-5.36111e-13
-4.82729e-13
-4.34664e-13
-3.91384e-13
-3.52413e-13
-3.17321e-13
-2.85722e-13
-2.57268e-13
-2.31648e-13
-2.08581e-13
-1.87814e-13
-1.69117e-13
-1.52285e-13
-1.37132e-13
-1.2349e-13
-1.11208e-13
-1.00151e-13
-9.0197e-14
-8.12351e-14
-7.31664e-14
-6.59018e-14
-5.9361e-14
-5.34718e-14
-4.81691e-14
-4.33944e-14
-3.90951e-14
-3.52238e-14
-3.1738e-14
-2.85994e-14
-2.57734e-14
-2.32291e-14
-2.09386e-14
-1.88768e-14
-1.70211e-14
-1.53511e-14
-1.38486e-14
-1.24971e-14
-1.12819e-14
-1.01896e-14
-9.20831e-15
-8.32731e-15
-7.53698e-15
-6.82873e-15
-6.19489e-15
-5.62858e-15
-5.12369e-15
-4.67481e-15
-4.27712e-15
-3.92638e-15
-3.61885e-15
-3.35128e-15
-3.12086e-15
-2.92523e-15
-2.76241e-15
-2.63107e-15
-2.53193e-15
-2.52341e-15
)
;
    }
    procBoundary1to3
    {
        type            processor;
        value           nonuniform List<scalar> 
180
(
-1.60821e-16
-2.35717e-16
-3.51922e-16
-4.83896e-16
-6.25286e-16
-7.75116e-16
-9.34544e-16
-1.10529e-15
-1.28923e-15
-1.48834e-15
-1.70464e-15
-1.94025e-15
-2.19745e-15
-2.47863e-15
-2.78639e-15
-3.12356e-15
-3.49324e-15
-3.89885e-15
-4.34415e-15
-4.83336e-15
-5.37113e-15
-5.96267e-15
-6.61376e-15
-7.33087e-15
-8.12116e-15
-8.99262e-15
-9.95407e-15
-1.10153e-14
-1.21872e-14
-1.34817e-14
-1.49119e-14
-1.64925e-14
-1.82393e-14
-2.01701e-14
-2.23042e-14
-2.46627e-14
-2.7269e-14
-3.01488e-14
-3.33302e-14
-3.68442e-14
-4.07246e-14
-4.5009e-14
-4.97383e-14
-5.49576e-14
-6.07163e-14
-6.70687e-14
-7.40739e-14
-8.17968e-14
-9.03093e-14
-9.96904e-14
-1.10026e-13
-1.21409e-13
-1.33943e-13
-1.47736e-13
-1.62911e-13
-1.79594e-13
-1.97926e-13
-2.18056e-13
-2.40142e-13
-2.64354e-13
-2.90875e-13
-3.19895e-13
-3.51613e-13
-3.86234e-13
-4.23969e-13
-4.6504e-13
-5.0967e-13
-5.5807e-13
-6.10445e-13
-6.66976e-13
-7.27808e-13
-7.93035e-13
-8.62662e-13
-9.36354e-13
-1.01273e-12
-1.08718e-12
-1.14453e-12
-1.14577e-12
-9.85071e-13
-4.75957e-13
2.45194e-13
-1.29338e-13
-5.7026e-12
-1.03734e-12
2.3105e-12
1.93382e-12
2.65059e-12
2.17961e-12
-2.72399e-12
-2.30384e-12
9.96174e-14
-1.10955e-13
7.85186e-12
4.46055e-12
2.26667e-12
5.11767e-12
5.27418e-12
5.09174e-12
3.69919e-12
-4.57674e-13
-1.68867e-12
-2.01734e-12
-2.02939e-12
-1.14079e-12
-8.78684e-13
-6.51668e-13
-6.03989e-13
-5.81933e-13
-5.38142e-13
-4.83138e-13
-4.29418e-13
-3.80846e-13
-3.37658e-13
-2.99386e-13
-2.65513e-13
-2.35539e-13
-2.0901e-13
-1.85519e-13
-1.64712e-13
-1.46275e-13
-1.29932e-13
-1.1544e-13
-1.02587e-13
-9.11816e-14
-8.10593e-14
-7.20715e-14
-6.4087e-14
-5.69925e-14
-5.0688e-14
-4.50843e-14
-4.0104e-14
-3.56781e-14
-3.17452e-14
-2.82505e-14
-2.51454e-14
-2.23864e-14
-1.99351e-14
-1.77563e-14
-1.58195e-14
-1.40977e-14
-1.25669e-14
-1.12057e-14
-9.99493e-15
-8.9178e-15
-7.95922e-15
-7.10581e-15
-6.34575e-15
-5.66852e-15
-5.06481e-15
-4.5265e-15
-4.04628e-15
-3.61769e-15
-3.23511e-15
-2.8939e-15
-2.58883e-15
-2.31566e-15
-2.07073e-15
-1.85097e-15
-1.65387e-15
-1.47705e-15
-1.31857e-15
-1.17653e-15
-1.04929e-15
-9.3537e-16
-8.33381e-16
-7.42071e-16
-6.60509e-16
-5.87638e-16
-5.22467e-16
-4.64159e-16
-4.1201e-16
-3.65411e-16
-3.23845e-16
-2.86871e-16
-2.5413e-16
-2.25366e-16
-2.00556e-16
-1.80085e-16
-1.65965e-16
-1.47801e-16
)
;
    }
}


// ************************************************************************* //
