/*--------------------------------*- C++ -*----------------------------------*\
| =========                 |                                                 |
| \\      /  F ield         | OpenFOAM: The Open Source CFD Toolbox           |
|  \\    /   O peration     | Version:  5.x                                   |
|   \\  /    A nd           | Web:      www.OpenFOAM.org                      |
|    \\/     M anipulation  |                                                 |
\*---------------------------------------------------------------------------*/
FoamFile
{
    version     2.0;
    format      ascii;
    class       volVectorField;
    location    "1000";
    object      stored_U;
}
// * * * * * * * * * * * * * * * * * * * * * * * * * * * * * * * * * * * * * //

dimensions      [0 1 -1 0 0 0 0];

internalField   nonuniform List<vector> 
90
(
(0.0341724 -0.0651173 -7.00896)
(0.034375 -0.0674786 -7.03988)
(0.0308078 -0.0671091 -7.05569)
(0.0294029 -0.068318 -7.07962)
(0.0265372 -0.0685422 -7.0986)
(0.0244358 -0.0693782 -7.12033)
(0.0217941 -0.0700033 -7.14033)
(0.0194295 -0.0707042 -7.1612)
(0.0168906 -0.0711959 -7.18142)
(0.0144634 -0.0717193 -7.20183)
(0.0119958 -0.0721913 -7.22184)
(0.00956771 -0.0727914 -7.24182)
(0.00713168 -0.0735271 -7.26165)
(0.00474542 -0.0741463 -7.28145)
(0.00239312 -0.0747651 -7.30113)
(7.34418e-05 -0.0754577 -7.3207)
(-0.00222496 -0.0762294 -7.34022)
(-0.0044903 -0.077099 -7.35968)
(-0.00671243 -0.0778258 -7.3791)
(-0.00889328 -0.0784383 -7.39844)
(-0.0110497 -0.0791476 -7.41767)
(-0.0131882 -0.0799492 -7.43688)
(-0.0153083 -0.0806777 -7.45604)
(-0.017414 -0.08132 -7.4751)
(-0.01952 -0.0822707 -7.49409)
(-0.0216356 -0.0834675 -7.51312)
(-0.0237492 -0.0846275 -7.53225)
(-0.0258554 -0.0856827 -7.55144)
(-0.027963 -0.0866932 -7.57065)
(-0.0300748 -0.0877634 -7.58992)
(-0.032191 -0.0888464 -7.60923)
(-0.0343123 -0.0897788 -7.6286)
(-0.0364358 -0.0907259 -7.648)
(-0.0385674 -0.0917289 -7.6674)
(-0.0407216 -0.0926769 -7.68681)
(-0.0429064 -0.0937146 -7.70622)
(-0.0451228 -0.0949589 -7.72567)
(-0.0473715 -0.096175 -7.7452)
(-0.0496513 -0.0973152 -7.76483)
(-0.0519636 -0.0985163 -7.78453)
(-0.0543117 -0.0998112 -7.8043)
(-0.0566895 -0.101014 -7.82408)
(-0.0591053 -0.102165 -7.84387)
(-0.0615758 -0.103442 -7.86369)
(-0.0641028 -0.104894 -7.88364)
(-0.0666699 -0.106396 -7.90371)
(-0.0692804 -0.107867 -7.92392)
(-0.0719364 -0.109303 -7.94423)
(-0.0746301 -0.110656 -7.96466)
(-0.0773673 -0.112087 -7.98513)
(-0.0801515 -0.113544 -8.0057)
(-0.0829788 -0.114951 -8.02639)
(-0.0858547 -0.116447 -8.04713)
(-0.0887769 -0.117939 -8.06797)
(-0.0917454 -0.119385 -8.08893)
(-0.094767 -0.120938 -8.10995)
(-0.0978347 -0.122443 -8.13107)
(-0.100951 -0.123923 -8.15229)
(-0.104124 -0.125525 -8.1736)
(-0.107344 -0.127024 -8.19501)
(-0.11061 -0.128472 -8.2165)
(-0.113934 -0.130103 -8.23807)
(-0.117312 -0.131655 -8.2597)
(-0.120755 -0.13315 -8.28137)
(-0.124261 -0.134759 -8.30305)
(-0.127842 -0.136441 -8.3248)
(-0.131496 -0.138197 -8.3466)
(-0.135228 -0.139999 -8.36848)
(-0.139038 -0.14185 -8.39045)
(-0.142927 -0.143741 -8.41249)
(-0.146898 -0.145669 -8.43463)
(-0.15095 -0.14763 -8.45685)
(-0.155085 -0.149619 -8.47915)
(-0.159306 -0.151635 -8.50154)
(-0.163615 -0.153672 -8.524)
(-0.168016 -0.155729 -8.54653)
(-0.172511 -0.157799 -8.56913)
(-0.177105 -0.159878 -8.59178)
(-0.181804 -0.161958 -8.61447)
(-0.186614 -0.164033 -8.63719)
(-0.191543 -0.166092 -8.65992)
(-0.196603 -0.168122 -8.68261)
(-0.201809 -0.170104 -8.70527)
(-0.207169 -0.172024 -8.72792)
(-0.212693 -0.173868 -8.75059)
(-0.218395 -0.17564 -8.77279)
(-0.224436 -0.177215 -8.79366)
(-0.231108 -0.178276 -8.81407)
(-0.238303 -0.178959 -8.84076)
(-0.241887 -0.179839 -8.86146)
)
;

boundaryField
{
    inlet
    {
        type            calculated;
        value           uniform (-0.241887 -0.179839 -8.86146);
    }
    outlet
    {
        type            calculated;
        value           uniform (0.0341724 -0.0651173 -7.00896);
    }
    repeat_boundary
    {
        type            calculated;
        value           nonuniform List<vector> 
180
(
(0.0341724 0 -7.00896)
(0.034375 0 -7.03988)
(0.0308078 0 -7.05569)
(0.0294029 0 -7.07962)
(0.0265372 0 -7.0986)
(0.0244358 0 -7.12033)
(0.0217941 0 -7.14033)
(0.0194295 0 -7.1612)
(0.0168906 0 -7.18142)
(0.0144634 0 -7.20183)
(0.0119958 0 -7.22184)
(0.00956771 0 -7.24182)
(0.00713168 0 -7.26165)
(0.00474542 0 -7.28145)
(0.00239312 0 -7.30113)
(7.34418e-05 0 -7.3207)
(-0.00222496 0 -7.34022)
(-0.0044903 0 -7.35968)
(-0.00671243 0 -7.3791)
(-0.00889328 0 -7.39844)
(-0.0110497 0 -7.41767)
(-0.0131882 0 -7.43688)
(-0.0153083 0 -7.45604)
(-0.017414 0 -7.4751)
(-0.01952 0 -7.49409)
(-0.0216356 0 -7.51312)
(-0.0237492 0 -7.53225)
(-0.0258554 0 -7.55144)
(-0.027963 0 -7.57065)
(-0.0300748 0 -7.58992)
(-0.032191 0 -7.60923)
(-0.0343123 0 -7.6286)
(-0.0364358 0 -7.648)
(-0.0385674 0 -7.6674)
(-0.0407216 0 -7.68681)
(-0.0429064 0 -7.70622)
(-0.0451228 0 -7.72567)
(-0.0473715 0 -7.7452)
(-0.0496513 0 -7.76483)
(-0.0519636 0 -7.78453)
(-0.0543117 0 -7.8043)
(-0.0566895 0 -7.82408)
(-0.0591053 0 -7.84387)
(-0.0615758 0 -7.86369)
(-0.0641028 0 -7.88364)
(-0.0666699 0 -7.90371)
(-0.0692804 0 -7.92392)
(-0.0719364 0 -7.94423)
(-0.0746301 0 -7.96466)
(-0.0773673 0 -7.98513)
(-0.0801515 0 -8.0057)
(-0.0829788 0 -8.02639)
(-0.0858547 0 -8.04713)
(-0.0887769 0 -8.06797)
(-0.0917454 0 -8.08893)
(-0.094767 0 -8.10995)
(-0.0978347 0 -8.13107)
(-0.100951 0 -8.15229)
(-0.104124 0 -8.1736)
(-0.107344 0 -8.19501)
(-0.11061 0 -8.2165)
(-0.113934 0 -8.23807)
(-0.117312 0 -8.2597)
(-0.120755 0 -8.28137)
(-0.124261 0 -8.30305)
(-0.127842 0 -8.3248)
(-0.131496 0 -8.3466)
(-0.135228 0 -8.36848)
(-0.139038 0 -8.39045)
(-0.142927 0 -8.41249)
(-0.146898 0 -8.43463)
(-0.15095 0 -8.45685)
(-0.155085 0 -8.47915)
(-0.159306 0 -8.50154)
(-0.163615 0 -8.524)
(-0.168016 0 -8.54653)
(-0.172511 0 -8.56913)
(-0.177105 0 -8.59178)
(-0.181804 0 -8.61447)
(-0.186614 0 -8.63719)
(-0.191543 0 -8.65992)
(-0.196603 0 -8.68261)
(-0.201809 0 -8.70527)
(-0.207169 0 -8.72792)
(-0.212693 0 -8.75059)
(-0.218395 0 -8.77279)
(-0.224436 0 -8.79366)
(-0.231108 0 -8.81407)
(-0.238303 0 -8.84076)
(-0.241887 0 -8.86146)
(0 -0.0651173 -7.00896)
(0 -0.0674786 -7.03988)
(0 -0.0671091 -7.05569)
(0 -0.068318 -7.07962)
(0 -0.0685422 -7.0986)
(0 -0.0693782 -7.12033)
(0 -0.0700033 -7.14033)
(0 -0.0707042 -7.1612)
(0 -0.0711959 -7.18142)
(0 -0.0717193 -7.20183)
(0 -0.0721913 -7.22184)
(0 -0.0727914 -7.24182)
(0 -0.0735271 -7.26165)
(0 -0.0741463 -7.28145)
(0 -0.0747651 -7.30113)
(0 -0.0754577 -7.3207)
(0 -0.0762294 -7.34022)
(0 -0.077099 -7.35968)
(0 -0.0778258 -7.3791)
(0 -0.0784383 -7.39844)
(0 -0.0791476 -7.41767)
(0 -0.0799492 -7.43688)
(0 -0.0806777 -7.45604)
(0 -0.08132 -7.4751)
(0 -0.0822707 -7.49409)
(0 -0.0834675 -7.51312)
(0 -0.0846275 -7.53225)
(0 -0.0856827 -7.55144)
(0 -0.0866932 -7.57065)
(0 -0.0877634 -7.58992)
(0 -0.0888464 -7.60923)
(0 -0.0897788 -7.6286)
(0 -0.0907259 -7.648)
(0 -0.0917289 -7.6674)
(0 -0.0926769 -7.68681)
(0 -0.0937146 -7.70622)
(0 -0.0949589 -7.72567)
(0 -0.096175 -7.7452)
(0 -0.0973152 -7.76483)
(0 -0.0985163 -7.78453)
(0 -0.0998112 -7.8043)
(0 -0.101014 -7.82408)
(0 -0.102165 -7.84387)
(0 -0.103442 -7.86369)
(0 -0.104894 -7.88364)
(0 -0.106396 -7.90371)
(0 -0.107867 -7.92392)
(0 -0.109303 -7.94423)
(0 -0.110656 -7.96466)
(0 -0.112087 -7.98513)
(0 -0.113544 -8.0057)
(0 -0.114951 -8.02639)
(0 -0.116447 -8.04713)
(0 -0.117939 -8.06797)
(0 -0.119385 -8.08893)
(0 -0.120938 -8.10995)
(0 -0.122443 -8.13107)
(0 -0.123923 -8.15229)
(0 -0.125525 -8.1736)
(0 -0.127024 -8.19501)
(0 -0.128472 -8.2165)
(0 -0.130103 -8.23807)
(0 -0.131655 -8.2597)
(0 -0.13315 -8.28137)
(0 -0.134759 -8.30305)
(0 -0.136441 -8.3248)
(0 -0.138197 -8.3466)
(0 -0.139999 -8.36848)
(0 -0.14185 -8.39045)
(0 -0.143741 -8.41249)
(0 -0.145669 -8.43463)
(0 -0.14763 -8.45685)
(0 -0.149619 -8.47915)
(0 -0.151635 -8.50154)
(0 -0.153672 -8.524)
(0 -0.155729 -8.54653)
(0 -0.157799 -8.56913)
(0 -0.159878 -8.59178)
(0 -0.161958 -8.61447)
(0 -0.164033 -8.63719)
(0 -0.166092 -8.65992)
(0 -0.168122 -8.68261)
(0 -0.170104 -8.70527)
(0 -0.172024 -8.72792)
(0 -0.173868 -8.75059)
(0 -0.17564 -8.77279)
(0 -0.177215 -8.79366)
(0 -0.178276 -8.81407)
(0 -0.178959 -8.84076)
(0 -0.179839 -8.86146)
)
;
    }
    procBoundary2to0
    {
        type            processor;
        value           nonuniform List<vector> 
90
(
(0.0327209 -0.0275062 -5.6966)
(0.0330797 -0.0283407 -5.69457)
(0.0327957 -0.0281431 -5.69666)
(0.0327581 -0.0283532 -5.69632)
(0.0327821 -0.0285057 -5.69638)
(0.0328297 -0.0288102 -5.69451)
(0.0324653 -0.0287169 -5.69684)
(0.0322242 -0.0290847 -5.69632)
(0.0322232 -0.0294119 -5.69405)
(0.032243 -0.029004 -5.69626)
(0.0321809 -0.0290225 -5.69399)
(0.0317983 -0.0288094 -5.69591)
(0.0315206 -0.0291124 -5.69517)
(0.0314408 -0.0293359 -5.69511)
(0.03151 -0.0294376 -5.69494)
(0.0317896 -0.0295479 -5.69276)
(0.0312401 -0.0297292 -5.69501)
(0.0310758 -0.0300557 -5.69423)
(0.0312778 -0.0302572 -5.69207)
(0.0314532 -0.0300929 -5.69206)
(0.031477 -0.0299415 -5.6936)
(0.0315454 -0.030112 -5.693)
(0.0317924 -0.0303761 -5.6903)
(0.0317365 -0.0299729 -5.69124)
(0.0312792 -0.0300663 -5.69242)
(0.0308111 -0.0307077 -5.69152)
(0.0305272 -0.0312713 -5.69127)
(0.0304145 -0.0316857 -5.69075)
(0.0305698 -0.0321359 -5.68803)
(0.0301969 -0.0323605 -5.68984)
(0.0299142 -0.0329031 -5.68841)
(0.0300387 -0.033412 -5.68532)
(0.0301906 -0.0331804 -5.68718)
(0.0305231 -0.033181 -5.68596)
(0.0308844 -0.0335135 -5.68248)
(0.030762 -0.0333601 -5.68312)
(0.0304085 -0.0335696 -5.68383)
(0.0302331 -0.0340781 -5.68269)
(0.0303903 -0.0346802 -5.6794)
(0.0300954 -0.0351505 -5.68018)
(0.0300671 -0.0354964 -5.67861)
(0.0303878 -0.0354147 -5.67778)
(0.0305212 -0.0354036 -5.67644)
(0.0302719 -0.0355623 -5.67704)
(0.0298102 -0.0363212 -5.67531)
(0.0295286 -0.0369708 -5.67427)
(0.029331 -0.0375583 -5.67325)
(0.0292376 -0.0383951 -5.669)
(0.0290372 -0.0385038 -5.67044)
(0.0289008 -0.0389976 -5.66839)
(0.028825 -0.039861 -5.6636)
(0.0286324 -0.0399645 -5.66493)
(0.02855 -0.0404418 -5.66261)
(0.0285563 -0.0412952 -5.6574)
(0.0283556 -0.0414114 -5.65871)
(0.0283077 -0.0418972 -5.65602)
(0.0285278 -0.0426321 -5.65051)
(0.0283623 -0.0427204 -5.65175)
(0.0282187 -0.0433447 -5.64883)
(0.0287264 -0.0439106 -5.64305)
(0.0286153 -0.0439413 -5.64424)
(0.0290713 -0.044052 -5.6417)
(0.0303279 -0.0440357 -5.63577)
(0.0302557 -0.0441335 -5.63589)
(0.0304436 -0.0443081 -5.63319)
(0.0304527 -0.0445673 -5.63132)
(0.0304121 -0.0448969 -5.62925)
(0.0303179 -0.0452668 -5.62727)
(0.0301778 -0.0456762 -5.62523)
(0.0300027 -0.0461106 -5.62317)
(0.0297972 -0.0465642 -5.62104)
(0.0295663 -0.0470298 -5.61884)
(0.0293135 -0.0475014 -5.61657)
(0.0290414 -0.047973 -5.6142)
(0.0287522 -0.0484384 -5.61173)
(0.0284478 -0.0488904 -5.60916)
(0.0281295 -0.049321 -5.60649)
(0.0277987 -0.0497205 -5.60371)
(0.0274566 -0.0500775 -5.60082)
(0.0271045 -0.050378 -5.59782)
(0.0267432 -0.050605 -5.59472)
(0.0263736 -0.050735 -5.59153)
(0.025997 -0.0507375 -5.58825)
(0.025617 -0.0505846 -5.5849)
(0.0252382 -0.0502502 -5.58139)
(0.0248626 -0.0497296 -5.57791)
(0.0244565 -0.0488239 -5.57477)
(0.0240078 -0.0470417 -5.57223)
(0.0235909 -0.0445156 -5.56848)
(0.023471 -0.0436913 -5.56256)
)
;
    }
    procBoundary2to3
    {
        type            processor;
        value           nonuniform List<vector> 
90
(
(0.0781225 -0.00957139 -5.13026)
(0.0810813 -0.00906905 -5.11464)
(0.0809875 -0.00827849 -5.10669)
(0.0822585 -0.00758721 -5.09515)
(0.082685 -0.00689214 -5.08529)
(0.0834264 -0.00628141 -5.07468)
(0.0839151 -0.00569955 -5.06447)
(0.0844794 -0.0051547 -5.05418)
(0.0849788 -0.00462934 -5.04402)
(0.0855036 -0.00413449 -5.03393)
(0.0860091 -0.00366681 -5.02392)
(0.0865222 -0.00322742 -5.01401)
(0.0870343 -0.00280613 -5.00421)
(0.0875762 -0.00238929 -4.99452)
(0.0881446 -0.00198148 -4.98493)
(0.0887382 -0.00158646 -4.97544)
(0.0893594 -0.00119907 -4.96604)
(0.0900171 -0.000809922 -4.95673)
(0.0907193 -0.000413268 -4.9475)
(0.0914715 -6.33748e-06 -4.93834)
(0.0922671 0.000408996 -4.92923)
(0.0930924 0.000821406 -4.92017)
(0.0939426 0.00122785 -4.91116)
(0.094822 0.00163218 -4.90219)
(0.0957152 0.00203006 -4.89327)
(0.0966199 0.00242352 -4.88439)
(0.0975543 0.00282464 -4.87557)
(0.0985271 0.00324047 -4.86679)
(0.0995394 0.00367344 -4.85805)
(0.100592 0.00412147 -4.84933)
(0.101681 0.00458377 -4.84064)
(0.102825 0.00507308 -4.83196)
(0.104027 0.00559038 -4.82329)
(0.105267 0.00611961 -4.81461)
(0.106533 0.00665263 -4.80592)
(0.107817 0.00718366 -4.79723)
(0.109116 0.0077139 -4.78852)
(0.110445 0.00825906 -4.77981)
(0.111813 0.00882272 -4.77109)
(0.113214 0.00940013 -4.76236)
(0.114642 0.00998956 -4.7536)
(0.116093 0.0105888 -4.74482)
(0.117559 0.0111938 -4.73602)
(0.119038 0.0118038 -4.72721)
(0.12053 0.0124177 -4.71841)
(0.122046 0.0130419 -4.70961)
(0.123591 0.0136806 -4.70082)
(0.125165 0.0143357 -4.69204)
(0.126781 0.0150127 -4.68327)
(0.128431 0.0157071 -4.6745)
(0.130112 0.0164176 -4.66572)
(0.131834 0.0171488 -4.65695)
(0.133592 0.0178968 -4.64818)
(0.135383 0.0186625 -4.6394)
(0.137219 0.0194506 -4.63062)
(0.139094 0.0202556 -4.62184)
(0.141006 0.0210816 -4.61305)
(0.142971 0.0219334 -4.60425)
(0.144971 0.0227994 -4.59545)
(0.147021 0.023692 -4.58664)
(0.149136 0.0246174 -4.57781)
(0.151299 0.0255621 -4.56897)
(0.153505 0.0265266 -4.56011)
(0.15575 0.0275089 -4.55122)
(0.158022 0.0285063 -4.5423)
(0.160312 0.0295142 -4.53335)
(0.162616 0.0305328 -4.52439)
(0.164933 0.0315638 -4.51542)
(0.167262 0.0326083 -4.50644)
(0.169603 0.0336686 -4.49747)
(0.171956 0.0347472 -4.48851)
(0.17432 0.0358466 -4.47957)
(0.176694 0.0369699 -4.47067)
(0.179075 0.0381198 -4.4618)
(0.181463 0.0392999 -4.45298)
(0.183851 0.0405135 -4.44421)
(0.186235 0.0417647 -4.43551)
(0.188607 0.043058 -4.42687)
(0.190957 0.0443983 -4.41831)
(0.193273 0.0457913 -4.40983)
(0.195538 0.0472438 -4.40146)
(0.19773 0.0487638 -4.3932)
(0.199819 0.0503616 -4.38504)
(0.201781 0.0520497 -4.37699)
(0.203593 0.0538375 -4.36905)
(0.205279 0.0557413 -4.3613)
(0.206575 0.0577866 -4.35416)
(0.206839 0.0599855 -4.34805)
(0.206189 0.0622478 -4.34041)
(0.206571 0.0634971 -4.33027)
)
;
    }
}


// ************************************************************************* //
