/*--------------------------------*- C++ -*----------------------------------*\
| =========                 |                                                 |
| \\      /  F ield         | OpenFOAM: The Open Source CFD Toolbox           |
|  \\    /   O peration     | Version:  5.x                                   |
|   \\  /    A nd           | Web:      www.OpenFOAM.org                      |
|    \\/     M anipulation  |                                                 |
\*---------------------------------------------------------------------------*/
FoamFile
{
    version     2.0;
    format      ascii;
    class       volScalarField;
    location    "3000";
    object      p;
}
// * * * * * * * * * * * * * * * * * * * * * * * * * * * * * * * * * * * * * //

dimensions      [0 2 -2 0 0 0 0];

internalField   nonuniform List<scalar> 
180
(
1.8566e-09
5.71445e-09
9.67828e-09
1.34434e-08
1.68902e-08
1.99265e-08
2.24607e-08
2.44105e-08
2.57032e-08
2.62762e-08
2.60768e-08
2.50627e-08
2.3201e-08
2.04686e-08
1.68507e-08
1.23399e-08
6.93502e-09
6.39081e-10
-6.54259e-09
-1.46044e-08
-2.35428e-08
-3.33598e-08
-4.40654e-08
-5.56812e-08
-6.8244e-08
-8.18087e-08
-9.64519e-08
-1.12275e-07
-1.29412e-07
-1.48027e-07
-1.68326e-07
-1.90555e-07
-2.15005e-07
-2.42018e-07
-2.71986e-07
-3.05357e-07
-3.4264e-07
-3.84408e-07
-4.31303e-07
-4.84045e-07
-5.43438e-07
-6.10382e-07
-6.85885e-07
-7.71079e-07
-8.67238e-07
-9.75799e-07
-1.09839e-06
-1.23685e-06
-1.3933e-06
-1.57013e-06
-1.77008e-06
-1.99629e-06
-2.25237e-06
-2.54241e-06
-2.87113e-06
-3.24389e-06
-3.66679e-06
-4.1468e-06
-4.6918e-06
-5.31073e-06
-6.01368e-06
-6.81205e-06
-7.71866e-06
-8.74795e-06
-9.91611e-06
-1.12413e-05
-1.27438e-05
-1.44464e-05
-1.63744e-05
-1.8556e-05
-2.10226e-05
-2.38086e-05
-2.69517e-05
-3.04967e-05
-3.45064e-05
-3.90568e-05
-4.41017e-05
-4.9164e-05
-5.39379e-05
-6.57411e-05
-0.000162502
0.000456516
0.000980478
0.00126222
0.00283907
0.00473191
0.00721477
0.00814561
0.0086991
0.0100645
0.0143881
0.0171703
0.0193889
0.0201257
0.0222079
0.0238963
0.0247726
0.0260069
0.0265053
0.0282815
0.031299
0.0319481
0.0321176
0.0321123
0.0321004
0.0320906
0.0320799
0.0320708
0.0320633
0.0320568
0.0320512
0.0320464
0.0320423
0.0320388
0.0320357
0.0320331
0.0320308
0.0320288
0.0320271
0.0320256
0.0320243
0.0320232
0.0320222
0.0320214
0.0320206
0.03202
0.0320195
0.032019
0.0320186
0.0320182
0.0320179
0.0320176
0.0320173
0.0320171
0.0320169
0.0320168
0.0320166
0.0320165
0.0320164
0.0320163
0.0320162
0.0320161
0.0320161
0.032016
0.032016
0.0320159
0.0320159
0.0320159
0.0320158
0.0320158
0.0320158
0.0320158
0.0320158
0.0320157
0.0320157
0.0320157
0.0320157
0.0320157
0.0320157
0.0320157
0.0320157
0.0320157
0.0320157
0.0320157
0.0320157
0.0320157
0.0320157
0.0320157
0.0320157
0.0320156
0.0320156
0.0320156
0.0320156
0.0320156
0.0320156
0.0320156
0.0320156
0.0320156
0.0320156
0.0320156
)
;

boundaryField
{
    inlet
    {
        type            zeroGradient;
    }
    outlet
    {
        type            fixedValue;
        value           uniform 0;
    }
    repeat_boundary
    {
        type            zeroGradient;
    }
    procBoundary2to0
    {
        type            processor;
        value           nonuniform List<scalar> 
180
(
2.22918e-09
6.80577e-09
1.13629e-08
1.57279e-08
1.99012e-08
2.37966e-08
2.73605e-08
3.05414e-08
3.32926e-08
3.55723e-08
3.73446e-08
3.85798e-08
3.92551e-08
3.93546e-08
3.88702e-08
3.78012e-08
3.61547e-08
3.39453e-08
3.11954e-08
2.79341e-08
2.41973e-08
2.00266e-08
1.54683e-08
1.05722e-08
5.39006e-09
-2.65138e-11
-5.62772e-09
-1.1368e-08
-1.72086e-08
-2.31194e-08
-2.9082e-08
-3.50914e-08
-4.11582e-08
-4.73105e-08
-5.35943e-08
-6.00753e-08
-6.6838e-08
-7.39861e-08
-8.16411e-08
-8.99414e-08
-9.90401e-08
-1.09104e-07
-1.20313e-07
-1.32855e-07
-1.46935e-07
-1.62765e-07
-1.80578e-07
-2.00627e-07
-2.23195e-07
-2.48607e-07
-2.77243e-07
-3.09557e-07
-3.461e-07
-3.87544e-07
-4.3472e-07
-4.88652e-07
-5.50608e-07
-6.22147e-07
-7.05186e-07
-8.02066e-07
-9.15637e-07
-1.04936e-06
-1.2074e-06
-1.39483e-06
-1.61774e-06
-1.88345e-06
-2.20083e-06
-2.58054e-06
-3.03544e-06
-3.58111e-06
-4.23633e-06
-5.02333e-06
-5.96815e-06
-7.10589e-06
-8.50065e-06
-1.02469e-05
-1.22648e-05
-1.36773e-05
-1.38133e-05
-2.54131e-05
-0.000155734
0.00109006
0.00199355
0.00214756
0.00270683
0.00378279
0.00562131
0.0064381
0.0108521
0.0136975
0.0150747
0.0155635
0.0167317
0.019538
0.0206012
0.0225341
0.0240738
0.0252804
0.0267266
0.0277535
0.0292069
0.0309308
0.0314147
0.0317858
0.0319475
0.0319397
0.0319467
0.0319568
0.0319654
0.0319724
0.0319784
0.0319835
0.0319879
0.0319916
0.0319949
0.0319977
0.0320002
0.0320023
0.0320041
0.0320057
0.032007
0.0320082
0.0320092
0.0320101
0.0320109
0.0320115
0.0320121
0.0320126
0.032013
0.0320134
0.0320137
0.032014
0.0320142
0.0320145
0.0320146
0.0320148
0.0320149
0.032015
0.0320151
0.0320152
0.0320153
0.0320154
0.0320154
0.0320155
0.0320155
0.0320155
0.0320156
0.0320156
0.0320156
0.0320156
0.0320156
0.0320156
0.0320156
0.0320156
0.0320156
0.0320156
0.0320157
0.0320157
0.0320157
0.0320157
0.0320157
0.0320157
0.0320157
0.0320157
0.0320157
0.0320157
0.0320157
0.0320157
0.0320157
0.0320157
0.0320157
0.0320157
0.0320157
0.0320157
0.0320157
0.0320157
0.0320157
0.0320157
0.0320157
0.0320157
)
;
    }
    procBoundary2to3
    {
        type            processor;
        value           nonuniform List<scalar> 
180
(
1.86645e-09
5.67965e-09
9.46411e-09
1.30551e-08
1.64491e-08
1.95564e-08
2.23211e-08
2.46894e-08
2.66119e-08
2.8044e-08
2.89473e-08
2.929e-08
2.90477e-08
2.82039e-08
2.67506e-08
2.46884e-08
2.20272e-08
1.87857e-08
1.49924e-08
1.0684e-08
5.90611e-09
7.11821e-10
-4.83836e-09
-1.06777e-08
-1.67344e-08
-2.29337e-08
-2.9199e-08
-3.54541e-08
-4.16234e-08
-4.76331e-08
-5.34125e-08
-5.88947e-08
-6.4018e-08
-6.87254e-08
-7.29647e-08
-7.66873e-08
-7.98468e-08
-8.23961e-08
-8.42842e-08
-8.54521e-08
-8.58277e-08
-8.53196e-08
-8.3812e-08
-8.11594e-08
-7.71816e-08
-7.16582e-08
-6.43237e-08
-5.48646e-08
-4.29178e-08
-2.8071e-08
-9.86477e-09
1.22034e-08
3.86728e-08
7.01119e-08
1.07108e-07
1.50255e-07
2.00142e-07
2.57334e-07
3.22357e-07
3.95672e-07
4.77651e-07
5.6855e-07
6.68481e-07
7.77383e-07
8.9498e-07
1.02072e-06
1.15375e-06
1.29286e-06
1.43662e-06
1.58359e-06
1.7333e-06
1.88847e-06
2.06227e-06
2.26188e-06
2.47023e-06
2.67639e-06
3.08936e-06
4.46869e-06
6.6547e-06
-2.94413e-06
-7.80852e-05
0.000749024
0.00119226
0.00160154
0.0045147
0.00536042
0.00852121
0.0109362
0.0115064
0.0136957
0.0149343
0.0150908
0.0175076
0.0216399
0.0219784
0.0231707
0.0241255
0.025539
0.0279416
0.0286691
0.0291542
0.0305616
0.0319905
0.0320133
0.0320299
0.0320328
0.0320311
0.0320298
0.0320289
0.0320281
0.0320271
0.0320262
0.0320253
0.0320244
0.0320236
0.0320228
0.0320221
0.0320214
0.0320208
0.0320202
0.0320197
0.0320193
0.0320189
0.0320185
0.0320182
0.0320179
0.0320176
0.0320174
0.0320172
0.032017
0.0320168
0.0320167
0.0320165
0.0320164
0.0320163
0.0320162
0.0320162
0.0320161
0.032016
0.032016
0.0320159
0.0320159
0.0320159
0.0320158
0.0320158
0.0320158
0.0320158
0.0320158
0.0320157
0.0320157
0.0320157
0.0320157
0.0320157
0.0320157
0.0320157
0.0320157
0.0320157
0.0320157
0.0320157
0.0320157
0.0320157
0.0320157
0.0320157
0.0320156
0.0320156
0.0320156
0.0320156
0.0320156
0.0320156
0.0320156
0.0320156
0.0320156
0.0320157
0.0320157
0.0320157
0.0320157
0.0320157
0.0320157
0.0320157
0.0320157
)
;
    }
}


// ************************************************************************* //
