/*--------------------------------*- C++ -*----------------------------------*\
  =========                 |
  \\      /  F ield         | OpenFOAM: The Open Source CFD Toolbox
   \\    /   O peration     | Website:  https://openfoam.org
    \\  /    A nd           | Version:  9
     \\/     M anipulation  |
\*---------------------------------------------------------------------------*/
FoamFile
{
    format      ascii;
    class       volVectorField;
    location    "10000";
    object      stored_U;
}
// * * * * * * * * * * * * * * * * * * * * * * * * * * * * * * * * * * * * * //

dimensions      [0 1 -1 0 0 0 0];

internalField   nonuniform List<vector> 
9000
(
(-5.47084e-12 2.11265e-11 -0.000999999)
(-2.16333e-11 2.18557e-11 -0.001)
(-4.42326e-11 1.82427e-11 -0.001)
(-2.99641e-11 1.99464e-11 -0.001)
(-4.56116e-11 3.29402e-12 -0.001)
(-1.04085e-10 5.47592e-12 -0.001)
(-1.02806e-10 3.49108e-12 -0.001)
(-6.74903e-11 7.26614e-12 -0.001)
(-3.68486e-11 1.13038e-11 -0.001)
(-1.17908e-11 1.29102e-11 -0.001)
(-4.79481e-12 5.20417e-11 -0.000999999)
(-2.4607e-11 4.81977e-11 -0.000999999)
(-4.62364e-11 4.04196e-11 -0.000999999)
(-4.50269e-11 3.3382e-11 -0.001)
(-6.02446e-11 -6.62185e-12 -0.001)
(-1.0415e-10 6.94999e-12 -0.001)
(-1.01268e-10 1.78254e-11 -0.001)
(-5.98144e-11 3.32196e-11 -0.001)
(-3.12474e-11 4.19196e-11 -0.001)
(-1.01818e-11 4.36351e-11 -0.001)
(-9.42379e-12 7.21821e-11 -0.000999999)
(-3.34045e-11 6.60227e-11 -0.000999999)
(-5.91438e-11 5.5219e-11 -0.000999999)
(-7.709e-11 3.86584e-11 -0.001)
(-7.21638e-11 1.21751e-11 -0.001)
(-7.98758e-11 2.39625e-11 -0.001)
(-7.67714e-11 4.39232e-11 -0.001)
(-4.35391e-11 5.98276e-11 -0.001)
(-2.64264e-11 6.68966e-11 -0.001)
(-1.00156e-11 6.9763e-11 -0.001)
(-1.10944e-11 9.20627e-11 -0.000999999)
(-4.17197e-11 8.47723e-11 -0.000999999)
(-7.36031e-11 6.27863e-11 -0.000999999)
(-8.80723e-11 5.29195e-11 -0.000999999)
(-7.49424e-11 2.50887e-11 -0.001)
(-7.24039e-11 1.06155e-10 -0.001)
(-6.54085e-11 7.35407e-11 -0.001)
(-3.68416e-11 7.08959e-11 -0.001)
(-2.11742e-11 7.29235e-11 -0.001)
(-7.18231e-12 7.55453e-11 -0.001)
(-1.69025e-11 9.46859e-11 -0.000999999)
(-6.28753e-11 8.74454e-11 -0.000999999)
(-9.10008e-11 8.60378e-11 -0.000999999)
(-1.14789e-10 8.29785e-11 -0.000999999)
(-1.8984e-11 1.36712e-10 -0.001)
(-3.14415e-11 5.27085e-11 -0.000999999)
(-1.12078e-10 9.58447e-11 -0.001)
(-4.41507e-11 9.03723e-11 -0.001)
(-2.16181e-11 9.3227e-11 -0.001)
(-7.24601e-12 9.16994e-11 -0.001)
(-1.85206e-11 7.54046e-11 -0.000999999)
(-5.05711e-11 7.19969e-11 -0.000999999)
(-7.80743e-11 8.70387e-11 -0.000999999)
(-3.74829e-11 9.24842e-11 -0.000999999)
(-1.05271e-10 1.36226e-10 -0.000999999)
(-1.1337e-10 6.47299e-11 -0.000999999)
(-2.77567e-11 1.17253e-10 -0.001)
(-3.94052e-11 1.18913e-10 -0.001)
(-1.96411e-11 1.16828e-10 -0.001)
(-8.51234e-12 1.14557e-10 -0.001)
(-2.04308e-11 5.96213e-11 -0.000999999)
(-5.13819e-11 6.43258e-11 -0.000999999)
(-7.05123e-11 7.23694e-11 -0.000999999)
(-6.56594e-11 9.01968e-11 -0.000999999)
(-4.67533e-11 5.901e-11 -0.000999999)
(-5.03902e-11 1.39743e-10 -0.000999999)
(-5.77896e-11 1.12865e-10 -0.000999999)
(-4.45301e-11 1.13779e-10 -0.000999999)
(-2.57479e-11 1.08417e-10 -0.000999999)
(-9.29011e-12 1.03507e-10 -0.000999999)
(-1.39127e-11 5.40691e-11 -0.000999998)
(-3.79201e-11 5.92872e-11 -0.000999999)
(-5.22036e-11 7.2224e-11 -0.000999999)
(-5.08421e-11 8.66885e-11 -0.000999999)
(-5.567e-11 8.62007e-11 -0.000999999)
(-5.93947e-11 7.77774e-11 -0.000999999)
(-5.37094e-11 8.0504e-11 -0.000999999)
(-4.38395e-11 8.28122e-11 -0.000999999)
(-2.9721e-11 7.8802e-11 -0.000999999)
(-1.32209e-11 7.24568e-11 -0.000999999)
(-1.53211e-11 3.24178e-11 -0.000999998)
(-3.333e-11 3.44011e-11 -0.000999998)
(-4.31104e-11 4.32345e-11 -0.000999998)
(-5.16814e-11 4.98919e-11 -0.000999999)
(-5.56622e-11 4.55994e-11 -0.000999999)
(-5.60814e-11 4.68648e-11 -0.000999999)
(-5.2748e-11 5.17996e-11 -0.000999999)
(-4.62294e-11 5.01361e-11 -0.000999999)
(-3.5966e-11 4.38126e-11 -0.000999999)
(-1.54837e-11 4.24701e-11 -0.000999999)
(-1.19697e-11 6.48764e-12 -0.000999998)
(-2.7114e-11 9.82848e-12 -0.000999998)
(-3.66449e-11 1.26557e-11 -0.000999998)
(-4.83851e-11 1.62181e-11 -0.000999999)
(-5.85764e-11 1.58511e-11 -0.000999999)
(-5.30537e-11 1.31889e-11 -0.000999999)
(-5.02978e-11 1.87308e-11 -0.000999999)
(-5.17036e-11 1.54899e-11 -0.000999999)
(-3.72229e-11 1.31485e-11 -0.000999999)
(-1.44493e-11 1.4125e-11 -0.000999999)
(-1.95384e-11 6.14677e-11 -0.001)
(-7.46745e-11 5.94386e-11 -0.001)
(-1.38279e-10 5.3726e-11 -0.001)
(-1.28942e-10 5.09782e-11 -0.001)
(-1.72146e-10 6.0773e-12 -0.001)
(-2.85435e-10 9.79889e-12 -0.001)
(-2.68669e-10 1.91882e-11 -0.001)
(-1.77488e-10 3.14567e-11 -0.001)
(-1.00645e-10 3.86614e-11 -0.001)
(-3.26946e-11 4.11528e-11 -0.001)
(-2.17287e-11 1.56572e-10 -0.000999999)
(-8.27116e-11 1.46326e-10 -0.000999999)
(-1.47055e-10 1.29788e-10 -0.001)
(-1.7704e-10 1.00094e-10 -0.001)
(-2.13878e-10 1.6652e-11 -0.001)
(-2.72964e-10 4.35982e-11 -0.001)
(-2.47567e-10 8.71569e-11 -0.001)
(-1.58339e-10 1.15813e-10 -0.001)
(-9.10207e-11 1.30707e-10 -0.001)
(-3.01822e-11 1.33209e-10 -0.001)
(-3.01118e-11 2.23216e-10 -0.000999999)
(-1.01925e-10 2.07938e-10 -0.000999999)
(-1.84813e-10 1.76852e-10 -0.000999999)
(-2.42415e-10 1.4073e-10 -0.001)
(-2.29073e-10 1.04619e-10 -0.001)
(-2.15534e-10 1.23495e-10 -0.001)
(-1.97011e-10 1.64555e-10 -0.001)
(-1.3429e-10 1.92751e-10 -0.001)
(-8.31707e-11 2.07014e-10 -0.001)
(-3.00047e-11 2.10952e-10 -0.001)
(-3.74294e-11 2.87344e-10 -0.000999999)
(-1.29524e-10 2.62539e-10 -0.000999999)
(-2.1427e-10 2.08783e-10 -0.000999999)
(-2.49277e-10 1.94131e-10 -0.000999999)
(-2.31115e-10 1.23374e-10 -0.001)
(-2.13032e-10 3.26325e-10 -0.001)
(-1.78312e-10 2.52445e-10 -0.001)
(-1.15882e-10 2.52006e-10 -0.001)
(-7.24034e-11 2.48003e-10 -0.001)
(-2.58337e-11 2.42455e-10 -0.001)
(-5.54438e-11 2.91224e-10 -0.000999999)
(-1.81056e-10 2.73517e-10 -0.000999999)
(-2.53224e-10 2.7128e-10 -0.000999999)
(-3.27819e-10 2.67479e-10 -0.000999999)
(-9.69001e-11 3.84876e-10 -0.000999999)
(-8.65672e-11 1.96969e-10 -0.001)
(-2.71373e-10 2.863e-10 -0.001)
(-1.38734e-10 2.90487e-10 -0.001)
(-9.22263e-11 2.95109e-10 -0.001)
(-3.50628e-11 2.84143e-10 -0.001)
(-5.56924e-11 2.35253e-10 -0.000999999)
(-1.50061e-10 2.37447e-10 -0.000999999)
(-2.20309e-10 2.8247e-10 -0.000999999)
(-1.35606e-10 2.9622e-10 -0.000999999)
(-3.01748e-10 4.2315e-10 -0.000999999)
(-3.11616e-10 2.22183e-10 -0.000999999)
(-8.462e-11 3.28065e-10 -0.000999999)
(-1.07038e-10 3.30116e-10 -0.001)
(-7.81739e-11 3.27445e-10 -0.001)
(-3.61908e-11 3.24515e-10 -0.001)
(-5.36717e-11 1.97307e-10 -0.000999999)
(-1.34291e-10 2.15241e-10 -0.000999999)
(-1.94458e-10 2.42189e-10 -0.000999999)
(-1.87229e-10 2.82617e-10 -0.000999999)
(-1.70982e-10 2.34122e-10 -0.000999999)
(-1.8149e-10 4.1227e-10 -0.000999999)
(-1.63337e-10 3.43259e-10 -0.000999999)
(-1.39391e-10 3.21349e-10 -0.000999999)
(-9.72126e-11 2.98893e-10 -0.000999999)
(-3.73551e-11 2.91728e-10 -0.001)
(-3.81224e-11 1.71888e-10 -0.000999998)
(-1.0553e-10 1.90922e-10 -0.000999998)
(-1.52934e-10 2.16614e-10 -0.000999998)
(-1.43701e-10 2.58258e-10 -0.000999999)
(-1.72095e-10 2.55467e-10 -0.000999999)
(-2.02576e-10 2.53858e-10 -0.000999999)
(-1.75575e-10 2.44567e-10 -0.000999999)
(-1.5141e-10 2.33951e-10 -0.000999999)
(-1.07258e-10 2.2277e-10 -0.000999999)
(-4.281e-11 2.16368e-10 -0.000999999)
(-3.50018e-11 1.12764e-10 -0.000999998)
(-8.98842e-11 1.2266e-10 -0.000999998)
(-1.27117e-10 1.42326e-10 -0.000999998)
(-1.48373e-10 1.63238e-10 -0.000999998)
(-1.75359e-10 1.43143e-10 -0.000999999)
(-1.92338e-10 1.53474e-10 -0.000999999)
(-1.83248e-10 1.53643e-10 -0.000999999)
(-1.6118e-10 1.4274e-10 -0.000999999)
(-1.14389e-10 1.34333e-10 -0.000999999)
(-4.33361e-11 1.36405e-10 -0.000999999)
(-2.83678e-11 3.49771e-11 -0.000999998)
(-7.60077e-11 4.16149e-11 -0.000999998)
(-1.12144e-10 4.87604e-11 -0.000999998)
(-1.42609e-10 5.63573e-11 -0.000999998)
(-1.81494e-10 5.4229e-11 -0.000999998)
(-1.91583e-10 4.9862e-11 -0.000999999)
(-1.8585e-10 5.4509e-11 -0.000999999)
(-1.70336e-10 4.67981e-11 -0.000999999)
(-1.13091e-10 4.49976e-11 -0.000999999)
(-4.04008e-11 4.77579e-11 -0.000999999)
(-4.57495e-11 9.9118e-11 -0.001)
(-1.50366e-10 9.69272e-11 -0.001)
(-2.55716e-10 8.83937e-11 -0.001)
(-2.98721e-10 7.42752e-11 -0.001)
(-3.51148e-10 4.08682e-11 -0.001)
(-4.30973e-10 3.62009e-11 -0.001)
(-3.95415e-10 5.46438e-11 -0.001)
(-2.79129e-10 6.89408e-11 -0.001)
(-1.67957e-10 7.29722e-11 -0.001)
(-5.67444e-11 7.19352e-11 -0.001)
(-4.82313e-11 2.68459e-10 -0.001)
(-1.61642e-10 2.59085e-10 -0.001)
(-2.78996e-10 2.34652e-10 -0.001)
(-3.47068e-10 1.9216e-10 -0.001)
(-3.9015e-10 1.34222e-10 -0.001)
(-4.1811e-10 1.44461e-10 -0.001)
(-3.63421e-10 1.97543e-10 -0.001)
(-2.61323e-10 2.22731e-10 -0.001)
(-1.65123e-10 2.30849e-10 -0.001)
(-5.77441e-11 2.26253e-10 -0.001)
(-5.57232e-11 3.96826e-10 -0.000999999)
(-1.85024e-10 3.76687e-10 -0.000999999)
(-3.2321e-10 3.36966e-10 -0.001)
(-3.99845e-10 3.03193e-10 -0.001)
(-3.99668e-10 2.94605e-10 -0.001)
(-3.6856e-10 2.87959e-10 -0.001)
(-3.17932e-10 3.34935e-10 -0.001)
(-2.46374e-10 3.56781e-10 -0.001)
(-1.643e-10 3.63448e-10 -0.001)
(-6.09839e-11 3.62144e-10 -0.001)
(-6.91044e-11 5.15863e-10 -0.000999999)
(-2.22286e-10 4.79942e-10 -0.000999999)
(-3.52506e-10 4.29144e-10 -0.000999999)
(-3.89502e-10 4.24518e-10 -0.001)
(-4.05432e-10 3.502e-10 -0.001)
(-3.77697e-10 5.3018e-10 -0.001)
(-2.94585e-10 4.69972e-10 -0.001)
(-2.32811e-10 4.66869e-10 -0.001)
(-1.59038e-10 4.48071e-10 -0.001)
(-5.83198e-11 4.35399e-10 -0.001)
(-9.25329e-11 5.32199e-10 -0.000999999)
(-2.72737e-10 5.11612e-10 -0.000999999)
(-3.78724e-10 5.03078e-10 -0.000999999)
(-4.78839e-10 4.95349e-10 -0.000999999)
(-2.93913e-10 5.71215e-10 -0.000999999)
(-2.48471e-10 4.76291e-10 -0.001)
(-3.81146e-10 5.27978e-10 -0.001)
(-2.6827e-10 5.27898e-10 -0.001)
(-1.94897e-10 5.17887e-10 -0.001)
(-7.27827e-11 5.02173e-10 -0.001)
(-9.06596e-11 4.45719e-10 -0.000999999)
(-2.52516e-10 4.60142e-10 -0.000999999)
(-3.68869e-10 5.07667e-10 -0.000999999)
(-3.21353e-10 5.25176e-10 -0.000999999)
(-4.24234e-10 6.68661e-10 -0.000999999)
(-4.20801e-10 4.87591e-10 -0.000999999)
(-2.43138e-10 5.65685e-10 -0.000999999)
(-2.42979e-10 5.56502e-10 -0.001)
(-1.83751e-10 5.54823e-10 -0.001)
(-7.29861e-11 5.564e-10 -0.001)
(-7.90068e-11 3.90331e-10 -0.000999998)
(-2.11744e-10 4.21659e-10 -0.000999998)
(-3.13755e-10 4.67497e-10 -0.000999999)
(-3.17911e-10 5.29331e-10 -0.000999999)
(-3.31277e-10 5.20125e-10 -0.000999999)
(-3.51529e-10 6.30168e-10 -0.000999999)
(-3.12448e-10 5.59167e-10 -0.000999999)
(-2.79124e-10 5.25881e-10 -0.000999999)
(-1.93927e-10 5.09458e-10 -0.001)
(-7.01266e-11 5.11009e-10 -0.001)
(-6.01415e-11 3.342e-10 -0.000999998)
(-1.76101e-10 3.60799e-10 -0.000999998)
(-2.61159e-10 3.9533e-10 -0.000999998)
(-2.68633e-10 4.47762e-10 -0.000999998)
(-3.23403e-10 4.43185e-10 -0.000999999)
(-3.81783e-10 4.47877e-10 -0.000999999)
(-3.47383e-10 4.15019e-10 -0.000999999)
(-2.92679e-10 3.98958e-10 -0.000999999)
(-1.97658e-10 3.94228e-10 -0.000999999)
(-7.04853e-11 3.97821e-10 -0.000999999)
(-5.30592e-11 2.22069e-10 -0.000999998)
(-1.51204e-10 2.36345e-10 -0.000999998)
(-2.26763e-10 2.63732e-10 -0.000999998)
(-2.70047e-10 2.87024e-10 -0.000999998)
(-3.31174e-10 2.65644e-10 -0.000999998)
(-3.79693e-10 2.73381e-10 -0.000999999)
(-3.61362e-10 2.63637e-10 -0.000999999)
(-2.99903e-10 2.54126e-10 -0.000999999)
(-1.94302e-10 2.55753e-10 -0.000999999)
(-6.578e-11 2.62235e-10 -0.000999999)
(-4.62461e-11 7.64327e-11 -0.000999998)
(-1.34637e-10 8.33171e-11 -0.000999998)
(-2.10073e-10 9.28741e-11 -0.000999998)
(-2.66191e-10 9.95741e-11 -0.000999998)
(-3.36337e-10 9.61811e-11 -0.000999998)
(-3.82951e-10 9.37145e-11 -0.000999999)
(-3.65809e-10 9.2068e-11 -0.000999999)
(-2.99918e-10 8.84421e-11 -0.000999999)
(-1.88647e-10 9.14209e-11 -0.000999999)
(-6.3385e-11 9.35126e-11 -0.000999999)
(-7.86387e-11 1.43265e-10 -0.001)
(-2.48617e-10 1.42364e-10 -0.001)
(-4.07541e-10 1.32794e-10 -0.001)
(-4.98725e-10 1.18302e-10 -0.001)
(-5.50939e-10 1.00717e-10 -0.001)
(-5.88237e-10 9.91538e-11 -0.001)
(-5.35155e-10 1.10091e-10 -0.001)
(-4.03772e-10 1.15934e-10 -0.001)
(-2.58361e-10 1.1406e-10 -0.001)
(-9.12011e-11 1.08352e-10 -0.001)
(-7.99772e-11 4.02483e-10 -0.001)
(-2.59929e-10 3.90852e-10 -0.001)
(-4.32538e-10 3.65966e-10 -0.001)
(-5.31972e-10 3.28545e-10 -0.001)
(-5.71329e-10 3.1104e-10 -0.001)
(-5.8006e-10 3.1203e-10 -0.001)
(-5.19432e-10 3.43148e-10 -0.001)
(-4.00608e-10 3.5298e-10 -0.001)
(-2.66228e-10 3.47522e-10 -0.001)
(-9.68687e-11 3.39812e-10 -0.001)
(-9.11589e-11 6.05562e-10 -0.000999999)
(-2.86433e-10 5.80542e-10 -0.001)
(-4.70717e-10 5.47881e-10 -0.001)
(-5.54711e-10 5.1774e-10 -0.001)
(-5.68585e-10 5.31166e-10 -0.001)
(-5.57316e-10 5.34142e-10 -0.001)
(-4.95268e-10 5.58056e-10 -0.001)
(-4.00192e-10 5.5968e-10 -0.001)
(-2.71352e-10 5.48646e-10 -0.001)
(-9.84025e-11 5.45965e-10 -0.001)
(-1.06093e-10 7.75734e-10 -0.000999999)
(-3.18791e-10 7.45592e-10 -0.000999999)
(-4.95364e-10 7.18551e-10 -0.000999999)
(-5.48642e-10 7.11343e-10 -0.001)
(-5.54879e-10 6.95842e-10 -0.001)
(-5.53272e-10 7.53745e-10 -0.001)
(-4.93918e-10 7.22011e-10 -0.001)
(-4.10022e-10 7.03661e-10 -0.001)
(-2.78881e-10 6.79991e-10 -0.001)
(-9.84778e-11 6.73553e-10 -0.001)
(-1.22695e-10 8.38172e-10 -0.000999999)
(-3.45161e-10 8.30002e-10 -0.000999999)
(-5.04981e-10 8.20891e-10 -0.000999999)
(-5.77315e-10 8.0733e-10 -0.000999999)
(-5.26177e-10 8.01797e-10 -0.000999999)
(-5.31454e-10 8.19716e-10 -0.001)
(-5.45349e-10 8.26534e-10 -0.001)
(-4.42226e-10 8.06548e-10 -0.001)
(-3.00177e-10 7.87524e-10 -0.001)
(-1.03542e-10 7.79687e-10 -0.001)
(-1.15904e-10 7.54903e-10 -0.000999999)
(-3.37708e-10 7.77812e-10 -0.000999999)
(-5.1792e-10 8.10096e-10 -0.000999999)
(-5.67754e-10 8.39577e-10 -0.000999999)
(-5.42724e-10 8.78441e-10 -0.000999999)
(-5.28526e-10 8.24306e-10 -0.000999999)
(-5.07007e-10 8.57485e-10 -0.001)
(-4.49042e-10 8.50831e-10 -0.001)
(-3.04261e-10 8.54673e-10 -0.001)
(-1.04807e-10 8.57245e-10 -0.001)
(-1.01338e-10 6.6825e-10 -0.000999998)
(-2.91423e-10 6.99435e-10 -0.000999998)
(-4.43187e-10 7.49179e-10 -0.000999998)
(-5.08769e-10 8.23352e-10 -0.000999999)
(-5.41619e-10 8.51357e-10 -0.000999999)
(-5.5249e-10 8.34566e-10 -0.000999999)
(-5.18747e-10 7.90838e-10 -0.000999999)
(-4.44941e-10 7.82943e-10 -0.000999999)
(-2.92114e-10 7.94406e-10 -0.001)
(-9.93442e-11 8.04882e-10 -0.001)
(-8.60508e-11 5.63287e-10 -0.000999998)
(-2.58093e-10 5.87849e-10 -0.000999998)
(-3.94061e-10 6.23136e-10 -0.000999998)
(-4.65635e-10 6.6456e-10 -0.000999998)
(-5.31571e-10 6.69804e-10 -0.000999998)
(-5.89011e-10 6.64419e-10 -0.000999999)
(-5.58562e-10 6.25889e-10 -0.000999999)
(-4.45451e-10 6.21674e-10 -0.000999999)
(-2.80787e-10 6.33181e-10 -0.000999999)
(-9.2831e-11 6.42152e-10 -0.000999999)
(-7.79228e-11 3.70301e-10 -0.000999998)
(-2.32728e-10 3.83865e-10 -0.000999998)
(-3.66509e-10 4.08113e-10 -0.000999998)
(-4.62096e-10 4.21806e-10 -0.000999998)
(-5.41751e-10 4.09136e-10 -0.000999998)
(-5.96434e-10 4.06667e-10 -0.000999999)
(-5.61483e-10 4.05198e-10 -0.000999999)
(-4.37633e-10 4.11537e-10 -0.000999999)
(-2.70389e-10 4.21198e-10 -0.000999999)
(-8.91467e-11 4.22543e-10 -0.000999999)
(-7.30804e-11 1.2922e-10 -0.000999998)
(-2.20583e-10 1.34172e-10 -0.000999998)
(-3.55419e-10 1.41175e-10 -0.000999998)
(-4.63686e-10 1.44539e-10 -0.000999998)
(-5.45585e-10 1.38665e-10 -0.000999998)
(-5.91676e-10 1.39593e-10 -0.000999998)
(-5.52506e-10 1.4214e-10 -0.000999999)
(-4.28544e-10 1.47369e-10 -0.000999999)
(-2.68403e-10 1.5032e-10 -0.000999999)
(-9.04941e-11 1.48539e-10 -0.000999999)
(-1.23259e-10 1.98395e-10 -0.001)
(-3.73304e-10 1.95625e-10 -0.001)
(-5.90249e-10 1.87965e-10 -0.001)
(-7.2526e-10 1.81208e-10 -0.001)
(-7.88738e-10 1.773e-10 -0.001)
(-8.04562e-10 1.77051e-10 -0.001)
(-7.35936e-10 1.75268e-10 -0.001)
(-5.81005e-10 1.74613e-10 -0.001)
(-3.82773e-10 1.67555e-10 -0.001)
(-1.3672e-10 1.62486e-10 -0.001)
(-1.26659e-10 5.65809e-10 -0.001)
(-3.84922e-10 5.52184e-10 -0.001)
(-6.05905e-10 5.36312e-10 -0.001)
(-7.37436e-10 5.19943e-10 -0.001)
(-7.94515e-10 5.2161e-10 -0.001)
(-8.08226e-10 5.26513e-10 -0.001)
(-7.39893e-10 5.26065e-10 -0.001)
(-5.89965e-10 5.18932e-10 -0.001)
(-3.95372e-10 5.07444e-10 -0.001)
(-1.41744e-10 5.02664e-10 -0.001)
(-1.3817e-10 8.63452e-10 -0.001)
(-4.04663e-10 8.44533e-10 -0.001)
(-6.23692e-10 8.30863e-10 -0.001)
(-7.41422e-10 8.1038e-10 -0.001)
(-7.83758e-10 8.28944e-10 -0.001)
(-8.01719e-10 8.50254e-10 -0.001)
(-7.45023e-10 8.4749e-10 -0.001)
(-6.00856e-10 8.24492e-10 -0.001)
(-3.98841e-10 8.05755e-10 -0.001)
(-1.40802e-10 8.01479e-10 -0.001)
(-1.47205e-10 1.09796e-09 -0.000999999)
(-4.19215e-10 1.08739e-09 -0.000999999)
(-6.40061e-10 1.07799e-09 -0.000999999)
(-7.39338e-10 1.05569e-09 -0.001)
(-7.54664e-10 1.1201e-09 -0.001)
(-7.8969e-10 1.1059e-09 -0.001)
(-7.65676e-10 1.05804e-09 -0.001)
(-6.31706e-10 1.02193e-09 -0.001)
(-4.1682e-10 1.00187e-09 -0.001)
(-1.44457e-10 9.94537e-10 -0.001)
(-1.50844e-10 1.22581e-09 -0.000999999)
(-4.26768e-10 1.23667e-09 -0.000999999)
(-6.55309e-10 1.23292e-09 -0.000999999)
(-6.99359e-10 1.22977e-09 -0.000999999)
(-7.3357e-10 1.16602e-09 -0.000999999)
(-8.63814e-10 1.2277e-09 -0.001)
(-8.28996e-10 1.17877e-09 -0.001)
(-6.56983e-10 1.16668e-09 -0.001)
(-4.24167e-10 1.15647e-09 -0.001)
(-1.46093e-10 1.15436e-09 -0.001)
(-1.38775e-10 1.17799e-09 -0.000999998)
(-4.1452e-10 1.19559e-09 -0.000999998)
(-6.47014e-10 1.21284e-09 -0.000999998)
(-8.06365e-10 1.25061e-09 -0.000999999)
(-7.57111e-10 1.17877e-09 -0.000999999)
(-7.76979e-10 1.17769e-09 -0.000999999)
(-8.26448e-10 1.21517e-09 -0.001)
(-6.53966e-10 1.23762e-09 -0.001)
(-4.26733e-10 1.25293e-09 -0.001)
(-1.44177e-10 1.26521e-09 -0.001)
(-1.35612e-10 1.05339e-09 -0.000999998)
(-3.94256e-10 1.07129e-09 -0.000999998)
(-6.00289e-10 1.10035e-09 -0.000999998)
(-7.33672e-10 1.14262e-09 -0.000999998)
(-8.06579e-10 1.18249e-09 -0.000999999)
(-8.27077e-10 1.0917e-09 -0.000999999)
(-7.69082e-10 1.12298e-09 -0.000999999)
(-6.19288e-10 1.14272e-09 -0.000999999)
(-3.94106e-10 1.17649e-09 -0.001)
(-1.31369e-10 1.19618e-09 -0.001)
(-1.22898e-10 8.65027e-10 -0.000999997)
(-3.696e-10 8.83659e-10 -0.000999998)
(-5.75736e-10 9.06376e-10 -0.000999998)
(-7.24287e-10 9.19667e-10 -0.000999998)
(-8.0778e-10 9.13428e-10 -0.000999998)
(-8.36391e-10 9.15955e-10 -0.000999999)
(-7.75522e-10 9.12249e-10 -0.000999999)
(-6.00389e-10 9.27102e-10 -0.000999999)
(-3.70988e-10 9.4931e-10 -0.000999999)
(-1.22261e-10 9.5357e-10 -0.000999999)
(-1.18655e-10 5.58552e-10 -0.000999997)
(-3.54576e-10 5.64293e-10 -0.000999997)
(-5.64284e-10 5.78363e-10 -0.000999997)
(-7.26579e-10 5.7987e-10 -0.000999998)
(-8.10256e-10 5.80039e-10 -0.000999998)
(-8.28252e-10 5.83405e-10 -0.000999998)
(-7.57911e-10 5.98769e-10 -0.000999999)
(-5.82205e-10 6.15031e-10 -0.000999999)
(-3.65771e-10 6.2157e-10 -0.000999999)
(-1.25256e-10 6.13748e-10 -0.000999999)
(-1.18003e-10 1.92875e-10 -0.000999997)
(-3.50189e-10 1.93671e-10 -0.000999997)
(-5.59055e-10 1.96947e-10 -0.000999997)
(-7.21159e-10 1.97781e-10 -0.000999998)
(-8.02621e-10 2.00906e-10 -0.000999998)
(-8.15977e-10 2.03783e-10 -0.000999998)
(-7.42344e-10 2.11487e-10 -0.000999998)
(-5.76395e-10 2.17789e-10 -0.000999999)
(-3.70314e-10 2.16119e-10 -0.000999999)
(-1.28584e-10 2.12077e-10 -0.000999999)
(-1.84493e-10 2.67754e-10 -0.001)
(-5.3106e-10 2.65593e-10 -0.001)
(-8.13382e-10 2.63932e-10 -0.001)
(-1.00468e-09 2.67145e-10 -0.001)
(-1.10033e-09 2.75108e-10 -0.001)
(-1.11272e-09 2.70663e-10 -0.001)
(-1.02621e-09 2.60436e-10 -0.001)
(-8.25625e-10 2.5696e-10 -0.001)
(-5.38519e-10 2.49387e-10 -0.001)
(-1.88814e-10 2.46985e-10 -0.001)
(-1.87542e-10 7.78542e-10 -0.001)
(-5.36486e-10 7.72948e-10 -0.001)
(-8.13438e-10 7.74253e-10 -0.001)
(-9.95462e-10 7.82333e-10 -0.001)
(-1.09896e-09 7.97554e-10 -0.001)
(-1.12963e-09 7.97062e-10 -0.001)
(-1.04202e-09 7.67897e-10 -0.001)
(-8.38363e-10 7.55095e-10 -0.001)
(-5.49104e-10 7.42923e-10 -0.001)
(-1.91098e-10 7.37663e-10 -0.001)
(-1.91947e-10 1.21079e-09 -0.001)
(-5.37943e-10 1.21063e-09 -0.001)
(-8.05618e-10 1.21776e-09 -0.001)
(-9.8336e-10 1.22087e-09 -0.001)
(-1.08776e-09 1.23259e-09 -0.001)
(-1.1446e-09 1.25579e-09 -0.001)
(-1.07027e-09 1.21303e-09 -0.001)
(-8.5226e-10 1.18685e-09 -0.001)
(-5.55524e-10 1.16818e-09 -0.001)
(-1.92934e-10 1.15541e-09 -0.001)
(-1.9009e-10 1.54223e-09 -0.000999999)
(-5.31939e-10 1.54817e-09 -0.000999999)
(-8.0323e-10 1.54475e-09 -0.000999999)
(-9.80649e-10 1.52236e-09 -0.001)
(-1.06406e-09 1.55538e-09 -0.001)
(-1.14921e-09 1.63319e-09 -0.001)
(-1.11098e-09 1.53103e-09 -0.001)
(-8.83202e-10 1.48047e-09 -0.001)
(-5.78138e-10 1.44995e-09 -0.001)
(-2.01467e-10 1.42841e-09 -0.001)
(-1.89054e-10 1.73394e-09 -0.000999999)
(-5.38492e-10 1.74333e-09 -0.000999999)
(-8.31453e-10 1.74473e-09 -0.000999999)
(-9.72734e-10 1.75799e-09 -0.000999999)
(-9.7691e-10 1.7212e-09 -0.001)
(-1.16878e-09 1.68695e-09 -0.001)
(-1.22299e-09 1.67574e-09 -0.001)
(-9.33316e-10 1.66787e-09 -0.001)
(-6.04724e-10 1.65909e-09 -0.001)
(-2.11606e-10 1.65244e-09 -0.001)
(-1.84182e-10 1.71349e-09 -0.000999998)
(-5.24644e-10 1.71854e-09 -0.000999998)
(-7.88604e-10 1.71304e-09 -0.000999998)
(-1.00436e-09 1.72138e-09 -0.000999998)
(-1.13455e-09 1.65157e-09 -0.000999999)
(-1.19458e-09 1.58973e-09 -0.000999999)
(-1.13039e-09 1.68747e-09 -0.001)
(-8.99816e-10 1.7433e-09 -0.001)
(-5.90253e-10 1.78441e-09 -0.001)
(-2.04814e-10 1.81857e-09 -0.001)
(-1.87362e-10 1.54202e-09 -0.000999997)
(-5.4232e-10 1.54979e-09 -0.000999997)
(-8.28712e-10 1.54148e-09 -0.000999998)
(-1.034e-09 1.51596e-09 -0.000999998)
(-1.1086e-09 1.50122e-09 -0.000999998)
(-1.13323e-09 1.50024e-09 -0.000999999)
(-1.06939e-09 1.56699e-09 -0.000999999)
(-8.36353e-10 1.62081e-09 -0.000999999)
(-5.25891e-10 1.67698e-09 -0.001)
(-1.73986e-10 1.70853e-09 -0.001)
(-1.79363e-10 1.23987e-09 -0.000999997)
(-5.28164e-10 1.24886e-09 -0.000999997)
(-8.22446e-10 1.26064e-09 -0.000999997)
(-1.04468e-09 1.25724e-09 -0.000999998)
(-1.15049e-09 1.24934e-09 -0.000999998)
(-1.12863e-09 1.22894e-09 -0.000999998)
(-1.00982e-09 1.27394e-09 -0.000999999)
(-7.89855e-10 1.31212e-09 -0.000999999)
(-4.99235e-10 1.33765e-09 -0.000999999)
(-1.70061e-10 1.33283e-09 -0.000999999)
(-1.80766e-10 7.90729e-10 -0.000999996)
(-5.23968e-10 7.9114e-10 -0.000999997)
(-8.20338e-10 7.96989e-10 -0.000999997)
(-1.0453e-09 7.94367e-10 -0.000999997)
(-1.13679e-09 8.04161e-10 -0.000999998)
(-1.10861e-09 8.21773e-10 -0.000999998)
(-9.86218e-10 8.39037e-10 -0.000999998)
(-7.72611e-10 8.55051e-10 -0.000999998)
(-5.02557e-10 8.54506e-10 -0.000999999)
(-1.7619e-10 8.4482e-10 -0.000999999)
(-1.80127e-10 2.71158e-10 -0.000999996)
(-5.22426e-10 2.71973e-10 -0.000999996)
(-8.1761e-10 2.72204e-10 -0.000999997)
(-1.03543e-09 2.73089e-10 -0.000999997)
(-1.12085e-09 2.79996e-10 -0.000999997)
(-1.09155e-09 2.86774e-10 -0.000999998)
(-9.7455e-10 2.94844e-10 -0.000999998)
(-7.7281e-10 2.96454e-10 -0.000999998)
(-5.06782e-10 2.93108e-10 -0.000999999)
(-1.77714e-10 2.90664e-10 -0.000999999)
(-2.56675e-10 3.67121e-10 -0.001)
(-7.24901e-10 3.71919e-10 -0.001)
(-1.10218e-09 3.76586e-10 -0.001)
(-1.37485e-09 3.85499e-10 -0.001)
(-1.52278e-09 3.96161e-10 -0.001)
(-1.54288e-09 3.84096e-10 -0.001)
(-1.42073e-09 3.70274e-10 -0.001)
(-1.13788e-09 3.67518e-10 -0.001)
(-7.26407e-10 3.63229e-10 -0.001)
(-2.48262e-10 3.62734e-10 -0.001)
(-2.53102e-10 1.08277e-09 -0.001)
(-7.1757e-10 1.09303e-09 -0.001)
(-1.09073e-09 1.10628e-09 -0.001)
(-1.35791e-09 1.1252e-09 -0.001)
(-1.52715e-09 1.1417e-09 -0.001)
(-1.57188e-09 1.13012e-09 -0.001)
(-1.4402e-09 1.09094e-09 -0.001)
(-1.14724e-09 1.07993e-09 -0.001)
(-7.31939e-10 1.06908e-09 -0.001)
(-2.48534e-10 1.0595e-09 -0.001)
(-2.4909e-10 1.70103e-09 -0.001)
(-7.04989e-10 1.7148e-09 -0.001)
(-1.0722e-09 1.72939e-09 -0.001)
(-1.34213e-09 1.74546e-09 -0.001)
(-1.52084e-09 1.76401e-09 -0.001)
(-1.59673e-09 1.75807e-09 -0.001)
(-1.4738e-09 1.7029e-09 -0.001)
(-1.16203e-09 1.68252e-09 -0.001)
(-7.46182e-10 1.6632e-09 -0.001)
(-2.56222e-10 1.64637e-09 -0.001)
(-2.42741e-10 2.15966e-09 -0.000999999)
(-6.92622e-10 2.1669e-09 -0.000999999)
(-1.06012e-09 2.16475e-09 -0.000999999)
(-1.32332e-09 2.15657e-09 -0.001)
(-1.51456e-09 2.06106e-09 -0.001)
(-1.63304e-09 2.33837e-09 -0.001)
(-1.51577e-09 2.16799e-09 -0.001)
(-1.18693e-09 2.1036e-09 -0.001)
(-7.648e-10 2.06382e-09 -0.001)
(-2.62066e-10 2.05032e-09 -0.001)
(-2.46138e-10 2.40182e-09 -0.000999998)
(-7.04202e-10 2.39973e-09 -0.000999998)
(-1.08255e-09 2.39824e-09 -0.000999999)
(-1.44581e-09 2.39136e-09 -0.000999999)
(-1.33911e-09 2.47788e-09 -0.001)
(-1.4898e-09 2.26907e-09 -0.001)
(-1.7085e-09 2.34076e-09 -0.001)
(-1.26616e-09 2.34383e-09 -0.001)
(-7.95353e-10 2.3357e-09 -0.001)
(-2.65635e-10 2.33528e-09 -0.001)
(-2.49573e-10 2.39173e-09 -0.000999997)
(-7.00993e-10 2.38308e-09 -0.000999997)
(-1.06851e-09 2.35154e-09 -0.000999998)
(-1.24339e-09 2.3072e-09 -0.000999998)
(-1.63691e-09 2.36192e-09 -0.000999999)
(-1.77019e-09 2.13596e-09 -0.000999999)
(-1.44101e-09 2.3313e-09 -0.001)
(-1.19196e-09 2.41901e-09 -0.001)
(-7.68675e-10 2.48149e-09 -0.001)
(-2.57847e-10 2.51318e-09 -0.001)
(-2.59447e-10 2.15278e-09 -0.000999997)
(-7.49108e-10 2.14795e-09 -0.000999997)
(-1.15839e-09 2.11692e-09 -0.000999997)
(-1.43558e-09 2.07159e-09 -0.000999997)
(-1.51022e-09 1.91813e-09 -0.000999998)
(-1.52027e-09 2.13414e-09 -0.000999998)
(-1.42554e-09 2.17542e-09 -0.000999999)
(-1.11593e-09 2.24327e-09 -0.000999999)
(-6.96234e-10 2.30731e-09 -0.001)
(-2.29095e-10 2.32461e-09 -0.001)
(-2.58539e-10 1.70444e-09 -0.000999996)
(-7.41046e-10 1.70868e-09 -0.000999996)
(-1.14489e-09 1.71772e-09 -0.000999996)
(-1.44209e-09 1.71956e-09 -0.000999997)
(-1.57431e-09 1.70256e-09 -0.000999997)
(-1.51321e-09 1.66903e-09 -0.000999998)
(-1.33189e-09 1.73718e-09 -0.000999998)
(-1.06004e-09 1.78661e-09 -0.000999999)
(-6.82788e-10 1.80414e-09 -0.000999999)
(-2.36081e-10 1.79114e-09 -0.000999999)
(-2.58514e-10 1.09239e-09 -0.000999995)
(-7.39181e-10 1.09757e-09 -0.000999996)
(-1.14753e-09 1.09659e-09 -0.000999996)
(-1.45073e-09 1.09315e-09 -0.000999996)
(-1.56084e-09 1.09213e-09 -0.000999997)
(-1.48564e-09 1.11439e-09 -0.000999997)
(-1.30793e-09 1.13562e-09 -0.000999998)
(-1.04893e-09 1.14739e-09 -0.000999998)
(-6.88171e-10 1.14313e-09 -0.000999998)
(-2.38569e-10 1.13596e-09 -0.000999999)
(-2.55006e-10 3.76512e-10 -0.000999995)
(-7.37549e-10 3.80257e-10 -0.000999995)
(-1.14705e-09 3.77429e-10 -0.000999996)
(-1.44368e-09 3.78478e-10 -0.000999996)
(-1.55001e-09 3.81596e-10 -0.000999997)
(-1.46681e-09 3.86251e-10 -0.000999997)
(-1.29627e-09 3.97514e-10 -0.000999998)
(-1.05039e-09 3.95306e-10 -0.000999998)
(-6.90594e-10 3.93959e-10 -0.000999998)
(-2.4055e-10 3.90739e-10 -0.000999998)
(-3.40255e-10 5.1683e-10 -0.001)
(-9.72293e-10 5.2671e-10 -0.001)
(-1.49928e-09 5.30605e-10 -0.001)
(-1.89568e-09 5.35361e-10 -0.001)
(-2.10678e-09 5.40749e-10 -0.001)
(-2.11531e-09 5.25801e-10 -0.001)
(-1.92357e-09 5.20299e-10 -0.001)
(-1.52508e-09 5.18322e-10 -0.001)
(-9.62317e-10 5.19075e-10 -0.001)
(-3.23872e-10 5.18327e-10 -0.001)
(-3.32059e-10 1.51602e-09 -0.001)
(-9.61411e-10 1.53324e-09 -0.001)
(-1.49353e-09 1.54106e-09 -0.001)
(-1.88919e-09 1.55001e-09 -0.001)
(-2.12049e-09 1.56029e-09 -0.001)
(-2.14001e-09 1.54496e-09 -0.001)
(-1.93492e-09 1.52268e-09 -0.001)
(-1.52937e-09 1.51407e-09 -0.001)
(-9.63201e-10 1.50766e-09 -0.001)
(-3.24239e-10 1.49624e-09 -0.001)
(-3.26745e-10 2.36924e-09 -0.001)
(-9.52197e-10 2.38082e-09 -0.001)
(-1.48547e-09 2.38455e-09 -0.001)
(-1.88016e-09 2.3939e-09 -0.001)
(-2.11599e-09 2.41334e-09 -0.001)
(-2.15717e-09 2.39538e-09 -0.001)
(-1.95834e-09 2.35985e-09 -0.001)
(-1.54315e-09 2.34344e-09 -0.001)
(-9.79084e-10 2.3314e-09 -0.001)
(-3.3296e-10 2.32495e-09 -0.001)
(-3.252e-10 2.99016e-09 -0.000999999)
(-9.50847e-10 2.98362e-09 -0.000999999)
(-1.48052e-09 2.97869e-09 -0.000999999)
(-1.86042e-09 2.97841e-09 -0.001)
(-2.11904e-09 2.87557e-09 -0.001)
(-2.19372e-09 3.11398e-09 -0.001)
(-1.98688e-09 2.98626e-09 -0.001)
(-1.55781e-09 2.93349e-09 -0.001)
(-9.77065e-10 2.92235e-09 -0.001)
(-3.26085e-10 2.9417e-09 -0.001)
(-3.39166e-10 3.29928e-09 -0.000999998)
(-9.69611e-10 3.28328e-09 -0.000999998)
(-1.49073e-09 3.27048e-09 -0.000999998)
(-1.98328e-09 3.24197e-09 -0.000999999)
(-1.98064e-09 3.34132e-09 -0.000999999)
(-2.04647e-09 3.19409e-09 -0.001)
(-2.13861e-09 3.22204e-09 -0.001)
(-1.60701e-09 3.24863e-09 -0.001)
(-9.64966e-10 3.25973e-09 -0.001)
(-3.07812e-10 3.2768e-09 -0.001)
(-3.47639e-10 3.26966e-09 -0.000999997)
(-9.86182e-10 3.26239e-09 -0.000999997)
(-1.52188e-09 3.23627e-09 -0.000999997)
(-1.78958e-09 3.18235e-09 -0.000999998)
(-2.16688e-09 3.25345e-09 -0.000999999)
(-2.31282e-09 3.0414e-09 -0.000999999)
(-1.93233e-09 3.22069e-09 -0.001)
(-1.52006e-09 3.31188e-09 -0.001)
(-9.42352e-10 3.35247e-09 -0.001)
(-3.0256e-10 3.34419e-09 -0.001)
(-3.52819e-10 2.94189e-09 -0.000999996)
(-1.00947e-09 2.93956e-09 -0.000999996)
(-1.57082e-09 2.91975e-09 -0.000999996)
(-1.96616e-09 2.88957e-09 -0.000999997)
(-2.12159e-09 2.7404e-09 -0.000999997)
(-2.07917e-09 2.92194e-09 -0.000999998)
(-1.86813e-09 2.99613e-09 -0.000999999)
(-1.47519e-09 3.0386e-09 -0.000999999)
(-9.2605e-10 3.06504e-09 -0.001)
(-3.09523e-10 3.03851e-09 -0.001)
(-3.55721e-10 2.33821e-09 -0.000999995)
(-1.01414e-09 2.34403e-09 -0.000999995)
(-1.5719e-09 2.33922e-09 -0.000999995)
(-1.96893e-09 2.33756e-09 -0.000999996)
(-2.13455e-09 2.32145e-09 -0.000999997)
(-2.05709e-09 2.32353e-09 -0.000999997)
(-1.81568e-09 2.36544e-09 -0.000999998)
(-1.45111e-09 2.39279e-09 -0.000999998)
(-9.36445e-10 2.38889e-09 -0.000999999)
(-3.23116e-10 2.37144e-09 -0.000999999)
(-3.51583e-10 1.51262e-09 -0.000999994)
(-1.01307e-09 1.52159e-09 -0.000999994)
(-1.5773e-09 1.51092e-09 -0.000999995)
(-1.98391e-09 1.5115e-09 -0.000999995)
(-2.13558e-09 1.49985e-09 -0.000999996)
(-2.03514e-09 1.50874e-09 -0.000999997)
(-1.79885e-09 1.53178e-09 -0.000999997)
(-1.45169e-09 1.53239e-09 -0.000999998)
(-9.42727e-10 1.52314e-09 -0.000999998)
(-3.22327e-10 1.51331e-09 -0.000999998)
(-3.49054e-10 5.2578e-10 -0.000999994)
(-1.01682e-09 5.28658e-10 -0.000999994)