/*--------------------------------*- C++ -*----------------------------------*\
  =========                 |
  \\      /  F ield         | OpenFOAM: The Open Source CFD Toolbox
   \\    /   O peration     | Website:  https://openfoam.org
    \\  /    A nd           | Version:  9
     \\/     M anipulation  |
\*---------------------------------------------------------------------------*/
FoamFile
{
    format      ascii;
    class       volVectorField;
    location    "10000";
    object      U;
}
// * * * * * * * * * * * * * * * * * * * * * * * * * * * * * * * * * * * * * //

dimensions      [0 1 -1 0 0 0 0];

internalField   nonuniform List<vector> 
9000
(
(3.07733e-12 3.18984e-11 -0.001)
(-2.29213e-11 2.7846e-11 -0.001)
(-7.38266e-11 2.337e-11 -0.001)
(-7.98047e-11 2.16633e-11 -0.001)
(-9.93251e-11 5.23585e-12 -0.001)
(-1.43419e-10 5.57463e-12 -0.001)
(-1.28525e-10 9.11226e-12 -0.001)
(-8.60118e-11 1.42052e-11 -0.001)
(-4.82758e-11 1.78948e-11 -0.001)
(-1.46898e-11 1.93999e-11 -0.001)
(-1.03264e-12 5.8753e-11 -0.001)
(-3.15766e-11 4.94746e-11 -0.001)
(-8.01715e-11 3.96749e-11 -0.001)
(-9.81665e-11 3.25562e-11 -0.001)
(-1.15697e-10 -3.02857e-12 -0.001)
(-1.39878e-10 7.48849e-12 -0.001)
(-1.20185e-10 2.91147e-11 -0.001)
(-7.73963e-11 4.7483e-11 -0.001)
(-4.31308e-11 5.73202e-11 -0.001)
(-1.3174e-11 6.1234e-11 -0.001)
(-6.29367e-12 6.02249e-11 -0.001)
(-4.21649e-11 5.3507e-11 -0.001)
(-9.09013e-11 4.5923e-11 -0.001)
(-1.227e-10 3.65878e-11 -0.001)
(-1.24628e-10 9.31616e-12 -0.001)
(-1.11591e-10 9.50416e-12 -0.001)
(-8.88149e-11 4.45744e-11 -0.001)
(-5.79812e-11 7.13557e-11 -0.001)
(-3.45024e-11 8.90293e-11 -0.001)
(-1.06899e-11 9.97799e-11 -0.001)
(-7.86311e-12 8.57557e-11 -0.001)
(-4.60021e-11 8.20164e-11 -0.001)
(-9.70934e-11 7.06525e-11 -0.001)
(-1.34775e-10 5.52322e-11 -0.001)
(-1.42783e-10 -1.56231e-11 -0.001)
(-1.04622e-10 2.78651e-11 -0.001)
(-5.83398e-11 4.22178e-11 -0.001)
(-3.29417e-11 7.13106e-11 -0.001)
(-1.45094e-11 1.02344e-10 -0.001)
(-2.24675e-12 1.25055e-10 -0.001)
(-1.02143e-11 7.46962e-11 -0.001)
(-5.74475e-11 7.13949e-11 -0.001)
(-1.1769e-10 7.26802e-11 -0.001)
(-2.08977e-10 5.06669e-11 -0.001)
(-1.5205e-10 4.3855e-11 -0.001)
(-5.37678e-11 2.83478e-11 -0.001)
(-4.5417e-11 8.19918e-11 -0.001)
(2.1514e-12 9.37753e-11 -0.001)
(1.94994e-11 1.19729e-10 -0.001)
(1.22258e-11 1.34487e-10 -0.001)
(-1.13133e-11 2.60978e-11 -0.001)
(-4.81792e-11 1.97996e-11 -0.001)
(-1.17826e-10 3.51757e-11 -0.001)
(-1.63684e-10 5.24763e-11 -0.001)
(-1.6516e-10 1.27736e-10 -0.001)
(-6.65842e-11 1.22119e-10 -0.001)
(7.07616e-12 1.36911e-10 -0.001)
(4.84997e-12 1.28346e-10 -0.001)
(2.64947e-11 1.17892e-10 -0.001)
(1.27632e-11 1.05963e-10 -0.001)
(-1.65248e-11 1.01591e-11 -0.001)
(-4.84113e-11 6.62498e-12 -0.001)
(-8.50121e-11 2.39731e-11 -0.001)
(-1.16474e-10 7.7843e-11 -0.001)
(-8.24223e-11 1.30231e-10 -0.001)
(-4.45686e-11 1.768e-10 -0.001)
(-3.90857e-11 1.35973e-10 -0.001)
(-1.68227e-11 1.22923e-10 -0.001)
(-2.67386e-12 9.83942e-11 -0.001)
(5.27075e-13 8.28372e-11 -0.001)
(-1.48326e-11 1.2679e-11 -0.001)
(-3.43668e-11 1.65889e-11 -0.001)
(-4.66084e-11 3.75755e-11 -0.001)
(-5.74267e-11 7.88658e-11 -0.001)
(-6.61497e-11 1.28055e-10 -0.001)
(-6.07224e-11 1.21195e-10 -0.001)
(-4.67886e-11 1.1444e-10 -0.001)
(-3.27148e-11 1.02292e-10 -0.001)
(-1.34382e-11 9.49042e-11 -0.001)
(-2.60952e-12 9.35108e-11 -0.001)
(-1.26411e-11 1.10649e-11 -0.001)
(-2.35385e-11 1.70052e-11 -0.001)
(-2.27347e-11 3.06458e-11 -0.001)
(-2.59938e-11 5.34008e-11 -0.001)
(-4.00911e-11 8.06017e-11 -0.001)
(-5.81775e-11 9.17547e-11 -0.001)
(-5.79812e-11 8.04466e-11 -0.001)
(-3.63559e-11 7.51999e-11 -0.001)
(-1.12732e-11 7.83869e-11 -0.001)
(-6.78459e-13 8.16607e-11 -0.001)
(-8.90298e-12 4.81862e-12 -0.001)
(-1.47766e-11 8.54843e-12 -0.001)
(-1.01939e-11 1.35461e-11 -0.001)
(-7.45803e-12 2.10496e-11 -0.001)
(-2.77373e-11 3.20286e-11 -0.001)
(-6.0719e-11 3.33211e-11 -0.001)
(-6.31757e-11 2.93325e-11 -0.001)
(-3.46882e-11 2.79648e-11 -0.001)
(-6.79587e-12 3.09157e-11 -0.001)
(8.17283e-13 3.23477e-11 -0.001)
(-2.01003e-12 8.45272e-11 -0.001)
(-8.72408e-11 7.01725e-11 -0.001)
(-2.22453e-10 5.9335e-11 -0.001)
(-2.55802e-10 5.29486e-11 -0.001)
(-3.05904e-10 1.24779e-11 -0.001)
(-4.00139e-10 1.72855e-11 -0.001)
(-3.61702e-10 3.25862e-11 -0.001)
(-2.4779e-10 4.5142e-11 -0.001)
(-1.45873e-10 5.21943e-11 -0.001)
(-4.68654e-11 5.41538e-11 -0.001)
(-1.65365e-11 1.6233e-10 -0.001)
(-1.12837e-10 1.35089e-10 -0.001)
(-2.4018e-10 1.14074e-10 -0.001)
(-3.03388e-10 9.41641e-11 -0.001)
(-3.42406e-10 2.72056e-11 -0.001)
(-3.80881e-10 5.73655e-11 -0.001)
(-3.34562e-10 1.15628e-10 -0.001)
(-2.28632e-10 1.55346e-10 -0.001)
(-1.36993e-10 1.76611e-10 -0.001)
(-4.48857e-11 1.83788e-10 -0.001)
(-2.95155e-11 1.76895e-10 -0.001)
(-1.35998e-10 1.56495e-10 -0.001)
(-2.63855e-10 1.39061e-10 -0.001)
(-3.43286e-10 1.20104e-10 -0.001)
(-3.43421e-10 8.91668e-11 -0.001)
(-3.12541e-10 1.05574e-10 -0.001)
(-2.64452e-10 1.7858e-10 -0.001)
(-1.87287e-10 2.44585e-10 -0.001)
(-1.17336e-10 2.89954e-10 -0.001)
(-3.94349e-11 3.13037e-10 -0.001)
(-3.72496e-11 2.37578e-10 -0.001)
(-1.51021e-10 2.14471e-10 -0.001)
(-2.76579e-10 1.85077e-10 -0.001)
(-3.53287e-10 1.58182e-10 -0.001)
(-3.56939e-10 3.32692e-11 -0.001)
(-2.91472e-10 1.70865e-10 -0.001)
(-1.95553e-10 2.04264e-10 -0.001)
(-1.17259e-10 2.80476e-10 -0.001)
(-6.79225e-11 3.50326e-10 -0.001)
(-2.12281e-11 3.86097e-10 -0.001)
(-5.30437e-11 2.19525e-10 -0.001)
(-1.88959e-10 2.06343e-10 -0.001)
(-3.20147e-10 2.10656e-10 -0.001)
(-4.95089e-10 1.83262e-10 -0.001)
(-3.30759e-10 1.93941e-10 -0.001)
(-1.41648e-10 1.33004e-10 -0.001)
(-1.54884e-10 2.92695e-10 -0.001)
(-4.12271e-11 3.32087e-10 -0.001)
(-1.09292e-11 3.84182e-10 -0.001)
(-2.96505e-12 4.01529e-10 -0.001)
(-5.08397e-11 1.14494e-10 -0.001)
(-1.60333e-10 1.13803e-10 -0.001)
(-2.99662e-10 1.61562e-10 -0.001)
(-3.69928e-10 2.07941e-10 -0.001)
(-4.07319e-10 3.72957e-10 -0.001)
(-1.92726e-10 3.36771e-10 -0.001)
(3.70334e-12 3.84734e-10 -0.001)
(-2.5736e-11 3.68092e-10 -0.001)
(2.33326e-12 3.50573e-10 -0.001)
(-3.08594e-12 3.39065e-10 -0.001)
(-5.39055e-11 7.43162e-11 -0.001)
(-1.42104e-10 8.2285e-11 -0.001)
(-2.26018e-10 1.36124e-10 -0.001)
(-2.83784e-10 2.49861e-10 -0.001)
(-2.01972e-10 3.49997e-10 -0.001)
(-1.2971e-10 4.89012e-10 -0.001)
(-1.23462e-10 3.71496e-10 -0.001)
(-7.54237e-11 3.38268e-10 -0.001)
(-3.93121e-11 3.00123e-10 -0.001)
(-1.379e-11 2.94778e-10 -0.001)
(-4.29818e-11 7.58233e-11 -0.001)
(-9.8641e-11 9.76032e-11 -0.001)
(-1.32088e-10 1.52642e-10 -0.001)
(-1.56082e-10 2.51323e-10 -0.001)
(-1.68167e-10 3.47647e-10 -0.001)
(-1.71322e-10 3.31362e-10 -0.001)
(-1.47075e-10 3.08887e-10 -0.001)
(-9.71157e-11 2.92769e-10 -0.001)
(-4.06105e-11 2.93789e-10 -0.001)
(-7.88144e-12 3.04126e-10 -0.001)
(-3.23161e-11 6.09255e-11 -0.000999999)
(-6.54242e-11 8.08205e-11 -0.001)
(-7.22922e-11 1.14155e-10 -0.001)
(-8.87748e-11 1.66061e-10 -0.001)
(-1.21911e-10 2.15288e-10 -0.001)
(-1.68418e-10 2.34668e-10 -0.001)
(-1.62057e-10 2.17399e-10 -0.001)
(-9.05142e-11 2.19841e-10 -0.001)
(-2.73712e-11 2.35214e-10 -0.001)
(-2.88866e-12 2.35165e-10 -0.001)
(-2.31585e-11 2.60889e-11 -0.000999999)
(-4.54082e-11 3.52425e-11 -0.000999999)
(-4.67573e-11 4.60372e-11 -0.001)
(-5.48448e-11 6.06475e-11 -0.001)
(-9.93606e-11 7.97843e-11 -0.001)
(-1.68763e-10 8.29483e-11 -0.001)
(-1.61493e-10 7.90135e-11 -0.001)
(-7.91032e-11 8.3094e-11 -0.001)
(-2.47652e-11 9.02163e-11 -0.001)
(-7.46072e-12 8.54603e-11 -0.001)
(-3.09509e-11 1.22486e-10 -0.001)
(-1.81858e-10 1.03538e-10 -0.001)
(-3.74804e-10 9.01838e-11 -0.001)
(-4.62294e-10 7.73153e-11 -0.001)
(-5.36247e-10 5.08397e-11 -0.001)
(-6.21944e-10 5.61882e-11 -0.001)
(-5.69636e-10 7.5185e-11 -0.001)
(-4.15026e-10 8.71902e-11 -0.001)
(-2.53667e-10 9.3692e-11 -0.001)
(-8.40441e-11 9.74192e-11 -0.001)
(-5.02074e-11 2.59482e-10 -0.001)
(-2.14868e-10 2.27912e-10 -0.001)
(-4.01911e-10 2.06849e-10 -0.001)
(-5.028e-10 1.86784e-10 -0.001)
(-5.58665e-10 1.52173e-10 -0.001)
(-5.98865e-10 1.95643e-10 -0.001)
(-5.39708e-10 2.52646e-10 -0.001)
(-3.97297e-10 2.9524e-10 -0.001)
(-2.437e-10 3.19659e-10 -0.001)
(-8.02815e-11 3.26646e-10 -0.001)
(-6.30266e-11 3.13542e-10 -0.001)
(-2.35389e-10 2.87197e-10 -0.001)
(-4.16752e-10 2.72133e-10 -0.001)
(-5.18015e-10 2.61125e-10 -0.001)
(-5.28596e-10 2.67615e-10 -0.001)
(-5.22751e-10 3.33181e-10 -0.001)
(-4.71154e-10 3.99519e-10 -0.001)
(-3.48823e-10 4.78738e-10 -0.001)
(-2.22092e-10 5.33442e-10 -0.001)
(-7.65745e-11 5.52932e-10 -0.001)
(-7.70977e-11 3.96566e-10 -0.001)
(-2.56886e-10 3.54772e-10 -0.001)
(-4.28001e-10 3.25963e-10 -0.001)
(-5.07392e-10 3.11616e-10 -0.001)
(-4.86658e-10 2.20935e-10 -0.001)
(-4.66879e-10 4.72094e-10 -0.001)
(-3.94136e-10 5.00555e-10 -0.001)
(-2.63374e-10 5.84031e-10 -0.001)
(-1.68404e-10 6.52339e-10 -0.001)
(-5.97245e-11 6.71474e-10 -0.001)
(-1.05439e-10 3.96903e-10 -0.001)
(-3.0673e-10 3.78948e-10 -0.001)
(-4.59998e-10 3.89293e-10 -0.001)
(-6.23094e-10 4.07662e-10 -0.001)
(-3.68023e-10 4.79709e-10 -0.001)
(-2.42815e-10 3.3183e-10 -0.001)
(-3.59121e-10 5.71952e-10 -0.001)
(-1.97033e-10 6.43828e-10 -0.001)
(-1.333e-10 6.91526e-10 -0.001)
(-5.61539e-11 6.93112e-10 -0.001)
(-9.57404e-11 3.08757e-10 -0.001)
(-2.65324e-10 3.30295e-10 -0.001)
(-3.99388e-10 3.94436e-10 -0.001)
(-4.16964e-10 4.63373e-10 -0.001)
(-5.62236e-10 6.45431e-10 -0.001)
(-3.74504e-10 4.95892e-10 -0.001)
(-8.22967e-11 6.14234e-10 -0.001)
(-1.43875e-10 6.29238e-10 -0.001)
(-1.1772e-10 6.34919e-10 -0.001)
(-5.67365e-11 6.53092e-10 -0.001)
(-8.45442e-11 2.55284e-10 -0.001)
(-2.21743e-10 2.86046e-10 -0.001)
(-3.26987e-10 3.60174e-10 -0.001)
(-3.72163e-10 4.6334e-10 -0.001)
(-3.35284e-10 5.09969e-10 -0.001)
(-2.74093e-10 7.41942e-10 -0.001)
(-2.25988e-10 5.95677e-10 -0.001)
(-1.7634e-10 5.72831e-10 -0.001)
(-1.08181e-10 5.74545e-10 -0.001)
(-3.67455e-11 6.10927e-10 -0.001)
(-6.55381e-11 2.18579e-10 -0.000999999)
(-1.60935e-10 2.53273e-10 -0.000999999)
(-2.22056e-10 3.23933e-10 -0.001)
(-2.67076e-10 4.27158e-10 -0.001)
(-2.8364e-10 4.95576e-10 -0.001)
(-2.88821e-10 5.2204e-10 -0.001)
(-2.51367e-10 4.96145e-10 -0.001)
(-1.64996e-10 5.08873e-10 -0.001)
(-7.84616e-11 5.37696e-10 -0.001)
(-1.92819e-11 5.51334e-10 -0.001)
(-5.0304e-11 1.56268e-10 -0.000999999)
(-1.16763e-10 1.82437e-10 -0.000999999)
(-1.53074e-10 2.22494e-10 -0.000999999)
(-2.00511e-10 2.7569e-10 -0.000999999)
(-2.40413e-10 3.1604e-10 -0.001)
(-2.73522e-10 3.38729e-10 -0.001)
(-2.39149e-10 3.47324e-10 -0.001)
(-1.34776e-10 3.72508e-10 -0.001)
(-6.46554e-11 3.88913e-10 -0.001)
(-2.20736e-11 3.65856e-10 -0.001)
(-3.96598e-11 6.13087e-11 -0.000999999)
(-9.48563e-11 7.20067e-11 -0.000999999)
(-1.28549e-10 8.31217e-11 -0.000999999)
(-1.73181e-10 9.62367e-11 -0.000999999)
(-2.20125e-10 1.10038e-10 -0.001)
(-2.56951e-10 1.16011e-10 -0.001)
(-2.17059e-10 1.25968e-10 -0.001)
(-1.23116e-10 1.37522e-10 -0.001)
(-8.42133e-11 1.37325e-10 -0.001)
(-4.15037e-11 1.17588e-10 -0.001)
(-7.11387e-11 1.64128e-10 -0.001)
(-2.92097e-10 1.47126e-10 -0.001)
(-5.31974e-10 1.39386e-10 -0.001)
(-6.65322e-10 1.30448e-10 -0.001)
(-7.67167e-10 1.20885e-10 -0.001)
(-8.44268e-10 1.28561e-10 -0.001)
(-7.80401e-10 1.36097e-10 -0.001)
(-5.95197e-10 1.42526e-10 -0.001)
(-3.68315e-10 1.50881e-10 -0.001)
(-1.2195e-10 1.57238e-10 -0.001)
(-8.86045e-11 3.93993e-10 -0.001)
(-3.1784e-10 3.68381e-10 -0.001)
(-5.49834e-10 3.586e-10 -0.001)
(-6.85319e-10 3.48301e-10 -0.001)
(-7.70708e-10 3.54572e-10 -0.001)
(-8.30745e-10 3.9682e-10 -0.001)
(-7.67975e-10 4.30752e-10 -0.001)
(-5.81573e-10 4.70143e-10 -0.001)
(-3.53967e-10 4.93996e-10 -0.001)
(-1.15517e-10 5.00947e-10 -0.001)
(-9.75742e-11 5.34432e-10 -0.001)
(-3.28857e-10 5.13306e-10 -0.001)
(-5.53183e-10 5.05725e-10 -0.001)
(-6.70758e-10 4.98272e-10 -0.001)
(-7.20221e-10 5.30089e-10 -0.001)
(-7.6978e-10 6.47533e-10 -0.001)
(-7.08621e-10 6.95009e-10 -0.001)
(-5.33124e-10 7.6929e-10 -0.001)
(-3.37229e-10 8.11955e-10 -0.001)
(-1.14258e-10 8.20547e-10 -0.001)
(-1.10677e-10 6.66794e-10 -0.001)
(-3.47574e-10 6.27356e-10 -0.001)
(-5.64894e-10 6.07502e-10 -0.001)
(-6.60912e-10 5.96688e-10 -0.001)
(-6.214e-10 5.64638e-10 -0.001)
(-6.65929e-10 8.60827e-10 -0.001)
(-6.46242e-10 8.89915e-10 -0.001)
(-4.64628e-10 9.53843e-10 -0.001)
(-3.011e-10 1.00212e-09 -0.001)
(-1.05332e-10 1.0112e-09 -0.001)
(-1.3815e-10 6.96103e-10 -0.001)
(-3.89462e-10 6.84639e-10 -0.001)
(-5.83867e-10 6.93072e-10 -0.001)
(-7.13518e-10 7.45678e-10 -0.001)
(-4.56076e-10 8.56142e-10 -0.001)
(-4.44808e-10 6.81556e-10 -0.001)
(-6.15603e-10 9.34611e-10 -0.001)
(-4.20935e-10 1.02404e-09 -0.001)
(-2.7791e-10 1.06632e-09 -0.001)
(-1.03232e-10 1.0664e-09 -0.001)
(-1.23487e-10 6.26824e-10 -0.001)
(-3.51956e-10 6.59354e-10 -0.001)
(-5.0374e-10 7.19092e-10 -0.001)
(-4.9786e-10 8.06461e-10 -0.001)
(-6.85754e-10 9.41934e-10 -0.001)
(-5.8745e-10 7.29319e-10 -0.001)
(-3.03674e-10 9.06357e-10 -0.001)
(-3.32932e-10 9.78981e-10 -0.001)
(-2.56691e-10 1.02324e-09 -0.001)
(-1.03186e-10 1.05494e-09 -0.001)
(-1.06948e-10 5.44336e-10 -0.000999999)
(-2.98406e-10 5.78383e-10 -0.000999999)
(-4.36732e-10 6.56457e-10 -0.000999999)
(-4.90477e-10 7.34623e-10 -0.001)
(-5.33387e-10 7.25594e-10 -0.001)
(-4.80465e-10 9.63981e-10 -0.001)
(-3.65864e-10 8.75746e-10 -0.001)
(-3.03956e-10 8.98872e-10 -0.001)
(-1.99907e-10 9.46564e-10 -0.001)
(-6.95701e-11 9.87924e-10 -0.001)
(-9.0549e-11 4.31469e-10 -0.000999999)
(-2.40921e-10 4.62143e-10 -0.000999999)
(-3.4756e-10 5.30713e-10 -0.000999999)
(-4.28781e-10 6.12551e-10 -0.000999999)
(-4.56457e-10 6.49468e-10 -0.001)
(-4.37266e-10 7.3393e-10 -0.001)
(-3.68714e-10 7.34743e-10 -0.001)
(-2.62088e-10 7.75795e-10 -0.001)
(-1.65746e-10 8.09286e-10 -0.001)
(-6.00346e-11 7.9931e-10 -0.001)
(-7.71859e-11 2.83562e-10 -0.000999999)
(-2.00066e-10 3.07301e-10 -0.000999999)
(-2.86358e-10 3.45677e-10 -0.000999999)
(-3.71717e-10 3.92349e-10 -0.000999999)
(-4.11999e-10 4.26535e-10 -0.000999999)
(-3.95217e-10 4.57578e-10 -0.001)
(-3.23991e-10 4.98593e-10 -0.001)
(-2.29395e-10 5.26428e-10 -0.001)
(-1.74836e-10 5.18211e-10 -0.001)
(-7.79775e-11 4.77469e-10 -0.001)
(-6.72671e-11 1.03655e-10 -0.000999999)
(-1.79019e-10 1.13644e-10 -0.000999999)
(-2.61991e-10 1.24523e-10 -0.000999999)
(-3.47228e-10 1.37442e-10 -0.000999999)
(-3.90412e-10 1.48273e-10 -0.000999999)
(-3.64384e-10 1.58175e-10 -0.000999999)
(-2.9918e-10 1.78219e-10 -0.001)
(-2.41931e-10 1.82253e-10 -0.001)
(-2.13327e-10 1.65184e-10 -0.001)
(-9.95754e-11 1.43145e-10 -0.001)
(-1.20413e-10 2.2634e-10 -0.001)
(-4.14162e-10 2.15607e-10 -0.001)
(-6.99164e-10 2.14609e-10 -0.001)
(-8.81056e-10 2.09036e-10 -0.001)
(-1.01612e-09 2.01556e-10 -0.001)
(-1.09727e-09 2.07316e-10 -0.001)
(-1.01633e-09 2.06662e-10 -0.001)
(-7.83139e-10 2.15451e-10 -0.001)
(-4.81854e-10 2.26027e-10 -0.001)
(-1.58096e-10 2.34192e-10 -0.001)
(-1.31825e-10 6.02693e-10 -0.001)
(-4.27224e-10 5.9187e-10 -0.001)
(-7.07183e-10 5.88842e-10 -0.001)
(-8.95941e-10 5.80555e-10 -0.001)
(-1.01991e-09 5.8367e-10 -0.001)
(-1.09437e-09 6.16767e-10 -0.001)
(-1.01025e-09 6.42709e-10 -0.001)
(-7.65372e-10 6.81315e-10 -0.001)
(-4.63585e-10 7.04855e-10 -0.001)
(-1.49787e-10 7.09688e-10 -0.001)
(-1.32586e-10 8.94202e-10 -0.001)
(-4.30027e-10 8.86721e-10 -0.001)
(-7.11907e-10 8.76089e-10 -0.001)
(-8.88004e-10 8.60832e-10 -0.001)
(-9.81953e-10 8.90095e-10 -0.001)
(-1.04043e-09 9.95034e-10 -0.001)
(-9.53851e-10 1.05166e-09 -0.001)
(-7.22629e-10 1.10872e-09 -0.001)
(-4.53069e-10 1.13443e-09 -0.001)
(-1.52217e-10 1.13215e-09 -0.001)
(-1.41e-10 1.14557e-09 -0.001)
(-4.47093e-10 1.11354e-09 -0.001)
(-7.33078e-10 1.0886e-09 -0.001)
(-8.81922e-10 1.06576e-09 -0.001)
(-8.85735e-10 1.11368e-09 -0.001)
(-9.32815e-10 1.33268e-09 -0.001)
(-8.96594e-10 1.35071e-09 -0.001)
(-6.82609e-10 1.39074e-09 -0.001)
(-4.37926e-10 1.41998e-09 -0.001)
(-1.49854e-10 1.4248e-09 -0.001)
(-1.66765e-10 1.19399e-09 -0.001)
(-4.8922e-10 1.19249e-09 -0.001)
(-7.59604e-10 1.19283e-09 -0.001)
(-8.62971e-10 1.24765e-09 -0.001)
(-7.1505e-10 1.32981e-09 -0.001)
(-8.03437e-10 1.2696e-09 -0.001)
(-8.9579e-10 1.40682e-09 -0.001)
(-6.53318e-10 1.4931e-09 -0.001)
(-4.16087e-10 1.53348e-09 -0.001)
(-1.44516e-10 1.53782e-09 -0.001)
(-1.44846e-10 1.04404e-09 -0.000999999)
(-4.50601e-10 1.0747e-09 -0.000999999)
(-6.77976e-10 1.13224e-09 -0.001)
(-7.45077e-10 1.23574e-09 -0.001)
(-8.64157e-10 1.31006e-09 -0.001)
(-8.55842e-10 1.17135e-09 -0.001)
(-6.72847e-10 1.3473e-09 -0.001)
(-5.559e-10 1.44817e-09 -0.001)
(-3.9004e-10 1.50311e-09 -0.001)
(-1.42388e-10 1.51809e-09 -0.001)
(-1.38242e-10 8.8766e-10 -0.000999999)
(-4.03109e-10 9.07215e-10 -0.000999999)
(-5.98569e-10 9.87051e-10 -0.000999999)
(-6.85385e-10 1.06605e-09 -0.000999999)
(-7.79522e-10 1.09865e-09 -0.001)
(-7.65863e-10 1.2344e-09 -0.001)
(-6.18997e-10 1.27788e-09 -0.001)
(-4.97574e-10 1.32921e-09 -0.001)
(-3.43192e-10 1.3745e-09 -0.001)
(-1.26599e-10 1.37991e-09 -0.001)
(-1.26998e-10 6.97813e-10 -0.000999999)
(-3.5293e-10 7.20287e-10 -0.000999999)
(-5.19189e-10 7.85133e-10 -0.000999999)
(-6.33531e-10 8.56471e-10 -0.000999999)
(-6.95569e-10 8.92279e-10 -0.000999999)
(-6.7652e-10 9.95612e-10 -0.001)
(-5.78129e-10 1.04766e-09 -0.001)
(-4.59211e-10 1.08732e-09 -0.001)
(-3.3669e-10 1.09523e-09 -0.001)
(-1.34371e-10 1.06553e-09 -0.001)
(-1.17126e-10 4.44874e-10 -0.000999998)
(-3.17135e-10 4.66575e-10 -0.000999998)
(-4.62388e-10 5.05537e-10 -0.000999999)
(-5.78196e-10 5.52246e-10 -0.000999999)
(-6.40346e-10 5.97526e-10 -0.000999999)
(-6.10476e-10 6.37296e-10 -0.000999999)
(-5.27264e-10 6.81044e-10 -0.001)
(-4.49978e-10 6.84188e-10 -0.001)
(-3.62896e-10 6.57084e-10 -0.001)
(-1.54164e-10 6.29754e-10 -0.001)
(-1.05974e-10 1.57138e-10 -0.000999998)
(-2.92556e-10 1.68387e-10 -0.000999998)
(-4.32663e-10 1.81404e-10 -0.000999998)
(-5.40445e-10 1.97194e-10 -0.000999999)
(-6.09275e-10 2.17984e-10 -0.000999999)
(-5.91759e-10 2.26964e-10 -0.000999999)
(-5.30101e-10 2.35434e-10 -0.001)
(-4.82161e-10 2.23017e-10 -0.001)
(-3.89096e-10 2.02335e-10 -0.001)
(-1.60065e-10 1.9569e-10 -0.001)
(-1.81171e-10 3.16085e-10 -0.001)
(-5.59883e-10 3.12292e-10 -0.001)
(-9.02319e-10 3.13826e-10 -0.001)
(-1.15424e-09 3.04798e-10 -0.001)
(-1.32158e-09 2.8769e-10 -0.001)
(-1.39088e-09 2.93421e-10 -0.001)
(-1.27713e-09 2.99898e-10 -0.001)
(-9.83643e-10 3.12889e-10 -0.001)
(-6.06728e-10 3.2201e-10 -0.001)
(-2.00227e-10 3.25862e-10 -0.001)
(-1.85941e-10 8.95953e-10 -0.001)
(-5.63897e-10 8.98365e-10 -0.001)
(-9.11616e-10 8.93476e-10 -0.001)
(-1.18269e-09 8.76399e-10 -0.001)
(-1.33558e-09 8.57047e-10 -0.001)
(-1.38142e-09 8.80054e-10 -0.001)
(-1.26021e-09 9.10337e-10 -0.001)
(-9.63473e-10 9.45962e-10 -0.001)
(-5.94303e-10 9.59117e-10 -0.001)
(-1.96123e-10 9.54488e-10 -0.001)
(-1.80856e-10 1.38918e-09 -0.001)
(-5.65243e-10 1.3914e-09 -0.001)
(-9.26085e-10 1.37407e-09 -0.001)
(-1.19294e-09 1.36225e-09 -0.001)
(-1.32053e-09 1.38232e-09 -0.001)
(-1.34038e-09 1.4405e-09 -0.001)
(-1.21382e-09 1.47476e-09 -0.001)
(-9.36843e-10 1.50935e-09 -0.001)
(-5.97482e-10 1.51371e-09 -0.001)
(-2.03312e-10 1.50054e-09 -0.001)
(-1.86464e-10 1.7943e-09 -0.001)
(-5.81789e-10 1.76141e-09 -0.001)
(-9.40798e-10 1.73541e-09 -0.001)
(-1.17445e-09 1.72522e-09 -0.001)
(-1.25735e-09 1.79013e-09 -0.001)
(-1.28901e-09 1.97003e-09 -0.001)
(-1.19138e-09 1.91295e-09 -0.001)
(-9.24508e-10 1.91126e-09 -0.001)
(-6.00019e-10 1.91138e-09 -0.001)
(-2.0621e-10 1.90313e-09 -0.001)
(-2.17223e-10 1.87006e-09 -0.001)
(-6.27711e-10 1.86749e-09 -0.001)
(-9.62298e-10 1.87844e-09 -0.001)
(-1.13822e-09 1.93834e-09 -0.001)
(-1.0757e-09 2.022e-09 -0.001)
(-1.21738e-09 1.9931e-09 -0.001)
(-1.2726e-09 2.0484e-09 -0.001)
(-9.38394e-10 2.07931e-09 -0.001)
(-6.01792e-10 2.09745e-09 -0.001)
(-2.07764e-10 2.09256e-09 -0.001)
(-1.92766e-10 1.59984e-09 -0.000999999)
(-5.77179e-10 1.63303e-09 -0.000999999)
(-8.69976e-10 1.68734e-09 -0.000999999)
(-1.03106e-09 1.7802e-09 -0.001)
(-1.20206e-09 1.8595e-09 -0.001)
(-1.26253e-09 1.80175e-09 -0.001)
(-1.1055e-09 1.95717e-09 -0.001)
(-8.75415e-10 2.03448e-09 -0.001)
(-5.82573e-10 2.071e-09 -0.001)
(-2.06932e-10 2.06532e-09 -0.001)
(-1.87224e-10 1.34332e-09 -0.000999999)
(-5.43375e-10 1.36227e-09 -0.000999999)
(-8.15234e-10 1.4293e-09 -0.000999999)
(-9.65859e-10 1.50047e-09 -0.000999999)
(-1.05419e-09 1.56764e-09 -0.001)
(-1.12007e-09 1.68802e-09 -0.001)
(-1.03983e-09 1.77914e-09 -0.001)
(-8.24531e-10 1.83798e-09 -0.001)
(-5.6693e-10 1.86021e-09 -0.001)
(-2.09453e-10 1.84559e-09 -0.001)
(-1.76395e-10 1.07474e-09 -0.000999998)
(-4.9379e-10 1.09717e-09 -0.000999998)
(-7.31798e-10 1.16065e-09 -0.000999998)
(-8.92772e-10 1.23447e-09 -0.000999999)
(-1.01472e-09 1.29523e-09 -0.000999999)
(-1.05084e-09 1.33435e-09 -0.000999999)
(-9.55533e-10 1.4176e-09 -0.001)
(-7.94379e-10 1.44901e-09 -0.001)
(-5.7142e-10 1.44854e-09 -0.001)
(-2.18008e-10 1.43381e-09 -0.001)
(-1.66886e-10 6.86956e-10 -0.000999998)
(-4.59554e-10 7.11647e-10 -0.000999998)
(-6.77944e-10 7.49006e-10 -0.000999998)
(-8.31291e-10 7.93597e-10 -0.000999998)
(-9.54207e-10 8.45881e-10 -0.000999999)
(-9.97664e-10 8.8151e-10 -0.000999999)
(-9.25173e-10 8.95886e-10 -0.001)
(-7.93562e-10 8.89374e-10 -0.001)
(-5.79306e-10 8.81225e-10 -0.001)
(-2.21344e-10 8.8432e-10 -0.001)
(-1.52771e-10 2.40967e-10 -0.000999997)
(-4.32232e-10 2.55251e-10 -0.000999998)
(-6.48575e-10 2.67862e-10 -0.000999998)
(-7.94296e-10 2.83291e-10 -0.000999998)
(-9.24956e-10 3.03191e-10 -0.000999998)
(-9.98816e-10 3.10641e-10 -0.000999999)
(-9.45725e-10 3.0004e-10 -0.000999999)
(-8.07393e-10 2.8822e-10 -0.001)
(-5.73578e-10 2.84635e-10 -0.001)
(-2.12755e-10 2.92231e-10 -0.001)
(-2.51731e-10 4.36993e-10 -0.001)
(-7.42584e-10 4.3724e-10 -0.001)
(-1.17152e-09 4.39346e-10 -0.001)
(-1.50973e-09 4.27273e-10 -0.001)
(-1.70961e-09 4.04942e-10 -0.001)
(-1.74662e-09 4.11115e-10 -0.001)
(-1.58578e-09 4.23302e-10 -0.001)
(-1.23592e-09 4.33026e-10 -0.001)
(-7.80781e-10 4.32863e-10 -0.00100001)
(-2.64535e-10 4.27826e-10 -0.00100001)
(-2.52836e-10 1.26937e-09 -0.001)
(-7.42549e-10 1.27661e-09 -0.001)
(-1.18379e-09 1.27114e-09 -0.001)
(-1.54713e-09 1.25179e-09 -0.001)
(-1.72914e-09 1.22412e-09 -0.001)
(-1.7317e-09 1.24309e-09 -0.001)
(-1.56702e-09 1.26277e-09 -0.001)
(-1.22883e-09 1.2759e-09 -0.001)
(-7.86707e-10 1.26543e-09 -0.001)
(-2.69252e-10 1.2493e-09 -0.00100001)
(-2.47511e-10 1.98499e-09 -0.001)
(-7.44808e-10 1.98752e-09 -0.001)
(-1.19866e-09 1.97869e-09 -0.001)
(-1.55971e-09 1.98722e-09 -0.001)
(-1.72167e-09 2.02529e-09 -0.001)
(-1.71146e-09 2.04345e-09 -0.001)
(-1.55619e-09 2.01422e-09 -0.001)
(-1.23575e-09 2.00464e-09 -0.001)
(-8.06453e-10 1.98036e-09 -0.001)
(-2.78686e-10 1.96164e-09 -0.001)
(-2.54266e-10 2.51377e-09 -0.001)
(-7.52837e-10 2.48997e-09 -0.001)
(-1.18413e-09 2.49945e-09 -0.001)
(-1.50055e-09 2.536e-09 -0.001)
(-1.67293e-09 2.52445e-09 -0.001)
(-1.74283e-09 2.83739e-09 -0.001)
(-1.60586e-09 2.61646e-09 -0.001)
(-1.26268e-09 2.53766e-09 -0.001)
(-8.25793e-10 2.49688e-09 -0.001)
(-2.84052e-10 2.4725e-09 -0.001)
(-2.76241e-10 2.6642e-09 -0.001)
(-7.64141e-10 2.67087e-09 -0.001)
(-1.15266e-09 2.71507e-09 -0.001)
(-1.5347e-09 2.77852e-09 -0.001)
(-1.42034e-09 2.98167e-09 -0.001)
(-1.61945e-09 2.74848e-09 -0.001)
(-1.85586e-09 2.81691e-09 -0.001)
(-1.3553e-09 2.79336e-09 -0.001)
(-8.66656e-10 2.77707e-09 -0.001)
(-2.9813e-10 2.75407e-09 -0.001)
(-2.52859e-10 2.42027e-09 -0.000999999)
(-7.07273e-10 2.45624e-09 -0.000999999)
(-1.07652e-09 2.48239e-09 -0.000999999)
(-1.23366e-09 2.52124e-09 -0.001)
(-1.70303e-09 2.69131e-09 -0.001)
(-1.90762e-09 2.49022e-09 -0.001)
(-1.56098e-09 2.69843e-09 -0.001)
(-1.30248e-09 2.7612e-09 -0.001)
(-8.59576e-10 2.7877e-09 -0.001)
(-3.01555e-10 2.78285e-09 -0.001)
(-2.4506e-10 2.07963e-09 -0.000999998)
(-7.06787e-10 2.10086e-09 -0.000999998)
(-1.08762e-09 2.12295e-09 -0.000999998)
(-1.32592e-09 2.16184e-09 -0.000999999)
(-1.45124e-09 2.09066e-09 -0.000999999)
(-1.61217e-09 2.39931e-09 -0.001)
(-1.58496e-09 2.41852e-09 -0.001)
(-1.26599e-09 2.47027e-09 -0.001)
(-8.39552e-10 2.49932e-09 -0.001)
(-2.97556e-10 2.50508e-09 -0.001)
(-2.35673e-10 1.65539e-09 -0.000999997)
(-6.68002e-10 1.67758e-09 -0.000999997)
(-1.01555e-09 1.72196e-09 -0.000999998)
(-1.26586e-09 1.78187e-09 -0.000999998)
(-1.46552e-09 1.81512e-09 -0.000999999)
(-1.58008e-09 1.8029e-09 -0.000999999)
(-1.49002e-09 1.8831e-09 -0.001)
(-1.22165e-09 1.92807e-09 -0.001)
(-8.19878e-10 1.95545e-09 -0.001)
(-2.90959e-10 1.96779e-09 -0.001)
(-2.26107e-10 1.06365e-09 -0.000999997)
(-6.43467e-10 1.08688e-09 -0.000999997)
(-9.83346e-10 1.10925e-09 -0.000999997)
(-1.23275e-09 1.13264e-09 -0.000999998)
(-1.4303e-09 1.14987e-09 -0.000999998)
(-1.54418e-09 1.17321e-09 -0.000999999)
(-1.45977e-09 1.18285e-09 -0.000999999)
(-1.1936e-09 1.20419e-09 -0.001)
(-7.9594e-10 1.2307e-09 -0.001)
(-2.81376e-10 1.24219e-09 -0.001)
(-2.14145e-10 3.70794e-10 -0.000999996)
(-6.23272e-10 3.83062e-10 -0.000999996)
(-9.67886e-10 3.90454e-10 -0.000999997)
(-1.2228e-09 3.96595e-10 -0.000999997)
(-1.42214e-09 3.97949e-10 -0.000999998)
(-1.54402e-09 4.01945e-10 -0.000999998)
(-1.45611e-09 3.95072e-10 -0.000999999)
(-1.17143e-09 4.02698e-10 -0.001)
(-7.77864e-10 4.14873e-10 -0.001)
(-2.76522e-10 4.18364e-10 -0.001)
(-3.3803e-10 5.96232e-10 -0.001)
(-9.80434e-10 5.98149e-10 -0.001)
(-1.5328e-09 6.00869e-10 -0.001)
(-1.969e-09 5.91013e-10 -0.001)
(-2.21148e-09 5.75016e-10 -0.001)
(-2.22328e-09 5.79634e-10 -0.00100001)
(-2.01086e-09 5.88678e-10 -0.00100001)
(-1.59915e-09 5.83949e-10 -0.00100001)
(-1.04035e-09 5.7072e-10 -0.00100001)
(-3.61632e-10 5.61963e-10 -0.00100001)
(-3.37947e-10 1.73809e-09 -0.001)
(-9.78875e-10 1.74564e-09 -0.001)
(-1.54294e-09 1.74661e-09 -0.001)
(-1.99871e-09 1.73894e-09 -0.001)
(-2.22723e-09 1.72755e-09 -0.001)
(-2.21403e-09 1.73932e-09 -0.001)
(-2.01056e-09 1.72867e-09 -0.00100001)
(-1.62034e-09 1.70143e-09 -0.00100001)
(-1.06333e-09 1.66792e-09 -0.00100001)
(-3.69996e-10 1.6518e-09 -0.00100001)
(-3.34606e-10 2.70373e-09 -0.001)
(-9.77313e-10 2.70917e-09 -0.001)
(-1.54254e-09 2.72404e-09 -0.001)
(-1.99191e-09 2.75574e-09 -0.001)
(-2.21548e-09 2.79972e-09 -0.001)
(-2.22663e-09 2.81375e-09 -0.001)
(-2.05281e-09 2.71383e-09 -0.001)
(-1.66311e-09 2.65143e-09 -0.00100001)
(-1.08877e-09 2.61059e-09 -0.00100001)
(-3.75173e-10 2.59698e-09 -0.00100001)
(-3.37889e-10 3.36058e-09 -0.001)
(-9.63986e-10 3.37214e-09 -0.001)
(-1.49644e-09 3.43026e-09 -0.001)
(-1.92306e-09 3.49438e-09 -0.001)
(-2.16925e-09 3.44431e-09 -0.001)
(-2.30014e-09 3.76923e-09 -0.001)
(-2.17291e-09 3.48487e-09 -0.001)
(-1.72357e-09 3.34527e-09 -0.001)
(-1.11261e-09 3.28562e-09 -0.001)
(-3.78452e-10 3.25979e-09 -0.001)
(-3.29667e-10 3.65213e-09 -0.001)
(-9.14303e-10 3.68341e-09 -0.001)
(-1.42036e-09 3.74521e-09 -0.001)
(-1.97786e-09 3.8066e-09 -0.001)
(-1.94084e-09 4.03411e-09 -0.001)
(-2.18608e-09 3.69366e-09 -0.001)
(-2.47656e-09 3.73465e-09 -0.001)
(-1.86231e-09 3.70228e-09 -0.001)
(-1.16772e-09 3.66973e-09 -0.001)
(-3.94508e-10 3.63977e-09 -0.001)
(-3.13809e-10 3.57198e-09 -0.000999999)
(-8.78131e-10 3.59669e-09 -0.000999999)
(-1.37331e-09 3.5827e-09 -0.000999999)
(-1.63416e-09 3.56852e-09 -0.001)
(-2.28216e-09 3.72485e-09 -0.001)
(-2.59941e-09 3.39662e-09 -0.001)
(-2.16428e-09 3.62026e-09 -0.001)
(-1.78843e-09 3.70011e-09 -0.001)
(-1.16788e-09 3.73188e-09 -0.001)
(-4.01171e-10 3.73599e-09 -0.001)
(-3.11993e-10 3.16651e-09 -0.000999997)
(-9.10648e-10 3.17269e-09 -0.000999997)
(-1.44859e-09 3.13496e-09 -0.000999998)
(-1.83576e-09 3.10127e-09 -0.000999998)
(-2.11274e-09 2.92564e-09 -0.000999999)
(-2.2906e-09 3.26846e-09 -0.001)
(-2.17307e-09 3.27632e-09 -0.001)
(-1.75063e-09 3.32104e-09 -0.001)
(-1.12446e-09 3.37273e-09 -0.001)
(-3.83076e-10 3.39818e-09 -0.001)
(-3.13822e-10 2.4892e-09 -0.000999996)
(-9.15925e-10 2.49559e-09 -0.000999996)
(-1.44478e-09 2.4918e-09 -0.000999997)
(-1.84349e-09 2.49935e-09 -0.000999997)
(-2.11501e-09 2.46775e-09 -0.000999998)
(-2.24873e-09 2.4905e-09 -0.000999999)
(-2.1117e-09 2.54125e-09 -0.001)
(-1.69197e-09 2.60193e-09 -0.001)
(-1.08402e-09 2.65179e-09 -0.001)
(-3.69125e-10 2.66448e-09 -0.001)
(-3.10479e-10 1.59171e-09 -0.000999995)
(-9.12965e-10 1.60214e-09 -0.000999995)
(-1.44485e-09 1.59953e-09 -0.000999996)
(-1.85977e-09 1.59271e-09 -0.000999997)
(-2.12155e-09 1.55879e-09 -0.000999997)
(-2.21707e-09 1.57087e-09 -0.000999998)
(-2.06161e-09 1.60723e-09 -0.000999999)
(-1.64003e-09 1.65498e-09 -0.001)
(-1.05664e-09 1.68718e-09 -0.001)
(-3.65214e-10 1.68045e-09 -0.001)
(-3.05935e-10 5.50536e-10 -0.000999995)
(-9.09468e-10 5.55565e-10 -0.000999995)
(-1.45137e-09 5.5334e-10 -0.000999996)
(-1.88052e-09 5.46223e-10 -0.000999996)
(-2.13264e-09 5.28941e-10 -0.000999997)
(-2.19594e-09 5.30995e-10 -0.000999998)
(-2.02354e-09 5.45733e-10 -0.000999999)
(-1.60875e-09 5.64971e-10 -0.000999999)
(-1.05312e-09 5.73725e-10 -0.001)
(-3.71846e-10 5.65255e-10 -0.001)
(-4.51648e-10 8.09311e-10 -0.001)
(-1.30467e-09 8.11436e-10 -0.001)
(-2.03117e-09 8.14412e-10 -0.001)
(-2.58984e-09 8.12333e-10 -0.00100001)
(-2.88838e-09 8.15206e-10 -0.00100001)
(-2.8865e-09 8.12404e-10 -0.00100001)
(-2.61992e-09 8.07933e-10 -0.00100001)
(-2.11833e-09 7.84988e-10 -0.00100001)
(-1.39635e-09 7.65327e-10 -0.00100001)
(-4.88075e-10 7.62184e-10 -0.00100001)
(-4.51997e-10 2.35797e-09 -0.001)
(-1.30371e-09 2.36793e-09 -0.001)
(-2.03425e-09 2.37838e-09 -0.001)
(-2.59409e-09 2.38965e-09 -0.001)
(-2.894e-09 2.41109e-09 -0.00100001)
(-2.89953e-09 2.39809e-09 -0.00100001)
(-2.65261e-09 2.34545e-09 -0.00100001)
(-2.16524e-09 2.28242e-09 -0.00100001)
(-1.42046e-09 2.24532e-09 -0.00100001)
(-4.9068e-10 2.24104e-09 -0.00100001)
(-4.47261e-10 3.66374e-09 -0.001)
(-1.29153e-09 3.68338e-09 -0.001)
(-2.0135e-09 3.71599e-09 -0.001)
(-2.56223e-09 3.74798e-09 -0.001)
(-2.88569e-09 3.77705e-09 -0.001)
(-2.95793e-09 3.77812e-09 -0.00100001)
(-2.74085e-09 3.63883e-09 -0.00100001)
(-2.22267e-09 3.55005e-09 -0.00100001)
(-1.43605e-09 3.51802e-09 -0.00100001)
(-4.88898e-10 3.51119e-09 -0.00100001)
(-4.39621e-10 4.55984e-09 -0.001)
(-1.25877e-09 4.6079e-09 -0.001)
(-1.96975e-09 4.67177e-09 -0.001)
(-2.53307e-09 4.70005e-09 -0.001)
(-2.8639e-09 4.66856e-09 -0.001)
(-3.03758e-09 4.77184e-09 -0.001)
(-2.88073e-09 4.59793e-09 -0.001)
(-2.28603e-09 4.47446e-09 -0.00100001)