FoamFile
{version 2.0; format ascii;class Cloud<passiveParticle>; location 0;object  positions;}
353
(
( -0.690862 -1.05999 0.499859 ) 0 
( -0.976512 -3.62446 0.499475 ) 0 
( -0.321937 -2.84213 0.499755 ) 0 
( -2.36945 -3.19337 0.499728 ) 0 
( -3.07574 -0.650889 0.499906 ) 0 
( -2.00745 -0.963521 0.499826 ) 0 
( -4.74435 -1.75228 0.4999 ) 0 
( -4.07033 -0.753946 0.499556 ) 0 
( -1.96915 -1.97446 0.499681 ) 0 
( -4.94233 -4.19904 0.499787 ) 0 
( -3.98308 -2.40069 0.499856 ) 0 
( -3.40035 -3.24658 0.499719 ) 0 
( -1.42554 -1.44785 1.15296 ) 0 
( -2.84078 -4.07521 0.499976 ) 0 
( -1.84068 -4.15797 0.499978 ) 0 
( -0.189929 -4.32102 1.21594 ) 0 
( -2.93019 -2.36409 0.499662 ) 0 
( -0.0744017 -1.75569 1.38018 ) 0 
( -3.48546 -1.54856 0.66085 ) 0 
( -4.81598 -2.55583 1.09073 ) 0 
( -0.91227 -2.03497 0.499663 ) 0 
( -0.751377 -0.0654143 0.582056 ) 0 
( -2.35654 -0.339282 1.19843 ) 0 
( -4.38477 -3.37715 0.615203 ) 0 
( -0.823126 -4.61404 0.499597 ) 0 
( -3.744 -3.83868 1.2284 ) 0 
( -1.48685 -2.80794 0.768553 ) 0 
( -0.838979 -2.39835 1.42794 ) 0 
( -4.46022 -0.369069 1.33553 ) 0 
( -0.0640243 -3.47436 1.94423 ) 0 
( -0.656353 -0.927913 1.52394 ) 0 
( -2.18713 -4.73578 1.25252 ) 0 
( -2.61188 -1.76847 1.23704 ) 0 
( -4.38924 -4.6024 1.23113 ) 0 
( -4.25109 -1.3582 1.27521 ) 0 
( -3.35352 -4.7591 1.23561 ) 0 
( -4.61784 -3.49451 1.61712 ) 0 
( -1.37837 -0.250186 1.38558 ) 0 
( -2.90507 -2.94371 1.31361 ) 0 
( -1.8251 -2.29561 1.55786 ) 0 
( -1.51014 -0.994446 2.0402 ) 0 
( -0.331051 -0.0488341 2.68195 ) 0 
( -3.83775 -4.43572 2.04831 ) 0 
( -2.62161 -1.01116 1.88959 ) 0 
( -3.90492 -2.82773 1.40051 ) 0 
( -0.585031 -4.62706 2.13353 ) 0 
( -0.803437 -1.69984 2.1421 ) 0 
( -1.92554 -3.50107 1.34092 ) 0 
( -4.44968 -2.10156 1.9207 ) 0 
( -1.27378 -4.3258 1.34407 ) 0 
( -3.50458 -1.89357 1.66954 ) 0 
( -0.94031 -3.39189 1.47072 ) 0 
( -4.38083 -0.898748 2.17966 ) 0 
( -2.69044 -2.30946 2.07412 ) 0 
( -4.7668 -1.62229 2.75151 ) 0 
( -1.94896 -4.20936 2.07209 ) 0 
( -1.2772 -2.82094 2.22102 ) 0 
( -0.178334 -2.49176 2.22027 ) 0 
( -0.224483 -1.80978 2.94968 ) 0 
( -0.728186 -0.957756 2.80768 ) 0 
( -3.51242 -0.695674 1.39827 ) 0 
( -4.91054 -4.50862 2.09581 ) 0 
( -4.83671 -2.89413 2.39139 ) 0 
( -2.7791 -4.88738 2.04377 ) 0 
( -2.37477 -0.658107 2.79179 ) 0 
( -2.47254 -3.28228 2.1486 ) 0 
( -3.74844 -2.52072 2.49719 ) 0 
( -3.45515 -1.19956 2.40832 ) 0 
( -3.5663 -3.43 2.12325 ) 0 
( -1.06119 -3.78382 2.38221 ) 0 
( -2.11092 -1.63041 2.52435 ) 0 
( -2.79127 -3.97546 1.49921 ) 0 
( -4.54073 -2.46269 3.24345 ) 0 
( -4.45547 -4.77275 2.94582 ) 0 
( -0.572281 -3.09323 2.9148 ) 0 
( -0.791679 -4.43385 3.09225 ) 0 
( -2.07443 -2.63013 2.79342 ) 0 
( -1.46112 -0.301743 2.98613 ) 0 
( -2.75302 -4.09699 2.65527 ) 0 
( -3.01223 -1.22724 3.31084 ) 0 
( -1.22422 -2.1255 2.94307 ) 0 
( -4.40014 -3.77923 2.55056 ) 0 
( -3.8518 -1.74482 3.1464 ) 0 
( -0.141156 -0.581593 3.52437 ) 0 
( -1.90429 -3.6263 2.89552 ) 0 
( -3.65488 -4.18847 3.07672 ) 0 
( -3.15887 -3.21511 3.01046 ) 0 
( -3.20012 -0.248223 2.23607 ) 0 
( -1.6078 -1.24112 3.29574 ) 0 
( -4.00948 -0.72438 3.09158 ) 0 
( -4.3815 -1.98993 4.10999 ) 0 
( -0.486931 -3.70298 3.70253 ) 0 
( -2.96652 -2.19435 3.02818 ) 0 
( -1.7119 -4.75837 2.87348 ) 0 
( -2.1557 -2.03157 3.59016 ) 0 
( -3.60489 -2.52262 3.72431 ) 0 
( -2.83571 -4.08582 3.65126 ) 0 
( -3.45824 -0.260846 3.82012 ) 0 
( -0.71003 -1.38311 3.71237 ) 0 
( -1.40388 -2.9656 3.45477 ) 0 
( -4.07715 -3.33678 3.38673 ) 0 
( -0.973671 -4.50922 4.07229 ) 0 
( -4.85745 -4.83377 3.85918 ) 0 
( -4.42265 -0.256089 4.12629 ) 0 
( -2.2589 -1.1492 4.04897 ) 0 
( -3.75427 -1.20226 3.98054 ) 0 
( -0.839198 -0.360833 4.20543 ) 0 
( -2.37507 -3.13096 3.62519 ) 0 
( -1.86073 -3.96188 3.83608 ) 0 
( -3.44537 -3.4702 4.15 ) 0 
( -4.47627 -1.07121 4.70358 ) 0 
( -0.696495 -2.64911 4.08636 ) 0 
( -1.4132 -1.86165 4.23787 ) 0 
( -3.63382 -4.5791 3.99676 ) 0 
( -0.162951 -1.04508 4.4778 ) 0 
( -1.73251 -0.0175391 3.90528 ) 0 
( -4.94811 -4.78557 4.85367 ) 0 
( -2.27421 -4.8685 3.91946 ) 0 
( -4.56263 -2.38088 5.05359 ) 0 
( -2.98773 -1.8314 4.10729 ) 0 
( -0.185497 -3.34649 4.58846 ) 0 
( -1.10455 -1.10642 4.8161 ) 0 
( -1.15281 -3.59713 4.44066 ) 0 
( -4.41757 -3.9649 4.0861 ) 0 
( -4.72058 -1.12705 3.73583 ) 0 
( -3.67967 -0.236701 4.79493 ) 0 
( -2.81006 -2.75606 4.44335 ) 0 
( -1.73716 -4.41453 4.71866 ) 0 
( -4.29966 -2.97008 4.28979 ) 0 
( -0.209068 -0.147799 4.95186 ) 0 
( -2.25211 -1.99173 4.76615 ) 0 
( -1.03457 -2.83369 5.07518 ) 0 
( -1.74881 -0.342606 4.85053 ) 0 
( -0.793981 -4.32869 5.03889 ) 0 
( -4.117 -1.37427 5.586 ) 0 
( -2.86156 -4.39054 4.60298 ) 0 
( -1.79168 -2.77941 4.35716 ) 0 
( -3.09227 -1.0421 4.71239 ) 0 
( -2.6023 -0.255449 4.33705 ) 0 
( -2.28575 -3.5788 4.69856 ) 0 
( -0.53751 -1.92803 4.76044 ) 0 
( -3.81865 -4.15371 4.88244 ) 0 
( -0.0942147 -2.61524 5.33584 ) 0 
( -0.342558 -1.00791 5.46054 ) 0 
( -3.18439 -3.41612 5.11351 ) 0 
( -1.52945 -3.67894 5.36314 ) 0 
( -4.7418 -2.87282 5.90656 ) 0 
( -2.24872 -1.11374 5.24434 ) 0 
( -2.056 -2.82992 5.31996 ) 0 
( -4.49423 -3.46236 5.13798 ) 0 
( -3.0861 -0.502659 5.55417 ) 0 
( -3.6777 -1.96039 4.81949 ) 0 
( -1.35647 -1.92338 5.33417 ) 0 
( -1.45447 -4.90836 5.54073 ) 0 
( -2.40181 -4.59739 5.46609 ) 0 
( -0.523983 -1.8899 5.89504 ) 0 
( -3.28962 -4.18342 5.74578 ) 0 
( -4.63419 -3.84467 6.1521 ) 0 
( -1.8863 -4.43223 6.30655 ) 0 
( -0.728869 -4.42071 6.03208 ) 0 
( -0.31068 -0.242923 6.10346 ) 0 
( -1.20218 -0.539892 5.664 ) 0 
( -0.469571 -3.5212 5.53111 ) 0 
( -3.90994 -2.32673 5.80908 ) 0 
( -3.01929 -2.46589 5.37678 ) 0 
( -2.17241 -0.138383 5.73285 ) 0 
( -2.25329 -1.96151 5.77456 ) 0 
( -3.12539 -1.49998 5.61181 ) 0 
( -4.3137 -4.62356 5.61307 ) 0 
( -4.33033 -0.352562 5.5453 ) 0 
( -1.43681 -1.76972 6.31871 ) 0 
( -4.52329 -2.12255 6.57182 ) 0 
( -2.80538 -2.86213 6.26937 ) 0 
( -3.63888 -0.867359 6.30304 ) 0 
( -3.82951 -3.32149 5.8716 ) 0 
( -2.86741 -0.0204348 6.442 ) 0 
( -0.170702 -0.424521 7.07674 ) 0 
( -0.065538 -1.16753 6.41605 ) 0 
( -2.07299 -1.00448 6.22252 ) 0 
( -2.44944 -3.64077 5.7529 ) 0 
( -0.720641 -2.82157 6.19996 ) 0 
( -1.32726 -3.60406 6.33933 ) 0 
( -2.81073 -4.86861 6.33718 ) 0 
( -4.61602 -3.14037 6.86173 ) 0 
( -3.26045 -3.68408 6.61162 ) 0 
( -3.41071 -1.81734 6.51609 ) 0 
( -1.1254 -4.67044 6.91517 ) 0 
( -0.515563 -3.87272 6.85745 ) 0 
( -1.00682 -0.875607 6.58523 ) 0 
( -2.25997 -3.56137 6.73135 ) 0 
( -0.114357 -2.67924 7.01843 ) 0 
( -4.56569 -0.546433 6.49759 ) 0 
( -1.77108 -2.71082 6.27079 ) 0 
( -2.8449 -0.903885 6.90979 ) 0 
( -2.43288 -1.79989 6.74481 ) 0 
( -3.70699 -2.75663 6.68875 ) 0 
( -2.87716 -2.55953 7.21953 ) 0 
( -0.772094 -1.07259 7.54384 ) 0 
( -2.04035 -0.29878 6.9299 ) 0 
( -0.630755 -1.83035 6.90691 ) 0 
( -3.73674 -4.56155 6.55629 ) 0 
( -1.55959 -3.88993 7.36466 ) 0 
( -1.03294 -3.05979 7.12472 ) 0 
( -3.2945 -1.5948 7.48402 ) 0 
( -3.69177 -0.146666 6.99413 ) 0 
( -0.0481466 -1.95917 7.70907 ) 0 
( -4.1453 -1.32154 7.03559 ) 0 
( -2.06926 -4.81122 7.21333 ) 0 
( -0.289043 -3.39205 7.7043 ) 0 
( -1.11477 -0.169565 7.28502 ) 0 
( -3.82509 -3.37403 7.46638 ) 0 
( -1.66989 -1.32521 7.18341 ) 0 
( -2.99828 -4.43685 7.21937 ) 0 
( -2.83703 -3.50561 7.54607 ) 0 
( -4.02314 -0.669215 7.78344 ) 0 
( -3.28517 -2.37212 8.11287 ) 0 
( -2.40836 -4.44355 8.07893 ) 0 
( -4.94377 -0.924079 7.48726 ) 0 
( -0.00854726 -1.08304 8.18927 ) 0 
( -1.70833 -2.32542 7.19109 ) 0 
( -1.34841 -3.20559 8.06235 ) 0 
( -1.91069 -0.0251698 7.88287 ) 0 
( -0.551366 -4.35968 7.72995 ) 0 
( -0.570124 -2.60991 8.26006 ) 0 
( -4.93241 -2.38432 7.44591 ) 0 
( -3.77816 -4.32897 7.83587 ) 0 
( -2.83357 -0.0998452 7.5051 ) 0 
( -0.720992 -0.260299 8.19962 ) 0 
( -2.25998 -2.80558 7.96668 ) 0 
( -4.42374 -4.09137 7.11015 ) 0 
( -2.12433 -3.60759 8.5483 ) 0 
( -2.35042 -1.79563 7.74482 ) 0 
( -0.674494 -3.78517 8.53901 ) 0 
( -2.632 -0.895327 8.07634 ) 0 
( -1.41902 -4.37669 8.2266 ) 0 
( -4.24066 -2.66655 8.1105 ) 0 
( -0.494816 -0.753234 9.03968 ) 0 
( -1.4798 -2.20772 8.1573 ) 0 
( -3.14587 -3.92338 8.50917 ) 0 
( -4.38902 -1.69413 7.93092 ) 0 
( -3.50456 -1.25917 8.40225 ) 0 
( -4.77109 -3.45446 7.79825 ) 0 
( -4.82458 -0.523868 8.39571 ) 0 
( -2.68205 -1.81937 8.6877 ) 0 
( -4.97774 -2.21328 8.71563 ) 0 
( -3.09168 -0.0951261 8.93538 ) 0 
( -3.88019 -2.14463 8.88358 ) 0 
( -4.08513 -3.58068 8.51462 ) 0 
( -0.830678 -1.54233 8.52558 ) 0 
( -4.47224 -1.33592 8.86078 ) 0 
( -4.69711 -4.34446 8.30981 ) 0 
( -1.60923 -0.951594 8.10881 ) 0 
( -3.92125 -4.86239 8.66961 ) 0 
( -3.34438 -3.01483 8.87653 ) 0 
( -1.31764 -4.17158 9.19995 ) 0 
( -0.831652 -2.3157 9.17909 ) 0 
( -4.56256 -2.00262 9.60055 ) 0 
( -1.56575 -0.650287 9.06118 ) 0 
( -1.10529 -1.41396 9.51343 ) 0 
( -2.26203 -4.47224 9.06761 ) 0 
( -2.04074 -2.55389 8.90919 ) 0 
( -1.33877 -3.17373 9.25957 ) 0 
( -0.682352 -4.9362 9.30744 ) 0 
( -4.74573 -3.10773 9.09751 ) 0 
( -4.44574 -0.35203 9.32259 ) 0 
( -0.489101 -0.0206822 9.72023 ) 0 
( -2.531 -0.910829 9.07698 ) 0 
( -3.32688 -1.46461 9.36461 ) 0 
( -1.39035 -2.23705 10.0045 ) 0 
( -2.90657 -2.36337 9.49599 ) 0 
( -0.614102 -4.01755 9.89365 ) 0 
( -4.84987 -1.14763 10.0322 ) 0 
( -3.54258 -0.54902 9.70383 ) 0 
( -2.07646 -1.73276 9.47862 ) 0 
( -3.13845 -4.89879 9.29069 ) 0 
( -3.96027 -2.80012 9.63448 ) 0 
( -2.71141 -3.62136 9.3576 ) 0 
( -1.28274 -0.572532 10.0237 ) 0 
( -1.69758 -4.8946 9.77674 ) 0 
( -3.74267 -4.10214 9.29605 ) 0 
( -0.0527565 -3.18589 9.65276 ) 0 
( -2.13632 -2.89834 9.84305 ) 0 
( -4.01696 -3.1021 10.5876 ) 0 
( -0.51631 -1.54474 10.3108 ) 0 
( -3.13944 -3.11863 10.1085 ) 0 
( -3.2209 -1.84342 10.2901 ) 0 
( -2.1428 -1.04918 10.2053 ) 0 
( -4.99851 -0.164159 10.1344 ) 0 
( -0.910225 -3.10032 10.16 ) 0 
( -1.67437 -3.76304 10.04 ) 0 
( -2.66342 -0.199804 10.2912 ) 0 
( -0.028247 -2.41726 10.2919 ) 0 
( -3.92464 -1.14355 10.4112 ) 0 
( -3.86241 -4.38795 10.2513 ) 0 
( -4.15815 -2.11535 10.5081 ) 0 
( -0.843608 -4.94786 10.2942 ) 0 
( -2.26189 -2.06672 10.4641 ) 0 
( -4.43245 -3.66049 9.86959 ) 0 
( -4.87484 -2.79923 10.1194 ) 0 
( -2.57565 -4.36591 10.0111 ) 0 
( -0.825342 -4.20243 10.9604 ) 0 
( -1.92171 -0.427462 10.9566 ) 0 
( -2.96703 -1.01352 10.7867 ) 0 
( -1.43739 -1.53825 10.7182 ) 0 
( -2.986 -2.57302 10.9323 ) 0 
( -4.67128 -0.703665 10.9102 ) 0 
( -0.545674 -0.623047 10.6975 ) 0 
( -2.36686 -3.39377 10.6805 ) 0 
( -3.15157 -4.81803 10.8077 ) 0 
( -1.48788 -2.78473 10.9127 ) 0 
( -3.28539 -3.80377 10.822 ) 0 
( -0.272594 -3.37297 10.8804 ) 0 
( -4.95943 -3.7389 10.7158 ) 0 
( -4.76466 -2.89707 11.2191 ) 0 
( -1.74592 -4.51164 10.6991 ) 0 
( -0.671288 -2.22 11.0318 ) 0 
( -2.836 -3.32382 11.5754 ) 0 
( -3.67544 -0.319403 10.9197 ) 0 
( -2.20695 -2.52535 11.5573 ) 0 
( -1.63227 -3.70724 11.2822 ) 0 
( -2.78437 -0.0298868 11.2692 ) 0 
( -0.803586 -1.24731 11.4348 ) 0 
( -2.25644 -1.50427 11.2909 ) 0 
( -2.50266 -4.22048 11.2842 ) 0 
( -0.10422 -0.598732 11.7352 ) 0 
( -1.42504 -4.70941 11.6253 ) 0 
( -3.85106 -2.55163 11.4333 ) 0 
( -3.56541 -0.173367 11.9029 ) 0 
( -2.54343 -4.49524 12.2449 ) 0 
( -1.40226 -2.98443 11.9338 ) 0 
( -1.59768 -0.932259 11.9545 ) 0 
( -4.54781 -1.83598 11.3856 ) 0 
( -0.777044 -3.93526 11.9228 ) 0 
( -2.0241 -1.79749 12.2182 ) 0 
( -4.16253 -3.76813 11.3191 ) 0 
( -3.42331 -4.35409 11.6509 ) 0 
( -4.89768 -4.99171 11.4885 ) 0 
( -4.78297 -0.293417 11.8153 ) 0 
( -2.02398 -0.0284264 11.9186 ) 0 
( -1.0832 -2.03784 11.9796 ) 0 
( -3.72908 -1.26181 11.3847 ) 0 
( -3.70184 -3.30363 12.0753 ) 0 
( -1.54899 -4.29651 12.5276 ) 0 
( -0.454787 -2.78784 12.1859 ) 0 
( -4.82653 -1.24637 12.1437 ) 0 
( -4.60155 -2.50685 12.1252 ) 0 
( -0.506339 -1.24146 12.3896 ) 0 
( -2.87761 -0.887835 11.7747 ) 0 
( -4.13216 -0.663218 12.5653 ) 0 
( -3.06074 -1.93584 11.6993 ) 0 
( -2.15725 -3.54368 12.2761 ) 0 
( -2.0709 -0.569803 12.758 ) 0 
( -0.439864 -4.0118 12.8611 ) 0 
)
