FoamFile
{version 2.0; format ascii;class vectorField; location 0;object  v;}
353
(
( 3.02286e-06 9.20355e-07 -1.88338e-07 )  
( 4.61881e-06 7.5708e-07 5.07656e-08 )  
( 5.68943e-06 2.27129e-06 2.74676e-07 )  
( 5.51397e-06 -9.33861e-07 7.02249e-07 )  
( 3.07827e-06 1.24567e-06 1.65015e-07 )  
( 5.03415e-06 2.55297e-06 -6.50794e-07 )  
( 2.40595e-06 1.4523e-06 1.8887e-07 )  
( 3.26321e-06 1.24622e-06 5.76513e-07 )  
( 4.62056e-06 2.32937e-06 -3.27029e-07 )  
( 6.81602e-06 6.8932e-07 7.22285e-07 )  
( 3.28272e-06 1.24183e-06 -9.25127e-08 )  
( 4.19714e-06 2.15546e-06 1.35707e-06 )  
( 6.61722e-06 3.79125e-06 -1.19688e-06 )  
( 1.70095e-06 2.08899e-07 -1.38381e-08 )  
( -2.19636e-05 -5.8948e-06 3.43644e-13 )  
( 1.34963e-06 5.73754e-07 -2.50966e-07 )  
( 5.29157e-06 8.35788e-07 -1.04454e-06 )  
( 7.33518e-06 3.20571e-06 1.23978e-06 )  
( 4.42881e-06 1.03537e-06 1.1667e-07 )  
( 4.88958e-06 1.96906e-07 -2.03204e-07 )  
( 3.19445e-06 2.37295e-06 4.768e-07 )  
( 4.22045e-06 5.70787e-07 -1.68602e-07 )  
( 8.54998e-06 3.06655e-06 -2.87945e-07 )  
( 4.69212e-06 1.3765e-06 5.58824e-07 )  
( 1.95472e-06 4.15455e-07 -5.11107e-07 )  
( 6.50467e-06 2.45267e-06 8.33067e-07 )  
( 5.57354e-06 1.66799e-06 1.00701e-06 )  
( 6.77494e-06 3.54097e-06 -1.19428e-07 )  
( 6.16041e-06 3.71374e-06 4.9404e-07 )  
( 1.08344e-05 5.30308e-06 1.0994e-06 )  
( 6.58378e-06 2.48753e-06 4.90261e-07 )  
( 6.37152e-06 2.5034e-06 -1.08467e-06 )  
( 5.75462e-06 3.2678e-06 -1.08843e-06 )  
( 7.14393e-06 2.81562e-06 -6.37102e-07 )  
( 6.05599e-06 1.20495e-06 5.9047e-07 )  
( 6.58271e-06 2.33593e-06 -6.60434e-07 )  
( 8.81318e-06 4.90425e-06 2.79866e-06 )  
( 8.18229e-06 5.75448e-06 -3.58207e-07 )  
( 8.90821e-06 3.29684e-06 -1.61396e-08 )  
( 6.72513e-06 5.74382e-06 6.60307e-07 )  
( 6.23948e-06 8.36394e-06 -9.42447e-08 )  
( 1.40445e-05 3.32613e-06 -3.26005e-08 )  
( 1.01309e-05 5.03703e-06 -7.01694e-07 )  
( 9.68313e-06 3.30315e-06 -9.03499e-07 )  
( 7.60232e-06 2.56084e-06 -8.83407e-07 )  
( 8.62021e-06 3.08302e-06 -1.17421e-06 )  
( 1.0887e-05 3.15013e-06 1.87125e-06 )  
( 9.65832e-06 5.49835e-07 6.1053e-07 )  
( 8.60196e-06 3.74629e-06 1.83266e-06 )  
( 1.00212e-05 2.42926e-06 2.39167e-06 )  
( 7.83345e-06 3.22158e-06 1.76176e-06 )  
( 1.12626e-05 2.95874e-06 -7.25818e-07 )  
( 8.64991e-06 4.8288e-06 8.61866e-08 )  
( 1.09485e-05 5.63107e-06 2.8769e-07 )  
( 1.24828e-05 5.6679e-06 5.63999e-07 )  
( 1.27528e-05 4.32979e-06 2.76469e-06 )  
( 1.19124e-05 2.79447e-06 -3.85013e-07 )  
( 1.04584e-05 3.14276e-06 -1.27016e-07 )  
( 1.63785e-05 3.18549e-06 -2.83691e-10 )  
( 1.55064e-05 3.60328e-06 8.01468e-07 )  
( 3.63485e-06 4.28575e-06 1.29675e-07 )  
( 1.32651e-05 5.46016e-06 -5.98904e-07 )  
( 1.05852e-05 3.32808e-06 1.05761e-06 )  
( 8.65526e-06 5.23795e-06 -6.35254e-07 )  
( 1.55152e-05 3.50031e-06 -2.19901e-06 )  
( 1.09539e-05 5.48426e-06 6.14001e-07 )  
( 1.24025e-05 4.74107e-06 2.04143e-07 )  
( 1.05923e-05 8.69294e-06 8.71451e-07 )  
( 1.18631e-05 4.18242e-06 -7.95278e-07 )  
( 1.24603e-05 4.11874e-06 -7.46292e-08 )  
( 1.27788e-05 4.44112e-06 1.26543e-07 )  
( 7.46972e-06 2.28974e-06 3.20902e-07 )  
( 1.42493e-05 6.47787e-06 -5.12553e-07 )  
( 1.52408e-05 5.83138e-06 -8.01789e-07 )  
( 1.53071e-05 3.60752e-06 2.09273e-06 )  
( 1.02224e-05 3.96119e-06 -7.84903e-07 )  
( 1.41212e-05 5.41561e-06 -9.52656e-08 )  
( 1.55289e-05 2.74009e-06 -6.2759e-07 )  
( 1.25453e-05 5.41155e-06 4.45121e-07 )  
( 1.5443e-05 6.59129e-06 -2.1644e-07 )  
( 1.50084e-05 3.56785e-06 3.09925e-06 )  
( 1.26675e-05 4.61314e-06 2.26451e-06 )  
( 1.43241e-05 7.56501e-06 1.49132e-06 )  
( 1.67921e-05 5.78569e-06 2.87121e-07 )  
( 1.36128e-05 5.36855e-06 -4.70626e-07 )  
( 1.48565e-05 6.71744e-06 3.43993e-06 )  
( 1.52072e-05 6.92981e-06 -2.26994e-06 )  
( 9.7849e-06 8.01196e-06 -2.32389e-06 )  
( 1.66482e-05 2.57682e-06 -9.6603e-09 )  
( 7.43865e-06 4.61915e-06 -1.86671e-07 )  
( 1.73226e-05 6.88273e-06 -4.11204e-07 )  
( 1.5872e-05 1.81791e-07 -3.15765e-07 )  
( 1.48437e-05 7.28361e-06 -8.70848e-07 )  
( 9.86304e-06 1.80571e-06 1.92385e-06 )  
( 1.53102e-05 6.87756e-06 -6.29256e-07 )  
( 1.55999e-05 6.4384e-06 -2.44809e-06 )  
( 1.81817e-05 6.02685e-06 1.07256e-06 )  
( 1.7662e-05 6.53641e-06 -5.22811e-07 )  
( 1.74372e-05 4.88646e-06 -4.33464e-07 )  
( 1.4522e-05 3.40457e-06 1.04141e-06 )  
( 1.62149e-05 6.66035e-06 2.82756e-07 )  
( 1.44076e-05 5.2712e-06 4.90255e-07 )  
( 1.48063e-05 1.03454e-05 1.9034e-08 )  
( 1.7138e-05 5.82866e-06 1.34187e-06 )  
( 1.79846e-05 6.66729e-06 -3.50341e-07 )  
( 1.69644e-05 7.64063e-06 1.07273e-06 )  
( 1.80355e-05 5.61685e-06 1.30435e-06 )  
( 1.46182e-05 4.73298e-06 3.60797e-07 )  
( 1.79143e-05 6.58687e-06 2.76347e-08 )  
( 1.77887e-05 6.3934e-06 1.13052e-06 )  
( 1.98322e-05 1.12315e-05 -8.56748e-07 )  
( 1.64359e-05 2.75786e-06 2.5534e-06 )  
( 1.80877e-05 4.6842e-06 -3.79972e-07 )  
( 2.02576e-05 6.81337e-06 3.34579e-06 )  
( 1.86622e-05 5.17541e-06 -3.7975e-07 )  
( 2.01369e-05 5.3395e-06 -1.29415e-06 )  
( 2.43782e-05 7.11373e-06 1.18755e-06 )  
( 1.84089e-05 5.96683e-06 1.18063e-06 )  
( 2.18343e-05 1.0505e-05 -1.18023e-06 )  
( 1.62351e-05 6.10037e-06 -9.07851e-07 )  
( 2.13926e-05 4.09996e-06 -6.46801e-07 )  
( 2.03005e-05 5.51159e-06 1.08907e-06 )  
( 1.91163e-05 5.25496e-06 1.19011e-06 )  
( 2.00924e-05 7.0972e-06 2.48303e-06 )  
( 1.62878e-05 6.70448e-06 -1.31157e-07 )  
( 2.04793e-05 7.01167e-06 -4.41084e-07 )  
( 1.79394e-05 7.13183e-06 -1.35061e-07 )  
( 2.15195e-05 7.68329e-06 6.43506e-07 )  
( 1.88909e-05 8.49731e-06 -5.80124e-07 )  
( 1.94474e-05 7.74933e-06 2.06612e-06 )  
( 1.93067e-05 8.31004e-06 -2.51594e-06 )  
( 2.40657e-05 4.32395e-06 1.58604e-06 )  
( 2.16888e-05 7.7178e-06 -4.60187e-07 )  
( 2.21979e-05 6.73563e-06 -2.64722e-07 )  
( 2.49715e-05 1.27358e-05 -5.41795e-07 )  
( 2.36472e-05 4.15152e-06 1.20517e-06 )  
( 1.68449e-05 4.81628e-06 8.39424e-07 )  
( 1.98023e-05 8.6226e-06 -1.10971e-08 )  
( 2.0777e-05 7.70766e-06 -6.43905e-07 )  
( 1.85817e-05 6.7931e-06 4.63334e-06 )  
( 2.0627e-05 4.48989e-06 1.71013e-06 )  
( 2.2264e-05 6.71409e-06 3.78773e-06 )  
( 2.26662e-05 6.81467e-06 3.86967e-06 )  
( 2.22875e-05 5.76421e-06 3.25104e-07 )  
( 2.2609e-05 7.32476e-06 1.42731e-06 )  
( 2.38129e-05 7.16899e-06 2.23076e-06 )  
( 2.61393e-05 1.17059e-05 2.73838e-07 )  
( 2.09016e-05 8.25306e-06 -9.21207e-07 )  
( 2.3557e-05 7.6447e-06 3.69579e-06 )  
( 2.29703e-05 8.40953e-06 -3.74679e-08 )  
( 2.40989e-05 1.08851e-05 -1.34773e-06 )  
( 1.99344e-05 9.09302e-06 -1.4876e-06 )  
( 2.36259e-05 4.9872e-06 1.31564e-06 )  
( 2.65947e-05 1.20366e-05 1.59055e-06 )  
( 2.57716e-05 7.85508e-06 1.45194e-06 )  
( 2.65617e-05 5.69132e-06 1.33475e-06 )  
( 3.0031e-05 6.28187e-06 3.70306e-06 )  
( 2.11503e-05 1.15932e-05 6.56545e-07 )  
( 2.66566e-05 1.10656e-05 1.52748e-06 )  
( 2.88965e-05 1.20693e-05 1.18031e-07 )  
( 2.4738e-05 7.7625e-06 -9.13018e-07 )  
( 2.42109e-05 9.35234e-06 2.728e-08 )  
( 2.8375e-05 4.83423e-06 -7.48741e-07 )  
( 2.3975e-05 1.18586e-05 -2.94638e-06 )  
( 2.25596e-05 9.56523e-06 -1.24129e-06 )  
( 2.47564e-05 1.09916e-05 -2.05513e-06 )  
( 2.34153e-05 9.13978e-06 -7.14194e-07 )  
( 2.49242e-05 1.05772e-05 -9.89621e-07 )  
( 2.17475e-05 8.75579e-06 3.20391e-06 )  
( 2.45137e-05 1.18251e-05 1.20205e-06 )  
( 2.54236e-05 9.51664e-06 -7.45719e-08 )  
( 2.74194e-05 1.23848e-05 4.52676e-07 )  
( 2.2511e-05 1.03476e-05 -8.84003e-07 )  
( 2.75641e-05 1.08456e-05 2.9459e-07 )  
( 2.18701e-05 1.1079e-05 1.21158e-06 )  
( 2.89971e-05 1.22247e-05 7.16638e-07 )  
( 2.77395e-05 1.01248e-05 -9.51668e-07 )  
( 2.5308e-05 8.34898e-06 4.95106e-07 )  
( 2.8017e-05 1.09147e-05 -2.04929e-06 )  
( 2.31823e-05 8.12431e-06 2.28334e-06 )  
( 3.39026e-05 3.84809e-06 6.43819e-07 )  
( 2.93768e-05 8.50664e-06 2.56261e-06 )  
( 3.11149e-05 8.64462e-06 3.77064e-06 )  
( 3.24699e-05 1.29855e-05 -9.22845e-07 )  
( 1.96236e-05 1.38603e-05 1.38784e-06 )  
( 2.32323e-05 1.06208e-05 -2.10158e-06 )  
( 3.20008e-05 1.46933e-05 2.47596e-06 )  
( 3.10425e-05 9.58597e-06 3.24302e-06 )  
( 2.60956e-05 1.20298e-05 7.12336e-07 )  
( 2.24539e-05 9.91826e-06 2.9279e-06 )  
( 3.00728e-05 1.07172e-05 -3.17127e-06 )  
( 2.68327e-05 1.09063e-05 1.11779e-06 )  
( 2.82483e-05 8.25418e-06 2.7399e-06 )  
( 2.97207e-05 1.26449e-05 3.92054e-07 )  
( 2.6421e-05 1.13132e-05 -1.11465e-06 )  
( 2.24955e-05 1.26839e-05 -2.38673e-06 )  
( 2.91062e-05 1.10147e-05 -5.3771e-07 )  
( 2.82702e-05 1.04061e-05 1.24605e-06 )  
( 3.13866e-05 1.21469e-05 -2.69591e-06 )  
( 2.58294e-05 8.78655e-06 1.32833e-06 )  
( 3.09684e-05 8.31473e-06 4.55771e-06 )  
( 2.90882e-05 1.52474e-05 1.524e-06 )  
( 3.29691e-05 1.01305e-05 1.10301e-06 )  
( 3.30519e-05 8.36057e-06 -2.5401e-06 )  
( 3.11408e-05 1.519e-05 -3.80554e-06 )  
( 3.09199e-05 8.77299e-06 -7.61093e-07 )  
( 3.09874e-05 1.09352e-05 2.42395e-06 )  
( 3.28512e-05 1.09231e-05 2.14416e-06 )  
( 3.43103e-05 1.00678e-05 1.28585e-07 )  
( 3.02666e-05 1.19636e-05 -7.70945e-07 )  
( 2.63316e-05 1.27924e-05 -3.23958e-06 )  
( 2.84045e-05 8.78605e-06 -4.21991e-07 )  
( 3.4429e-05 1.24501e-05 3.43949e-06 )  
( 2.48086e-05 1.46949e-05 3.13107e-06 )  
( 3.3097e-05 1.11595e-05 2.26174e-06 )  
( 3.3924e-05 1.0865e-05 1.29791e-06 )  
( 3.49184e-05 1.24575e-05 2.04293e-06 )  
( 3.32397e-05 1.14095e-05 5.40565e-06 )  
( 3.5534e-05 1.17677e-05 -3.99093e-06 )  
( 3.19255e-05 6.67247e-06 3.39192e-06 )  
( 3.12954e-05 1.57635e-05 9.85652e-07 )  
( 3.07721e-05 1.2838e-05 -1.56014e-06 )  
( 3.44958e-05 1.14407e-05 5.36026e-06 )  
( 3.70998e-05 8.11057e-06 1.02722e-06 )  
( 3.21272e-05 1.13396e-05 2.27365e-06 )  
( 3.40367e-05 1.06682e-05 1.30693e-06 )  
( 3.17082e-05 1.52034e-05 -6.02619e-06 )  
( 3.44412e-05 8.9075e-06 -5.16502e-06 )  
( 3.52529e-05 1.04057e-05 -4.93297e-06 )  
( 3.12491e-05 9.4922e-06 1.7451e-07 )  
( 3.39687e-05 1.41808e-05 1.32962e-06 )  
( 3.10596e-05 7.94216e-06 -4.74e-07 )  
( 3.87807e-05 1.66288e-05 3.81322e-06 )  
( 3.4594e-05 1.27214e-05 -1.03248e-05 )  
( 3.43938e-05 2.24893e-05 6.58897e-06 )  
( 3.53462e-05 8.84332e-06 1.61279e-07 )  
( 4.41406e-05 1.68067e-05 -3.83746e-06 )  
( 4.17292e-05 1.47306e-05 3.00608e-08 )  
( 3.66266e-05 1.08077e-05 6.80429e-06 )  
( 3.31754e-05 1.01941e-05 3.89716e-06 )  
( 4.08484e-05 1.51173e-05 -1.29399e-06 )  
( 3.64594e-05 1.07014e-05 -1.68604e-06 )  
( 3.70757e-05 1.18476e-05 6.46167e-06 )  
( 3.07516e-05 1.53394e-05 -5.22217e-07 )  
( 3.40647e-05 1.23007e-05 8.19321e-06 )  
( 3.9079e-05 1.52815e-05 -4.96262e-08 )  
( 3.38403e-05 1.01138e-05 1.07794e-06 )  
( 3.6586e-05 1.21329e-05 1.16515e-06 )  
( 4.22189e-05 1.25312e-05 2.73776e-06 )  
( 3.88897e-05 1.10625e-05 4.9276e-06 )  
( 3.61313e-05 1.23361e-05 -1.19857e-06 )  
( 1.58618e-05 1.15503e-05 -7.77643e-07 )  
( 3.69095e-05 1.27487e-05 -1.08804e-06 )  
( 3.67792e-05 1.22602e-05 3.60824e-06 )  
( 3.90506e-05 1.69582e-05 6.1919e-06 )  
( 3.78294e-05 1.15942e-05 -1.62188e-06 )  
( 4.22157e-05 1.15423e-05 7.14678e-06 )  
( 3.67337e-05 1.28212e-05 -2.08686e-06 )  
( 4.15618e-05 1.29832e-05 -3.69883e-06 )  
( 4.02502e-05 1.15019e-05 2.38266e-06 )  
( 3.41934e-05 1.62216e-05 -5.19504e-06 )  
( 3.41081e-05 1.76733e-05 3.27712e-06 )  
( 4.10439e-05 1.42189e-05 3.23897e-06 )  
( 3.80571e-05 1.09355e-05 2.26636e-06 )  
( 4.24203e-05 1.20281e-05 6.59154e-06 )  
( 4.23233e-05 1.72965e-05 -6.5035e-06 )  
( 3.53206e-05 1.40332e-05 1.9713e-06 )  
( 3.45351e-05 1.17186e-05 -1.26347e-07 )  
( 4.44837e-05 1.69748e-05 3.07699e-06 )  
( 3.6183e-05 1.38572e-05 2.06057e-06 )  
( 3.50546e-05 1.67128e-05 5.94689e-06 )  
( 4.70097e-05 1.30739e-05 8.6608e-06 )  
( 4.48004e-05 1.1282e-05 8.25759e-07 )  
( 3.18714e-05 1.29833e-05 -1.83006e-06 )  
( 3.7995e-05 1.28906e-05 6.3557e-08 )  
( 3.93585e-05 7.69085e-06 1.87728e-06 )  
( 4.21806e-05 1.1981e-05 4.36008e-06 )  
( 3.86659e-05 1.08436e-05 -2.58736e-06 )  
( 4.02821e-05 1.6371e-05 8.14394e-06 )  
( 3.7748e-05 1.15346e-05 3.05169e-06 )  
( 4.29887e-05 1.13736e-05 -1.2231e-06 )  
( 3.5931e-05 1.74185e-05 -8.17838e-06 )  
( 4.11741e-05 9.11847e-06 8.23687e-07 )  
( 3.60225e-05 8.39075e-06 2.48861e-06 )  
( 4.21978e-05 1.32027e-05 3.99769e-06 )  
( 4.40982e-05 1.43345e-05 9.57313e-06 )  
( 3.70211e-05 1.52774e-05 -4.5207e-06 )  
( 4.30364e-05 1.30398e-05 6.18488e-06 )  
( 4.29717e-05 2.06852e-05 -1.17829e-06 )  
( 2.59558e-05 1.87453e-05 9.09193e-07 )  
( 4.56686e-05 1.79815e-05 6.51927e-06 )  
( 3.5816e-05 9.7671e-06 -6.57516e-07 )  
( 4.7802e-05 1.77764e-05 8.24231e-06 )  
( 4.81485e-05 1.10415e-05 -4.31086e-06 )  
( 4.26332e-05 1.03727e-05 1.05291e-05 )  
( 4.50499e-05 1.78532e-05 6.05861e-06 )  
( 4.65601e-05 1.2071e-05 9.41742e-06 )  
( 4.0233e-05 1.30716e-05 1.60432e-06 )  
( 4.40764e-05 1.50664e-05 -4.62774e-07 )  
( 5.04553e-05 1.31996e-05 5.95991e-06 )  
( 4.36312e-05 1.91597e-05 5.19621e-06 )  
( 4.58838e-05 6.89604e-06 6.52521e-07 )  
( 5.08438e-05 1.49002e-05 5.98415e-06 )  
( 4.26098e-05 2.20386e-05 -3.89928e-06 )  
( 4.08828e-05 1.4193e-05 7.23896e-06 )  
( 5.03682e-05 1.85767e-05 7.31607e-06 )  
( 4.51265e-05 1.28704e-05 -1.30454e-05 )  
( 5.0565e-05 3.46385e-05 3.74215e-06 )  
( 5.70503e-05 2.51558e-05 7.58281e-07 )  
( 4.03715e-05 9.22746e-06 4.05147e-06 )  
( 5.38252e-05 4.29883e-06 -2.88682e-06 )  
( 3.89575e-05 2.0818e-05 -1.99342e-06 )  
( 3.97867e-05 1.23608e-05 6.92631e-07 )  
( 4.48014e-05 1.18493e-05 5.42236e-06 )  
( 4.76843e-05 2.79505e-05 6.64974e-06 )  
( 4.36356e-05 3.7956e-06 5.94787e-06 )  
( 3.82166e-05 1.43926e-05 6.78796e-06 )  
( 4.96261e-05 2.0677e-05 1.0688e-06 )  
( 4.21987e-05 9.32113e-06 4.15234e-06 )  
( 4.74962e-05 2.83169e-05 2.26214e-06 )  
( 4.20857e-05 4.10679e-06 1.05407e-05 )  
( 3.61206e-05 2.59531e-05 -3.00992e-06 )  
( 4.97037e-05 1.43599e-05 5.09877e-06 )  
( 4.91835e-05 2.1585e-05 1.38711e-05 )  
( 3.02225e-05 1.96454e-05 4.29017e-06 )  
( 5.95818e-05 4.38936e-05 6.92723e-06 )  
( 4.14037e-05 1.52769e-05 6.56568e-06 )  
( 6.95116e-05 2.60705e-05 1.67485e-06 )  
( 0.000274749 -8.03361e-05 -4.16438e-07 )  
( 4.95398e-05 1.86355e-05 3.99458e-06 )  
( -0.000284358 1.72328e-05 -0.000479503 )  
( 4.22801e-05 1.62341e-05 1.19344e-05 )  
( 8.43419e-05 0.000964413 -0.000264471 )  
( 3.3388e-05 1.25632e-05 6.65684e-06 )  
( 3.62906e-05 2.03952e-05 -2.94792e-06 )  
( 3.9862e-05 2.81114e-05 -1.22621e-05 )  
( 4.5033e-05 2.08983e-05 -5.82494e-07 )  
( 5.14454e-05 1.93941e-05 7.63143e-06 )  
( 0.000166313 0.00023527 -0.000140803 )  
( 3.51465e-05 2.52514e-05 3.7035e-06 )  
( 4.77309e-05 1.59957e-05 9.96254e-06 )  
( 1.87056e-05 8.04538e-05 -3.62172e-05 )  
( 0.000381843 0.00026966 -5.23599e-05 )  
( 4.86477e-05 2.96581e-05 -2.62092e-06 )  
( 5.96203e-05 3.81158e-05 2.14202e-06 )  
( 0.000359195 -5.18462e-05 -2.27546e-05 )  
( 9.99249e-07 -0.000324005 9.51395e-06 )  
( 6.98852e-05 3.22856e-05 9.78511e-07 )  
( 6.89207e-05 2.93962e-05 -1.57519e-06 )  
( 4.59409e-05 1.60043e-05 8.83008e-06 )  
( 4.42779e-05 3.03644e-05 2.25016e-05 )  
( -0.000682826 -0.000313525 -0.000565877 )  
( -0.000308943 0.000336381 -0.000177147 )  
)
