/*--------------------------------*- C++ -*----------------------------------*\
  =========                 |
  \\      /  F ield         | OpenFOAM: The Open Source CFD Toolbox
   \\    /   O peration     | Website:  https://openfoam.org
    \\  /    A nd           | Version:  9
     \\/     M anipulation  |
\*---------------------------------------------------------------------------*/
FoamFile
{
    format      ascii;
    class       volScalarField;
    location    "8000";
    object      p;
}
// * * * * * * * * * * * * * * * * * * * * * * * * * * * * * * * * * * * * * //

dimensions      [0 2 -2 0 0 0 0];

internalField   nonuniform List<scalar> 
720
(
-141.122
-171.632
-121.492
-169.859
-254.659
-313.03
-275.567
-304.988
-261.698
-309.617
-291.787
-293.163
-242.768
-263.427
-275.892
-237.001
-224.465
-231.024
-291.692
-238.237
-203.689
-215.833
-319.793
-272.174
-182.227
-238.368
-331.456
-287.994
-182.218
-268.473
-331.62
-293.247
-208.631
-269.893
-320.846
-286.666
-240.364
-237.115
-303.92
-253.105
-255.142
-225.455
-298.977
-225.972
-246.728
-219.489
-282.108
-203.877
-215.773
-214.33
-247.834
-210.365
-197.652
-233.611
-217.698
-232.246
-176.285
-239.455
-186.593
-242.078
-162.557
-247.441
-153.13
-244.194
-194.208
-287.487
-119.803
-235.393
-208.139
-312.836
-84.0886
-194.27
-194.265
-322.373
-100.037
-152.866
-145.547
-329.659
-137.026
-120.148
-104.037
-324.9
-132.17
-82.1442
-61.7722
-309.482
-74.8468
-49.0607
-18.0675
-286.043
-37.6752
-13.1444
18.9821
-253.882
-3.01178
22.9311
34.5024
-213.411
38.33
58.97
27.7963
-169.433
67.192
51.4525
45.708
-126.895
104.477
24.3356
107.763
-85.7745
143.713
32.3326
141.268
-41.5405
178.755
91.3856
182.726
9.06197
209.417
120.246
235.581
62.5313
246.739
153.22
234.402
115.496
290.029
178.196
221.691
171.287
330.868
162.649
230.552
216.633
302.661
174.854
241.369
242.104
217.087
182.584
136.676
251.211
188.872
159.27
68.2777
255.639
222.613
170.012
70.3288
247.438
170.368
172.699
111.3
241.449
125.468
138.507
150.099
246.769
135.682
143.743
178.141
243.202
183.253
191.64
197.043
250.108
231.665
225.356
206.645
244.195
270.813
256.095
195.304
233.232
302.903
287.299
179.555
233.598
339.851
313.987
180.441
216.068
341.62
345.159
195.868
216.454
320.311
378.076
189.012
248.074
335.223
380.478
191.035
257.796
337.78
357.457
204.167
274.58
299.158
360.724
232.348
304.287
309.548
408.552
278.363
329.655
314.91
425.509
314.906
370.767
270.229
419.285
321.386
415.007
280.438
432.232
294.723
457.44
335.439
465.331
308.882
502.744
343.386
487.485
324.685
553.207
369.412
511.793
313.092
607.061
419.847
543.837
342.428
662.83
458.547
562.417
346.223
722.828
441.994
572.902
328.464
789.321
405.858
584.126
323.814
859.897
415.042
619.161
352.546
920.26
486.786
631.813
394.275
972.327
530.123
650.273
419.682
949.49
562.164
681.014
396.912
820.383
601.325
697.495
332.525
732.613
628.118
723.901
314.162
742.253
669.389
737.509
391.466
744.165
726.408
735.327
476.779
712.963
784.225
748.104
563.029
702.44
764.095
799.143
630.078
705.108
720.411
829.115
691.698
698.54
733.665
866.944
746.488
654.883
767.337
910.742
790.035
627.682
736.719
875.364
806.036
634.624
752.324
824.221
804.378
656.904
825.642
781.275
790.359
675.361
895.797
749.896
783.854
695.231
978.023
732.653
771.373
717.188
984.633
729.229
753.135
742.788
815.028
731.637
747.763
772.048
687.26
735.83
752.758
773.492
662.447
743.54
759.105
757.765
729.413
752.065
721.883
766.823
845.697
768.965
681.968
807.373
905.92
781.488
682.235
829.045
830.627
790.456
734.264
815.331
720.153
808.582
795.677
803.097
679.65
823.857
752.294
803.051
706.83
845.037
693.175
811.558
766.759
862.644
705.386
826.288
768.368
856.982
786.418
848.328
726.456
869.179
877.015
869.268
697.39
884.724
944.505
889.067
701.209
892.914
1006.11
904.921
717.228
920.225
1048.67
920.107
745.349
964.409
1073.78
932.417
760.433
991.628
1132.72
942.41
766.18
989.011
1225.49
951.005
771.753
964.013
1317.04
945.96
778.301
931.145
1278.56
932.542
782.573
914.302
1207.09
929.08
782.741
900.847
1229.52
890.289
777.807
841.67
1354.5
841.921
758.905
799.92
1451.17
800.225
722.934
740.753
1457.48
737.865
691.815
683.099
1331.12
670.9
663.367
657.598
1183.58
597.271
623.433
618.964
1032.52
514.037
576.171
551.446
869.298
429.373
528.789
486.869
711.392
336.838
477.319
428.035
560.343
243.227
422.128
371.495
411.841
152.336
364.258
313.635
261.094
54.8505
301.686
252.881
116.858
-15.4116
234.387
193.517
-32.4052
-64.9798
170.425
130.366
-170.996
-109.457
101.455
67.026
-314.503
-164.657
35.69
-3.05563
-380.474
-214.483
-33.8151
-69.0252
-369.047
-283.85
-98.9542
-139.277
-354.958
-387.677
-165.991
-206.911
-429.611
-493.949
-235.006
-278.685
-541.762
-562.777
-305.166
-345.957
-606.207
-612.698
-375.798
-416.22
-617.541
-677.062
-447.214
-482.524
-657.098
-733.528
-522.63
-550.169
-690.7
-845.213
-597.578
-616.623
-711.77
-940.356
-670.539
-678.503
-760.495
-988.2
-741.543
-740.768
-838.578
-1025.74
-812.081
-798.119
-877.994
-1022.54
-880.197
-857.05
-887.758
-1006.54
-944.559
-912.287
-956.712
-1100.96
-1007.9
-968.868
-1063.45
-1151.77
-1073.15
-1020.9
-1175.54
-1095.06
-1140.59
-1070.83
-1279.46
-905.615
-1208.08
-1123.35
-1391.7
-751.095
-1276.84
-1177.31
-1510.18
-804.087
-1345.12
-1233.89
-1639.13
-916.509
-1413.55
-1289.59
-1763.5
-1044.49
-1480.11
-1347.19
-1895.27
-1091.41
-1544.5
-1401.9
-1996.38
-1055.67
-1605.59
-1457.94
-2023.53
-1059.79
-1660.58
-1515.49
-1995.33
-1125.99
-1712.43
-1572.24
-1940.78
-1241.83
-1762.54
-1629.43
-1886.98
-1348.78
-1814.83
-1685
-1842.14
-1465.88
-1868.76
-1739.32
-1858.54
-1540.32
-1930.82
-1791.44
-1998.11
-1570.98
-1992.84
-1841.6
-2132.15
-1655.37
-2054.14
-1889.89
-2199.06
-1769.16
-2107.69
-1936.42
-2219.3
-1896.44
-2159.33
-1980.94
-2236.43
-2005.82
-2207.92
-2025.07
-2313.35
-2115.05
-2253.44
-2066.67
-2445.24
-2222.72
-2297.45
-2110.27
-2614.38
-2322.68
-2340.35
-2147.76
-2759.1
-2434.13
-2381.73
-2189.58
-2826.44
-2538.67
-2427.12
-2220.13
-2849.46
-2613.27
-2458.52
-2255.96
-2847.1
-2672.34
-2483.39
-2279.59
-2844.11
-2751.77
-2494.1
-2309.8
-2853.27
-2841.03
-2484.25
-2331.64
-2861.63
-2916.45
-2464.71
-2358.66
-2950.52
-2969.63
-2412.39
-2381.38
-3239.46
-3018.02
-2365.91
-2398.78
-3530.6
-3069.37
-2300.91
-2411.27
-3635.23
-3122.56
-2219.62
-2413.14
-3567.64
-3174.62
-2124.22
-2411.11
-3409.76
-3198.29
-1997.48
-2406.38
-3261.2
-3193.01
-1855.35
-2399.26
-3130.58
-3188.38
-1679.51
-2386.01
-2999.01
-3185.84
-1474.18
-2357.71
-2865.03
-3161.81
-1222.58
-2310.64
-2921.87
-3152.34
-955.152
-2248.44
-3037.97
-3152.05
-639.885
-2175.28
-3019.38
-3136.33
-525.603
-2099.91
-2988.81
-3124.91
-570.615
-2013.85
-3194.64
-3203.41
-639.545
-1947.36
-3318.14
-3245.82
-637.209
-1913.13
)
;

boundaryField
{
    inlet
    {
        type            zeroGradient;
    }
    outlet
    {
        type            fixedValue;
        value           uniform 0;
    }
    repeat_boundary
    {
        type            zeroGradient;
    }
}


// ************************************************************************* //
