/*--------------------------------*- C++ -*----------------------------------*\
  =========                 |
  \\      /  F ield         | OpenFOAM: The Open Source CFD Toolbox
   \\    /   O peration     | Website:  https://openfoam.org
    \\  /    A nd           | Version:  9
     \\/     M anipulation  |
\*---------------------------------------------------------------------------*/
FoamFile
{
    format      ascii;
    class       volVectorField;
    location    "8000";
    object      stored_U;
}
// * * * * * * * * * * * * * * * * * * * * * * * * * * * * * * * * * * * * * //

dimensions      [0 1 -1 0 0 0 0];

internalField   nonuniform List<vector> 
720
(
(0.0419117 -0.0697796 106.295)
(0.0432803 -0.0841137 109.014)
(0.0250449 -0.0695298 107.732)
(0.0297373 -0.0889453 106.81)
(0.0240127 -0.0516019 107.404)
(0.0258211 -0.0829564 110.289)
(-0.00791338 -0.077475 108.219)
(-0.0050273 -0.087763 108.025)
(0.0331125 -0.0450584 107.277)
(0.00536171 -0.0710612 109.395)
(-0.0562657 -0.021501 108.49)
(0.00822725 -0.0715226 107.325)
(0.0539022 -0.0650312 106.959)
(0.049881 -0.07357 110.114)
(-0.0280132 -0.0411328 108.417)
(0.0276957 -0.0779098 107.696)
(0.0738683 -0.0824243 107.163)
(0.00603562 -0.0627694 109.192)
(-0.00322576 -0.0717188 107.949)
(0.00571119 -0.0907116 107.297)
(0.0836205 -0.123374 106.537)
(0.111054 -0.0323998 109.843)
(0.116084 -0.123907 107.681)
(0.224413 -0.0431818 106.892)
(0.085807 -0.0796248 107.147)
(0.136948 0.0163754 109.785)
(0.136029 -0.0468627 108.474)
(0.271499 0.171172 107.757)
(0.00992956 -0.187288 106.993)
(0.179795 -0.00148456 109.696)
(0.117012 0.0214375 108.494)
(0.319741 0.285328 107.76)
(0.0811768 -0.307894 106.861)
(0.260593 -0.103396 109.932)
(0.240077 -0.0133114 107.432)
(0.378557 0.0365839 107.218)
(0.360148 -0.366957 106.925)
(0.218264 0.0256049 109.396)
(0.271432 -0.0128308 108.315)
(0.522752 -0.042595 107.592)
(0.580597 -0.400123 106.78)
(0.420636 -0.0246124 109.816)
(0.432228 -0.199328 108.326)
(0.428071 -0.666347 107.156)
(0.706212 -0.38932 106.982)
(1.38839 -1.01181 109.569)
(0.580219 -0.130108 107.332)
(0.514026 -0.666616 107.896)
(1.1957 -0.176041 106.352)
(1.35317 -1.05312 110.302)
(0.68401 -0.147873 108.253)
(0.581503 -0.458168 107.699)
(1.12895 -0.249356 106.942)
(1.12369 -0.906935 110.354)
(0.293815 0.0990775 107.177)
(0.570655 -0.188477 107.458)
(0.852351 -0.318308 106.894)
(1.2483 -1.01577 110.28)
(0.163835 0.0690949 108.245)
(0.382244 -0.377459 107.64)
(0.751189 -0.125401 106.289)
(1.72204 -1.41679 110.548)
(0.0192169 0.340274 107.171)
(0.230642 -0.887768 107.682)
(1.12749 0.15011 106.257)
(2.11083 -1.58333 110.751)
(0.0346328 0.419101 108.114)
(0.222963 -0.700209 106.758)
(1.43819 0.223103 106.125)
(2.33339 -1.52235 111.133)
(0.252417 0.608547 107.231)
(0.194687 -0.820977 107.868)
(1.48158 0.185585 106.379)
(2.43434 -1.38712 111.405)
(0.230156 0.632022 107.875)
(0.185902 -1.0981 106.6)
(1.41086 0.0973108 104.956)
(2.51542 -1.22276 111.731)
(0.319178 0.636428 108.127)
(0.20113 -1.08478 107.426)
(1.59301 0.230043 105.874)
(2.61135 -1.05747 112.049)
(0.36354 0.613241 107.103)
(0.327508 -1.25759 106.842)
(1.42364 0.313063 104.984)
(2.66169 -0.904168 112.365)
(0.371448 0.611376 108.274)
(0.305958 -1.38644 107.207)
(1.47842 0.177365 105.275)
(2.62723 -0.795324 112.675)
(0.432127 0.847741 107.475)
(0.534271 -1.53088 106.315)
(1.66725 0.386348 103.893)
(2.5559 -0.693956 113.009)
(0.483831 0.683747 107.929)
(0.596697 -1.5097 107.095)
(1.71982 0.472762 104.606)
(2.43345 -0.613609 113.32)
(0.60078 0.468061 107.828)
(0.60377 -1.19888 106.46)
(1.69955 0.408339 104.748)
(2.29885 -0.539391 113.612)
(0.633597 0.559974 107.867)
(0.704974 -1.21377 106.771)
(1.88902 0.248144 103.091)
(2.2289 -0.480062 113.879)
(0.455776 0.829019 107.303)
(0.743921 -1.36235 106.956)
(1.95222 0.213151 104.448)
(2.1641 -0.464418 114.16)
(0.399881 0.995635 107.933)
(0.666628 -1.43743 106.241)
(2.04508 0.547535 102.47)
(2.06988 -0.335172 114.49)
(0.334135 1.03341 107.876)
(0.615848 -1.53834 107.111)
(2.00648 0.395242 103.968)
(2.05198 -0.0985948 114.784)
(0.369554 0.843141 107.661)
(0.579825 -1.07111 105.891)
(1.57496 0.156026 101.915)
(2.06671 0.0791937 115.032)
(0.498845 0.650534 108.009)
(0.728202 -1.0027 106.873)
(1.54308 0.0335306 102.792)
(2.07267 0.225952 115.204)
(0.399248 1.03418 107.435)
(0.772861 -1.04175 106.723)
(1.57762 -0.0466699 102.825)
(2.07768 0.498563 115.492)
(0.342186 1.10837 108.088)
(0.639374 -1.23744 106.424)
(1.67588 0.117521 102.137)
(2.13271 0.813047 115.604)
(0.153163 1.21897 107.535)
(0.453712 -1.42809 106.871)
(0.900323 -0.38339 101.814)
(2.10179 1.00187 115.898)
(0.0686332 1.37516 107.541)
(0.337492 -1.25717 106.615)
(-0.162529 -0.694017 101.376)
(1.76673 1.51178 115.83)
(-0.00470402 1.57736 108.151)
(0.422453 -0.554194 106.196)
(-0.531259 -1.08199 101.847)
(1.75202 1.44617 116.109)
(-0.0587291 1.50238 107.855)
(0.381157 -0.456207 106.983)
(-1.18972 -1.39875 101.193)
(1.81632 1.19436 116.248)
(-0.0154666 1.14883 107.848)
(0.439597 -0.454902 106.849)
(-1.42283 -1.72191 101.904)
(1.31821 1.02941 115.734)
(0.11535 0.929774 107.843)
(0.560671 -0.56882 106.656)
(-1.58756 -1.88345 101.763)
(0.561247 1.34461 115.872)
(0.0609513 1.03378 107.528)
(0.556852 -0.369802 107.146)
(-1.50764 -1.88475 101.758)
(0.300254 1.48495 116.117)
(0.0104048 1.07288 107.936)
(0.470827 0.0961723 106.703)
(-1.38424 -1.74204 102.118)
(-0.247955 1.50491 115.658)
(-0.120966 0.785969 106.97)
(0.497941 0.22836 107.38)
(-1.65705 -1.6338 101.953)
(-0.2529 0.731993 114.426)
(-0.0690666 0.712901 108.053)
(0.549501 0.48314 106.799)
(-2.09474 -1.81114 102.237)
(-0.498579 0.851827 115.704)
(0.0508304 0.165721 106.758)
(0.590948 0.427664 107.6)
(-2.07847 -1.79439 102.653)
(-0.304209 0.630112 115.438)
(0.0479088 0.215511 107.621)
(0.90091 1.53653 107.092)
(-2.44994 -2.42628 102.323)
(0.305748 0.132737 115.081)
(0.102207 0.0441159 107.202)
(0.92477 1.18188 107.747)
(-2.49332 -2.47457 103.227)
(0.233269 0.243261 115.188)
(0.260232 -0.296868 106.167)
(1.08346 1.46549 107.421)
(-2.95758 -2.64191 102.94)
(-0.485238 0.605079 113.593)
(0.244933 -0.308476 107.073)
(1.05307 1.32675 107.814)
(-2.98169 -2.65478 103.717)
(-0.453088 0.500864 114.574)
(0.245395 -0.326146 106.52)
(1.00169 1.12592 108.032)
(-2.93846 -2.93675 103.712)
(-0.454593 0.469428 114.233)
(0.134099 -0.333082 106.246)
(1.01457 1.36378 108.012)
(-3.12131 -3.23214 104.334)
(-0.770785 0.711303 114.359)
(0.196535 -0.51909 106.307)
(0.843722 1.32845 108.1)
(-3.30508 -3.1202 104.559)
(-0.797126 0.553457 112.433)
(0.289922 -0.607102 105.521)
(1.01561 0.990435 108.197)
(-3.0693 -2.88225 104.773)
(-0.536184 0.290387 114.085)
(0.0647494 -0.600972 104.992)
(1.39562 0.638523 108.736)
(-2.81449 -3.04992 105.633)
(-0.424614 0.054952 112.269)
(0.327627 -0.924958 105.394)
(1.34491 0.577026 108.541)
(-2.6042 -2.71955 105.529)
(-0.475915 -0.0103245 113.462)
(0.295998 -0.89292 105.203)
(0.655515 0.883437 108.764)
(-3.33265 -3.06788 105.952)
(-0.600425 -0.0724728 112.35)
(-0.243155 -0.424178 105.061)
(0.595224 0.916877 108.476)
(-3.19387 -3.22001 106.604)
(-0.515559 -0.142996 112.429)
(-0.292749 -0.643661 103.9)
(0.894643 0.601376 108.906)
(-3.28027 -3.35094 106.563)
(-0.777328 0.0424596 112.614)
(-0.122326 -0.894613 105.02)
(0.918836 0.622858 108.876)
(-3.41933 -3.28728 107.202)
(-0.717152 -0.114555 111.674)
(-0.0190125 -1.24497 103.395)
(0.730688 0.605749 108.841)
(-3.50992 -3.39513 107.852)
(-0.781726 -0.125539 112.293)
(-0.258142 -1.0761 104.042)
(0.511856 0.647363 109.025)
(-3.31267 -3.45006 107.755)
(-0.396563 -0.311295 111.049)
(-0.348055 -1.05733 104.155)
(0.735264 0.630993 108.739)
(-3.233 -3.2192 108.678)
(-0.409302 -0.38116 111.548)
(-0.568617 -0.953599 102.54)
(0.672276 0.540948 109.124)
(-2.41385 -2.87666 108.676)
(-0.401975 -0.400136 111.497)
(-0.808623 -0.890027 103.496)
(0.687402 0.529366 108.941)
(-1.77837 -2.69253 109.196)
(0.173644 -0.708329 110.704)
(-0.714382 -1.1372 103.405)
(0.753885 0.560471 109.068)
(-2.70787 -3.42377 109.296)
(0.231251 -0.887282 111.137)
(-0.973522 -1.11441 102.246)
(1.01296 0.23277 108.617)
(-2.77874 -3.46487 110.003)
(0.168606 -1.0403 111.169)
(-1.11647 -1.06859 102.822)
(0.760453 -0.0586185 109.21)
(-2.78244 -3.4932 109.917)
(0.274428 -1.20052 111.006)
(-1.80744 -1.51076 102.784)
(0.716633 -0.276588 108.43)
(-2.69039 -3.5982 110.586)
(1.01026 -1.30716 110.233)
(-1.58795 -1.23216 101.346)
(0.850514 -0.235157 108.666)
(-2.69071 -3.7408 110.83)
(0.965707 -1.76889 111.196)
(-1.68374 -1.2594 102.309)
(0.964069 -0.167007 108.822)
(-2.6362 -3.85191 111.08)
(0.966466 -1.89422 111.153)
(-2.01641 -1.37184 102.172)
(1.08069 -0.271078 107.835)
(-2.50371 -3.98546 111.57)
(1.27479 -1.65205 111.148)
(-1.49801 -1.26726 101.547)
(1.12812 -0.352689 108.5)
(-2.32994 -3.96493 111.77)
(2.05603 -1.45899 110.45)
(-0.888694 -0.89441 100.478)
(0.987216 -0.784726 107.698)
(-2.17312 -3.77647 112.069)
(2.01266 -2.02299 111.466)
(-1.40456 -1.0971 101.463)
(0.732427 -1.01932 108.145)
(-1.94014 -3.45804 112.276)
(2.13131 -2.18081 111.532)
(-1.51626 -0.920582 101.197)
(0.992907 -0.811772 107.571)
(-1.79656 -3.35432 112.455)
(2.31737 -2.08482 111.497)
(-1.39804 -0.484179 101.189)
(2.52942 -0.563877 107.158)
(-1.73858 -3.39531 112.674)
(2.45429 -1.98812 111.98)
(-0.698602 -0.364893 99.8418)
(4.52248 0.360199 107.533)
(-0.865356 -3.19228 112.521)
(3.14581 -2.3211 111.357)
(-0.157522 -0.216529 100.518)
(6.1709 1.01016 107.465)
(-0.768392 -3.08039 112.852)
(3.16064 -2.55827 112.511)
(1.54454 -0.213663 98.4408)
(7.84771 2.1241 107.954)
(-0.648268 -2.95008 112.794)
(3.30885 -2.56849 111.907)
(1.20677 -0.192836 99.7265)
(9.00342 2.6217 108.226)
(-0.452297 -2.73419 112.745)
(3.61809 -2.70284 112.71)
(1.84592 0.248354 97.8405)
(9.9124 3.43944 108.951)
(-0.315357 -2.5269 112.678)
(4.11682 -1.83975 112.128)
(1.63971 0.850672 97.5422)
(10.4189 4.06058 109.477)
(-0.393913 -2.59349 112.866)
(4.27857 -1.95055 112.778)
(1.6551 1.07448 97.262)
(10.8198 4.44902 110.307)
(0.767647 -2.2156 111.589)
(4.6151 -1.34725 112.646)
(1.70653 0.857296 96.24)
(10.7894 4.51219 110.912)
(0.680147 -2.16209 112.39)
(4.94232 -0.769295 112.558)
(0.0555254 3.01238 94.8004)
(10.3693 4.57528 111.834)
(0.692604 -2.06622 111.951)
(4.96872 -0.805477 113.179)
(-0.258756 3.1151 95.7193)
(10.1765 4.63888 112.468)
(0.901192 -2.1612 111.354)
(5.23746 -0.646077 112.784)
(-0.716339 3.43501 94.6375)
(9.96757 4.65073 113.068)
(1.0694 -2.16238 111.601)
(5.34475 -0.544966 113.094)
(-0.872878 3.40341 94.2181)
(9.22666 4.60545 113.751)
(1.42292 -0.988873 109.477)
(5.22641 -0.491793 113.186)
(-1.08792 3.32857 93.8597)
(8.39312 4.38992 114.353)
(1.37908 -0.808829 110.532)
(4.84267 -0.380425 113.313)
(-1.38312 3.1404 93.721)
(7.36335 4.19617 114.792)
(1.30525 -0.689765 109.892)
(4.85587 -0.390082 113.601)
(-1.42123 3.2171 94.1789)
(7.14583 4.1988 115.581)
(1.55372 -0.569082 109.181)
(5.14366 -0.426034 113.723)
(-1.40167 2.97067 93.3531)
(6.89981 4.1861 115.583)
(1.84406 -0.406489 109.438)
(4.59068 -0.0852971 113.431)
(-2.32268 2.60807 93.2286)
(6.31492 3.96943 116.168)
(1.02059 -0.354222 107.01)
(4.64397 -0.0487198 114.181)
(-3.42393 2.48057 93.0922)
(6.05127 4.00952 116.806)
(0.99639 -0.0739285 108.901)
(4.25044 0.221416 113.806)
(-3.72044 2.99059 93.6944)
(6.01551 4.0761 116.851)
(0.833388 0.0718933 106.921)
(4.25292 0.229729 114.23)
(-3.65495 3.0337 93.7829)
(5.53234 3.66585 117.208)
(0.889663 0.194857 107.016)
(3.85812 0.375846 113.721)
(-3.47019 2.82179 93.1338)
(4.99226 3.57844 117.585)
(0.848325 0.201714 106.918)
(3.77466 0.466616 114.485)
(-3.47516 2.83071 93.9706)
(4.07815 3.21146 117.704)
(0.83667 0.181718 106.115)
(2.95296 0.0813195 113.723)
(-3.69693 3.07606 93.9095)
(2.57585 1.81312 117.706)
(0.952948 0.127176 106.258)
(3.0853 0.0878052 114.586)
(-3.99898 2.8413 93.8473)
(2.50945 1.95621 118.282)
(0.972898 0.437234 105.278)
(2.59984 -1.45596 114.162)
(-4.23575 2.84461 94.6093)
(2.56708 2.37428 117.553)
(0.957282 0.672055 105.589)
(2.76762 -1.44415 114.472)
(-5.51352 2.56515 94.0632)
(2.58664 2.30718 118.236)
(0.484507 0.590086 104.589)
(2.82442 -1.5399 115.035)
(-5.66294 3.00038 95.5698)
(2.21831 1.89092 117.629)
(0.104312 0.516134 103.745)
(1.92288 -2.1568 114.762)
(-6.06706 2.62622 94.9948)
(0.956645 -0.160448 117.451)
(0.250058 0.765018 105.201)
(2.00602 -4.29551 114.746)
(-5.95455 2.70775 96.25)
(-0.264943 -2.28492 116.871)
(0.208784 0.294774 103.033)
(2.34069 -6.17873 116.063)
(-6.41257 2.2846 96.1716)
(-1.18098 -4.5165 116.529)
(0.533094 0.444147 104.298)
(3.48995 -8.41861 116.242)
(-7.0028 1.61663 96.8458)
(-1.75505 -6.96423 114.666)
(0.691846 0.324284 103.126)
(4.84846 -10.6468 117.844)
(-6.9367 1.01241 97.5048)
(-1.9555 -8.24492 114.287)
(0.110701 -0.181385 102.629)
(5.79839 -12.1238 118.885)
(-6.698 0.389368 97.9545)
(-1.92677 -9.08121 112.293)
(-1.22203 0.121818 102.603)
(7.28767 -13.8928 120.507)
(-6.44438 -0.212636 98.3615)
(-2.27482 -8.60765 110.979)
(-2.96667 0.170743 102.209)
(8.92631 -15.7047 121.798)
(-6.24347 -0.628544 98.8274)
(-2.73804 -7.02706 108.959)
(-5.33362 0.83222 101.92)
(10.452 -17.4093 123.498)
(-6.25066 -0.828272 99.1957)
(-3.508 -4.13546 107.95)
(-7.74344 1.19356 101.656)
(11.3658 -18.5487 124.443)
(-5.82445 -1.36733 99.7958)
(-4.48779 -0.888463 105.824)
(-10.2416 2.1522 101.569)
(12.4219 -19.5632 125.926)
(-5.72724 -1.29712 100.238)
(-5.40026 2.88295 104.954)
(-12.3687 2.57034 101.308)
(13.247 -20.1804 126.327)
(-5.19211 -1.4829 100.951)
(-6.23127 6.18853 102.987)
(-14.7278 3.40823 101.352)
(14.034 -20.8191 127.367)
(-5.09634 -1.14277 101.463)
(-6.73512 9.9186 102.36)
(-16.8072 3.60292 101.202)
(14.1668 -21 127.891)
(-4.79424 -1.03184 102.293)
(-7.02851 12.9448 100.707)
(-19.1586 4.25424 101.207)
(14.6223 -21.4309 128.085)
(-4.83867 -0.61957 102.946)
(-7.08688 16.4164 100.266)
(-21.0751 4.06971 101.371)
(16.3972 -22.8943 127.839)
(-4.75519 -0.418054 103.726)
(-6.9205 18.9951 98.962)
(-22.8379 4.695 101.292)
(17.7499 -24.3958 127.936)
(-4.83946 -0.0571434 104.517)
(-6.68833 22.0797 98.5864)
(-25.9679 4.25967 100.953)
(19.0172 -25.5692 127.734)
(-4.93421 0.119977 105.218)
(-6.25288 24.6259 97.6395)
(-25.6131 3.62255 102.286)
(20.8704 -26.9129 127.28)
(-5.03961 0.519878 106.065)
(-5.80741 27.29 97.2415)
(-27.1859 4.13436 101.447)
(22.917 -28.6772 126.964)
(-5.2787 0.882107 106.65)
(-5.21603 29.6013 96.6127)
(-28.5049 4.12477 101.511)
(23.389 -29.5221 127.138)
(-5.44596 1.31176 107.591)
(-4.80986 31.9531 96.1422)
(-30.0817 2.69202 101.318)
(23.6115 -29.8377 126.795)
(-5.80656 1.63822 108.176)
(-4.06747 34.1289 95.8258)
(-30.4642 1.8193 101.875)
(24.4205 -30.3561 126.078)
(-6.04312 2.37801 108.972)
(-3.74686 36.3458 95.4063)
(-30.0874 1.82954 101.769)
(24.6777 -30.6621 125.666)
(-6.422 2.91005 109.569)
(-2.88297 38.4052 95.45)
(-29.22 2.17352 101.826)
(25.39 -31.7146 124.858)
(-6.65603 3.66697 110.335)
(-2.52347 40.5036 95.0908)
(-28.8257 2.33593 101.61)
(27.1554 -33.2714 123.709)
(-6.97946 4.01387 111.094)
(-1.51595 42.4098 95.4157)
(-29.1681 1.97823 101.263)
(27.7366 -33.9254 124.09)
(-7.0888 4.47121 111.815)
(-1.02191 44.2835 95.1369)
(-29.1743 1.88526 101.084)
(28.7291 -34.7212 122.793)
(-7.33905 4.76034 112.587)
(0.140996 46.1061 95.5645)
(-29.0456 1.86498 100.682)
(28.8851 -34.8012 122.69)
(-7.54816 5.21482 113.217)
(0.953114 47.8953 95.5843)
(-28.9811 1.92127 100.548)
(28.8296 -34.7527 122.357)
(-8.02073 5.67332 114.022)
(2.13679 49.3596 96.0751)
(-31.6309 3.19242 99.7539)
(29.5815 -35.5445 120.858)
(-8.58956 6.33399 114.663)
(3.29666 50.7846 96.458)
(-34.6802 4.88131 99.3993)
(31.439 -36.6067 119.809)
(-9.57236 7.3661 115.536)
(4.64365 51.6891 97.007)
(-37.5288 6.46475 98.8958)
(31.6516 -36.6542 119.972)
(-10.9145 8.56942 116.398)
(6.02185 52.7653 97.525)
(-40.847 7.22542 98.6009)
(32.2787 -37.2803 117.267)
(-12.6876 10.0717 117.555)
(7.49035 53.5022 98.0874)
(-43.9428 7.83096 98.1392)
(31.7088 -36.8772 117.417)
(-14.6927 11.617 118.694)
(9.02869 54.3795 98.6384)
(-46.5275 7.73816 97.8136)
(32.0897 -37.1635 114.861)
(-16.8915 13.3 120.082)
(10.6769 55.0131 99.3012)
(-48.4052 7.44008 97.5118)
(32.8673 -37.9888 113.227)
(-19.1334 14.8579 121.453)
(12.3581 55.4515 99.8081)
(-49.6353 6.63492 97.1264)
(33.2928 -38.5363 111.343)
(-21.3514 16.3161 122.997)
(14.0951 55.7366 100.411)
(-50.4646 5.72422 97.0181)
(33.3775 -38.8977 109.485)
(-23.445 17.4886 124.5)
(15.8238 55.7824 100.792)
(-51.0849 4.66578 96.3405)
(33.0003 -38.6629 108.996)
(-25.3281 18.4022 126.085)
(17.4654 56.043 101.399)
(-51.3009 3.65371 96.8528)
(33.3333 -39.0353 106.297)
(-26.9501 18.9534 127.608)
(19.0016 55.9751 101.701)
(-51.2472 2.57928 95.74)
(32.9658 -39.0381 104.839)
(-28.2458 19.2071 129.15)
(20.3978 55.4944 102.329)
(-50.2031 1.6689 96.5042)
(32.8652 -39.3266 102.695)
(-29.1965 19.0692 130.574)
(21.5867 54.7223 102.619)
(-50.0863 0.991368 95.6284)
(32.3539 -38.8193 100.727)
(-29.839 18.7551 131.997)
(22.5896 53.6071 103.13)
(-49.2261 0.146761 96.7366)
(32.1265 -38.2527 99.4476)
(-30.1498 18.1538 133.264)
(23.254 51.9089 103.431)
(-49.2366 -0.328233 95.8756)
(31.9375 -37.7686 97.3973)
(-30.16 17.4662 134.557)
(23.7257 49.7043 103.84)
(-46.4344 -0.677534 95.7457)
(31.6449 -37.3945 96.9909)
(-29.9099 16.5385 135.587)
(23.8861 46.94 104.026)
(-44.8458 -0.9856 95.8041)
(30.9957 -37.0411 94.8984)
(-29.4786 15.6723 136.779)
(23.9067 43.7361 104.214)
(-44.2181 -1.72996 96.5562)
(30.2651 -35.8792 94.3765)
(-28.9827 14.6793 137.583)
(23.7064 39.8383 104.16)
(-43.8179 -1.93913 96.6688)
(28.4489 -34.3405 93.1485)
(-28.4609 13.8273 138.659)
(23.4627 35.2185 104.103)
(-42.5017 -2.14422 95.7674)
(26.2828 -32.2709 92.4981)
(-27.9803 12.9608 139.22)
(23.153 29.8621 103.756)
(-41.5377 -2.70274 97.2362)
(24.4011 -29.8924 92.0305)
(-27.6718 12.409 140.237)
(22.8845 24.0281 103.38)
(-40.9989 -2.99266 97.592)
(22.7071 -27.8574 91.1297)
(-27.4907 11.8928 140.7)
(22.6395 18.0826 102.701)
(-39.6787 -3.3279 97.431)
(21.4803 -26.3755 91.2875)
(-27.6087 11.5838 141.598)
(22.551 12.0334 101.883)
(-38.0265 -3.44204 98.1715)
(20.2523 -24.8589 90.7452)
(-27.7389 11.3233 142.045)
(22.5396 5.7967 100.815)
(-36.8398 -3.82157 99.2162)
(18.9401 -23.2801 91.0497)
(-28.3665 11.4247 142.913)
(22.9213 -0.084088 99.36)
(-35.5291 -3.73046 98.9106)
(18.5006 -22.477 91.6675)
(-28.8462 11.3693 143.256)
(23.2564 -5.77946 98.0609)
(-35.2165 -4.04576 100.457)
(18.7584 -22.4582 91.9346)
(-29.9329 11.8086 144.317)
(24.0163 -10.3337 95.7799)
(-32.5406 -3.76438 99.4666)
(19.2109 -22.7461 93.6266)
(-30.7298 12.007 144.521)
(24.9964 -14.4423 94.3705)
(-32.1196 -4.27188 101.316)
(18.9971 -22.265 94.2121)
(-32.2379 12.9328 145.746)
(26.2118 -16.8625 91.3019)
(-29.2533 -4.26828 99.7021)
(19.3329 -21.5442 95.9097)
(-33.3037 13.8643 145.931)
(28.5001 -18.0943 90.0306)
(-29.031 -4.64387 101.166)
(19.8742 -21.0718 97.3699)
(-35.3429 15.8177 147.091)
(30.1309 -17.4742 86.6435)
(-27.2931 -4.73063 100.562)
(20.2942 -20.4794 98.8544)
(-35.9784 17.7897 147.687)
(33.1141 -14.9504 85.7618)
(-25.7137 -5.04684 99.8498)
(20.5609 -20.2077 100.284)
(-38.1311 20.4539 148.41)
(34.4762 -10.9549 82.7771)
(-24.4539 -5.99767 99.7706)
(20.8513 -20.5684 101.612)
(-37.9348 23.2323 149.73)
(36.6403 -5.44671 82.2611)
(-22.8645 -6.83259 97.4402)
(21.0385 -21.1153 102.449)
(-39.1697 25.99 150.088)
(37.109 0.765012 80.1022)
(-22.7182 -7.7075 99.3726)
(21.7665 -21.026 103.196)
(-38.1627 29.3081 151.696)
(37.882 7.83057 79.9216)
(-22.8663 -7.54071 95.5865)
(21.6302 -21.1173 104.017)
(-37.2837 31.8272 152.327)
(36.3137 14.1832 78.7491)
(-23.0788 -8.28186 96.4286)
(21.1499 -21.0338 104.245)
(-35.4712 33.7425 153.925)
(35.447 19.4518 79.0889)
(-22.4422 -8.23889 93.6856)
(18.8056 -19.0679 103.199)
(-33.2007 35.3241 154.831)
(32.2347 23.3659 78.5803)
(-22.1293 -9.23879 94.6298)
(18.5437 -19.4489 103.335)
(-28.4812 36.0417 156.544)
(30.575 25.9745 79.4095)
(-21.7995 -8.90243 90.8761)
(18.3298 -19.3956 103.31)
(-24.0249 35.8168 157.172)
(27.6312 26.7373 79.5745)
(-22.392 -10.6948 91.8624)
(16.462 -17.7407 101.35)
(-19.3535 35.107 158.713)
(26.4543 26.6282 80.462)
(-22.5952 -11.3679 92.0719)
(15.7936 -17.8237 101.588)
(-17.2423 33.9542 158.679)
(24.6964 25.1693 81.1514)
(-23.5407 -11.3351 88.9443)
(16.7182 -17.7768 100.213)
(-14.8697 33.4429 160.258)
(22.9603 22.3297 81.8088)
(-23.3461 -11.7349 89.0535)
(15.7194 -18.2482 100.255)
(-14.6494 32.1535 159.383)
(22.202 19.4784 82.3983)
(-22.749 -13.0143 89.6598)
(14.8194 -18.0207 99.8164)
(-11.1755 30.8656 161.427)
(22.3213 18.6249 82.8352)
(-23.6302 -14.1117 89.0883)
(14.1731 -17.5211 98.9498)
(-11.0095 28.9527 160.262)
(22.2288 19.0179 83.5537)
)
;

boundaryField
{
    inlet
    {
        type            calculated;
        value           nonuniform List<vector> 4((-23.6302 -14.1117 89.0883) (-11.0095 28.9527 160.262) (14.1731 -17.5211 98.9498) (22.2288 19.0179 83.5537));
    }
    outlet
    {
        type            calculated;
        value           nonuniform List<vector> 4((0.0419117 -0.0697796 106.295) (0.0250449 -0.0695298 107.732) (0.0432803 -0.0841137 109.014) (0.0297373 -0.0889453 106.81));
    }
    repeat_boundary
    {
        type            calculated;
        value           nonuniform List<vector> 
1440
(
(0.0419117 0 106.295)
(0.0240127 0 107.404)
(0.0331125 0 107.277)
(0.0539022 0 106.959)
(0.0738683 0 107.163)
(0.0836205 0 106.537)
(0.085807 0 107.147)
(0.00992956 0 106.993)
(0.0811768 0 106.861)
(0.360148 0 106.925)
(0.580597 0 106.78)
(0.706212 0 106.982)
(1.1957 0 106.352)
(1.12895 0 106.942)
(0.852351 0 106.894)
(0.751189 0 106.289)
(1.12749 0 106.257)
(1.43819 0 106.125)
(1.48158 0 106.379)
(1.41086 0 104.956)
(1.59301 0 105.874)
(1.42364 0 104.984)
(1.47842 0 105.275)
(1.66725 0 103.893)
(1.71982 0 104.606)
(1.69955 0 104.748)
(1.88902 0 103.091)
(1.95222 0 104.448)
(2.04508 0 102.47)
(2.00648 0 103.968)
(1.57496 0 101.915)
(1.54308 0 102.792)
(1.57762 0 102.825)
(1.67588 0 102.137)
(0.900323 0 101.814)
(-0.162529 0 101.376)
(-0.531259 0 101.847)
(-1.18972 0 101.193)
(-1.42283 0 101.904)
(-1.58756 0 101.763)
(-1.50764 0 101.758)
(-1.38424 0 102.118)
(-1.65705 0 101.953)
(-2.09474 0 102.237)
(-2.07847 0 102.653)
(-2.44994 0 102.323)
(-2.49332 0 103.227)
(-2.95758 0 102.94)
(-2.98169 0 103.717)
(-2.93846 0 103.712)
(-3.12131 0 104.334)
(-3.30508 0 104.559)
(-3.0693 0 104.773)
(-2.81449 0 105.633)
(-2.6042 0 105.529)
(-3.33265 0 105.952)
(-3.19387 0 106.604)
(-3.28027 0 106.563)
(-3.41933 0 107.202)
(-3.50992 0 107.852)
(-3.31267 0 107.755)
(-3.233 0 108.678)
(-2.41385 0 108.676)
(-1.77837 0 109.196)
(-2.70787 0 109.296)
(-2.77874 0 110.003)
(-2.78244 0 109.917)
(-2.69039 0 110.586)
(-2.69071 0 110.83)
(-2.6362 0 111.08)
(-2.50371 0 111.57)
(-2.32994 0 111.77)
(-2.17312 0 112.069)
(-1.94014 0 112.276)
(-1.79656 0 112.455)
(-1.73858 0 112.674)
(-0.865356 0 112.521)
(-0.768392 0 112.852)
(-0.648268 0 112.794)
(-0.452297 0 112.745)
(-0.315357 0 112.678)
(-0.393913 0 112.866)
(0.767647 0 111.589)
(0.680147 0 112.39)
(0.692604 0 111.951)
(0.901192 0 111.354)
(1.0694 0 111.601)
(1.42292 0 109.477)
(1.37908 0 110.532)
(1.30525 0 109.892)
(1.55372 0 109.181)
(1.84406 0 109.438)
(1.02059 0 107.01)
(0.99639 0 108.901)
(0.833388 0 106.921)
(0.889663 0 107.016)
(0.848325 0 106.918)
(0.83667 0 106.115)
(0.952948 0 106.258)
(0.972898 0 105.278)
(0.957282 0 105.589)
(0.484507 0 104.589)
(0.104312 0 103.745)
(0.250058 0 105.201)
(0.208784 0 103.033)
(0.533094 0 104.298)
(0.691846 0 103.126)
(0.110701 0 102.629)
(-1.22203 0 102.603)
(-2.96667 0 102.209)
(-5.33362 0 101.92)
(-7.74344 0 101.656)
(-10.2416 0 101.569)
(-12.3687 0 101.308)
(-14.7278 0 101.352)
(-16.8072 0 101.202)
(-19.1586 0 101.207)
(-21.0751 0 101.371)
(-22.8379 0 101.292)
(-25.9679 0 100.953)
(-25.6131 0 102.286)
(-27.1859 0 101.447)
(-28.5049 0 101.511)
(-30.0817 0 101.318)
(-30.4642 0 101.875)
(-30.0874 0 101.769)
(-29.22 0 101.826)
(-28.8257 0 101.61)
(-29.1681 0 101.263)
(-29.1743 0 101.084)
(-29.0456 0 100.682)
(-28.9811 0 100.548)
(-31.6309 0 99.7539)
(-34.6802 0 99.3993)
(-37.5288 0 98.8958)
(-40.847 0 98.6009)
(-43.9428 0 98.1392)
(-46.5275 0 97.8136)
(-48.4052 0 97.5118)
(-49.6353 0 97.1264)
(-50.4646 0 97.0181)
(-51.0849 0 96.3405)
(-51.3009 0 96.8528)
(-51.2472 0 95.74)
(-50.2031 0 96.5042)
(-50.0863 0 95.6284)
(-49.2261 0 96.7366)
(-49.2366 0 95.8756)
(-46.4344 0 95.7457)
(-44.8458 0 95.8041)
(-44.2181 0 96.5562)
(-43.8179 0 96.6688)
(-42.5017 0 95.7674)
(-41.5377 0 97.2362)
(-40.9989 0 97.592)
(-39.6787 0 97.431)
(-38.0265 0 98.1715)
(-36.8398 0 99.2162)
(-35.5291 0 98.9106)
(-35.2165 0 100.457)
(-32.5406 0 99.4666)
(-32.1196 0 101.316)
(-29.2533 0 99.7021)
(-29.031 0 101.166)
(-27.2931 0 100.562)
(-25.7137 0 99.8498)
(-24.4539 0 99.7706)
(-22.8645 0 97.4402)
(-22.7182 0 99.3726)
(-22.8663 0 95.5865)
(-23.0788 0 96.4286)
(-22.4422 0 93.6856)
(-22.1293 0 94.6298)
(-21.7995 0 90.8761)
(-22.392 0 91.8624)
(-22.5952 0 92.0719)
(-23.5407 0 88.9443)
(-23.3461 0 89.0535)
(-22.749 0 89.6598)
(-23.6302 0 89.0883)
(0.0432803 0 109.014)
(0.0258211 0 110.289)
(0.00536171 0 109.395)
(0.049881 0 110.114)
(0.00603562 0 109.192)
(0.111054 0 109.843)
(0.136948 0 109.785)
(0.179795 0 109.696)
(0.260593 0 109.932)
(0.218264 0 109.396)
(0.420636 0 109.816)
(1.38839 0 109.569)
(1.35317 0 110.302)
(1.12369 0 110.354)
(1.2483 0 110.28)
(1.72204 0 110.548)
(2.11083 0 110.751)
(2.33339 0 111.133)
(2.43434 0 111.405)
(2.51542 0 111.731)
(2.61135 0 112.049)
(2.66169 0 112.365)
(2.62723 0 112.675)
(2.5559 0 113.009)
(2.43345 0 113.32)
(2.29885 0 113.612)
(2.2289 0 113.879)
(2.1641 0 114.16)
(2.06988 0 114.49)
(2.05198 0 114.784)
(2.06671 0 115.032)
(2.07267 0 115.204)
(2.07768 0 115.492)
(2.13271 0 115.604)
(2.10179 0 115.898)
(1.76673 0 115.83)
(1.75202 0 116.109)
(1.81632 0 116.248)
(1.31821 0 115.734)
(0.561247 0 115.872)
(0.300254 0 116.117)
(-0.247955 0 115.658)
(-0.2529 0 114.426)
(-0.498579 0 115.704)
(-0.304209 0 115.438)
(0.305748 0 115.081)
(0.233269 0 115.188)
(-0.485238 0 113.593)
(-0.453088 0 114.574)
(-0.454593 0 114.233)
(-0.770785 0 114.359)
(-0.797126 0 112.433)
(-0.536184 0 114.085)
(-0.424614 0 112.269)
(-0.475915 0 113.462)
(-0.600425 0 112.35)
(-0.515559 0 112.429)
(-0.777328 0 112.614)
(-0.717152 0 111.674)
(-0.781726 0 112.293)
(-0.396563 0 111.049)
(-0.409302 0 111.548)
(-0.401975 0 111.497)
(0.173644 0 110.704)
(0.231251 0 111.137)
(0.168606 0 111.169)
(0.274428 0 111.006)
(1.01026 0 110.233)
(0.965707 0 111.196)
(0.966466 0 111.153)
(1.27479 0 111.148)
(2.05603 0 110.45)
(2.01266 0 111.466)
(2.13131 0 111.532)
(2.31737 0 111.497)
(2.45429 0 111.98)
(3.14581 0 111.357)
(3.16064 0 112.511)
(3.30885 0 111.907)
(3.61809 0 112.71)
(4.11682 0 112.128)
(4.27857 0 112.778)
(4.6151 0 112.646)
(4.94232 0 112.558)
(4.96872 0 113.179)
(5.23746 0 112.784)
(5.34475 0 113.094)
(5.22641 0 113.186)
(4.84267 0 113.313)
(4.85587 0 113.601)
(5.14366 0 113.723)
(4.59068 0 113.431)
(4.64397 0 114.181)
(4.25044 0 113.806)
(4.25292 0 114.23)
(3.85812 0 113.721)
(3.77466 0 114.485)
(2.95296 0 113.723)
(3.0853 0 114.586)
(2.59984 0 114.162)
(2.76762 0 114.472)
(2.82442 0 115.035)
(1.92288 0 114.762)
(2.00602 0 114.746)
(2.34069 0 116.063)
(3.48995 0 116.242)
(4.84846 0 117.844)
(5.79839 0 118.885)
(7.28767 0 120.507)
(8.92631 0 121.798)
(10.452 0 123.498)
(11.3658 0 124.443)
(12.4219 0 125.926)
(13.247 0 126.327)
(14.034 0 127.367)
(14.1668 0 127.891)
(14.6223 0 128.085)
(16.3972 0 127.839)
(17.7499 0 127.936)
(19.0172 0 127.734)
(20.8704 0 127.28)
(22.917 0 126.964)
(23.389 0 127.138)
(23.6115 0 126.795)
(24.4205 0 126.078)
(24.6777 0 125.666)
(25.39 0 124.858)
(27.1554 0 123.709)
(27.7366 0 124.09)
(28.7291 0 122.793)
(28.8851 0 122.69)
(28.8296 0 122.357)
(29.5815 0 120.858)
(31.439 0 119.809)
(31.6516 0 119.972)
(32.2787 0 117.267)
(31.7088 0 117.417)
(32.0897 0 114.861)
(32.8673 0 113.227)
(33.2928 0 111.343)
(33.3775 0 109.485)
(33.0003 0 108.996)
(33.3333 0 106.297)
(32.9658 0 104.839)
(32.8652 0 102.695)
(32.3539 0 100.727)
(32.1265 0 99.4476)
(31.9375 0 97.3973)
(31.6449 0 96.9909)
(30.9957 0 94.8984)
(30.2651 0 94.3765)
(28.4489 0 93.1485)
(26.2828 0 92.4981)
(24.4011 0 92.0305)
(22.7071 0 91.1297)
(21.4803 0 91.2875)
(20.2523 0 90.7452)
(18.9401 0 91.0497)
(18.5006 0 91.6675)
(18.7584 0 91.9346)
(19.2109 0 93.6266)
(18.9971 0 94.2121)
(19.3329 0 95.9097)
(19.8742 0 97.3699)
(20.2942 0 98.8544)
(20.5609 0 100.284)
(20.8513 0 101.612)
(21.0385 0 102.449)
(21.7665 0 103.196)
(21.6302 0 104.017)
(21.1499 0 104.245)
(18.8056 0 103.199)
(18.5437 0 103.335)
(18.3298 0 103.31)
(16.462 0 101.35)
(15.7936 0 101.588)
(16.7182 0 100.213)
(15.7194 0 100.255)
(14.8194 0 99.8164)
(14.1731 0 98.9498)
(0 -0.0841137 109.014)
(0 -0.0889453 106.81)
(0 -0.0829564 110.289)
(0 -0.087763 108.025)
(0 -0.0710612 109.395)
(0 -0.0715226 107.325)
(0 -0.07357 110.114)
(0 -0.0779098 107.696)
(0 -0.0627694 109.192)
(0 -0.0907116 107.297)
(0 -0.0323998 109.843)
(0 -0.0431818 106.892)
(0 0.0163754 109.785)
(0 0.171172 107.757)
(0 -0.00148456 109.696)
(0 0.285328 107.76)
(0 -0.103396 109.932)
(0 0.0365839 107.218)
(0 0.0256049 109.396)
(0 -0.042595 107.592)
(0 -0.0246124 109.816)
(0 -0.666347 107.156)
(0 -1.01181 109.569)
(0 -0.666616 107.896)
(0 -1.05312 110.302)
(0 -0.458168 107.699)
(0 -0.906935 110.354)
(0 -0.188477 107.458)
(0 -1.01577 110.28)
(0 -0.377459 107.64)
(0 -1.41679 110.548)
(0 -0.887768 107.682)
(0 -1.58333 110.751)
(0 -0.700209 106.758)
(0 -1.52235 111.133)
(0 -0.820977 107.868)
(0 -1.38712 111.405)
(0 -1.0981 106.6)
(0 -1.22276 111.731)
(0 -1.08478 107.426)
(0 -1.05747 112.049)
(0 -1.25759 106.842)
(0 -0.904168 112.365)
(0 -1.38644 107.207)
(0 -0.795324 112.675)
(0 -1.53088 106.315)
(0 -0.693956 113.009)
(0 -1.5097 107.095)
(0 -0.613609 113.32)
(0 -1.19888 106.46)
(0 -0.539391 113.612)
(0 -1.21377 106.771)
(0 -0.480062 113.879)
(0 -1.36235 106.956)
(0 -0.464418 114.16)
(0 -1.43743 106.241)
(0 -0.335172 114.49)
(0 -1.53834 107.111)
(0 -0.0985948 114.784)
(0 -1.07111 105.891)
(0 0.0791937 115.032)
(0 -1.0027 106.873)
(0 0.225952 115.204)
(0 -1.04175 106.723)
(0 0.498563 115.492)
(0 -1.23744 106.424)
(0 0.813047 115.604)
(0 -1.42809 106.871)
(0 1.00187 115.898)
(0 -1.25717 106.615)
(0 1.51178 115.83)
(0 -0.554194 106.196)
(0 1.44617 116.109)
(0 -0.456207 106.983)
(0 1.19436 116.248)