FoamFile
{version 2.0; format ascii;class Cloud<passiveParticle>; location 0;object  positions;}
356
(
( -1685.58 4046.76 499.021 ) 0 
( -3954.88 2494.45 498.549 ) 0 
( -3881.81 4223.55 498.762 ) 0 
( -4880.01 4266.96 498.812 ) 0 
( -2189.98 4909.84 499.528 ) 0 
( -3490.64 1609.39 498.731 ) 0 
( -2876.62 820.923 496.623 ) 0 
( -976.903 2179.89 499.022 ) 0 
( -2363.36 3286.96 497.761 ) 0 
( -4866.48 725.653 498.912 ) 0 
( -291.051 2917.66 498.309 ) 0 
( -551.888 141.938 498.774 ) 0 
( -4953.37 2535.61 497.699 ) 0 
( -1006.23 4782.12 497.209 ) 0 
( -3419.56 3338.38 498.326 ) 0 
( -1958.63 2373.93 496.971 ) 0 
( -4417.84 3380.08 498.547 ) 0 
( -605.819 3866.48 498.796 ) 0 
( -2518.78 1656.68 906.917 ) 0 
( -1110.1 4200.2 1300.96 ) 0 
( -4489.28 1650.39 497.768 ) 0 
( -1283.68 3131.38 499.658 ) 0 
( -1862.53 2959.58 1296.72 ) 0 
( -1509.26 438.504 496.878 ) 0 
( -3866.67 683.991 499.093 ) 0 
( -1636.42 1428.96 497.923 ) 0 
( -2850.1 4159.49 498.145 ) 0 
( -2956.46 2453.62 497.237 ) 0 
( -2794.41 4750.5 1300.45 ) 0 
( -437.912 4943.09 1303.74 ) 0 
( -3089.4 295.057 1316.36 ) 0 
( -4006.72 1282.76 1290.41 ) 0 
( -4469.49 2224.39 1314.64 ) 0 
( -562.563 1140.98 498.813 ) 0 
( -3857.36 4797.32 1315.57 ) 0 
( -715.168 3283.73 1324.77 ) 0 
( -2904.06 3042.9 1300.82 ) 0 
( -1181.52 983.289 1266.51 ) 0 
( -12.0709 1401.95 1323.41 ) 0 
( -437.046 2308.84 1329.46 ) 0 
( -1678.15 1951.97 1357.67 ) 0 
( -4204.07 305.34 1360.03 ) 0 
( -4960.05 2531.82 2128.04 ) 0 
( -3471.12 2183.09 1315.8 ) 0 
( -4369.12 4531.92 2131.08 ) 0 
( -2280.31 3893.08 1288.1 ) 0 
( -30.3788 4030.43 1298.26 ) 0 
( -1524.63 3599.34 1981.24 ) 0 
( -4931.07 3110.78 1312.9 ) 0 
( -2566.53 2208.3 1737.56 ) 0 
( -1034.6 4803.08 2092.99 ) 0 
( -4855.69 4848.34 1310.7 ) 0 
( -3068.99 1243.94 1628.84 ) 0 
( -2153.98 768.876 1183.19 ) 0 
( -3930.64 3070.29 1313.92 ) 0 
( -342.577 464.459 1420.72 ) 0 
( -1798.41 1153.19 2032.68 ) 0 
( -4395.13 3955.09 1315.46 ) 0 
( -3381.21 3920 1309.46 ) 0 
( -4463.62 1622.17 2112.28 ) 0 
( -2783.56 510.835 2242.76 ) 0 
( -1056 490.788 2125.99 ) 0 
( -939.386 1657.87 1960.96 ) 0 
( -2372.93 3100.1 2142.89 ) 0 
( -4785.33 640.176 2100.18 ) 0 
( -3410.15 2929.75 2154.17 ) 0 
( -2060.12 4598.19 1961.69 ) 0 
( -1897.8 175.765 2563.66 ) 0 
( -26.5409 1470 2319.01 ) 0 
( -248.52 2970.63 2172.99 ) 0 
( -3507.35 1876.53 2266.48 ) 0 
( -3800.32 802.026 2146.67 ) 0 
( -2625.46 1464.54 2495 ) 0 
( -1841.02 2077.2 2410.56 ) 0 
( -4420.9 3372.74 2129.9 ) 0 
( -1159.83 2633.62 1938.07 ) 0 
( -586.754 3909.97 2117.44 ) 0 
( -1533.49 4205.24 2772.54 ) 0 
( -599.795 2196.49 2728.61 ) 0 
( -4140.07 2518.41 2698.29 ) 0 
( -2965.82 4884.47 2274.95 ) 0 
( -2490.07 740.506 3169.21 ) 0 
( -238.858 542.063 2697.16 ) 0 
( -3413.2 1134.41 3010.5 ) 0 
( -2981.19 3887.23 2223.86 ) 0 
( -1600.97 2982.92 2763.35 ) 0 
( -1510.36 403.327 3455.26 ) 0 
( -3721.65 4869.63 2988.47 ) 0 
( -3838.92 3912.08 2734.26 ) 0 
( -4921.69 3998.06 2768.93 ) 0 
( -1413.5 2167.12 3307.79 ) 0 
( -2784.97 2417.98 2741.47 ) 0 
( -1183.85 1200.1 2818.99 ) 0 
( -4285.7 1612.67 3095.22 ) 0 
( -1170.15 4167.13 3702.6 ) 0 
( -468.187 4568.86 2879.17 ) 0 
( -2417.96 4578.59 3052.17 ) 0 
( -2386.77 3580.83 3017.07 ) 0 
( -3366.02 137.784 2963.34 ) 0 
( -198.11 3951.53 3613.91 ) 0 
( -2308.5 1734.29 3402.24 ) 0 
( -3375.99 3121.8 3133.46 ) 0 
( -713.724 3394.76 2963.58 ) 0 
( -3504.75 2163.52 3382.57 ) 0 
( -3162.89 448.229 3888.84 ) 0 
( -510.238 2221.15 3727.38 ) 0 
( -1303.43 3090.35 3709.71 ) 0 
( -2218.93 2724.84 3505.38 ) 0 
( -4623.66 4720.85 3390.05 ) 0 
( -306.546 1356.78 3270.86 ) 0 
( -503.763 211.499 3600.1 ) 0 
( -1384.53 1318.12 3832.91 ) 0 
( -4203.35 662.804 3397.18 ) 0 
( -4916.02 3040.69 3049.37 ) 0 
( -2912.3 3237.56 4010.69 ) 0 
( -2837.67 2175.4 4124.75 ) 0 
( -1653.83 137.06 4406.81 ) 0 
( -1637.33 1067.18 4771.22 ) 0 
( -4206.58 2795.59 3706.81 ) 0 
( -2390.9 1039.98 4116.52 ) 0 
( -2273.42 4000.59 3915.78 ) 0 
( -1843.95 2121.16 4208.06 ) 0 
( -83.2416 3062.41 4053.6 ) 0 
( -3853.44 4515.8 3990.68 ) 0 
( -4551.52 1356.68 4024.1 ) 0 
( -501.118 1018.25 4190.58 ) 0 
( -4025.19 581.749 4376.01 ) 0 
( -2741.55 4881.6 3977.38 ) 0 
( -3551.55 1363.43 3975.57 ) 0 
( -3158.28 4042.18 3453.79 ) 0 
( -4368.43 3771.49 3568.92 ) 0 
( -673.759 3762.77 4470.27 ) 0 
( -3612.98 2725.71 4506.25 ) 0 
( -315.375 4715.99 4549.15 ) 0 
( -984.433 1804.88 4607.96 ) 0 
( -4816.05 4313.18 4281.75 ) 0 
( -3412.15 1812.27 4856.18 ) 0 
( -1762.81 4820.66 4172.38 ) 0 
( -3093.88 4097.02 4486.89 ) 0 
( -2424.8 1670.13 4890.38 ) 0 
( -1628.6 3969.13 4677.25 ) 0 
( -89.852 2248.25 4632.5 ) 0 
( -2011.1 3084.31 4414.28 ) 0 
( -4993.41 3332.68 4211.93 ) 0 
( -3162.33 847.227 4803.91 ) 0 
( -920.976 2801.13 4584.71 ) 0 
( -1093.89 393.896 5269.19 ) 0 
( -1364.55 4839.87 5088.56 ) 0 
( -4807.57 173.98 4844.28 ) 0 
( -1298.59 1527.94 5590.9 ) 0 
( -2464.75 3636.11 5111.99 ) 0 
( -4515.74 2990.29 5017.93 ) 0 
( -4751.37 2275 4362.07 ) 0 
( -2732.79 2683.22 4977.23 ) 0 
( -2391.44 269.498 5067.3 ) 0 
( -4875.59 4595.8 5299.96 ) 0 
( -2368.77 4614.81 4939.12 ) 0 
( -3928.13 4544.51 4985.75 ) 0 
( -3989.17 3652.62 4485.86 ) 0 
( -459.029 1173.58 5176.94 ) 0 
( -4286.3 1348.41 4986.39 ) 0 
( -2180.05 1059.06 5642.74 ) 0 
( -2960.5 2094.18 5751.49 ) 0 
( -3414.5 3359.32 5252.65 ) 0 
( -367.377 3260.93 5276.97 ) 0 
( -3643.48 1364.76 5751.01 ) 0 
( -627.8 4221.64 5358.03 ) 0 
( -3881.29 2399.7 5511.13 ) 0 
( -246.717 434.583 5815 ) 0 
( -3970.9 411.709 5357.61 ) 0 
( -1795.46 2393.58 5167.83 ) 0 
( -4563.43 1926.39 6166.17 ) 0 
( -4261.45 3793.9 5553.95 ) 0 
( -2016.07 2032.49 6072.64 ) 0 
( -1286.24 719.694 6193.83 ) 0 
( -4672.19 953.344 5817.99 ) 0 
( -641.895 163.031 6716.14 ) 0 
( -3118.56 4278.94 5507.93 ) 0 
( -1782.18 4128.27 5651.59 ) 0 
( -165.292 2785.19 6132 ) 0 
( -2288.41 2961.54 5826.76 ) 0 
( -500.995 1335.73 6162.14 ) 0 
( -4220.64 204.383 6301.48 ) 0 
( -3063.69 550.851 5752.13 ) 0 
( -1362.92 3275.65 5344.51 ) 0 
( -856.053 2420.24 5506.31 ) 0 
( -754.792 3602.99 6131.44 ) 0 
( -4211.06 3037.2 6204.81 ) 0 
( -4852.94 2607.68 6838.22 ) 0 
( -3660.38 2230.04 6468.6 ) 0 
( -4103.85 1159.66 6613.81 ) 0 
( -200.203 2042.91 6800.25 ) 0 
( -3118.59 3368.44 6207.07 ) 0 
( -2855.19 1312.26 6365.23 ) 0 
( -1227.43 4910.72 6075.31 ) 0 
( -2389.86 431.218 6478.53 ) 0 
( -3921.6 4626.41 5989.94 ) 0 
( -235.346 4922.86 5952.05 ) 0 
( -4691.94 4628.96 6625.98 ) 0 
( -1173.32 1931.02 6600.71 ) 0 
( -1388.45 2838.16 6241.11 ) 0 
( -2449.66 4274.92 7246.56 ) 0 
( -700.38 3021.51 6941.36 ) 0 
( -4229.87 1934.21 7232.85 ) 0 
( -1423.42 4123.92 6659.75 ) 0 
( -2205.68 3501.82 6662.72 ) 0 
( -185.67 4226.01 6666.45 ) 0 
( -2720.12 2530.91 6618.07 ) 0 
( -1921.85 1279.97 6722.04 ) 0 
( -2199.92 4681.21 6369.74 ) 0 
( -3121.9 4322.21 6506.81 ) 0 
( -2424.41 769.741 7417.62 ) 0 
( -4012.1 3898.65 6668.5 ) 0 
( -3371.2 692.202 7107.63 ) 0 
( -3603.59 3058.8 7024.28 ) 0 
( -1594.21 163.512 7020.13 ) 0 
( -530.376 3820.43 7516.7 ) 0 
( -3806.15 4800.64 7056.58 ) 0 
( -4907.45 3755.89 7088.14 ) 0 
( -3263.04 1680.79 7201.33 ) 0 
( -864.356 4876.45 7005.35 ) 0 
( -1503.64 3429.85 7373.8 ) 0 
( -1496.97 1704.13 7520.28 ) 0 
( -1834.63 2534.12 7080.16 ) 0 
( -4996.28 1324.15 7424.23 ) 0 
( -3986.77 1124.23 7765.14 ) 0 
( -4512.38 475.341 7216.72 ) 0 
( -887.292 1073.12 7044.88 ) 0 
( -2694.44 3102.29 7437.92 ) 0 
( -984.303 2527.2 7760.81 ) 0 
( -3974.7 108.1 7974.51 ) 0 
( -4421.77 3060.04 7616.77 ) 0 
( -3374.13 3947.21 7435.73 ) 0 
( -2989.41 253.396 8059.28 ) 0 
( -12.0252 2656.02 7566 ) 0 
( -3631.78 2152.72 8001.64 ) 0 
( -4017.41 4996.15 8080.43 ) 0 
( -4808.62 4596.76 7618.14 ) 0 
( -2190.78 3723.63 8037.75 ) 0 
( -2439.77 1999.77 7668.68 ) 0 
( -3080.69 4844.13 7770.58 ) 0 
( -72.8781 1379.24 7536.73 ) 0 
( -902.503 295.548 7728.81 ) 0 
( -4872.81 3762.91 8165.19 ) 0 
( -1530.58 4434.1 7604.01 ) 0 
( -299.923 2013.27 8275.5 ) 0 
( -2395.18 4555.24 8553.01 ) 0 
( -1220.3 3760.21 8273.39 ) 0 
( -4404.86 2893.48 8602.35 ) 0 
( -1439.83 4916.66 8474.54 ) 0 
( -2992.05 1270.17 8070.6 ) 0 
( -2813.96 2550.16 8413.81 ) 0 
( -607.767 4713.04 7959.42 ) 0 
( -779.696 4341.43 8956.66 ) 0 
( -4816.42 2219.45 7990 ) 0 
( -3913.36 4021.63 8273.81 ) 0 
( -876.97 1210.81 8129.25 ) 0 
( -3510.29 3144.62 8015.51 ) 0 
( -429.512 3152.26 8325.97 ) 0 
( -1910.23 2764.94 8048.68 ) 0 
( -1860.13 173.897 7987.86 ) 0 
( -3610.56 754.057 8660.93 ) 0 
( -398.741 2542.9 9117.6 ) 0 
( -3007.53 3768.18 8612.61 ) 0 
( -3270.22 4997.99 8743.7 ) 0 
( -2006.15 1200.44 8216.31 ) 0 
( -1154.69 443.408 8706.06 ) 0 
( -1273.39 2911.93 8804.33 ) 0 
( -3493.12 2986.12 9002.42 ) 0 
( -2382.59 91.0586 8835.95 ) 0 
( -1415.41 1978.71 8477.06 ) 0 
( -4183.07 1597.21 8622.66 ) 0 
( -2225.63 3202.35 8889.49 ) 0 
( -180.614 789.73 8710.12 ) 0 
( -331.949 51.4604 9375.08 ) 0 
( -2635.54 1047.51 8977.3 ) 0 
( -3148.43 322.651 9434.9 ) 0 
( -4187.26 3684.07 9173.68 ) 0 
( -3263.47 1827.83 8937.15 ) 0 
( -4063.06 1271.1 9559.52 ) 0 
( -704.216 3453.15 9421.57 ) 0 
( -4078.75 2260.79 9362.4 ) 0 
( -1648.3 1191.61 9148.79 ) 0 
( -721.419 1554.72 9057.37 ) 0 
( -4189.54 4669.16 9008.3 ) 0 
( -2260.24 1972.51 9010.97 ) 0 
( -4579.26 722.405 8900.98 ) 0 
( -1724.77 4043.84 9087.88 ) 0 
( -1393.21 2171.7 9465.04 ) 0 
( -2739.89 3713.9 9575.89 ) 0 
( -1649.79 4972.58 9449.99 ) 0 
( -2169.13 542.736 9703.04 ) 0 
( -3559.63 3285.83 9953.51 ) 0 
( -2730.44 2661.57 9561.37 ) 0 
( -3115.47 1423.67 9838.4 ) 0 
( -2675.75 4707.71 9500.61 ) 0 
( -178.061 4237.15 9747.96 ) 0 
( -4774.95 1899.67 9984.02 ) 0 
( -905.763 804.636 9694.05 ) 0 
( -135.195 2138.52 9992.78 ) 0 
( -4667.2 4417.73 9849.55 ) 0 
( -3460.67 2309.98 10146.3 ) 0 
( -3637.73 668.181 10234.8 ) 0 
( -3559.75 4276.33 9677.44 ) 0 
( -981.233 1654.46 10214.1 ) 0 
( -4439.13 2834.22 10097.5 ) 0 
( -4002.05 1555.31 10516 ) 0 
( -1292.64 90.0029 10275.8 ) 0 
( -300.456 30.9288 10377.1 ) 0 
( -922.281 2735.69 10142.1 ) 0 
( -1165.61 4220.76 9896.58 ) 0 
( -1651.06 3261.53 9705 ) 0 
( -4623.53 622.481 10073.7 ) 0 
( -2133.89 1590.6 9925.93 ) 0 
( -175.868 1021.68 10341.5 ) 0 
( -2124.27 4221.55 10177.9 ) 0 
( -1338.51 3543.73 10611.5 ) 0 
( -2267.99 3833.74 11087.9 ) 0 
( -2666.37 1998.35 10667.2 ) 0 
( -1504.33 1912.19 11025.5 ) 0 
( -358.833 3514.66 10414.5 ) 0 
( -2081.74 126.166 10887.9 ) 0 
( -2689.95 826.377 10516.4 ) 0 
( -1878.06 2484.86 10291.7 ) 0 
( -2589.37 3177.69 10405.6 ) 0 
( -558.272 4560.04 10614.1 ) 0 
( -3937.41 4737.29 10479.7 ) 0 
( -4273.72 3747.98 10478.7 ) 0 
( -1652.39 980.177 10553.8 ) 0 
( -3052.72 4060.44 10511.1 ) 0 
( -3429.34 3241.63 10943.6 ) 0 
( -3256.58 1352.34 11150.3 ) 0 
( -2499.24 2750.75 11304.8 ) 0 
( -2826.91 515.937 11489.8 ) 0 
( -825.915 622.669 10987.8 ) 0 
( -2265.26 1315.31 11277.6 ) 0 
( -4796.36 1805.36 11069 ) 0 
( -540.375 2777.42 11064.9 ) 0 
( -1428.23 4370.83 11165.7 ) 0 
( -4051.78 2459.59 10939.2 ) 0 
( -343.515 1777.53 10973.9 ) 0 
( -1506.18 2865.41 11326.1 ) 0 
( -4867.61 3103.14 10959.4 ) 0 
( -4938.86 503.213 11041.5 ) 0 
( -3318.11 2250.48 11585.2 ) 0 
( -857.361 2128.6 11756.4 ) 0 
( -4000.96 707.474 11320.9 ) 0 
( -1655.21 3693.93 11865.5 ) 0 
( -253.763 1070.18 11674.7 ) 0 
( -3190.62 4761.89 11209.9 ) 0 
( -2863.32 1496.03 12058.1 ) 0 
( -2014.6 2082.11 11868.3 ) 0 
( -4169.86 3466.14 11576.5 ) 0 
( -3095.74 3868.08 11647.6 ) 0 
( -584.84 3858.18 11325.7 ) 0 
( -4461.2 4363.03 11244.5 ) 0 
)
