/*--------------------------------*- C++ -*----------------------------------*\
| =========                 |                                                 |
| \\      /  F ield         | OpenFOAM: The Open Source CFD Toolbox           |
|  \\    /   O peration     | Version:  5.x                                   |
|   \\  /    A nd           | Web:      www.OpenFOAM.org                      |
|    \\/     M anipulation  |                                                 |
\*---------------------------------------------------------------------------*/
FoamFile
{
    version     2.0;
    format      ascii;
    class       volVectorField;
    location    "500";
    object      stored_U;
}
// * * * * * * * * * * * * * * * * * * * * * * * * * * * * * * * * * * * * * //

dimensions      [0 1 -1 0 0 0 0];

internalField   nonuniform List<vector> 
90
(
(1.64079e-09 -2.21747e-09 -0.000999985)
(2.95851e-09 -4.38874e-09 -0.000999983)
(4.52205e-09 -6.91614e-09 -0.00099998)
(6.17241e-09 -9.64482e-09 -0.000999976)
(7.90461e-09 -1.26204e-08 -0.000999971)
(9.72455e-09 -1.59089e-08 -0.000999966)
(1.16318e-08 -1.95806e-08 -0.000999959)
(1.36158e-08 -2.371e-08 -0.000999951)
(1.56513e-08 -2.83749e-08 -0.000999943)
(1.76926e-08 -3.36542e-08 -0.000999933)
(1.96635e-08 -3.96229e-08 -0.000999922)
(2.14417e-08 -4.63426e-08 -0.00099991)
(2.28349e-08 -5.38445e-08 -0.000999895)
(2.35466e-08 -6.21043e-08 -0.000999879)
(2.31301e-08 -7.10048e-08 -0.00099986)
(2.09261e-08 -8.02846e-08 -0.000999839)
(1.59836e-08 -8.94683e-08 -0.000999816)
(6.96394e-09 -9.77758e-08 -0.000999792)
(-8.05431e-09 -1.03962e-07 -0.000999769)
(-3.20256e-08 -1.06001e-07 -0.00099975)
(-6.9033e-08 -1.00919e-07 -0.000999739)
(-1.2474e-07 -8.43893e-08 -0.000999741)
(-2.06929e-07 -5.02602e-08 -0.000999764)
(-3.26162e-07 9.91437e-09 -0.000999819)
(-4.96942e-07 1.08105e-07 -0.000999923)
(-7.39141e-07 2.61167e-07 -0.0010001)
(-1.07986e-06 4.92567e-07 -0.00100038)
(-1.55595e-06 8.34713e-07 -0.0010008)
(-2.21742e-06 1.33224e-06 -0.00100144)
(-3.13209e-06 2.04644e-06 -0.00100238)
(-4.39179e-06 3.0613e-06 -0.00100373)
(-6.121e-06 4.49197e-06 -0.00100568)
(-8.49007e-06 6.49671e-06 -0.00100858)
(-1.17451e-05 9.2996e-06 -0.00101253)
(-1.63595e-05 1.3329e-05 -0.00101484)
(-2.18747e-05 1.83064e-05 -0.00101047)
(-2.8309e-05 2.49011e-05 -0.0010367)
(-3.15719e-05 2.97792e-05 -0.00126398)
(-4.03229e-05 3.43855e-05 -0.000349501)
(6.77967e-05 -3.57093e-05 -0.00258152)
(-5.59254e-06 1.39519e-06 -0.00120219)
(-6.89589e-05 2.12961e-05 -0.00297271)
(-2.96382e-05 2.12829e-05 -0.00192103)
(-9.09082e-05 3.07724e-05 -0.00318368)
(-9.22814e-05 -3.36919e-05 -0.00225813)
(-9.67924e-05 -1.02088e-05 -0.00324704)
(-7.30396e-05 5.14117e-05 -0.00197247)
(-3.52302e-05 0.000136884 -0.00331818)
(-3.88201e-06 3.83018e-05 -0.00233127)
(-7.09613e-05 -2.58191e-05 -0.00275601)
(-5.96462e-05 -3.72802e-05 -0.00265798)
(-2.90828e-05 -4.97819e-06 -0.0016865)
(-6.55821e-06 5.85501e-05 -0.00247644)
(9.34238e-05 -3.98414e-05 -0.00110383)
(8.98053e-05 -5.59199e-05 -0.00108231)
(6.81125e-05 -4.51967e-05 -0.00109115)
(5.25039e-05 -3.45497e-05 -0.00107477)
(4.07648e-05 -2.63682e-05 -0.00105782)
(3.16998e-05 -2.01366e-05 -0.00104473)
(2.46757e-05 -1.53852e-05 -0.00103478)
(1.92305e-05 -1.17649e-05 -0.0010271)
(1.50062e-05 -9.00374e-06 -0.00102115)
(1.17253e-05 -6.89461e-06 -0.00101652)
(9.17421e-06 -5.28472e-06 -0.00101293)
(7.18785e-06 -4.05522e-06 -0.00101014)
(5.6391e-06 -3.11528e-06 -0.00100795)
(4.42989e-06 -2.39599e-06 -0.00100625)
(3.48452e-06 -1.84502e-06 -0.00100492)
(2.74448e-06 -1.42261e-06 -0.00100387)
(2.16446e-06 -1.09846e-06 -0.00100306)
(1.7093e-06 -8.49491e-07 -0.00100241)
(1.3517e-06 -6.58074e-07 -0.00100191)
(1.07043e-06 -5.10753e-07 -0.00100151)
(8.48952e-07 -3.97239e-07 -0.00100119)
(6.74357e-07 -3.0966e-07 -0.00100095)
(5.36547e-07 -2.41988e-07 -0.00100075)
(4.276e-07 -1.89603e-07 -0.0010006)
(3.41373e-07 -1.48961e-07 -0.00100048)
(2.73026e-07 -1.17344e-07 -0.00100038)
(2.18769e-07 -9.26691e-08 -0.0010003)
(1.7564e-07 -7.33414e-08 -0.00100024)
(1.41322e-07 -5.81461e-08 -0.00100019)
(1.14014e-07 -4.6164e-08 -0.00100015)
(9.23218e-08 -3.67062e-08 -0.00100012)
(7.5172e-08 -2.92632e-08 -0.00100009)
(6.17468e-08 -2.34661e-08 -0.00100007)
(5.14182e-08 -1.90499e-08 -0.00100005)
(4.36639e-08 -1.58097e-08 -0.00100004)
(3.80222e-08 -1.35053e-08 -0.00100002)
(3.5324e-08 -1.23426e-08 -0.00100001)
)
;

boundaryField
{
    inlet
    {
        type            calculated;
        value           uniform (3.5324e-08 -1.23426e-08 -0.00100001);
    }
    outlet
    {
        type            calculated;
        value           uniform (1.64079e-09 -2.21747e-09 -0.000999985);
    }
    repeat_boundary
    {
        type            calculated;
        value           nonuniform List<vector> 
180
(
(1.64079e-09 0 -0.000999985)
(2.95851e-09 0 -0.000999983)
(4.52205e-09 0 -0.00099998)
(6.17241e-09 0 -0.000999976)
(7.90461e-09 0 -0.000999971)
(9.72455e-09 0 -0.000999966)
(1.16318e-08 0 -0.000999959)
(1.36158e-08 0 -0.000999951)
(1.56513e-08 0 -0.000999943)
(1.76926e-08 0 -0.000999933)
(1.96635e-08 0 -0.000999922)
(2.14417e-08 0 -0.00099991)
(2.28349e-08 0 -0.000999895)
(2.35466e-08 0 -0.000999879)
(2.31301e-08 0 -0.00099986)
(2.09261e-08 0 -0.000999839)
(1.59836e-08 0 -0.000999816)
(6.96394e-09 0 -0.000999792)
(-8.05431e-09 0 -0.000999769)
(-3.20256e-08 0 -0.00099975)
(-6.9033e-08 0 -0.000999739)
(-1.2474e-07 0 -0.000999741)
(-2.06929e-07 0 -0.000999764)
(-3.26162e-07 0 -0.000999819)
(-4.96942e-07 0 -0.000999923)
(-7.39141e-07 0 -0.0010001)
(-1.07986e-06 0 -0.00100038)
(-1.55595e-06 0 -0.0010008)
(-2.21742e-06 0 -0.00100144)
(-3.13209e-06 0 -0.00100238)
(-4.39179e-06 0 -0.00100373)
(-6.121e-06 0 -0.00100568)
(-8.49007e-06 0 -0.00100858)
(-1.17451e-05 0 -0.00101253)
(-1.63595e-05 0 -0.00101484)
(-2.18747e-05 0 -0.00101047)
(-2.8309e-05 0 -0.0010367)
(-3.15719e-05 0 -0.00126398)
(-4.03229e-05 0 -0.000349501)
(6.77967e-05 0 -0.00258152)
(-5.59254e-06 0 -0.00120219)
(-6.89589e-05 0 -0.00297271)
(-2.96382e-05 0 -0.00192103)
(-9.09082e-05 0 -0.00318368)
(-9.22814e-05 0 -0.00225813)
(-9.67924e-05 0 -0.00324704)
(-7.30396e-05 0 -0.00197247)
(-3.52302e-05 0 -0.00331818)
(-3.88201e-06 0 -0.00233127)
(-7.09613e-05 0 -0.00275601)
(-5.96462e-05 0 -0.00265798)
(-2.90828e-05 0 -0.0016865)
(-6.55821e-06 0 -0.00247644)
(9.34238e-05 0 -0.00110383)
(8.98053e-05 0 -0.00108231)
(6.81125e-05 0 -0.00109115)
(5.25039e-05 0 -0.00107477)
(4.07648e-05 0 -0.00105782)
(3.16998e-05 0 -0.00104473)
(2.46757e-05 0 -0.00103478)
(1.92305e-05 0 -0.0010271)
(1.50062e-05 0 -0.00102115)
(1.17253e-05 0 -0.00101652)
(9.17421e-06 0 -0.00101293)
(7.18785e-06 0 -0.00101014)
(5.6391e-06 0 -0.00100795)
(4.42989e-06 0 -0.00100625)
(3.48452e-06 0 -0.00100492)
(2.74448e-06 0 -0.00100387)
(2.16446e-06 0 -0.00100306)
(1.7093e-06 0 -0.00100241)
(1.3517e-06 0 -0.00100191)
(1.07043e-06 0 -0.00100151)
(8.48952e-07 0 -0.00100119)
(6.74357e-07 0 -0.00100095)
(5.36547e-07 0 -0.00100075)
(4.276e-07 0 -0.0010006)
(3.41373e-07 0 -0.00100048)
(2.73026e-07 0 -0.00100038)
(2.18769e-07 0 -0.0010003)
(1.7564e-07 0 -0.00100024)
(1.41322e-07 0 -0.00100019)
(1.14014e-07 0 -0.00100015)
(9.23218e-08 0 -0.00100012)
(7.5172e-08 0 -0.00100009)
(6.17468e-08 0 -0.00100007)
(5.14182e-08 0 -0.00100005)
(4.36639e-08 0 -0.00100004)
(3.80222e-08 0 -0.00100002)
(3.5324e-08 0 -0.00100001)
(0 -2.21747e-09 -0.000999985)
(0 -4.38874e-09 -0.000999983)
(0 -6.91614e-09 -0.00099998)
(0 -9.64482e-09 -0.000999976)
(0 -1.26204e-08 -0.000999971)
(0 -1.59089e-08 -0.000999966)
(0 -1.95806e-08 -0.000999959)
(0 -2.371e-08 -0.000999951)
(0 -2.83749e-08 -0.000999943)
(0 -3.36542e-08 -0.000999933)
(0 -3.96229e-08 -0.000999922)
(0 -4.63426e-08 -0.00099991)
(0 -5.38445e-08 -0.000999895)
(0 -6.21043e-08 -0.000999879)
(0 -7.10048e-08 -0.00099986)
(0 -8.02846e-08 -0.000999839)
(0 -8.94683e-08 -0.000999816)
(0 -9.77758e-08 -0.000999792)
(0 -1.03962e-07 -0.000999769)
(0 -1.06001e-07 -0.00099975)
(0 -1.00919e-07 -0.000999739)
(0 -8.43893e-08 -0.000999741)
(0 -5.02602e-08 -0.000999764)
(0 9.91437e-09 -0.000999819)
(0 1.08105e-07 -0.000999923)
(0 2.61167e-07 -0.0010001)
(0 4.92567e-07 -0.00100038)
(0 8.34713e-07 -0.0010008)
(0 1.33224e-06 -0.00100144)
(0 2.04644e-06 -0.00100238)
(0 3.0613e-06 -0.00100373)
(0 4.49197e-06 -0.00100568)
(0 6.49671e-06 -0.00100858)
(0 9.2996e-06 -0.00101253)
(0 1.3329e-05 -0.00101484)
(0 1.83064e-05 -0.00101047)
(0 2.49011e-05 -0.0010367)
(0 2.97792e-05 -0.00126398)
(0 3.43855e-05 -0.000349501)
(0 -3.57093e-05 -0.00258152)
(0 1.39519e-06 -0.00120219)
(0 2.12961e-05 -0.00297271)
(0 2.12829e-05 -0.00192103)
(0 3.07724e-05 -0.00318368)
(0 -3.36919e-05 -0.00225813)
(0 -1.02088e-05 -0.00324704)
(0 5.14117e-05 -0.00197247)
(0 0.000136884 -0.00331818)
(0 3.83018e-05 -0.00233127)
(0 -2.58191e-05 -0.00275601)
(0 -3.72802e-05 -0.00265798)
(0 -4.97819e-06 -0.0016865)
(0 5.85501e-05 -0.00247644)
(0 -3.98414e-05 -0.00110383)
(0 -5.59199e-05 -0.00108231)
(0 -4.51967e-05 -0.00109115)
(0 -3.45497e-05 -0.00107477)
(0 -2.63682e-05 -0.00105782)
(0 -2.01366e-05 -0.00104473)
(0 -1.53852e-05 -0.00103478)
(0 -1.17649e-05 -0.0010271)
(0 -9.00374e-06 -0.00102115)
(0 -6.89461e-06 -0.00101652)
(0 -5.28472e-06 -0.00101293)
(0 -4.05522e-06 -0.00101014)
(0 -3.11528e-06 -0.00100795)
(0 -2.39599e-06 -0.00100625)
(0 -1.84502e-06 -0.00100492)
(0 -1.42261e-06 -0.00100387)
(0 -1.09846e-06 -0.00100306)
(0 -8.49491e-07 -0.00100241)
(0 -6.58074e-07 -0.00100191)
(0 -5.10753e-07 -0.00100151)
(0 -3.97239e-07 -0.00100119)
(0 -3.0966e-07 -0.00100095)
(0 -2.41988e-07 -0.00100075)
(0 -1.89603e-07 -0.0010006)
(0 -1.48961e-07 -0.00100048)
(0 -1.17344e-07 -0.00100038)
(0 -9.26691e-08 -0.0010003)
(0 -7.33414e-08 -0.00100024)
(0 -5.81461e-08 -0.00100019)
(0 -4.6164e-08 -0.00100015)
(0 -3.67062e-08 -0.00100012)
(0 -2.92632e-08 -0.00100009)
(0 -2.34661e-08 -0.00100007)
(0 -1.90499e-08 -0.00100005)
(0 -1.58097e-08 -0.00100004)
(0 -1.35053e-08 -0.00100002)
(0 -1.23426e-08 -0.00100001)
)
;
    }
    procBoundary1to0
    {
        type            processor;
        value           nonuniform List<vector> 
90
(
(1.64081e-09 -2.76313e-09 -0.001)
(2.95854e-09 -5.56033e-09 -0.000999999)
(4.52209e-09 -8.95354e-09 -0.000999997)
(6.17254e-09 -1.2858e-08 -0.000999994)
(7.90478e-09 -1.74696e-08 -0.00099999)
(9.72448e-09 -2.30432e-08 -0.000999985)
(1.16317e-08 -2.9888e-08 -0.000999979)
(1.36158e-08 -3.83829e-08 -0.000999972)
(1.56514e-08 -4.89879e-08 -0.000999964)
(1.76927e-08 -6.22772e-08 -0.000999954)
(1.96637e-08 -7.89679e-08 -0.000999942)
(2.1442e-08 -9.99641e-08 -0.000999927)
(2.28353e-08 -1.26414e-07 -0.000999907)
(2.35472e-08 -1.59784e-07 -0.000999881)
(2.31312e-08 -2.01958e-07 -0.000999848)
(2.09279e-08 -2.55363e-07 -0.000999805)
(1.59868e-08 -3.23126e-07 -0.000999747)
(6.96963e-09 -4.0928e-07 -0.000999673)
(-8.04406e-09 -5.19055e-07 -0.000999574)
(-3.20069e-08 -6.59348e-07 -0.000999444)
(-6.89988e-08 -8.39092e-07 -0.000999273)
(-1.24677e-07 -1.0699e-06 -0.000999047)
(-2.06813e-07 -1.36686e-06 -0.000998748)
(-3.25948e-07 -1.74962e-06 -0.000998355)
(-4.96552e-07 -2.2438e-06 -0.000997836)
(-7.38433e-07 -2.8828e-06 -0.00099715)
(-1.07858e-06 -3.71029e-06 -0.000996244)
(-1.55361e-06 -4.78335e-06 -0.000995047)
(-2.21316e-06 -6.17673e-06 -0.000993464)
(-3.12432e-06 -7.9884e-06 -0.000991369)
(-4.37771e-06 -1.03468e-05 -0.000988596)
(-6.09621e-06 -1.34218e-05 -0.00098495)
(-8.45221e-06 -1.74481e-05 -0.000980229)
(-1.17151e-05 -2.27967e-05 -0.000973777)
(-1.63351e-05 -3.00784e-05 -0.000962253)
(-2.1369e-05 -3.7695e-05 -0.000947559)
(-2.79159e-05 -4.74519e-05 -0.00095175)
(-3.15716e-05 -5.2496e-05 -0.00106609)
(-4.23031e-05 -6.33232e-05 -0.000393053)
(7.33741e-05 9.34044e-05 -0.00195163)
(-7.67859e-06 -7.50857e-06 -0.00168964)
(-4.26636e-05 -6.39865e-05 -0.00155231)
(-3.58583e-05 -5.26105e-05 -0.0024015)
(-7.46956e-05 -5.11365e-05 -0.00215967)
(-9.77248e-05 -6.60347e-05 -0.00242404)
(-6.58895e-05 -2.10131e-05 -0.00182295)
(-7.91789e-05 3.94528e-05 -0.00259733)
(-3.69752e-05 7.3638e-05 -0.00174912)
(-4.83643e-07 0.000101351 -0.00234088)
(-6.84294e-05 -2.49234e-06 -0.00228285)
(-5.39584e-05 -8.28315e-06 -0.00165404)
(-1.71318e-05 3.05209e-05 -0.0016241)
(-4.36616e-05 4.08425e-05 -0.00182513)
(2.45744e-06 -4.28487e-07 -0.000962946)
(7.41592e-05 3.59662e-05 -0.000872335)
(6.78734e-05 3.23624e-05 -0.000906951)
(5.30496e-05 2.42279e-05 -0.00093563)
(4.11163e-05 1.77235e-05 -0.000951238)
(3.19053e-05 1.29314e-05 -0.000962438)
(2.47953e-05 9.40882e-06 -0.00097111)
(1.93003e-05 6.82437e-06 -0.000977794)
(1.5047e-05 4.93038e-06 -0.000982916)
(1.17493e-05 3.54368e-06 -0.000986842)
(9.18834e-06 2.53329e-06 -0.000989852)
(7.1962e-06 1.79962e-06 -0.000992164)
(5.64405e-06 1.26849e-06 -0.00099394)
(4.43284e-06 8.85383e-07 -0.000995306)
(3.48629e-06 6.10352e-07 -0.000996359)
(2.74554e-06 4.14074e-07 -0.000997172)
(2.16509e-06 2.75039e-07 -0.0009978)
(1.70968e-06 1.77466e-07 -0.000998287)
(1.35193e-06 1.09792e-07 -0.000998664)
(1.07057e-06 6.35653e-08 -0.000998957)
(8.49039e-07 3.26223e-08 -0.000999184)
(6.7441e-07 1.24815e-08 -0.000999362)
(5.36579e-07 -1.57414e-10 -0.0009995)
(4.2762e-07 -7.72751e-09 -0.000999608)
(3.41385e-07 -1.18634e-08 -0.000999692)
(2.73033e-07 -1.37838e-08 -0.000999757)
(2.18774e-07 -1.43441e-08 -0.000999808)
(1.75643e-07 -1.41338e-08 -0.000999847)
(1.41324e-07 -1.3549e-08 -0.000999878)
(1.14016e-07 -1.28458e-08 -0.000999902)
(9.23226e-08 -1.21781e-08 -0.000999921)
(7.51722e-08 -1.16261e-08 -0.000999936)
(6.17469e-08 -1.12191e-08 -0.000999949)
(5.14179e-08 -1.09558e-08 -0.00099996)
(4.36617e-08 -1.08115e-08 -0.000999971)
(3.80248e-08 -1.06879e-08 -0.000999981)
(3.53243e-08 -1.04559e-08 -0.00099999)
)
;
    }
    procBoundary1to3
    {
        type            processor;
        value           nonuniform List<vector> 
90
(
(2.18645e-09 -2.21749e-09 -0.00100001)
(4.13008e-09 -4.38876e-09 -0.00100001)
(6.55937e-09 -6.91614e-09 -0.00100001)
(9.38532e-09 -9.64482e-09 -0.00100001)
(1.27533e-08 -1.26204e-08 -0.001)
(1.6859e-08 -1.59089e-08 -0.001)
(2.19397e-08 -1.95807e-08 -0.000999999)
(2.82888e-08 -2.37101e-08 -0.000999996)
(3.62644e-08 -2.8375e-08 -0.000999994)
(4.63156e-08 -3.36543e-08 -0.000999991)
(5.90085e-08 -3.96231e-08 -0.000999987)
(7.50633e-08 -4.6343e-08 -0.000999982)
(9.54043e-08 -5.3845e-08 -0.000999976)
(1.21227e-07 -6.2105e-08 -0.000999966)
(1.54084e-07 -7.1006e-08 -0.000999953)
(1.96005e-07 -8.02865e-08 -0.000999934)
(2.49642e-07 -8.94715e-08 -0.000999906)
(3.1847e-07 -9.77812e-08 -0.000999867)
(4.07042e-07 -1.03971e-07 -0.000999812)
(5.21326e-07 -1.06018e-07 -0.000999736)
(6.6915e-07 -1.00948e-07 -0.000999631)
(8.60789e-07 -8.44402e-08 -0.000999486)
(1.10971e-06 -5.03518e-08 -0.000999289)
(1.43345e-06 9.74824e-09 -0.000999019)
(1.85509e-06 1.07802e-07 -0.000998651)
(2.40505e-06 2.60611e-07 -0.000998151)
(3.12337e-06 4.91545e-07 -0.000997471)
(4.06273e-06 8.32828e-07 -0.000996549)
(5.29259e-06 1.32876e-06 -0.000995301)
(6.90449e-06 2.04002e-06 -0.000993613)
(9.01928e-06 3.04956e-06 -0.000991333)
(1.17981e-05 4.47133e-06 -0.000988285)
(1.5465e-05 6.46631e-06 -0.000984323)
(2.03673e-05 9.27935e-06 -0.000978867)
(2.70224e-05 1.32854e-05 -0.00096823)
(3.4208e-05 1.78669e-05 -0.000951157)
(4.40843e-05 2.45351e-05 -0.000950903)
(5.07478e-05 2.97987e-05 -0.00111321)
(5.73493e-05 3.61416e-05 -0.000321423)
(-5.44641e-05 -3.59552e-05 -0.00210758)
(2.69587e-06 2.41307e-06 -0.00157003)
(3.48473e-05 1.09175e-05 -0.00164705)
(5.55542e-05 3.35594e-05 -0.00283401)
(-9.43942e-06 1.04071e-05 -0.00161887)
(-7.05204e-05 -3.75918e-05 -0.00269103)
(-6.58611e-05 -9.66563e-06 -0.00204978)
(-6.3729e-05 8.59253e-05 -0.00251155)
(-6.10944e-05 7.11567e-05 -0.0020056)
(-5.8013e-05 3.45716e-05 -0.00268219)
(-7.24767e-05 -2.03322e-05 -0.00163001)
(-9.7587e-05 -3.96613e-05 -0.00276329)
(-6.11535e-05 -1.24734e-05 -0.00112298)
(-0.000138343 -4.1532e-05 -0.00201047)
(3.49069e-06 -2.45736e-05 -0.00105183)
(-1.68086e-05 -4.95002e-05 -0.000951928)
(-1.11323e-05 -4.52324e-05 -0.000956165)
(-6.33217e-06 -3.49848e-05 -0.000975875)
(-3.27905e-06 -2.66383e-05 -0.000983592)
(-1.33378e-06 -2.02907e-05 -0.000988424)
(-9.72635e-08 -1.54728e-05 -0.000991963)
(6.54028e-07 -1.18147e-05 -0.000994522)
(1.07972e-06 -9.03203e-06 -0.000996319)
(1.29171e-06 -6.91064e-06 -0.000997588)
(1.35895e-06 -5.29387e-06 -0.000998488)
(1.33468e-06 -4.06038e-06 -0.000999109)
(1.25635e-06 -3.1182e-06 -0.000999527)
(1.14914e-06 -2.39763e-06 -0.000999804)
(1.02952e-06 -1.84596e-06 -0.000999981)
(9.08025e-07 -1.42314e-06 -0.00100009)
(7.9109e-07 -1.09876e-06 -0.00100015)
(6.82422e-07 -8.49662e-07 -0.00100018)
(5.83885e-07 -6.58171e-07 -0.00100019)
(4.96145e-07 -5.10809e-07 -0.00100019)
(4.19109e-07 -3.97271e-07 -0.00100018)
(3.52226e-07 -3.09678e-07 -0.00100016)
(2.94723e-07 -2.41998e-07 -0.00100014)
(2.45729e-07 -1.89609e-07 -0.00100013)
(2.04278e-07 -1.48964e-07 -0.00100011)
(1.69467e-07 -1.17346e-07 -0.00100009)
(1.40445e-07 -9.26704e-08 -0.00100008)
(1.16433e-07 -7.33421e-08 -0.00100007)
(9.67253e-08 -5.81465e-08 -0.00100005)
(8.06966e-08 -4.61641e-08 -0.00100004)
(6.77941e-08 -3.67062e-08 -0.00100003)
(5.75346e-08 -2.92635e-08 -0.00100002)
(4.94996e-08 -2.34661e-08 -0.00100002)
(4.3323e-08 -1.90492e-08 -0.00100001)
(3.8658e-08 -1.5805e-08 -0.00100001)
(3.52131e-08 -1.35104e-08 -0.00100001)
(3.34381e-08 -1.23432e-08 -0.001)
)
;
    }
}


// ************************************************************************* //
