/*--------------------------------*- C++ -*----------------------------------*\
| =========                 |                                                 |
| \\      /  F ield         | OpenFOAM: The Open Source CFD Toolbox           |
|  \\    /   O peration     | Version:  5.x                                   |
|   \\  /    A nd           | Web:      www.OpenFOAM.org                      |
|    \\/     M anipulation  |                                                 |
\*---------------------------------------------------------------------------*/
FoamFile
{
    version     2.0;
    format      ascii;
    class       surfaceScalarField;
    location    "0.1";
    object      phi;
}
// * * * * * * * * * * * * * * * * * * * * * * * * * * * * * * * * * * * * * //

dimensions      [0 3 -1 0 0 0 0];

internalField   nonuniform List<scalar> 
5825
(
-4.12361e-17
-3.79154e-17
-9.99998e-10
-1.60334e-16
-5.91105e-17
-9.99998e-10
-2.29749e-16
-6.89776e-17
-9.99998e-10
-2.72727e-16
-7.43565e-17
-9.99999e-10
-7.74528e-17
-9.99999e-10
-6.24402e-17
-1.6026e-16
-9.99998e-10
-1.70184e-16
-1.74886e-16
-9.99998e-10
-2.3579e-16
-1.67502e-16
-9.99998e-10
-2.76449e-16
-1.50335e-16
-9.99999e-10
-1.34812e-16
-9.99999e-10
-7.69798e-17
-2.29693e-16
-9.99998e-10
-1.63115e-16
-2.38245e-16
-9.99998e-10
-2.18698e-16
-2.19742e-16
-9.99999e-10
-2.60617e-16
-1.86704e-16
-9.99999e-10
-1.61908e-16
-1e-09
-8.53442e-17
-2.70667e-16
-9.99999e-10
-1.44993e-16
-2.65243e-16
-9.99999e-10
-1.85704e-16
-2.42582e-16
-9.99999e-10
-2.3455e-16
-2.15786e-16
-9.99999e-10
-2.04183e-16
-1e-09
-7.81647e-17
-9.99999e-10
-1.205e-16
-9.99999e-10
-1.57681e-16
-9.99999e-10
-2.21078e-16
-1e-09
-1e-09
-1.34183e-16
-1.25609e-16
-9.99998e-10
-4.39173e-16
-1.82238e-16
-9.99998e-10
-6.14e-16
-1.97374e-16
-9.99998e-10
-6.97899e-16
-1.95296e-16
-9.99999e-10
-1.84503e-16
-9.99999e-10
-1.90845e-16
-4.36309e-16
-9.99998e-10
-4.54692e-16
-4.61955e-16
-9.99998e-10
-6.13653e-16
-4.32667e-16
-9.99998e-10
-6.8827e-16
-3.78448e-16
-9.99999e-10
-3.2731e-16
-9.99999e-10
-2.16405e-16
-6.03766e-16
-9.99998e-10
-4.26169e-16
-6.06269e-16
-9.99998e-10
-5.59642e-16
-5.48495e-16
-9.99999e-10
-6.33331e-16
-4.59348e-16
-9.99999e-10
-4.0226e-16
-9.99999e-10
-2.18485e-16
-6.78836e-16
-9.99999e-10
-3.69349e-16
-6.42102e-16
-9.99999e-10
-4.7067e-16
-5.75397e-16
-9.99999e-10
-5.66257e-16
-5.13815e-16
-9.99999e-10
-5.05423e-16
-1e-09
-1.79157e-16
-9.99999e-10
-3.01509e-16
-9.99999e-10
-4.09795e-16
-9.99999e-10
-5.52425e-16
-1e-09
-1e-09
-3.00271e-16
-2.79099e-16
-9.99997e-10
-7.56327e-16
-3.38918e-16
-9.99998e-10
-1.02968e-15
-3.40529e-16
-9.99998e-10
-1.13124e-15
-3.16378e-16
-9.99998e-10
-2.82652e-16
-9.99999e-10
-3.60261e-16
-7.24889e-16
-9.99998e-10
-7.59078e-16
-7.36407e-16
-9.99998e-10
-1.00866e-15
-6.84139e-16
-9.99998e-10
-1.09919e-15
-6.02887e-16
-9.99999e-10
-5.21753e-16
-9.99999e-10
-3.71578e-16
-9.65379e-16
-9.99998e-10
-7.07505e-16
-9.43361e-16
-9.99998e-10
-9.2721e-16
-8.59448e-16
-9.99998e-10
-1.01106e-15
-7.41545e-16
-9.99999e-10
-6.71951e-16
-9.99999e-10
-3.48025e-16
-1.03969e-15
-9.99998e-10
-6.2413e-16
-9.77452e-16
-9.99998e-10
-8.09537e-16
-8.87622e-16
-9.99999e-10
-9.27223e-16
-8.12386e-16
-9.99999e-10
-7.88481e-16
-1e-09
-2.82734e-16
-9.99999e-10
-5.36378e-16
-9.99999e-10
-7.46319e-16
-9.99999e-10
-9.03956e-16
-1e-09
-1e-09
-5.11282e-16
-4.60472e-16
-9.99997e-10
-1.10704e-15
-5.01302e-16
-9.99997e-10
-1.49081e-15
-4.86902e-16
-9.99997e-10
-1.64844e-15
-4.50804e-16
-9.99998e-10
-4.08121e-16
-9.99999e-10
-5.52137e-16
-1.00755e-15
-9.99997e-10
-1.09568e-15
-9.98347e-16
-9.99997e-10
-1.45984e-15
-9.36749e-16
-9.99998e-10
-1.6106e-15
-8.55512e-16
-9.99998e-10
-7.76717e-16
-9.99999e-10
-5.40328e-16
-1.32176e-15
-9.99997e-10
-1.03447e-15
-1.28531e-15
-9.99997e-10
-1.37927e-15
-1.20538e-15
-9.99998e-10
-1.52184e-15
-1.1038e-15
-9.99999e-10
-1.05558e-15
-9.99999e-10
-5.00193e-16
-1.42175e-15
-9.99998e-10
-9.54727e-16
-1.36928e-15
-9.99998e-10
-1.27743e-15
-1.29188e-15
-9.99998e-10
-1.4409e-15
-1.22399e-15
-9.99999e-10
-1.20562e-15
-1e-09
-4.45041e-16
-9.99998e-10
-8.86369e-16
-9.99998e-10
-1.24148e-15
-9.99999e-10
-1.42626e-15
-1e-09
-1e-09
-7.60365e-16
-6.59857e-16
-9.99996e-10
-1.53282e-15
-6.78671e-16
-9.99996e-10
-2.07026e-15
-6.59084e-16
-9.99996e-10
-2.35991e-15
-6.29508e-16
-9.99997e-10
-5.91508e-16
-9.99998e-10
-7.79295e-16
-1.32657e-15
-9.99996e-10
-1.51886e-15
-1.30611e-15
-9.99996e-10
-2.04849e-15
-1.24984e-15
-9.99997e-10
-2.33061e-15
-1.18754e-15
-9.99998e-10
-1.12899e-15
-9.99999e-10
-7.53724e-16
-1.75747e-15
-9.99996e-10
-1.46273e-15
-1.72752e-15
-9.99997e-10
-1.98677e-15
-1.66609e-15
-9.99997e-10
-2.26579e-15
-1.59111e-15
-9.99998e-10
-1.55522e-15
-9.99999e-10
-7.18513e-16
-1.95577e-15
-9.99997e-10
-1.40085e-15
-1.93441e-15
-9.99997e-10
-1.91176e-15
-1.87737e-15
-9.99998e-10
-2.17309e-15
-1.78921e-15
-9.99999e-10
-1.666e-15
-1e-09
-6.92212e-16
-9.99998e-10
-1.35193e-15
-9.99998e-10
-1.88253e-15
-9.99999e-10
-2.05445e-15
-9.99999e-10
-1e-09
-1.06675e-15
-8.96737e-16
-9.99994e-10
-2.09372e-15
-9.06052e-16
-9.99994e-10
-2.85059e-15
-8.93854e-16
-9.99995e-10
-3.32434e-15
-8.78708e-16
-9.99996e-10
-8.48588e-16
-9.99997e-10
-1.07689e-15
-1.75096e-15
-9.99994e-10
-2.08839e-15
-1.73331e-15
-9.99995e-10
-2.84389e-15
-1.68673e-15
-9.99995e-10
-3.30688e-15
-1.6404e-15
-9.99996e-10
-1.59715e-15
-9.99998e-10
-1.05382e-15
-2.368e-15
-9.99995e-10
-2.04152e-15
-2.35083e-15
-9.99995e-10
-2.79764e-15
-2.29584e-15
-9.99996e-10
-3.26353e-15
-2.23091e-15
-9.99997e-10
-2.15813e-15
-9.99998e-10
-1.03102e-15
-2.73005e-15
-9.99996e-10
-1.98611e-15
-2.72206e-15
-9.99996e-10
-2.73252e-15
-2.66181e-15
-9.99997e-10
-3.16641e-15
-2.55415e-15
-9.99998e-10
-2.33489e-15
-9.99999e-10
-1.01559e-15
-9.99997e-10
-1.92869e-15
-9.99997e-10
-2.65198e-15
-9.99998e-10
-2.95783e-15
-9.99999e-10
-1e-09
-1.47529e-15
-1.21688e-15
-9.99991e-10
-2.85137e-15
-1.22901e-15
-9.99992e-10
-3.90223e-15
-1.2242e-15
-9.99993e-10
-4.58559e-15
-1.2149e-15
-9.99994e-10
-1.195e-15
-9.99996e-10
-1.48901e-15
-2.34559e-15
-9.99992e-10
-2.85341e-15
-2.3355e-15
-9.99992e-10
-3.90115e-15
-2.29361e-15
-9.99993e-10
-4.58061e-15
-2.25237e-15
-9.99995e-10
-2.22655e-15
-9.99996e-10
-1.47396e-15
-3.21273e-15
-9.99993e-10
-2.81123e-15
-3.19687e-15
-9.99993e-10
-3.86035e-15
-3.13464e-15
-9.99994e-10
-4.5541e-15
-3.06384e-15
-9.99996e-10
-2.99292e-15
-9.99997e-10
-1.45069e-15
-3.76298e-15
-9.99994e-10
-2.74865e-15
-3.7417e-15
-9.99994e-10
-3.78934e-15
-3.66958e-15
-9.99995e-10
-4.4717e-15
-3.56382e-15
-9.99997e-10
-3.39568e-15
-9.99999e-10
-1.42023e-15
-9.99995e-10
-2.68017e-15
-9.99996e-10
-3.69709e-15
-9.99997e-10
-4.30249e-15
-9.99998e-10
-1e-09
-2.03378e-15
-1.66723e-15
-9.99988e-10
-3.86411e-15
-1.67966e-15
-9.99988e-10
-5.2943e-15
-1.67072e-15
-9.9999e-10
-6.21944e-15
-1.65546e-15
-9.99992e-10
-1.64856e-15
-9.99994e-10
-2.04782e-15
-3.16211e-15
-9.99988e-10
-3.86323e-15
-3.15363e-15
-9.99989e-10
-5.29046e-15
-3.11556e-15
-9.9999e-10
-6.22828e-15
-3.08032e-15
-9.99992e-10
-3.07726e-15
-9.99995e-10
-2.03293e-15
-4.33651e-15
-9.99989e-10
-3.82489e-15
-4.31289e-15
-9.9999e-10
-5.2568e-15
-4.25366e-15
-9.99992e-10
-6.22293e-15
-4.19015e-15
-9.99994e-10
-4.17788e-15
-9.99996e-10
-1.99859e-15
-5.08681e-15
-9.99991e-10
-3.76438e-15
-5.0509e-15
-9.99992e-10
-5.19344e-15
-4.9916e-15
-9.99993e-10
-6.19404e-15
-4.93815e-15
-9.99995e-10
-4.90803e-15
-9.99997e-10
-1.95048e-15
-9.99993e-10
-3.70699e-15
-9.99994e-10
-5.15899e-15
-9.99995e-10
-6.16576e-15
-9.99997e-10
-1e-09
-2.77631e-15
-2.27653e-15
-9.99983e-10
-5.21149e-15
-2.27677e-15
-9.99984e-10
-7.14374e-15
-2.25624e-15
-9.99986e-10
-8.38655e-15
-2.23738e-15
-9.99988e-10
-2.24322e-15
-9.99991e-10
-2.77737e-15
-4.26536e-15
-9.99984e-10
-5.20265e-15
-4.25461e-15
-9.99985e-10
-7.14071e-15
-4.22824e-15
-9.99986e-10
-8.41104e-15
-4.21038e-15
-9.99989e-10
-4.22866e-15
-9.99992e-10
-2.75692e-15
-5.83647e-15
-9.99985e-10
-5.1764e-15
-5.81323e-15
-9.99986e-10
-7.12493e-15
-5.77873e-15
-9.99988e-10
-8.42526e-15
-5.74509e-15
-9.99991e-10
-5.80172e-15
-9.99994e-10
-2.72018e-15
-6.84329e-15
-9.99987e-10
-5.14036e-15
-6.81162e-15
-9.99988e-10
-7.0921e-15
-6.78204e-15
-9.9999e-10
-8.4604e-15
-6.79689e-15
-9.99993e-10
-6.91653e-15
-9.99996e-10
-2.67127e-15
-9.9999e-10
-5.11208e-15
-9.99991e-10
-7.12883e-15
-9.99993e-10
-8.58425e-15
-9.99995e-10
-9.99998e-10
-3.74297e-15
-3.07549e-15
-9.99976e-10
-7.03001e-15
-3.06189e-15
-9.99977e-10
-9.65241e-15
-3.03895e-15
-9.9998e-10
-1.13391e-14
-3.02897e-15
-9.99983e-10
-3.04695e-15
-9.99988e-10
-3.73041e-15
-5.76999e-15
-9.99977e-10
-7.02231e-15
-5.76531e-15
-9.99978e-10
-9.66387e-15
-5.75961e-15
-9.99981e-10
-1.13824e-14
-5.7654e-15
-9.99985e-10
-5.79387e-15
-9.99989e-10
-3.71288e-15
-7.89679e-15
-9.99979e-10
-7.01723e-15
-7.89293e-15
-9.99981e-10
-9.67184e-15
-7.89222e-15
-9.99983e-10
-1.14094e-14
-7.89039e-15
-9.99987e-10
-7.9624e-15
-9.99991e-10
-3.69134e-15
-9.27041e-15
-9.99982e-10
-7.01531e-15
-9.26147e-15
-9.99984e-10
-9.67107e-15
-9.25758e-15
-9.99986e-10
-1.14607e-14
-9.28615e-15
-9.9999e-10
-9.41884e-15
-9.99994e-10
-3.65902e-15
-9.99986e-10
-7.01057e-15
-9.99987e-10
-9.72187e-15
-9.9999e-10
-1.15964e-14
-9.99993e-10
-9.99997e-10
-5.02882e-15
-4.14107e-15
-9.99967e-10
-9.5319e-15
-4.13455e-15
-9.99968e-10
-1.31117e-14
-4.12316e-15
-9.99972e-10
-1.54089e-14
-4.12935e-15
-9.99977e-10
-4.15889e-15
-9.99983e-10
-5.02383e-15
-7.85513e-15
-9.99968e-10
-9.54127e-15
-7.87032e-15
-9.9997e-10
-1.31476e-14
-7.88221e-15
-9.99974e-10
-1.54739e-14
-7.90289e-15
-9.99979e-10
-7.9266e-15
-9.99984e-10
-5.02142e-15
-1.07719e-14
-9.99971e-10
-9.55388e-15
-1.0798e-14
-9.99973e-10
-1.31701e-14
-1.08187e-14
-9.99977e-10
-1.55014e-14
-1.08325e-14
-9.99982e-10
-1.08601e-14
-9.99987e-10
-5.02315e-15
-1.26541e-14
-9.99975e-10
-9.57343e-15
-1.26756e-14
-9.99977e-10
-1.31845e-14
-1.26834e-14
-9.99981e-10
-1.55252e-14
-1.26794e-14
-9.99986e-10
-1.27228e-14
-9.99991e-10
-5.0139e-15
-9.9998e-10
-9.57631e-15
-9.99982e-10
-1.31879e-14
-9.99986e-10
-1.55679e-14
-9.9999e-10
-9.99996e-10
-6.80718e-15
-5.62004e-15
-9.99954e-10
-1.29969e-14
-5.6417e-15
-9.99957e-10
-1.78895e-14
-5.64468e-15
-9.99962e-10
-2.1017e-14
-5.65869e-15
-9.99968e-10
-5.68851e-15
-9.99976e-10
-6.83132e-15
-1.07498e-14
-9.99956e-10
-1.30287e-14
-1.07872e-14
-9.99959e-10
-1.79441e-14
-1.07984e-14
-9.99964e-10
-2.10944e-14
-1.08078e-14
-9.99971e-10
-1.08086e-14
-9.99978e-10
-6.8446e-15
-1.476e-14
-9.9996e-10
-1.30403e-14
-1.48074e-14
-9.99963e-10
-1.7956e-14
-1.48204e-14
-9.99968e-10
-2.1101e-14
-1.48162e-14
-9.99975e-10
-1.47873e-14
-9.99982e-10
-6.85897e-15
-1.73247e-14
-9.99966e-10
-1.30512e-14
-1.737e-14
-9.99969e-10
-1.7952e-14
-1.73712e-14
-9.99974e-10
-2.10717e-14
-1.73173e-14
-9.9998e-10
-1.72436e-14
-9.99988e-10
-6.86414e-15
-9.99973e-10
-1.30463e-14
-9.99975e-10
-1.79011e-14
-9.9998e-10
-2.09971e-14
-9.99987e-10
-9.99994e-10
-9.30398e-15
-7.70176e-15
-9.99937e-10
-1.77644e-14
-7.74993e-15
-9.99941e-10
-2.44404e-14
-7.75408e-15
-9.99947e-10
-2.87049e-14
-7.7541e-15
-9.99957e-10
-7.75562e-15
-9.99967e-10
-9.35585e-15
-1.47233e-14
-9.9994e-10
-1.78077e-14
-1.47688e-14
-9.99944e-10
-2.44951e-14
-1.47535e-14
-9.9995e-10
-2.87703e-14
-1.4719e-14
-9.9996e-10
-1.46684e-14
-9.9997e-10
-9.36927e-15
-2.02158e-14
-9.99946e-10
-1.77924e-14
-2.02625e-14
-9.99949e-10
-2.44644e-14
-2.0234e-14
-9.99956e-10
-2.87254e-14
-2.01729e-14
-9.99965e-10
-2.00852e-14
-9.99976e-10
-9.37181e-15
-2.37108e-14
-9.99953e-10
-1.77597e-14
-2.37584e-14
-9.99957e-10
-2.44029e-14
-2.37238e-14
-9.99963e-10
-2.86332e-14
-2.36158e-14
-9.99972e-10
-2.34448e-14
-9.99983e-10
-9.36733e-15
-9.99962e-10
-1.77206e-14
-9.99966e-10
-2.4302e-14
-9.99972e-10
-2.84644e-14
-9.99981e-10
-9.99992e-10
-1.27656e-14
-1.05869e-14
-9.99914e-10
-2.42593e-14
-1.06358e-14
-9.99919e-10
-3.33548e-14
-1.06177e-14
-9.99928e-10
-3.91883e-14
-1.05794e-14
-9.9994e-10
-1.05207e-14
-9.99955e-10
-1.28198e-14
-2.01122e-14
-9.99918e-10
-2.42935e-14
-2.01425e-14
-9.99923e-10
-3.33892e-14
-2.00769e-14
-9.99932e-10
-3.92164e-14
-1.99762e-14
-9.99944e-10
-1.98502e-14
-9.99959e-10
-1.28078e-14
-2.76043e-14
-9.99925e-10
-2.42277e-14
-2.76276e-14
-9.9993e-10
-3.32936e-14
-2.75334e-14
-9.99939e-10
-3.90982e-14
-2.7393e-14
-9.99952e-10
-2.72366e-14
-9.99966e-10
-1.27718e-14
-3.23951e-14
-9.99936e-10
-2.41274e-14
-3.24148e-14
-9.99941e-10
-3.31528e-14
-3.23118e-14
-9.99949e-10
-3.8936e-14
-3.21426e-14
-9.99962e-10
-3.18831e-14
-9.99976e-10
-1.27216e-14
-9.99948e-10
-2.40194e-14
-9.99953e-10
-3.29925e-14
-9.99961e-10
-3.86835e-14
-9.99974e-10
-9.99988e-10
-1.7468e-14
-1.44952e-14
-9.99882e-10
-3.30527e-14
-1.4513e-14
-9.99889e-10
-4.5436e-14
-1.44508e-14
-9.99901e-10
-5.34213e-14
-1.43601e-14
-9.99918e-10
-1.42312e-14
-9.99938e-10
-1.7493e-14
-2.73806e-14
-9.99887e-10
-3.306e-14
-2.73755e-14
-9.99894e-10
-4.54426e-14
-2.72479e-14
-9.99906e-10
-5.34093e-14
-2.70769e-14
-9.99923e-10
-2.68738e-14
-9.99943e-10
-1.74319e-14
-3.75796e-14
-9.99898e-10
-3.29325e-14
-3.75682e-14
-9.99904e-10
-4.52784e-14
-3.74024e-14
-9.99916e-10
-5.32166e-14
-3.71803e-14
-9.99933e-10
-3.69342e-14
-9.99953e-10
-1.73408e-14
-4.41556e-14
-9.99912e-10
-3.27594e-14
-4.41274e-14
-9.99918e-10
-4.50565e-14
-4.39357e-14
-9.9993e-10
-5.29708e-14
-4.36894e-14
-9.99947e-10
-4.3342e-14
-9.99966e-10
-1.72187e-14
-9.99928e-10
-3.25603e-14
-9.99934e-10
-4.48125e-14
-9.99946e-10
-5.26282e-14
-9.99963e-10
-9.99982e-10
-2.37829e-14
-1.97281e-14
-9.99838e-10
-4.49542e-14
-1.97002e-14
-9.99847e-10
-6.1816e-14
-1.95891e-14
-9.99864e-10
-7.27159e-14
-1.94488e-14
-9.99887e-10
-1.92661e-14
-9.99914e-10
-2.37644e-14
-3.72077e-14
-9.99846e-10
-4.49361e-14
-3.71673e-14
-9.99855e-10
-6.18074e-14
-3.69809e-14
-9.99871e-10
-7.2689e-14
-3.67385e-14
-9.99894e-10
-3.64606e-14
-9.99921e-10
-2.36492e-14
-5.10953e-14
-9.9986e-10
-4.47505e-14
-5.10564e-14
-9.99869e-10
-6.15747e-14
-5.0819e-14
-9.99885e-10
-7.24209e-14
-5.04995e-14
-9.99908e-10
-5.0129e-14
-9.99935e-10
-2.35034e-14
-6.0069e-14
-9.99879e-10
-4.4504e-14
-6.00008e-14
-9.99888e-10
-6.12559e-14
-5.97123e-14
-9.99904e-10
-7.20482e-14
-5.93499e-14
-9.99927e-10
-5.88442e-14
-9.99953e-10
-2.33104e-14
-9.99901e-10
-4.42073e-14
-9.9991e-10
-6.08967e-14
-9.99926e-10
-7.15464e-14
-9.99949e-10
-9.99975e-10
-3.22812e-14
-2.67669e-14
-9.99779e-10
-6.11262e-14
-2.67123e-14
-9.99791e-10
-8.40933e-14
-2.65642e-14
-9.99814e-10
-9.89097e-14
-2.63785e-14
-9.99845e-10
-2.61524e-14
-9.99882e-10
-3.22392e-14
-5.05904e-14
-9.99789e-10
-6.11038e-14
-5.05361e-14
-9.99802e-10
-8.40863e-14
-5.02909e-14
-9.99824e-10
-9.88928e-14
-4.99552e-14
-9.99855e-10
-4.95775e-14
-9.99892e-10
-3.20847e-14
-6.952e-14
-9.99808e-10
-6.086e-14
-6.94685e-14
-9.9982e-10
-8.37639e-14
-6.91415e-14
-9.99843e-10
-9.85235e-14
-6.86787e-14
-9.99874e-10
-6.81406e-14
-9.99911e-10
-3.1889e-14
-8.16901e-14
-9.99834e-10
-6.05212e-14
-8.16084e-14
-9.99846e-10
-8.33019e-14
-8.12126e-14
-9.99869e-10
-9.79722e-14
-8.06852e-14
-9.999e-10
-7.99659e-14
-9.99936e-10
-3.16398e-14
-9.99865e-10
-6.0118e-14
-9.99877e-10
-8.27867e-14
-9.99899e-10
-9.72533e-14
-9.9993e-10
-9.99966e-10
-4.38312e-14
-3.63607e-14
-9.99698e-10
-8.31884e-14
-3.63162e-14
-9.99715e-10
-1.14464e-13
-3.61311e-14
-9.99746e-10
-1.34558e-13
-3.58789e-14
-9.99789e-10
-3.55882e-14
-9.99839e-10
-4.38039e-14
-6.89208e-14
-9.99713e-10
-8.3174e-14
-6.88679e-14
-9.99729e-10
-1.14454e-13
-6.85335e-14
-9.9976e-10
-1.34551e-13
-6.80544e-14
-9.99803e-10
-6.7519e-14
-9.99853e-10
-4.36156e-14
-9.47303e-14
-9.99738e-10
-8.28414e-14
-9.46661e-14
-9.99755e-10
-1.13993e-13
-9.42035e-14
-9.99786e-10
-1.34028e-13
-9.3535e-14
-9.99828e-10
-9.27764e-14
-9.99878e-10
-4.33559e-14
-1.11222e-13
-9.99774e-10
-8.23636e-14
-1.1114e-13
-9.99791e-10
-1.13325e-13
-1.10603e-13
-9.99821e-10
-1.3325e-13
-1.09853e-13
-9.99863e-10
-1.08899e-13
-9.99913e-10
-4.30465e-14
-9.99816e-10
-8.18164e-14
-9.99832e-10
-1.12593e-13
-9.99863e-10
-1.32293e-13
-9.99904e-10
-9.99953e-10
-5.9646e-14
-4.95574e-14
-9.99589e-10
-1.1332e-13
-4.95345e-14
-9.99612e-10
-1.55897e-13
-4.92778e-14
-9.99654e-10
-1.83196e-13
-4.89102e-14
-9.99713e-10
-4.84986e-14
-9.99781e-10
-5.96468e-14
-9.40538e-14
-9.99608e-10
-1.13295e-13
-9.39832e-14
-9.99632e-10
-1.55859e-13
-9.34936e-14
-9.99674e-10
-1.83171e-13
-9.27962e-14
-9.99732e-10
-9.20068e-14
-9.998e-10
-5.93923e-14
-1.29234e-13
-9.99644e-10
-1.12808e-13
-1.29133e-13
-9.99667e-10
-1.55185e-13
-1.28459e-13
-9.99709e-10
-1.82404e-13
-1.27499e-13
-9.99767e-10
-1.2641e-13
-9.99834e-10
-5.9026e-14
-1.51655e-13
-9.99693e-10
-1.12114e-13
-1.51547e-13
-9.99715e-10
-1.54225e-13
-1.50783e-13
-9.99757e-10
-1.81302e-13
-1.49695e-13
-9.99814e-10
-1.48402e-13
-9.99882e-10
-5.86089e-14
-9.9975e-10
-1.11331e-13
-9.99772e-10
-1.5315e-13
-9.99814e-10
-1.80007e-13
-9.9987e-10
-9.99937e-10
-8.13144e-14
-6.77176e-14
-9.9944e-10
-1.54439e-13
-6.76826e-14
-9.99472e-10
-2.12429e-13
-6.72938e-14
-9.99529e-10
-2.49652e-13
-6.67435e-14
-9.99609e-10
-6.61128e-14
-9.99702e-10
-8.13117e-14
-1.28455e-13
-9.99467e-10
-1.54365e-13
-1.28318e-13
-9.99498e-10
-2.12325e-13
-1.27581e-13
-9.99556e-10
-2.49545e-13
-1.26553e-13
-9.99635e-10
-1.25364e-13
-9.99728e-10
-8.09252e-14
-1.76417e-13
-9.99515e-10
-1.53631e-13
-1.76229e-13
-9.99547e-10
-2.11328e-13
-1.75226e-13
-9.99604e-10
-2.48392e-13
-1.73822e-13
-9.99682e-10
-1.72204e-13
-9.99775e-10
-8.03794e-14
-2.06969e-13
-9.99582e-10
-1.52602e-13
-2.06771e-13
-9.99613e-10
-2.09925e-13
-2.05623e-13
-9.99669e-10
-2.46771e-13
-2.03987e-13
-9.99747e-10
-2.02069e-13
-9.99839e-10
-7.97626e-14
-9.9966e-10
-1.51424e-13
-9.99691e-10
-2.08295e-13
-9.99746e-10
-2.44855e-13
-9.99824e-10
-9.99914e-10
-1.10918e-13
-9.26223e-14
-9.99237e-10
-2.10515e-13
-9.2518e-14
-9.9928e-10
-2.89568e-13
-9.1922e-14
-9.99358e-10
-3.40425e-13
-9.10943e-14
-9.99467e-10
-9.01159e-14
-9.99595e-10
-1.10858e-13
-1.75498e-13
-9.99273e-10
-2.10345e-13
-1.75234e-13
-9.99316e-10
-2.89343e-13
-1.74122e-13
-9.99395e-10
-3.40155e-13
-1.7259e-13
-9.99503e-10
-1.70798e-13
-9.9963e-10
-1.10255e-13
-2.40924e-13
-9.9934e-10
-2.09238e-13
-2.40573e-13
-9.99382e-10
-2.87854e-13
-2.39058e-13
-9.9946e-10
-3.38416e-13
-2.36963e-13
-9.99567e-10
-2.34533e-13
-9.99694e-10
-1.09421e-13
-2.82559e-13
-9.99431e-10
-2.07691e-13
-2.82176e-13
-9.99473e-10
-2.85761e-13
-2.8041e-13
-9.9955e-10
-3.35991e-13
-2.77926e-13
-9.99656e-10
-2.75001e-13
-9.99781e-10
-1.08471e-13
-9.99538e-10
-2.05883e-13
-9.99579e-10
-2.83278e-13
-9.99655e-10
-3.33072e-13
-9.9976e-10
-9.99883e-10
-1.51281e-13
-1.26716e-13
-9.98959e-10
-2.86991e-13
-1.26486e-13
-9.99017e-10
-3.94827e-13
-1.25583e-13
-9.99125e-10
-4.6432e-13
-1.24338e-13
-9.99273e-10
-1.22863e-13
-9.99447e-10
-1.51111e-13
-2.39887e-13
-9.99009e-10
-2.86663e-13
-2.3942e-13
-9.99068e-10
-3.94397e-13
-2.3775e-13
-9.99174e-10
-4.63802e-13
-2.35451e-13
-9.99322e-10
-2.32765e-13
-9.99495e-10
-1.50188e-13
-3.29194e-13
-9.991e-10
-2.85002e-13
-3.28564e-13
-9.99158e-10
-3.92157e-13
-3.26267e-13
-9.99264e-10
-4.61188e-13
-3.23107e-13
-9.9941e-10
-3.19451e-13
-9.99583e-10
-1.48908e-13
-3.85906e-13
-9.99225e-10
-2.82665e-13
-3.85186e-13
-9.99282e-10
-3.89002e-13
-3.82467e-13
-9.99387e-10
-4.57541e-13
-3.78698e-13
-9.99532e-10
-3.7427e-13
-9.99702e-10
-1.47425e-13
-9.99371e-10
-2.79893e-13
-9.99428e-10
-3.85235e-13
-9.99531e-10
-4.53121e-13
-9.99673e-10
-9.99841e-10
-2.06311e-13
-1.7344e-13
-9.98579e-10
-3.91337e-13
-1.73026e-13
-9.98659e-10
-5.38461e-13
-1.71666e-13
-9.98806e-10
-6.334e-13
-1.69798e-13
-9.99008e-10
-1.67618e-13
-9.99246e-10
-2.0598e-13
-3.28197e-13
-9.98648e-10
-3.90757e-13
-3.27415e-13
-9.98728e-10
-5.37695e-13
-3.24894e-13
-9.98874e-10
-6.32512e-13
-3.21429e-13
-9.99075e-10
-3.17403e-13
-9.99312e-10
-2.04585e-13
-4.50174e-13
-9.98773e-10
-3.88252e-13
-4.49088e-13
-9.98853e-10
-5.34311e-13
-4.45591e-13
-9.98997e-10
-6.2858e-13
-4.408e-13
-9.99196e-10
-4.3525e-13
-9.99431e-10
-2.02626e-13
-5.27412e-13
-9.98945e-10
-3.84706e-13
-5.26123e-13
-9.99023e-10
-5.29532e-13
-5.21939e-13
-9.99166e-10
-6.23042e-13
-5.16186e-13
-9.99362e-10
-5.09461e-13
-9.99594e-10
-2.00313e-13
-9.99145e-10
-3.80459e-13
-9.99222e-10
-5.2379e-13
-9.99362e-10
-6.16324e-13
-9.99556e-10
-9.99784e-10
-2.81424e-13
-2.37631e-13
-9.9806e-10
-5.33794e-13
-2.36947e-13
-9.98169e-10
-7.34503e-13
-2.34893e-13
-9.9837e-10
-8.64198e-13
-2.32087e-13
-9.98646e-10
-2.28853e-13
-9.9897e-10
-2.80854e-13
-4.49583e-13
-9.98155e-10
-5.32797e-13
-4.48286e-13
-9.98264e-10
-7.33185e-13
-4.44444e-13
-9.98464e-10
-8.62705e-13
-4.39208e-13
-9.98738e-10
-4.3316e-13
-9.99061e-10
-2.78739e-13
-6.16285e-13
-9.98328e-10
-5.28986e-13
-6.1445e-13
-9.98436e-10
-7.28065e-13
-6.0909e-13
-9.98633e-10
-8.56781e-13
-6.01797e-13
-9.98905e-10
-5.93363e-13
-9.99225e-10
-2.75738e-13
-7.21487e-13
-9.98564e-10
-5.2357e-13
-7.19254e-13
-9.9867e-10
-7.20799e-13
-7.12787e-13
-9.98865e-10
-8.48362e-13
-7.03985e-13
-9.99132e-10
-6.9377e-13
-9.99448e-10
-2.72139e-13
-9.98839e-10
-5.17032e-13
-9.98944e-10
-7.1202e-13
-9.99134e-10
-8.38157e-13
-9.99397e-10
-9.99707e-10
-3.84109e-13
-3.26036e-13
-9.97349e-10
-7.28377e-13
-3.24914e-13
-9.975e-10
-1.00212e-12
-3.21796e-13
-9.97774e-10
-1.17925e-12
-3.17582e-13
-9.98151e-10
-3.12756e-13
-9.98594e-10
-3.83152e-13
-6.16774e-13
-9.97481e-10
-7.2669e-13
-6.14607e-13
-9.97631e-10
-9.99922e-13
-6.08731e-13
-9.97903e-10
-1.17677e-12
-6.00836e-13
-9.98278e-10
-5.91804e-13
-9.98718e-10
-3.79905e-13
-8.44734e-13
-9.9772e-10
-7.20871e-13
-8.41651e-13
-9.97868e-10
-9.92196e-13
-8.33414e-13
-9.98137e-10
-1.1679e-12
-8.22355e-13
-9.98507e-10
-8.0969e-13
-9.98943e-10
-3.75281e-13
-9.88044e-13
-9.98045e-10
-7.12583e-13
-9.84242e-13
-9.9819e-10
-9.81193e-13
-9.74231e-13
-9.98455e-10
-1.15525e-12
-9.60807e-13
-9.98819e-10
-9.45444e-13
-9.99249e-10
-3.69672e-13
-9.98424e-10
-7.02501e-13
-9.98566e-10
-9.67821e-13
-9.98825e-10
-1.13991e-12
-9.99182e-10
-9.99604e-10
-5.24781e-13
-4.48024e-13
-9.96376e-10
-9.94306e-13
-4.46125e-13
-9.96584e-10
-1.3675e-12
-4.41388e-13
-9.96959e-10
-1.60919e-12
-4.35086e-13
-9.97474e-10
-4.27976e-13
-9.98078e-10
-5.2314e-13
-8.47606e-13
-9.96558e-10
-9.91503e-13
-8.43943e-13
-9.96765e-10
-1.36391e-12
-8.34979e-13
-9.97137e-10
-1.60521e-12
-8.23165e-13
-9.97648e-10
-8.09869e-13
-9.98249e-10
-5.18082e-13
-1.15938e-12
-9.9689e-10
-9.82646e-13
-1.15419e-12
-9.97093e-10
-1.35235e-12
-1.14158e-12
-9.9746e-10
-1.59212e-12
-1.12495e-12
-9.97965e-10
-1.10624e-12
-9.9856e-10
-5.10895e-13
-1.35471e-12
-9.97339e-10
-9.70008e-13
-1.34828e-12
-9.97537e-10
-1.33584e-12
-1.33278e-12
-9.97898e-10
-1.57342e-12
-1.31239e-12
-9.98394e-10
-1.28953e-12
-9.9898e-10
-5.02116e-13
-9.97862e-10
-9.54468e-13
-9.98054e-10
-1.31558e-12
-9.98406e-10
-1.55062e-12
-9.98892e-10
-9.99466e-10
-7.18177e-13
-6.16528e-13
-9.95041e-10
-1.35805e-12
-6.13157e-13
-9.95331e-10
-1.86638e-12
-6.06009e-13
-9.95845e-10
-2.19559e-12
-5.96607e-13
-9.96548e-10
-5.86347e-13
-9.97371e-10
-7.1526e-13
-1.16751e-12
-9.95292e-10
-1.3535e-12
-1.16118e-12
-9.95579e-10
-1.86066e-12
-1.14754e-12
-9.96089e-10
-2.1895e-12
-1.12999e-12
-9.96786e-10
-1.11076e-12
-9.97604e-10
-7.07219e-13
-1.59338e-12
-9.95757e-10
-1.34005e-12
-1.58449e-12
-9.96037e-10
-1.84351e-12
-1.56524e-12
-9.96539e-10
-2.17051e-12
-1.54043e-12
-9.97228e-10
-1.51327e-12
-9.98038e-10
-6.95877e-13
-1.86025e-12
-9.96376e-10
-1.32085e-12
-1.84924e-12
-9.96647e-10
-1.81893e-12
-1.82514e-12
-9.9714e-10
-2.14332e-12
-1.79434e-12
-9.97816e-10
-1.76063e-12
-9.98615e-10
-6.8189e-13
-9.97103e-10
-1.29678e-12
-9.97363e-10
-1.78841e-12
-9.97841e-10
-2.10978e-12
-9.98501e-10
-9.99284e-10
-9.85855e-13
-8.48964e-13
-9.93207e-10
-1.85611e-12
-8.42495e-13
-9.93619e-10
-2.5477e-12
-8.31942e-13
-9.94322e-10
-2.99467e-12
-8.17718e-13
-9.95283e-10
-8.03268e-13
-9.96403e-10
-9.80366e-13
-1.61398e-12
-9.93547e-10
-1.84894e-12
-1.60252e-12
-9.9395e-10
-2.53851e-12
-1.5818e-12
-9.94649e-10
-2.98565e-12
-1.55581e-12
-9.95601e-10
-1.52856e-12
-9.96715e-10
-9.67144e-13
-2.19224e-12
-9.94211e-10
-1.82845e-12
-2.17643e-12
-9.94602e-10
-2.51326e-12
-2.14732e-12
-9.95289e-10
-2.95867e-12
-2.11047e-12
-9.96228e-10
-2.07192e-12
-9.97331e-10
-9.48726e-13
-2.56056e-12
-9.95059e-10
-1.79953e-12
-2.54094e-12
-9.95432e-10
-2.47693e-12
-2.50294e-12
-9.96107e-10
-2.91997e-12
-2.45658e-12
-9.97027e-10
-2.40749e-12
-9.98116e-10
-9.25487e-13
-9.96085e-10
-1.7616e-12
-9.96434e-10
-2.43111e-12
-9.97081e-10
-2.87143e-12
-9.97977e-10
-9.99045e-10
-1.36116e-12
-1.1662e-12
-9.90679e-10
-2.53837e-12
-1.15202e-12
-9.9129e-10
-3.47867e-12
-1.13776e-12
-9.92244e-10
-4.08176e-12
-1.11496e-12
-9.93566e-10
-1.0955e-12
-9.95087e-10
-1.3498e-12
-2.24602e-12
-9.91117e-10
-2.52804e-12
-2.22384e-12
-9.91701e-10
-3.46316e-12
-2.19239e-12
-9.9266e-10
-4.06909e-12
-2.15377e-12
-9.93957e-10
-2.11582e-12
-9.95477e-10
-1.32697e-12
-3.01448e-12
-9.92116e-10
-2.49636e-12
-2.98447e-12
-9.92672e-10
-3.42624e-12
-2.94238e-12
-9.9361e-10
-4.0315e-12
-2.88757e-12
-9.9489e-10
-2.83522e-12
-9.96389e-10
-1.29576e-12
-3.54091e-12
-9.93237e-10
-2.45442e-12
-3.50339e-12
-9.93755e-10
-3.37282e-12
-3.44127e-12
-9.9469e-10
-3.97853e-12
-3.37151e-12
-9.95938e-10
-3.30072e-12
-9.9743e-10
-1.25375e-12
-9.94748e-10
-2.39148e-12
-9.95206e-10
-3.30365e-12
-9.96077e-10
-3.90968e-12
-9.97285e-10
-9.98742e-10
-1.90009e-12
-1.58644e-12
-9.87193e-10
-3.46971e-12
-1.55077e-12
-9.8817e-10
-4.75335e-12
-1.53717e-12
-9.89423e-10
-5.55717e-12
-1.49648e-12
-9.91266e-10
-1.47348e-12
-9.93338e-10
-1.873e-12
-3.16736e-12
-9.87663e-10
-3.46084e-12
-3.12072e-12
-9.88543e-10
-4.72289e-12
-3.07316e-12
-9.89862e-10
-5.5421e-12
-3.01482e-12
-9.9162e-10
-2.96114e-12
-9.93722e-10
-1.83193e-12
-4.11935e-12
-9.89332e-10
-3.40829e-12
-4.05535e-12
-9.90161e-10
-4.67008e-12
-4.00402e-12
-9.91417e-10
-5.48873e-12
-3.92044e-12
-9.93165e-10
-3.85694e-12
-9.95198e-10
-1.77617e-12
-4.94664e-12
-9.90634e-10
-3.35808e-12
-4.86761e-12
-9.91361e-10
-4.59129e-12
-4.75783e-12
-9.92703e-10
-5.4237e-12
-4.65225e-12
-9.94373e-10
-4.54732e-12
-9.96453e-10
-1.68766e-12
-9.93102e-10
-3.23828e-12
-9.9366e-10
-4.48329e-12
-9.94801e-10
-5.3255e-12
-9.96403e-10
-9.98385e-10
-2.70564e-12
-2.12916e-12
-9.82358e-10
-4.71882e-12
-2.03505e-12
-9.84121e-10
-6.51062e-12
-2.04437e-12
-9.85587e-10
-7.55404e-12
-1.96052e-12
-9.88262e-10
-1.94207e-12
-9.91126e-10
-2.63166e-12
-4.56916e-12
-9.82592e-10
-4.74776e-12
-4.46173e-12
-9.84e-10
-6.43267e-12
-4.39602e-12
-9.85826e-10
-7.55115e-12
-4.30204e-12
-9.8816e-10
-4.21613e-12
-9.91227e-10
-2.55959e-12
-5.56658e-12
-9.85775e-10
-4.63611e-12
-5.41059e-12
-9.87136e-10
-6.36582e-12
-5.37119e-12
-9.88712e-10
-7.4562e-12
-5.23288e-12
-9.91144e-10
-5.17395e-12
-9.93855e-10
-2.45125e-12
-7.04077e-12
-9.86709e-10
-4.63749e-12
-6.86598e-12
-9.8772e-10
-6.23892e-12
-6.65461e-12
-9.89818e-10
-7.41063e-12
-6.49639e-12
-9.91938e-10
-6.31872e-12
-9.94994e-10
-2.22705e-12
-9.91384e-10
-4.34444e-12
-9.91937e-10
-6.05408e-12
-9.93349e-10
-7.25073e-12
-9.95381e-10
-9.98046e-10
-3.97937e-12
-2.85289e-12
-9.75526e-10
-6.36771e-12
-2.58933e-12
-9.79144e-10
-8.97983e-12
-2.71785e-12
-9.80257e-10
-1.02553e-11
-2.49885e-12
-9.84488e-10
-2.5091e-12
-9.88564e-10
-3.77027e-12
-6.73773e-12
-9.74937e-10
-6.54194e-12
-6.46571e-12
-9.77352e-10
-8.71704e-12
-6.43131e-12
-9.79937e-10
-1.03278e-11
-6.25651e-12
-9.82791e-10
-6.07685e-12
-9.87799e-10
-3.66072e-12
-7.5379e-12
-9.81314e-10
-6.21774e-12
-7.11668e-12
-9.83928e-10
-8.70163e-12
-7.15651e-12
-9.85503e-10
-1.00617e-11
-6.87041e-12
-9.8917e-10
-6.84703e-12
-9.926e-10
-3.40308e-12
-1.01962e-11
-9.80647e-10
-6.54349e-12
-9.81193e-12
-9.81884e-10
-8.41332e-12
-9.41869e-12
-9.85686e-10
-1.01974e-11
-9.2318e-12
-9.87792e-10
-8.85041e-12
-9.9289e-10
-2.81077e-12
-9.90163e-10
-5.6954e-12
-9.90362e-10
-8.06883e-12
-9.91999e-10
-9.83113e-12
-9.94394e-10
-9.9789e-10
-6.12058e-12
-3.88129e-12
-9.65524e-10
-8.55069e-12
-3.13498e-12
-9.73578e-10
-1.25519e-11
-3.71189e-12
-9.72544e-10
-1.38895e-11
-3.04411e-12
-9.80106e-10
-3.14642e-12
-9.86035e-10
-5.56122e-12
-1.00675e-11
-9.63189e-10
-9.12831e-12
-9.34848e-12
-9.67571e-10
-1.16914e-11
-9.57437e-12
-9.71512e-10
-1.41738e-11
-9.2089e-12
-9.74144e-10
-8.7432e-12
-9.83303e-10
-5.45257e-12
-1.04673e-11
-9.75462e-10
-8.21257e-12
-9.23842e-12
-9.81278e-10
-1.20348e-11
-9.68947e-12
-9.81566e-10
-1.33098e-11
-8.87197e-12
-9.88232e-10
-8.99117e-12
-9.91606e-10
-4.7448e-12
-1.48632e-11
-9.71506e-10
-9.51354e-12
-1.39879e-11
-9.72365e-10
-1.12988e-11
-1.32627e-11
-9.80327e-10
-1.41986e-11
-1.33082e-11
-9.80456e-10
-1.22801e-11
-9.90311e-10
-3.29087e-12
-9.90451e-10
-7.18017e-12
-9.89295e-10
-1.05098e-11
-9.91076e-10
-1.31904e-11
-9.93509e-10
-9.9797e-10
-9.99953e-12
-5.41451e-12
-9.5011e-10
-1.14237e-11
-3.38001e-12
-9.68774e-10
-1.78626e-11
-5.38023e-12
-9.60725e-10
-1.85819e-11
-3.40389e-12
-9.75982e-10
-3.70896e-12
-9.84505e-10
-8.53612e-12
-1.52687e-11
-9.44798e-10
-1.3123e-11
-1.33553e-11
-9.53009e-10
-1.5703e-11
-1.4577e-11
-9.59735e-10
-1.93725e-11
-1.37523e-11
-9.60126e-10
-1.24706e-11
-9.77617e-10
-8.60228e-12
-1.51921e-11
-9.66936e-10
-1.08712e-11
-1.16316e-11
-9.80732e-10
-1.69379e-11
-1.36392e-11
-9.76437e-10
-1.68384e-11
-1.10276e-11
-9.91056e-10
-1.17814e-11
-9.90419e-10
-6.82039e-12
-2.18125e-11
-9.58066e-10
-1.42347e-11
-1.97284e-11
-9.56854e-10
-1.52355e-11
-1.83047e-11
-9.74661e-10
-1.98334e-11
-1.93742e-11
-9.67512e-10
-1.64733e-11
-9.88047e-10
-3.21976e-12
-9.94435e-10
-8.44368e-12
-9.89006e-10
-1.33521e-11
-9.90843e-10
-1.75395e-11
-9.9223e-10
-9.97724e-10
-1.72084e-11
-7.83266e-12
-9.25069e-10
-1.49504e-11
-2.70052e-12
-9.68331e-10
-2.62248e-11
-8.4865e-12
-9.40964e-10
-2.439e-11
-3.1665e-12
-9.74651e-10
-3.68874e-12
-9.86649e-10
-1.34643e-11
-2.36703e-11
-9.15496e-10
-1.90478e-11
-1.87271e-11
-9.31399e-10
-2.11808e-11
-2.26775e-11
-9.43411e-10
-2.60852e-11
-2.0879e-11
-9.37509e-10
-1.73652e-11
-9.70868e-10
-1.44627e-11
-2.35559e-11
-9.52588e-10
-1.46346e-11
-1.39009e-11
-9.85386e-10
-2.42519e-11
-2.02226e-11
-9.69274e-10
-2.05722e-11
-1.26159e-11
-1.003e-09
-1.57834e-11
-9.87201e-10
-1.01084e-11
-3.2547e-11
-9.38966e-10
-2.18141e-11
-2.75931e-11
-9.31456e-10
-2.04484e-11
-2.42909e-11
-9.71958e-10
-2.76655e-11
-2.84154e-11
-9.44495e-10
-2.0968e-11
-9.88947e-10
-1.25725e-12