/*--------------------------------*- C++ -*----------------------------------*\
| =========                 |                                                 |
| \\      /  F ield         | OpenFOAM: The Open Source CFD Toolbox           |
|  \\    /   O peration     | Version:  5.x                                   |
|   \\  /    A nd           | Web:      www.OpenFOAM.org                      |
|    \\/     M anipulation  |                                                 |
\*---------------------------------------------------------------------------*/
FoamFile
{
    version     2.0;
    format      ascii;
    class       volVectorField;
    location    "0.1";
    object      stored_U;
}
// * * * * * * * * * * * * * * * * * * * * * * * * * * * * * * * * * * * * * //

dimensions      [0 1 -1 0 0 0 0];

internalField   nonuniform List<vector> 
2250
(
(-4.99095e-11 -4.06885e-11 -0.001)
(-1.22737e-10 -3.13717e-11 -0.001)
(-1.82796e-10 -3.27408e-11 -0.00100001)
(-2.45652e-10 -2.55214e-11 -0.00100001)
(-2.40455e-10 -1.77459e-11 -0.00100001)
(-4.06103e-11 -9.81576e-11 -0.001)
(-1.14913e-10 -9.05648e-11 -0.001)
(-1.77281e-10 -8.67519e-11 -0.00100001)
(-2.31156e-10 -7.49261e-11 -0.00100001)
(-2.34386e-10 -4.40585e-11 -0.00100001)
(-4.2257e-11 -1.4974e-10 -0.001)
(-1.11382e-10 -1.47324e-10 -0.00100001)
(-1.67538e-10 -1.41451e-10 -0.00100001)
(-2.03518e-10 -1.27485e-10 -0.00100001)
(-2.10005e-10 -1.03846e-10 -0.00100001)
(-3.79133e-11 -2.18481e-10 -0.00100001)
(-1.06318e-10 -2.10361e-10 -0.00100001)
(-1.57446e-10 -1.94263e-10 -0.00100001)
(-1.93586e-10 -1.87318e-10 -0.00100001)
(-1.99623e-10 -2.15657e-10 -0.00100001)
(-3.37849e-11 -2.17419e-10 -0.00100001)
(-8.67533e-11 -2.14447e-10 -0.00100001)
(-1.44461e-10 -2.00681e-10 -0.00100001)
(-2.24885e-10 -1.9995e-10 -0.00100001)
(-2.09256e-10 -2.18315e-10 -0.00100001)
(-1.12129e-10 -8.67512e-11 -0.001)
(-3.13676e-10 -8.34948e-11 -0.001)
(-4.84858e-10 -7.82922e-11 -0.001)
(-6.20305e-10 -6.24404e-11 -0.00100001)
(-6.21663e-10 -3.43609e-11 -0.00100001)
(-1.08919e-10 -2.40816e-10 -0.001)
(-3.05558e-10 -2.31415e-10 -0.001)
(-4.6463e-10 -2.13726e-10 -0.001)
(-5.77567e-10 -1.77695e-10 -0.00100001)
(-5.96341e-10 -1.05808e-10 -0.00100001)
(-1.02571e-10 -3.79717e-10 -0.001)
(-2.86726e-10 -3.67544e-10 -0.001)
(-4.32071e-10 -3.44907e-10 -0.00100001)
(-5.13724e-10 -3.16164e-10 -0.00100001)
(-5.44405e-10 -2.83759e-10 -0.00100001)
(-9.61276e-11 -5.15516e-10 -0.001)
(-2.70055e-10 -4.93925e-10 -0.00100001)
(-4.13259e-10 -4.69429e-10 -0.00100001)
(-5.16499e-10 -4.81937e-10 -0.00100001)
(-5.34875e-10 -5.91416e-10 -0.00100001)
(-8.01964e-11 -5.3909e-10 -0.00100001)
(-2.39719e-10 -5.26107e-10 -0.00100001)
(-4.20026e-10 -5.09105e-10 -0.00100001)
(-6.35742e-10 -5.24211e-10 -0.00100001)
(-5.57718e-10 -5.68975e-10 -0.00100001)
(-1.89198e-10 -1.42869e-10 -0.001)
(-5.26681e-10 -1.27227e-10 -0.001)
(-8.01788e-10 -1.23897e-10 -0.001)
(-9.96793e-10 -1.0354e-10 -0.001)
(-1.03829e-09 -6.86595e-11 -0.00100001)
(-1.73639e-10 -3.92139e-10 -0.001)
(-5.08303e-10 -3.73145e-10 -0.001)
(-7.79558e-10 -3.52892e-10 -0.001)
(-9.43579e-10 -3.02654e-10 -0.001)
(-1.00768e-09 -2.25135e-10 -0.00100001)
(-1.69941e-10 -6.10516e-10 -0.001)
(-4.87682e-10 -5.98472e-10 -0.001)
(-7.32873e-10 -5.69202e-10 -0.001)
(-8.71238e-10 -5.45902e-10 -0.00100001)
(-9.66705e-10 -5.28108e-10 -0.00100001)
(-1.60559e-10 -7.85858e-10 -0.001)
(-4.65857e-10 -7.79261e-10 -0.001)
(-7.27002e-10 -7.71318e-10 -0.001)
(-9.02635e-10 -8.14215e-10 -0.00100001)
(-9.70288e-10 -9.90286e-10 -0.00100001)
(-1.61943e-10 -8.5965e-10 -0.001)
(-4.716e-10 -8.69545e-10 -0.00100001)
(-7.67695e-10 -8.81172e-10 -0.00100001)
(-1.0902e-09 -9.09075e-10 -0.00100001)
(-9.68074e-10 -9.26938e-10 -0.00100001)
(-2.76352e-10 -2.06122e-10 -0.001)
(-7.76992e-10 -1.9099e-10 -0.001)
(-1.17674e-09 -1.87074e-10 -0.001)
(-1.44399e-09 -1.66271e-10 -0.001)
(-1.54835e-09 -1.41129e-10 -0.001)
(-2.61358e-10 -5.73059e-10 -0.001)
(-7.58966e-10 -5.58649e-10 -0.001)
(-1.15425e-09 -5.37606e-10 -0.001)
(-1.401e-09 -4.92066e-10 -0.001)
(-1.52611e-09 -4.39634e-10 -0.001)
(-2.61457e-10 -8.91858e-10 -0.001)
(-7.41959e-10 -8.85452e-10 -0.001)
(-1.1125e-09 -8.64923e-10 -0.001)
(-1.34917e-09 -8.48681e-10 -0.001)
(-1.51429e-09 -8.50609e-10 -0.00100001)
(-2.53309e-10 -1.14276e-09 -0.001)
(-7.30313e-10 -1.16266e-09 -0.001)
(-1.11749e-09 -1.16691e-09 -0.001)
(-1.38691e-09 -1.20314e-09 -0.001)
(-1.53395e-09 -1.39978e-09 -0.00100001)
(-2.79117e-10 -1.27741e-09 -0.001)
(-7.63751e-10 -1.31249e-09 -0.001)
(-1.15276e-09 -1.33372e-09 -0.001)
(-1.58201e-09 -1.35804e-09 -0.00100001)
(-1.5037e-09 -1.33343e-09 -0.00100001)
(-3.9671e-10 -2.98541e-10 -0.001)
(-1.10549e-09 -2.84324e-10 -0.001)
(-1.65817e-09 -2.76946e-10 -0.001)
(-2.04547e-09 -2.58101e-10 -0.001)
(-2.23922e-09 -2.47913e-10 -0.001)
(-3.82676e-10 -8.27287e-10 -0.001)
(-1.08538e-09 -8.12037e-10 -0.001)
(-1.63506e-09 -7.88438e-10 -0.001)
(-2.02042e-09 -7.60847e-10 -0.001)
(-2.23414e-09 -7.41881e-10 -0.001)
(-3.80678e-10 -1.27419e-09 -0.001)
(-1.06718e-09 -1.26562e-09 -0.001)
(-1.61021e-09 -1.25476e-09 -0.001)
(-2.00311e-09 -1.24655e-09 -0.001)
(-2.24829e-09 -1.26231e-09 -0.001)
(-3.71773e-10 -1.64898e-09 -0.001)
(-1.06354e-09 -1.6636e-09 -0.001)
(-1.61602e-09 -1.65998e-09 -0.001)
(-2.02824e-09 -1.67223e-09 -0.001)
(-2.30112e-09 -1.91266e-09 -0.00100001)
(-3.92191e-10 -1.85692e-09 -0.001)
(-1.07489e-09 -1.88396e-09 -0.001)
(-1.61858e-09 -1.88368e-09 -0.001)
(-2.25578e-09 -1.9162e-09 -0.00100001)
(-2.25194e-09 -1.85321e-09 -0.00100001)
(-5.57876e-10 -4.27401e-10 -0.001)
(-1.53345e-09 -4.01588e-10 -0.001)
(-2.30222e-09 -3.95968e-10 -0.001)
(-2.88907e-09 -3.84914e-10 -0.001)
(-3.19223e-09 -3.87262e-10 -0.001)
(-5.32309e-10 -1.16554e-09 -0.001)
(-1.50398e-09 -1.1375e-09 -0.001)
(-2.28971e-09 -1.12446e-09 -0.001)
(-2.88559e-09 -1.12297e-09 -0.001)
(-3.20535e-09 -1.13464e-09 -0.001)
(-5.28826e-10 -1.77904e-09 -0.001)
(-1.49309e-09 -1.76764e-09 -0.001)
(-2.292e-09 -1.77091e-09 -0.001)
(-2.90482e-09 -1.78323e-09 -0.001)
(-3.23958e-09 -1.80651e-09 -0.001)
(-5.17825e-10 -2.30413e-09 -0.001)
(-1.49263e-09 -2.29372e-09 -0.001)
(-2.30532e-09 -2.28587e-09 -0.001)
(-2.92162e-09 -2.29487e-09 -0.001)
(-3.31071e-09 -2.43437e-09 -0.001)
(-5.14356e-10 -2.59982e-09 -0.001)
(-1.47041e-09 -2.59883e-09 -0.001)
(-2.29275e-09 -2.58443e-09 -0.001)
(-3.05336e-09 -2.62823e-09 -0.001)
(-3.34578e-09 -2.64401e-09 -0.00100001)
(-7.53248e-10 -5.81106e-10 -0.000999998)
(-2.09725e-09 -5.51003e-10 -0.000999998)
(-3.20144e-09 -5.54047e-10 -0.000999999)
(-4.06196e-09 -5.56123e-10 -0.001)
(-4.50172e-09 -5.702e-10 -0.001)
(-7.23467e-10 -1.60776e-09 -0.000999998)
(-2.07277e-09 -1.5785e-09 -0.000999999)
(-3.21214e-09 -1.5897e-09 -0.001)
(-4.08517e-09 -1.61627e-09 -0.001)
(-4.53112e-09 -1.65989e-09 -0.001)
(-7.22676e-10 -2.47068e-09 -0.000999999)
(-2.08014e-09 -2.46982e-09 -0.000999999)
(-3.24501e-09 -2.49373e-09 -0.001)
(-4.13972e-09 -2.53085e-09 -0.001)
(-4.57393e-09 -2.56557e-09 -0.001)
(-7.1845e-10 -3.17126e-09 -0.001)
(-2.09148e-09 -3.16408e-09 -0.001)
(-3.27322e-09 -3.17963e-09 -0.001)
(-4.15755e-09 -3.20415e-09 -0.001)
(-4.6189e-09 -3.19214e-09 -0.001)
(-7.10042e-10 -3.5799e-09 -0.001)
(-2.08258e-09 -3.5692e-09 -0.001)
(-3.28463e-09 -3.56742e-09 -0.001)
(-4.15224e-09 -3.5958e-09 -0.001)
(-4.6686e-09 -3.63179e-09 -0.00100001)
(-1.0078e-09 -7.81344e-10 -0.000999995)
(-2.87539e-09 -7.62142e-10 -0.000999995)
(-4.46094e-09 -7.76346e-10 -0.000999996)
(-5.66378e-09 -7.91544e-10 -0.000999998)
(-6.28183e-09 -8.18847e-10 -0.001)
(-9.89018e-10 -2.22709e-09 -0.000999995)
(-2.87393e-09 -2.21651e-09 -0.000999996)
(-4.49801e-09 -2.25487e-09 -0.000999997)
(-5.71611e-09 -2.30161e-09 -0.000999999)
(-6.32308e-09 -2.37298e-09 -0.001)
(-9.95323e-10 -3.4643e-09 -0.000999996)
(-2.90441e-09 -3.49096e-09 -0.000999997)
(-4.55403e-09 -3.5338e-09 -0.000999998)
(-5.79244e-09 -3.58143e-09 -0.001)
(-6.36084e-09 -3.61812e-09 -0.001)
(-1.00984e-09 -4.41891e-09 -0.000999997)
(-2.93738e-09 -4.45117e-09 -0.000999998)
(-4.58855e-09 -4.49524e-09 -0.000999999)
(-5.80119e-09 -4.51402e-09 -0.001)
(-6.36077e-09 -4.44498e-09 -0.001)
(-1.01997e-09 -4.96078e-09 -0.000999999)
(-2.97252e-09 -4.96632e-09 -0.001)
(-4.6162e-09 -4.98307e-09 -0.001)
(-5.74218e-09 -4.97472e-09 -0.001)
(-6.31495e-09 -4.92841e-09 -0.001)
(-1.36787e-09 -1.07206e-09 -0.00099999)
(-3.96239e-09 -1.06714e-09 -0.000999991)
(-6.18488e-09 -1.08738e-09 -0.000999993)
(-7.8248e-09 -1.11094e-09 -0.000999995)
(-8.68243e-09 -1.14634e-09 -0.000999998)
(-1.36349e-09 -3.11253e-09 -0.000999991)
(-3.9826e-09 -3.12438e-09 -0.000999992)
(-6.23926e-09 -3.177e-09 -0.000999993)
(-7.89738e-09 -3.22813e-09 -0.000999996)
(-8.72715e-09 -3.30761e-09 -0.000999999)
(-1.37694e-09 -4.86869e-09 -0.000999992)
(-4.02848e-09 -4.922e-09 -0.000999993)
(-6.29965e-09 -4.96684e-09 -0.000999995)
(-7.97e-09 -5.00366e-09 -0.000999997)
(-8.74963e-09 -5.0401e-09 -0.001)
(-1.40856e-09 -6.19128e-09 -0.000999994)
(-4.07226e-09 -6.25504e-09 -0.000999995)
(-6.32102e-09 -6.29951e-09 -0.000999997)
(-7.97169e-09 -6.29962e-09 -0.000999999)
(-8.71388e-09 -6.26666e-09 -0.001)
(-1.43005e-09 -6.8899e-09 -0.000999996)
(-4.12524e-09 -6.90809e-09 -0.000999997)
(-6.34329e-09 -6.92648e-09 -0.000999999)
(-7.93715e-09 -6.88123e-09 -0.001)
(-8.59053e-09 -6.76809e-09 -0.001)
(-1.86859e-09 -1.48056e-09 -0.000999984)
(-5.44839e-09 -1.48915e-09 -0.000999986)
(-8.50989e-09 -1.50617e-09 -0.000999988)
(-1.07357e-08 -1.53002e-09 -0.000999991)
(-1.19153e-08 -1.55673e-09 -0.000999995)
(-1.87788e-09 -4.32753e-09 -0.000999985)
(-5.48072e-09 -4.35573e-09 -0.000999987)
(-8.56526e-09 -4.40082e-09 -0.000999989)
(-1.08049e-08 -4.43596e-09 -0.000999992)
(-1.19507e-08 -4.48799e-09 -0.000999996)
(-1.89281e-09 -6.76821e-09 -0.000999987)
(-5.5238e-09 -6.82505e-09 -0.000999988)
(-8.60524e-09 -6.85009e-09 -0.000999991)
(-1.08428e-08 -6.85773e-09 -0.000999994)
(-1.19503e-08 -6.87996e-09 -0.000999997)
(-1.92333e-09 -8.56247e-09 -0.00099999)
(-5.55083e-09 -8.61819e-09 -0.000999991)
(-8.59807e-09 -8.63507e-09 -0.000999993)
(-1.08362e-08 -8.61761e-09 -0.000999996)
(-1.19032e-08 -8.65263e-09 -0.001)
(-1.93395e-09 -9.47512e-09 -0.000999993)
(-5.58066e-09 -9.48954e-09 -0.000999994)
(-8.60338e-09 -9.49327e-09 -0.000999996)
(-1.08604e-08 -9.43773e-09 -0.000999999)
(-1.1762e-08 -9.30927e-09 -0.001)
(-2.55828e-09 -2.04e-09 -0.000999977)
(-7.46618e-09 -2.05851e-09 -0.000999978)
(-1.16429e-08 -2.06329e-09 -0.000999981)
(-1.46672e-08 -2.07737e-09 -0.000999986)
(-1.62756e-08 -2.07699e-09 -0.000999991)
(-2.57773e-09 -5.95724e-09 -0.000999978)
(-7.49865e-09 -5.99048e-09 -0.00099998)
(-1.16816e-08 -6.00699e-09 -0.000999983)
(-1.47062e-08 -6.00629e-09 -0.000999987)
(-1.62903e-08 -6.00136e-09 -0.000999992)
(-2.58604e-09 -9.28547e-09 -0.00099998)
(-7.5188e-09 -9.3201e-09 -0.000999982)
(-1.16794e-08 -9.3103e-09 -0.000999985)
(-1.46887e-08 -9.27817e-09 -0.000999989)
(-1.62647e-08 -9.26233e-09 -0.000999994)
(-2.59691e-09 -1.16818e-08 -0.000999984)
(-7.50742e-09 -1.17032e-08 -0.000999985)
(-1.16398e-08 -1.16814e-08 -0.000999988)
(-1.46602e-08 -1.16429e-08 -0.000999993)
(-1.62089e-08 -1.1658e-08 -0.000999997)
(-2.58779e-09 -1.2909e-08 -0.000999988)
(-7.49701e-09 -1.29154e-08 -0.000999989)
(-1.16174e-08 -1.28968e-08 -0.000999992)
(-1.46654e-08 -1.284e-08 -0.000999996)
(-1.6096e-08 -1.27352e-08 -0.001)
(-3.50709e-09 -2.8007e-09 -0.000999966)
(-1.02082e-08 -2.82182e-09 -0.000999968)
(-1.58794e-08 -2.80905e-09 -0.000999972)
(-1.99958e-08 -2.80502e-09 -0.000999978)
(-2.21761e-08 -2.77428e-09 -0.000999985)
(-3.52949e-09 -8.14362e-09 -0.000999968)
(-1.0229e-08 -8.16868e-09 -0.00099997)
(-1.58894e-08 -8.14345e-09 -0.000999974)
(-1.99953e-08 -8.09763e-09 -0.00099998)
(-2.21726e-08 -8.03674e-09 -0.000999987)
(-3.52479e-09 -1.26474e-08 -0.000999971)
(-1.0212e-08 -1.26481e-08 -0.000999973)
(-1.58365e-08 -1.25965e-08 -0.000999977)
(-1.9926e-08 -1.252e-08 -0.000999983)
(-2.21262e-08 -1.24489e-08 -0.00099999)
(-3.50943e-09 -1.58811e-08 -0.000999976)
(-1.01564e-08 -1.58628e-08 -0.000999978)
(-1.57616e-08 -1.57976e-08 -0.000999982)
(-1.98503e-08 -1.57168e-08 -0.000999988)
(-2.20552e-08 -1.56461e-08 -0.000999994)
(-3.48007e-09 -1.75515e-08 -0.000999981)
(-1.00997e-08 -1.75499e-08 -0.000999983)
(-1.56881e-08 -1.7503e-08 -0.000999987)
(-1.97745e-08 -1.74344e-08 -0.000999993)
(-2.19502e-08 -1.73309e-08 -0.000999999)
(-4.79916e-09 -3.82643e-09 -0.000999952)
(-1.39263e-08 -3.84123e-09 -0.000999955)
(-2.16274e-08 -3.81268e-09 -0.00099996)
(-2.72418e-08 -3.78884e-09 -0.000999968)
(-3.01931e-08 -3.7382e-09 -0.000999977)
(-4.81576e-09 -1.10884e-08 -0.000999954)
(-1.39295e-08 -1.10942e-08 -0.000999957)
(-2.16113e-08 -1.10285e-08 -0.000999963)
(-2.72138e-08 -1.09456e-08 -0.000999971)
(-3.01842e-08 -1.08474e-08 -0.00099998)
(-4.79528e-09 -1.71907e-08 -0.000999959)
(-1.38719e-08 -1.71602e-08 -0.000999962)
(-2.15169e-08 -1.70691e-08 -0.000999967)
(-2.7111e-08 -1.69554e-08 -0.000999975)
(-3.01159e-08 -1.68286e-08 -0.000999984)
(-4.75738e-09 -2.16088e-08 -0.000999965)
(-1.37787e-08 -2.15533e-08 -0.000999968)
(-2.14069e-08 -2.14453e-08 -0.000999973)
(-2.69768e-08 -2.1309e-08 -0.000999981)
(-3.00174e-08 -2.11401e-08 -0.00099999)
(-4.70396e-09 -2.38866e-08 -0.000999972)
(-1.36692e-08 -2.38698e-08 -0.000999975)
(-2.12694e-08 -2.37879e-08 -0.000999981)
(-2.68058e-08 -2.36875e-08 -0.000999988)
(-2.99217e-08 -2.35862e-08 -0.000999997)
(-6.54289e-09 -5.20281e-09 -0.000999932)
(-1.89636e-08 -5.20637e-09 -0.000999936)
(-2.94515e-08 -5.17155e-09 -0.000999944)
(-3.71103e-08 -5.13182e-09 -0.000999955)
(-4.11111e-08 -5.07025e-09 -0.000999967)
(-6.54893e-09 -1.50657e-08 -0.000999935)
(-1.89551e-08 -1.50517e-08 -0.000999939)
(-2.94261e-08 -1.49615e-08 -0.000999947)
(-3.70719e-08 -1.48552e-08 -0.000999958)
(-4.11036e-08 -1.47331e-08 -0.00099997)
(-6.51589e-09 -2.33628e-08 -0.000999941)
(-1.88669e-08 -2.33154e-08 -0.000999945)
(-2.93067e-08 -2.3195e-08 -0.000999953)
(-3.69498e-08 -2.30565e-08 -0.000999964)
(-4.10031e-08 -2.28961e-08 -0.000999976)
(-6.46404e-09 -2.93978e-08 -0.00099995)
(-1.87479e-08 -2.93202e-08 -0.000999954)
(-2.91676e-08 -2.91836e-08 -0.000999962)
(-3.67778e-08 -2.90115e-08 -0.000999972)
(-4.08637e-08 -2.87996e-08 -0.000999985)
(-6.38988e-09 -3.2515e-08 -0.00099996)
(-1.85998e-08 -3.24814e-08 -0.000999964)
(-2.89937e-08 -3.23633e-08 -0.000999971)
(-3.65658e-08 -3.22152e-08 -0.000999982)
(-4.07592e-08 -3.21016e-08 -0.000999995)
(-8.90124e-09 -7.06309e-09 -0.000999905)
(-2.58121e-08 -7.05987e-09 -0.000999911)
(-4.01241e-08 -7.02768e-09 -0.000999921)
(-5.05543e-08 -6.9742e-09 -0.000999936)
(-5.599e-08 -6.90443e-09 -0.000999953)
(-8.90142e-09 -2.04707e-08 -0.000999909)
(-2.58076e-08 -2.04502e-08 -0.000999915)
(-4.0105e-08 -2.03489e-08 -0.000999926)
(-5.05161e-08 -2.02167e-08 -0.00099994)
(-5.59839e-08 -2.00728e-08 -0.000999957)
(-8.86334e-09 -3.17796e-08 -0.000999918)
(-2.57007e-08 -3.17333e-08 -0.000999923)
(-3.99607e-08 -3.15848e-08 -0.000999934)
(-5.03702e-08 -3.1417e-08 -0.000999949)
(-5.58391e-08 -3.12416e-08 -0.000999966)
(-8.80426e-09 -3.99949e-08 -0.000999929)
(-2.55593e-08 -3.9922e-08 -0.000999935)
(-3.97894e-08 -3.97678e-08 -0.000999946)
(-5.01796e-08 -3.95787e-08 -0.00099996)
(-5.56367e-08 -3.93687e-08 -0.000999977)
(-8.72502e-09 -4.42667e-08 -0.000999943)
(-2.5402e-08 -4.42296e-08 -0.000999949)
(-3.96115e-08 -4.40758e-08 -0.000999959)
(-4.99711e-08 -4.38617e-08 -0.000999974)
(-5.54521e-08 -4.3671e-08 -0.000999991)
(-1.21171e-08 -9.60926e-09 -0.000999868)
(-3.51591e-08 -9.60646e-09 -0.000999876)
(-5.46786e-08 -9.57117e-09 -0.000999891)
(-6.88754e-08 -9.49942e-09 -0.00099991)
(-7.62768e-08 -9.41727e-09 -0.000999934)
(-1.21189e-08 -2.78662e-08 -0.000999875)
(-3.51629e-08 -2.78482e-08 -0.000999882)
(-5.46618e-08 -2.77215e-08 -0.000999897)
(-6.8837e-08 -2.75384e-08 -0.000999917)
(-7.62676e-08 -2.7351e-08 -0.00099994)
(-1.20757e-08 -4.32906e-08 -0.000999886)
(-3.50285e-08 -4.32464e-08 -0.000999894)
(-5.44638e-08 -4.30462e-08 -0.000999908)
(-6.86299e-08 -4.28055e-08 -0.000999928)
(-7.60525e-08 -4.25666e-08 -0.000999951)
(-1.20061e-08 -5.44822e-08 -0.000999902)
(-3.48462e-08 -5.44245e-08 -0.000999909)
(-5.42217e-08 -5.42217e-08 -0.000999924)
(-6.83664e-08 -5.39602e-08 -0.000999943)
(-7.57423e-08 -5.36924e-08 -0.000999967)
(-1.19295e-08 -6.03143e-08 -0.00099992)
(-3.46711e-08 -6.028e-08 -0.000999928)
(-5.39914e-08 -6.00646e-08 -0.000999942)
(-6.81005e-08 -5.97448e-08 -0.000999962)
(-7.5379e-08 -5.93822e-08 -0.000999985)
(-1.65156e-08 -1.31085e-08 -0.000999819)
(-4.79116e-08 -1.31007e-08 -0.000999829)
(-7.44916e-08 -1.30422e-08 -0.000999849)
(-9.38337e-08 -1.29417e-08 -0.000999876)
(-1.03934e-07 -1.28292e-08 -0.000999908)
(-1.65141e-08 -3.79943e-08 -0.000999827)
(-4.7902e-08 -3.79618e-08 -0.000999838)
(-7.44548e-08 -3.77713e-08 -0.000999857)
(-9.37773e-08 -3.7502e-08 -0.000999884)
(-1.03902e-07 -3.72121e-08 -0.000999916)
(-1.64515e-08 -5.90165e-08 -0.000999843)
(-4.77079e-08 -5.89522e-08 -0.000999853)
(-7.41606e-08 -5.86584e-08 -0.000999873)
(-9.34438e-08 -5.82718e-08 -0.0009999)
(-1.03558e-07 -5.78591e-08 -0.000999931)
(-1.63568e-08 -7.42896e-08 -0.000999864)
(-4.74459e-08 -7.42181e-08 -0.000999875)
(-7.37755e-08 -7.38871e-08 -0.000999894)
(-9.29903e-08 -7.34331e-08 -0.000999921)
(-1.03069e-07 -7.29501e-08 -0.000999952)
(-1.62601e-08 -8.22244e-08 -0.000999889)
(-4.71741e-08 -8.21631e-08 -0.0009999)
(-7.33646e-08 -8.18141e-08 -0.000999919)
(-9.25069e-08 -8.13187e-08 -0.000999945)
(-1.02462e-07 -8.07158e-08 -0.000999977)
(-2.25113e-08 -1.7893e-08 -0.000999751)
(-6.52683e-08 -1.78651e-08 -0.000999765)
(-1.01442e-07 -1.77654e-08 -0.000999792)
(-1.27808e-07 -1.76204e-08 -0.000999829)
(-1.41615e-07 -1.74545e-08 -0.000999872)
(-2.24919e-08 -5.18197e-08 -0.000999762)
(-6.52173e-08 -5.17429e-08 -0.000999777)
(-1.01363e-07 -5.14521e-08 -0.000999803)
(-1.27709e-07 -5.10598e-08 -0.00099984)
(-1.41534e-07 -5.06021e-08 -0.000999883)
(-2.23918e-08 -8.04515e-08 -0.000999784)
(-6.49268e-08 -8.03364e-08 -0.000999798)
(-1.00933e-07 -7.9905e-08 -0.000999824)
(-1.27188e-07 -7.93059e-08 -0.000999861)
(-1.40982e-07 -7.86319e-08 -0.000999904)
(-2.22513e-08 -1.01273e-07 -0.000999813)
(-6.45384e-08 -1.01136e-07 -0.000999827)
(-1.00334e-07 -1.00601e-07 -0.000999853)
(-1.26453e-07 -9.98635e-08 -0.00099989)
(-1.40225e-07 -9.90534e-08 -0.000999933)
(-2.20929e-08 -1.12073e-07 -0.000999847)
(-6.40773e-08 -1.1193e-07 -0.000999861)
(-9.96457e-08 -1.1136e-07 -0.000999888)
(-1.2564e-07 -1.106e-07 -0.000999924)
(-1.39312e-07 -1.09687e-07 -0.000999966)
(-3.06641e-08 -2.44121e-08 -0.000999659)
(-8.8884e-08 -2.43572e-08 -0.000999678)
(-1.38141e-07 -2.42049e-08 -0.000999714)
(-1.74081e-07 -2.39938e-08 -0.000999765)
(-1.92973e-07 -2.37557e-08 -0.000999824)
(-3.06208e-08 -7.06743e-08 -0.000999674)
(-8.87804e-08 -7.05353e-08 -0.000999693)
(-1.38002e-07 -7.01116e-08 -0.00099973)
(-1.73919e-07 -6.95471e-08 -0.00099978)
(-1.92818e-07 -6.8868e-08 -0.000999839)
(-3.04675e-08 -1.0968e-07 -0.000999703)
(-8.83566e-08 -1.09487e-07 -0.000999722)
(-1.37389e-07 -1.08868e-07 -0.000999759)
(-1.73148e-07 -1.07996e-07 -0.000999809)
(-1.91973e-07 -1.06995e-07 -0.000999867)
(-3.02578e-08 -1.38014e-07 -0.000999743)
(-8.7789e-08 -1.37777e-07 -0.000999762)
(-1.36512e-07 -1.36991e-07 -0.000999798)
(-1.72069e-07 -1.3591e-07 -0.000999848)
(-1.90824e-07 -1.34706e-07 -0.000999906)
(-3.00124e-08 -1.52735e-07 -0.00099979)
(-8.70934e-08 -1.52475e-07 -0.000999809)
(-1.35502e-07 -1.51608e-07 -0.000999845)
(-1.70864e-07 -1.50461e-07 -0.000999894)
(-1.89459e-07 -1.49092e-07 -0.000999952)
(-4.17643e-08 -3.3314e-08 -0.000999532)
(-1.2107e-07 -3.32324e-08 -0.000999559)
(-1.88192e-07 -3.30072e-08 -0.000999609)
(-2.37188e-07 -3.2701e-08 -0.000999677)
(-2.63035e-07 -3.23563e-08 -0.000999758)
(-4.16984e-08 -9.64475e-08 -0.000999554)
(-1.20903e-07 -9.62309e-08 -0.00099958)
(-1.87963e-07 -9.56199e-08 -0.00099963)
(-2.36924e-07 -9.47953e-08 -0.000999698)
(-2.62762e-07 -9.38022e-08 -0.000999779)
(-4.14701e-08 -1.49642e-07 -0.000999594)
(-1.2029e-07 -1.49337e-07 -0.00099962)
(-1.87075e-07 -1.48443e-07 -0.000999669)
(-2.35789e-07 -1.4718e-07 -0.000999737)
(-2.61497e-07 -1.45701e-07 -0.000999817)
(-4.1165e-08 -1.88209e-07 -0.000999648)
(-1.19463e-07 -1.87847e-07 -0.000999675)
(-1.85808e-07 -1.86709e-07 -0.000999723)
(-2.34212e-07 -1.85131e-07 -0.000999791)
(-2.59752e-07 -1.83338e-07 -0.00099987)
(-4.0814e-08 -2.08272e-07 -0.000999713)
(-1.18467e-07 -2.07861e-07 -0.000999739)
(-1.84332e-07 -2.06576e-07 -0.000999787)
(-2.32418e-07 -2.04825e-07 -0.000999854)
(-2.57673e-07 -2.02742e-07 -0.000999932)
(-5.69071e-08 -4.55104e-08 -0.00099936)
(-1.64997e-07 -4.53933e-08 -0.000999397)
(-2.5651e-07 -4.5059e-08 -0.000999465)
(-3.23312e-07 -4.46137e-08 -0.000999558)
(-3.58663e-07 -4.4102e-08 -0.000999668)
(-5.6811e-08 -1.31765e-07 -0.00099939)
(-1.64734e-07 -1.31437e-07 -0.000999426)
(-2.56138e-07 -1.3054e-07 -0.000999493)
(-3.22877e-07 -1.2931e-07 -0.000999587)
(-3.58187e-07 -1.27845e-07 -0.000999697)
(-5.6474e-08 -2.04401e-07 -0.000999444)
(-1.63836e-07 -2.03928e-07 -0.00099948)
(-2.54813e-07 -2.02593e-07 -0.000999548)
(-3.21184e-07 -2.00713e-07 -0.00099964)
(-3.56294e-07 -1.98488e-07 -0.000999749)
(-5.60297e-08 -2.56974e-07 -0.000999519)
(-1.626e-07 -2.56409e-07 -0.000999555)
(-2.52927e-07 -2.54694e-07 -0.000999622)
(-3.18814e-07 -2.5231e-07 -0.000999714)
(-3.53639e-07 -2.49552e-07 -0.000999822)
(-5.55121e-08 -2.8427e-07 -0.000999607)
(-1.61119e-07 -2.83611e-07 -0.000999643)
(-2.50676e-07 -2.81664e-07 -0.000999708)
(-3.16041e-07 -2.78956e-07 -0.000999799)
(-3.50463e-07 -2.75764e-07 -0.000999906)
(-7.75855e-08 -6.22508e-08 -0.000999126)
(-2.24986e-07 -6.20775e-08 -0.000999175)
(-3.49803e-07 -6.15835e-08 -0.000999268)
(-4.40911e-07 -6.09285e-08 -0.000999396)
(-4.89232e-07 -6.01715e-08 -0.000999546)
(-7.74406e-08 -1.80233e-07 -0.000999166)
(-2.24573e-07 -1.79732e-07 -0.000999215)
(-3.49204e-07 -1.78389e-07 -0.000999308)
(-4.40203e-07 -1.76538e-07 -0.000999435)
(-4.88435e-07 -1.74378e-07 -0.000999585)
(-7.69435e-08 -2.79517e-07 -0.000999241)
(-2.23229e-07 -2.78767e-07 -0.00099929)
(-3.4719e-07 -2.76723e-07 -0.000999382)
(-4.37665e-07 -2.73881e-07 -0.000999508)
(-4.85601e-07 -2.70539e-07 -0.000999657)
(-7.62753e-08 -3.5124e-07 -0.000999344)
(-2.21339e-07 -3.50309e-07 -0.000999392)
(-3.44323e-07 -3.47675e-07 -0.000999483)
(-4.34077e-07 -3.44039e-07 -0.000999608)
(-4.81589e-07 -3.39814e-07 -0.000999756)
(-7.54782e-08 -3.88318e-07 -0.000999464)
(-2.19075e-07 -3.87226e-07 -0.000999512)
(-3.40868e-07 -3.84229e-07 -0.000999602)
(-4.29804e-07 -3.80058e-07 -0.000999725)
(-4.76763e-07 -3.75169e-07 -0.00099987)
(-1.05844e-07 -8.52588e-08 -0.000998805)
(-3.06942e-07 -8.49923e-08 -0.000998873)
(-4.77231e-07 -8.42609e-08 -0.000999)
(-6.01557e-07 -8.32853e-08 -0.000999174)
(-6.67597e-07 -8.21593e-08 -0.00099938)
(-1.05616e-07 -2.46816e-07 -0.00099886)
(-3.06287e-07 -2.46035e-07 -0.000998928)
(-4.76265e-07 -2.43996e-07 -0.000999054)
(-6.00406e-07 -2.4121e-07 -0.000999228)
(-6.66296e-07 -2.37991e-07 -0.000999433)
(-1.04872e-07 -3.82626e-07 -0.000998964)
(-3.04239e-07 -3.81413e-07 -0.00099903)
(-4.73189e-07 -3.78265e-07 -0.000999156)
(-5.96585e-07 -3.73944e-07 -0.000999328)
(-6.62044e-07 -3.6892e-07 -0.000999531)
(-1.03843e-07 -4.80511e-07 -0.000999105)
(-3.01332e-07 -4.78964e-07 -0.000999171)
(-4.68803e-07 -4.74914e-07 -0.000999295)
(-5.91139e-07 -4.69349e-07 -0.000999465)
(-6.56017e-07 -4.62923e-07 -0.000999666)
(-1.02607e-07 -5.30835e-07 -0.00099927)
(-2.97848e-07 -5.29031e-07 -0.000999336)
(-4.63505e-07 -5.24398e-07 -0.000999457)
(-5.84595e-07 -5.18006e-07 -0.000999625)
(-6.48738e-07 -5.10572e-07 -0.000999822)
(-1.4448e-07 -1.16921e-07 -0.000998368)
(-4.18928e-07 -1.16491e-07 -0.00099846)
(-6.51282e-07 -1.15401e-07 -0.000998633)
(-8.20998e-07 -1.13935e-07 -0.000998871)
(-9.11286e-07 -1.12241e-07 -0.000999152)
(-1.44102e-07 -3.38394e-07 -0.000998443)
(-4.17869e-07 -3.37144e-07 -0.000998535)
(-6.49724e-07 -3.34039e-07 -0.000998708)
(-8.19117e-07 -3.29832e-07 -0.000998945)
(-9.09181e-07 -3.24978e-07 -0.000999225)
(-1.42975e-07 -5.24314e-07 -0.000998585)
(-4.14731e-07 -5.22346e-07 -0.000998677)
(-6.45026e-07 -5.17504e-07 -0.000998847)
(-8.1333e-07 -5.1092e-07 -0.000999083)
(-9.02789e-07 -5.03329e-07 -0.00099936)
(-1.41381e-07 -6.57973e-07 -0.00099878)
(-4.10259e-07 -6.55419e-07 -0.00099887)
(-6.38307e-07 -6.49161e-07 -0.000999038)
(-8.05048e-07 -6.40632e-07 -0.00099927)
(-8.93747e-07 -6.30871e-07 -0.000999543)
(-1.39457e-07 -7.26214e-07 -0.000999007)
(-4.0485e-07 -7.23244e-07 -0.000999095)
(-6.30144e-07 -7.16054e-07 -0.000999261)
(-7.9504e-07 -7.06276e-07 -0.000999488)
(-8.82843e-07 -6.95061e-07 -0.000999757)
(-1.97344e-07 -1.60548e-07 -0.000997769)
(-5.72012e-07 -1.59847e-07 -0.000997895)
(-8.89024e-07 -1.58211e-07 -0.000998132)
(-1.12066e-06 -1.55995e-07 -0.000998458)
(-1.24417e-06 -1.53445e-07 -0.000998841)
(-1.96712e-07 -4.6457e-07 -0.000997873)
(-5.70293e-07 -4.62551e-07 -0.000997999)
(-8.86512e-07 -4.57818e-07 -0.000998235)
(-1.11761e-06 -4.51443e-07 -0.000998559)
(-1.24081e-06 -4.44138e-07 -0.000998941)
(-1.94982e-07 -7.19359e-07 -0.000998069)
(-5.6547e-07 -7.16151e-07 -0.000998194)
(-8.79337e-07 -7.08703e-07 -0.000998427)
(-1.10886e-06 -6.98708e-07 -0.000998748)
(-1.23124e-06 -6.87302e-07 -0.000999126)
(-1.92497e-07 -9.01923e-07 -0.000998337)
(-5.58563e-07 -8.97713e-07 -0.00099846)
(-8.6908e-07 -8.88027e-07 -0.000998689)
(-1.09636e-06 -8.75049e-07 -0.000999005)
(-1.21772e-06 -8.60353e-07 -0.000999377)
(-1.89483e-07 -9.94325e-07 -0.000998649)
(-5.50139e-07 -9.89437e-07 -0.000998769)
(-8.56546e-07 -9.78274e-07 -0.000998994)
(-1.08118e-06 -9.63337e-07 -0.000999304)
(-1.20144e-06 -9.46456e-07 -0.000999669)
(-2.69832e-07 -2.20765e-07 -0.000996949)
(-7.81524e-07 -2.19617e-07 -0.000997122)
(-1.21384e-06 -2.17124e-07 -0.000997446)
(-1.52976e-06 -2.13773e-07 -0.000997891)
(-1.6987e-06 -2.09977e-07 -0.000998414)
(-2.68776e-07 -6.38869e-07 -0.000997093)
(-7.7871e-07 -6.35541e-07 -0.000997266)
(-1.20979e-06 -6.28302e-07 -0.000997588)
(-1.52492e-06 -6.18684e-07 -0.000998031)
(-1.69347e-06 -6.07844e-07 -0.000998551)
(-2.6605e-07 -9.88449e-07 -0.000997365)
(-7.71239e-07 -9.8315e-07 -0.000997535)
(-1.19889e-06 -9.71722e-07 -0.000997854)
(-1.51183e-06 -9.56677e-07 -0.000998291)
(-1.67932e-06 -9.39774e-07 -0.000998806)
(-2.62134e-07 -1.23782e-06 -0.000997734)
(-7.60543e-07 -1.23086e-06 -0.000997901)
(-1.18333e-06 -1.21593e-06 -0.000998214)
(-1.49317e-06 -1.19635e-06 -0.000998644)
(-1.65929e-06 -1.17444e-06 -0.000999151)
(-2.57376e-07 -1.36267e-06 -0.000998164)
(-7.47432e-07 -1.35463e-06 -0.000998327)
(-1.1642e-06 -1.33734e-06 -0.000998632)
(-1.47034e-06 -1.31457e-06 -0.000999053)
(-1.63506e-06 -1.28912e-06 -0.000999551)
(-3.6968e-07 -3.03961e-07 -0.000995824)
(-1.06886e-06 -3.01981e-07 -0.000996065)
(-1.65779e-06 -2.98183e-07 -0.000996508)
(-2.08812e-06 -2.93142e-07 -0.000997116)
(-2.31877e-06 -2.87622e-07 -0.000997829)
(-3.67826e-07 -8.80431e-07 -0.000996024)
(-1.06419e-06 -8.74745e-07 -0.000996262)
(-1.65136e-06 -8.6371e-07 -0.000996703)
(-2.08067e-06 -8.49328e-07 -0.000997307)
(-2.31088e-06 -8.33568e-07 -0.000998017)
(-3.63397e-07 -1.36071e-06 -0.000996403)
(-1.05252e-06 -1.3518e-06 -0.000996637)
(-1.63493e-06 -1.33437e-06 -0.000997072)
(-2.06138e-06 -1.31191e-06 -0.000997668)
(-2.29042e-06 -1.28725e-06 -0.000998371)
(-3.57138e-07 -1.70136e-06 -0.000996913)
(-1.03592e-06 -1.68973e-06 -0.000997141)
(-1.61148e-06 -1.66676e-06 -0.000997567)
(-2.03381e-06 -1.63734e-06 -0.000998153)
(-2.26121e-06 -1.60505e-06 -0.000998844)
(-3.49495e-07 -1.86942e-06 -0.000997508)
(-1.01536e-06 -1.85617e-06 -0.000997729)
(-1.5823e-06 -1.8294e-06 -0.000998143)
(-1.99966e-06 -1.79482e-06 -0.000998715)
(-2.2257e-06 -1.75665e-06 -0.000999393)
(-5.08421e-07 -4.18597e-07 -0.00099428)
(-1.46436e-06 -4.14897e-07 -0.000994618)
(-2.26494e-06 -4.0928e-07 -0.000995225)
(-2.85002e-06 -4.01628e-07 -0.000996056)
(-3.16302e-06 -3.93802e-07 -0.000997026)
(-5.04902e-07 -1.21677e-06 -0.000994553)
(-1.45652e-06 -1.20656e-06 -0.000994886)
(-2.25489e-06 -1.18993e-06 -0.00099549)
(-2.8387e-06 -1.16845e-06 -0.000996314)
(-3.15151e-06 -1.14601e-06 -0.000997281)
(-4.97448e-07 -1.87762e-06 -0.00099509)
(-1.43803e-06 -1.86212e-06 -0.000995414)
(-2.23025e-06 -1.83573e-06 -0.000996009)
(-2.81066e-06 -1.80236e-06 -0.000996822)
(-3.1229e-06 -1.76714e-06 -0.000997779)
(-4.87097e-07 -2.34319e-06 -0.00099579)
(-1.4121e-06 -2.32299e-06 -0.000996104)
(-2.19515e-06 -2.28747e-06 -0.000996686)
(-2.77046e-06 -2.24338e-06 -0.000997484)
(-3.08144e-06 -2.19677e-06 -0.000998427)
(-4.74301e-07 -2.56771e-06 -0.000996625)
(-1.37893e-06 -2.54563e-06 -0.000996923)
(-2.15032e-06 -2.50414e-06 -0.000997485)
(-2.71997e-06 -2.4521e-06 -0.000998262)
(-3.0313e-06 -2.39561e-06 -0.000999185)
(-7.04744e-07 -5.74459e-07 -0.000992155)
(-2.01219e-06 -5.66637e-07 -0.000992645)
(-3.0957e-06 -5.59092e-07 -0.000993473)
(-3.88941e-06 -5.46781e-07 -0.000994612)
(-4.30782e-06 -5.36147e-07 -0.000995932)
(-6.97205e-07 -1.68896e-06 -0.000992515)
(-1.99881e-06 -1.66902e-06 -0.00099299)
(-3.08012e-06 -1.64457e-06 -0.000993818)
(-3.87201e-06 -1.61189e-06 -0.000994943)
(-4.29166e-06 -1.5807e-06 -0.00099626)
(-6.8391e-07 -2.59873e-06 -0.000993303)
(-1.96854e-06 -2.57009e-06 -0.000993761)
(-3.04313e-06 -2.53104e-06 -0.000994573)
(-3.83165e-06 -2.48147e-06 -0.000995682)
(-4.25453e-06 -2.43286e-06 -0.000996984)
(-6.65684e-07 -3.2363e-06 -0.000994247)
(-1.92784e-06 -3.19841e-06 -0.00099468)
(-2.99153e-06 -3.14276e-06 -0.000995482)
(-3.77432e-06 -3.07662e-06 -0.000996565)
(-4.19831e-06 -3.01129e-06 -0.000997855)
(-6.42339e-07 -3.53138e-06 -0.00099545)
(-1.87064e-06 -3.49403e-06 -0.000995847)
(-2.92091e-06 -3.42988e-06 -0.000996606)
(-3.70018e-06 -3.35346e-06 -0.000997658)
(-4.13248e-06 -3.27081e-06 -0.000998917)
(-9.93113e-07 -7.76024e-07 -0.000989226)
(-2.77888e-06 -7.55953e-07 -0.000989981)
(-4.23173e-06 -7.49966e-07 -0.000991089)
(-5.30883e-06 -7.26605e-07 -0.000992664)
(-5.8474e-06 -7.14458e-07 -0.000994459)
(-9.73576e-07 -2.36335e-06 -0.000989649)
(-2.75558e-06 -2.31949e-06 -0.000990349)
(-4.20805e-06 -2.28603e-06 -0.000991487)
(-5.28069e-06 -2.23333e-06 -0.000993015)
(-5.82634e-06 -2.19087e-06 -0.000994824)
(-9.48456e-07 -3.60946e-06 -0.000990906)