FoamFile
{version 2.0; format ascii;class Cloud<passiveParticle>; location 0;object  positions;}
356
(
( -0.00268221 -0.00397701 0.000498307 ) 0 
( -0.00293297 -0.00299383 0.000499073 ) 0 
( -0.00296301 -0.00103305 0.000498367 ) 0 
( -0.00161966 -0.00420573 0.000497749 ) 0 
( -0.00437891 -0.00438553 0.000498216 ) 0 
( -0.000995847 -0.00306764 0.000498094 ) 0 
( -0.000343667 -0.00231222 0.000498485 ) 0 
( -0.00392632 -0.000760468 0.000497121 ) 0 
( -0.00485007 -0.00242946 0.000497695 ) 0 
( -0.00273154 -0.00200803 0.000499156 ) 0 
( -0.000495125 -0.00499151 0.000498247 ) 0 
( -0.00342172 -0.00467337 0.000498037 ) 0 
( -0.00369139 -0.00173219 0.000499778 ) 0 
( -0.00286898 -0.00148956 0.0013807 ) 0 
( -0.00364164 -0.00369833 0.000497528 ) 0 
( -0.00424497 -0.00214516 0.00123914 ) 0 
( -0.00244289 -0.00494689 0.000498602 ) 0 
( -0.0020019 -0.00130955 0.000496947 ) 0 
( -0.00389157 -0.00271275 0.000497883 ) 0 
( -0.00464963 -0.00145061 0.000498642 ) 0 
( -0.0019736 -0.00327152 0.000498783 ) 0 
( -0.00319422 -6.13476e-05 0.000497771 ) 0 
( -0.00177437 -0.00229202 0.00049772 ) 0 
( -0.00308358 -0.00356874 0.0013166 ) 0 
( -0.00125562 -0.000623581 0.0004992 ) 0 
( -0.00460552 -0.00341232 0.000497251 ) 0 
( -0.00223412 -0.000338188 0.000497858 ) 0 
( -0.00328166 -0.00240921 0.00123088 ) 0 
( -0.00375653 -0.000205148 0.00130992 ) 0 
( -0.00232952 -0.00271152 0.00124496 ) 0 
( -0.00403983 -0.00327557 0.00130876 ) 0 
( -0.00192234 -0.00180647 0.00135712 ) 0 
( -0.000641141 -0.00400202 0.000498909 ) 0 
( -0.00477298 -0.00396199 0.00131307 ) 0 
( -0.00279042 -0.000483201 0.00131484 ) 0 
( -0.00455033 -0.00493499 0.00131446 ) 0 
( -0.00288343 -0.00463249 0.0013382 ) 0 
( -0.00104585 -0.00160127 0.000498808 ) 0 
( -0.00121653 -0.0046523 0.00129348 ) 0 
( -0.00483681 -0.00084586 0.00127085 ) 0 
( -0.00106068 -0.00233864 0.00119349 ) 0 
( -0.000312111 -0.00296844 0.00139473 ) 0 
( -0.00311246 -0.00292022 0.00207545 ) 0 
( -0.00381554 -0.00424928 0.00131166 ) 0 
( -0.000376366 -0.000708207 0.00111857 ) 0 
( -0.00385254 -0.0012357 0.00136981 ) 0 
( -0.00203861 -0.00483788 0.00183095 ) 0 
( -0.00499602 -0.00298807 0.00131228 ) 0 
( -0.00102595 -0.00138016 0.00147248 ) 0 
( -0.00139942 -0.00399195 0.00201829 ) 0 
( -0.000551445 -0.00393386 0.0014913 ) 0 
( -0.00253031 -0.00210894 0.00208906 ) 0 
( -0.00212668 -0.00397946 0.00132781 ) 0 
( -0.00160423 -0.00247733 0.00202277 ) 0 
( -0.00448295 -0.00161056 0.00204794 ) 0 
( -0.00110867 -6.36899e-05 0.0013271 ) 0 
( -0.00145636 -0.00323912 0.00136597 ) 0 
( -0.00218497 -0.00328913 0.00204641 ) 0 
( -0.00415313 -0.00460993 0.00217805 ) 0 
( -0.00407317 -0.00264916 0.0020842 ) 0 
( -0.00278926 -0.00407483 0.00216089 ) 0 
( -0.000205218 -0.00115378 0.00199671 ) 0 
( -0.00180788 -0.000776006 0.00131779 ) 0 
( -0.00349199 -0.0018372 0.00207881 ) 0 
( -0.00371914 -0.00371099 0.00214713 ) 0 
( -0.00468076 -0.00343784 0.00215742 ) 0 
( -0.000580358 -0.00207978 0.00202952 ) 0 
( -0.00328569 -0.000854487 0.00209879 ) 0 
( -0.00110381 -0.000650195 0.0021489 ) 0 
( -0.000264131 -0.000151308 0.00193993 ) 0 
( -0.0024929 -0.00277947 0.00284688 ) 0 
( -0.00425897 -0.000635529 0.00205724 ) 0 
( -0.00079154 -0.00137463 0.00277474 ) 0 
( -0.00383395 -0.00027516 0.00297275 ) 0 
( -0.00390269 -0.00125215 0.00277683 ) 0 
( -0.00330999 -0.00222104 0.00298067 ) 0 
( -0.00275484 -0.00017966 0.00287485 ) 0 
( -0.00186306 -0.00375521 0.00286951 ) 0 
( -0.000187588 -0.000583329 0.0028362 ) 0 
( -0.00229758 -0.000740274 0.00218644 ) 0 
( -0.000606057 -0.00475463 0.00207547 ) 0 
( -0.000887786 -0.003151 0.00219042 ) 0 
( -0.00101456 -2.53532e-05 0.00292337 ) 0 
( -0.00277566 -0.00140752 0.0027555 ) 0 
( -0.00147368 -0.00469478 0.00272292 ) 0 
( -0.00163863 -0.00148755 0.00225896 ) 0 
( -0.000690259 -0.00399881 0.00272201 ) 0 
( -0.00491957 -0.00404279 0.00291453 ) 0 
( -0.0010834 -0.0023249 0.0028603 ) 0 
( -0.00435993 -0.00213547 0.00288931 ) 0 
( -0.00462474 -0.00499486 0.00296938 ) 0 
( -0.000212567 -0.00362765 0.00352278 ) 0 
( -0.00364315 -0.00316081 0.00297567 ) 0 
( -0.00475081 -0.000713626 0.00292117 ) 0 
( -0.00280802 -0.00366794 0.00317861 ) 0 
( -0.00326899 -0.000926541 0.00347713 ) 0 
( -0.00347526 -0.00435652 0.00286958 ) 0 
( -0.00199501 -0.00194372 0.00307272 ) 0 
( -0.0010906 -0.00324616 0.00324295 ) 0 
( -0.00199874 -0.00312969 0.00364089 ) 0 
( -0.00166898 -0.000778811 0.00296269 ) 0 
( -0.000231607 -0.00286054 0.00288455 ) 0 
( -0.00302401 -0.0044535 0.00375571 ) 0 
( -0.00292417 -0.00276178 0.0037476 ) 0 
( -0.000838478 -0.000765166 0.00357063 ) 0 
( -0.000179447 -0.00461251 0.00336262 ) 0 
( -0.00384777 -0.00172079 0.00365702 ) 0 
( -0.00484251 -0.00164568 0.00361139 ) 0 
( -0.00120342 -0.00169303 0.00362747 ) 0 
( -0.00278749 -0.00177319 0.00370219 ) 0 
( -0.000631704 -0.00250582 0.00373253 ) 0 
( -0.00111141 -0.00431291 0.00356994 ) 0 
( -0.0025854 -0.000301342 0.00385158 ) 0 
( -0.00411117 -0.00388349 0.00348004 ) 0 
( -0.00463208 -0.00309839 0.00309501 ) 0 
( -0.000215943 -0.00154093 0.00365955 ) 0 
( -0.00202922 -0.00113549 0.00382288 ) 0 
( -0.00243722 -0.00456818 0.00295333 ) 0 
( -0.0010812 -0.00210488 0.00452921 ) 0 
( -0.00339318 -0.00218457 0.00441481 ) 0 
( -0.0010258 -0.00354104 0.0041952 ) 0 
( -0.00453235 -0.00213561 0.00442484 ) 0 
( -0.000510324 -0.00012676 0.00426562 ) 0 
( -0.00402039 -0.00269751 0.00377619 ) 0 
( -0.00453567 -0.00461618 0.00400788 ) 0 
( -0.00195399 -0.00221242 0.00403417 ) 0 
( -0.0039267 -0.00135747 0.00458453 ) 0 
( -0.00421844 -0.00079948 0.00376178 ) 0 
( -0.000160621 -0.00308615 0.00439484 ) 0 
( -0.00341626 -0.00052406 0.00437798 ) 0 
( -0.00287649 -0.0013352 0.00459404 ) 0 
( -0.00141361 -0.00462386 0.00446834 ) 0 
( -0.00040423 -0.00485462 0.00462891 ) 0 
( -0.00338005 -0.00358156 0.00409049 ) 0 
( -0.00430996 -0.00340459 0.00442008 ) 0 
( -3.50823e-05 -0.00209784 0.00446855 ) 0 
( -0.00207269 -0.00412679 0.003773 ) 0 
( -0.00245337 -0.00348975 0.00445339 ) 0 
( -0.00449364 -0.000182491 0.00449719 ) 0 
( -0.00488196 -0.00110165 0.00444509 ) 0 
( -0.00159427 -0.000247936 0.00396779 ) 0 
( -0.0036866 -0.00443831 0.0045026 ) 0 
( -0.00250004 -0.00447643 0.00460588 ) 0 
( -0.0016446 -0.00291813 0.00466976 ) 0 
( -0.000377207 -0.00125584 0.00489108 ) 0 
( -0.00188647 -0.00477554 0.00533537 ) 0 
( -0.00396337 -0.00214404 0.00524549 ) 0 
( -0.00128355 -1.64811e-05 0.00488792 ) 0 
( -0.00252394 -0.00246852 0.00481502 ) 0 
( -0.00484112 -0.00420681 0.00486749 ) 0 
( -0.00144832 -0.00381829 0.00505612 ) 0 
( -0.00215985 -0.000645378 0.00468715 ) 0 
( -0.00195546 -0.00162811 0.00484452 ) 0 
( -0.00399228 -0.0038537 0.00525369 ) 0 
( -0.000456395 -0.00386178 0.00495132 ) 0 
( -0.00341663 -0.000945559 0.0053382 ) 0 
( -0.000777986 -0.00294035 0.0051661 ) 0 
( -0.00417978 -0.00483427 0.00527546 ) 0 
( -0.00352513 -0.00303751 0.00491706 ) 0 
( -0.00124381 -0.0010587 0.00443531 ) 0 
( -0.00244558 -0.00105588 0.00555048 ) 0 
( -0.00187632 -0.00255511 0.00557132 ) 0 
( -0.00360812 -0.00435754 0.00602569 ) 0 
( -0.00487214 -0.00255756 0.00526389 ) 0 
( -0.00317517 -0.00483478 0.00526327 ) 0 
( -0.00290471 -0.00282125 0.00566881 ) 0 
( -0.00299623 -0.00385333 0.00520839 ) 0 
( -0.000911955 -0.00459107 0.0054592 ) 0 
( -0.00486942 -0.00350507 0.00557889 ) 0 
( -0.00120728 -0.00181864 0.00547738 ) 0 
( -0.00217773 -0.00350419 0.00565862 ) 0 
( -0.00440364 -0.000808703 0.00527078 ) 0 
( -0.00147907 -0.000860774 0.00538628 ) 0 
( -0.00175386 -0.00138431 0.00619193 ) 0 
( -0.0028925 -0.00017328 0.00569179 ) 0 
( -0.00379168 -0.00317772 0.00596086 ) 0 
( -0.000568214 -0.000592746 0.00569779 ) 0 
( -0.00302456 -0.0018601 0.0054298 ) 0 
( -0.000264583 -0.00214933 0.00549649 ) 0 
( -0.00460714 -0.0043519 0.0060399 ) 0 
( -0.00258507 -0.00440652 0.00594663 ) 0 
( -0.000856104 -0.00366852 0.00584697 ) 0 
( -9.73068e-05 -0.00486912 0.00596813 ) 0 
( -0.00407825 -0.0014537 0.0059602 ) 0 
( -0.00352249 -0.00224705 0.00620473 ) 0 
( -0.00216088 -0.000466927 0.00630574 ) 0 
( -0.00313343 -0.00128419 0.00623804 ) 0 
( -0.00391493 -0.00375938 0.00676417 ) 0 
( -0.00069205 -0.00151947 0.00627835 ) 0 
( -0.0016864 -0.003886 0.00643806 ) 0 
( -0.00459406 -0.00170344 0.00677887 ) 0 
( -0.0021301 -0.00299238 0.0065139 ) 0 
( -0.00449074 -0.00249979 0.00618474 ) 0 
( -0.00101284 -0.00259628 0.00607347 ) 0 
( -0.00294893 -0.00356186 0.00633717 ) 0 
( -0.00177716 -0.0048749 0.00632346 ) 0 
( -4.43871e-05 -0.00275294 0.00626236 ) 0 
( -0.00482338 -0.00339019 0.0065706 ) 0 
( -0.000873658 -0.00446694 0.00644946 ) 0 
( -0.00247376 -0.00209766 0.00622862 ) 0 
( -0.0044259 -0.000442524 0.00620006 ) 0 
( -0.000136549 -0.00379707 0.00652847 ) 0 
( -0.00303335 -0.00442112 0.00683957 ) 0 
( -0.00110311 -0.00142409 0.0071843 ) 0 
( -0.00120059 -0.000643503 0.00657019 ) 0 
( -0.00159966 -0.00218496 0.00676909 ) 0 
( -0.00388597 -0.000999399 0.0068296 ) 0 
( -0.000228248 -0.000775414 0.00675639 ) 0 
( -0.00217084 -0.00473418 0.0072312 ) 0 
( -0.00340434 -0.00291042 0.0069424 ) 0 
( -0.00485684 -0.000784622 0.00707154 ) 0 
( -8.27475e-05 -0.00306852 0.00720957 ) 0 
( -0.00370532 -0.0019735 0.0071482 ) 0 
( -0.00393478 -9.47566e-06 0.00695498 ) 0 
( -0.0009604 -0.00329439 0.00678582 ) 0 
( -0.0048419 -0.00428788 0.00700954 ) 0 
( -0.00248739 -0.00235416 0.00719401 ) 0 
( -0.00242374 -0.0013907 0.00693303 ) 0 
( -0.00437698 -0.00271276 0.00715402 ) 0 
( -0.00237919 -0.00372962 0.0071413 ) 0 
( -0.00169896 -0.00305054 0.00741296 ) 0 
( -0.000683608 -0.000387223 0.00755602 ) 0 
( -0.00299276 -0.00470387 0.00779851 ) 0 
( -0.00132056 -0.00421618 0.00730583 ) 0 
( -0.0019169 -0.000595803 0.00726583 ) 0 
( -0.00442765 -0.00360207 0.00760677 ) 0 
( -0.000154647 -0.0014459 0.00749497 ) 0 
( -0.000617635 -0.00227145 0.00693243 ) 0 
( -0.00317126 -0.00124957 0.00758165 ) 0 
( -0.00296572 -0.000551651 0.0068966 ) 0 
( -0.00032682 -0.0043033 0.00736876 ) 0 
( -0.00428251 -0.0013244 0.00768636 ) 0 
( -0.00397171 -0.00475925 0.00686643 ) 0 
( -0.00226704 -0.00152117 0.00791068 ) 0 
( -0.000808848 -0.00348561 0.00775462 ) 0 
( -0.000935467 -0.0045322 0.0081705 ) 0 
( -0.00363719 -0.000789326 0.00833702 ) 0 
( -0.00336461 -8.08048e-06 0.00777579 ) 0 
( -0.00263423 -0.00308429 0.00786072 ) 0 
( -0.00435127 -0.000334551 0.00780572 ) 0 
( -0.00329459 -0.00376602 0.0075478 ) 0 
( -0.00149466 -0.00213763 0.00776227 ) 0 
( -0.00396135 -0.00445952 0.00781943 ) 0 
( -0.00142123 -0.00100237 0.00803192 ) 0 
( -0.00476262 -0.0021734 0.00790226 ) 0 
( -0.000564926 -0.00252673 0.00789749 ) 0 
( -0.000621586 -0.000651379 0.0085173 ) 0 
( -0.00257598 -0.000576303 0.00801716 ) 0 
( -0.0015585 -0.00326637 0.00837769 ) 0 
( -0.00387501 -0.003719 0.00848456 ) 0 
( -0.00201668 -0.00407349 0.00800716 ) 0 
( -0.000695652 -0.00162832 0.00831557 ) 0 
( -0.00394417 -0.00191601 0.00841635 ) 0 
( -0.00289501 -0.0039092 0.0084534 ) 0 
( -0.0022055 -0.00237761 0.00842234 ) 0 
( -0.00308915 -0.00217281 0.00796915 ) 0 
( -0.00373293 -0.0029324 0.00788536 ) 0 
( -0.000151571 -0.00324283 0.00846598 ) 0 
( -0.00458369 -0.00301916 0.00840226 ) 0 
( -0.00240682 -0.00477172 0.00860546 ) 0 
( -0.00325495 -0.00277585 0.0087487 ) 0 
( -0.00463515 -0.000487873 0.00876473 ) 0 
( -9.08488e-05 -0.00427352 0.00863598 ) 0 
( -0.00179023 -0.00154081 0.00878869 ) 0 
( -0.00191348 -0.000533641 0.00876395 ) 0 
( -0.00294665 -0.00144581 0.00863922 ) 0 
( -0.00237746 -0.00321105 0.00894702 ) 0 
( -0.000261132 -0.00233643 0.00887169 ) 0 
( -0.000327861 -0.000250648 0.0093843 ) 0 
( -0.00287562 -0.000532772 0.00903798 ) 0 
( -0.000162564 -0.00131846 0.00910234 ) 0 
( -0.00464313 -0.00225556 0.00904368 ) 0 
( -0.00381817 -0.000376126 0.00933098 ) 0 
( -0.00124498 -0.00237398 0.00870038 ) 0 
( -0.00347328 -0.00197419 0.00930378 ) 0 
( -0.00321121 -0.00457892 0.0091667 ) 0 
( -0.0041851 -0.00128904 0.00915573 ) 0 
( -0.00483839 -0.00397899 0.00851994 ) 0 
( -0.00117392 -0.000938731 0.00929918 ) 0 
( -0.0025111 -0.00227363 0.00936801 ) 0 
( -0.00146089 -0.00309609 0.00935746 ) 0 
( -0.00181056 -0.00160284 0.00978575 ) 0 
( -0.00119064 -0.000119345 0.00987181 ) 0 
( -0.000464219 -0.00315263 0.00941155 ) 0 
( -0.000894128 -0.00187775 0.00949383 ) 0 
( -0.00446845 -0.00345127 0.00929544 ) 0 
( -0.00290184 -0.000120947 0.00994802 ) 0 
( -0.00333045 -0.00359722 0.00931296 ) 0 
( -0.00095892 -0.00386173 0.00891088 ) 0 
( -0.00381544 -0.00281975 0.00971185 ) 0 
( -0.00206925 -0.000635267 0.00974561 ) 0 
( -0.00479164 -0.00273212 0.00990948 ) 0 
( -0.00276667 -0.00134006 0.00961684 ) 0 
( -0.00468004 -0.00173885 0.00989793 ) 0 
( -0.000471457 -0.00102093 0.0100052 ) 0 
( -0.00147029 -0.00473412 0.00898984 ) 0 
( -0.00421668 -0.00441021 0.00917342 ) 0 
( -0.00284609 -0.000934305 0.0105267 ) 0 
( -0.00194125 -0.00397 0.00942954 ) 0 
( -0.00224598 -0.0049817 0.00956931 ) 0 
( -0.0026809 -0.00310666 0.0098933 ) 0 
( -0.00105194 -0.00426446 0.00982038 ) 0 
( -0.00481559 -0.000173833 0.00969644 ) 0 
( -0.00313577 -0.00226954 0.0101965 ) 0 
( -0.0036738 -0.001111 0.00999545 ) 0 
( -0.000124485 -0.00235812 0.00991352 ) 0 
( -0.00498358 -0.00395784 0.00998573 ) 0 
( -0.00187178 -0.00255319 0.0100893 ) 0 
( -0.00468011 -0.00491031 0.0100057 ) 0 
( -0.00277145 -0.004099 0.00997127 ) 0 
( -0.00138434 -0.000943695 0.0104045 ) 0 
( -0.00396263 -0.00393035 0.0100123 ) 0 
( -0.00400839 -0.00018602 0.0102937 ) 0 
( -0.00206887 -0.000511127 0.0109906 ) 0 
( -0.00140111 -0.00345331 0.0102891 ) 0 
( -0.000162835 -0.00170284 0.0106673 ) 0 
( -0.00234996 -0.00180396 0.0106028 ) 0 
( -0.000659168 -0.000320684 0.0106957 ) 0 
( -0.00253716 -0.00276797 0.0108226 ) 0 
( -0.00188399 -0.00432509 0.0103704 ) 0 
( -0.00339671 -0.00165767 0.0109427 ) 0 
( -0.00332921 -0.00341494 0.0105886 ) 0 
( -0.000975693 -0.00223579 0.010423 ) 0 
( -0.000512039 -0.00404231 0.0106317 ) 0 
( -0.00408901 -0.00227212 0.0105021 ) 0 
( -0.000216222 -0.00479838 0.0100487 ) 0 
( -0.00321976 -4.00568e-05 0.0108921 ) 0 
( -0.00117098 -0.00472547 0.0109449 ) 0 
( -0.00478627 -0.00437665 0.0108715 ) 0 
( -0.00119819 -0.000773094 0.0114059 ) 0 
( -0.00299004 -0.00436859 0.0109087 ) 0 
( -0.00255609 -0.00127003 0.0114225 ) 0 
( -0.00485001 -0.000132459 0.0108308 ) 0 
( -0.00432271 -0.00323563 0.0106345 ) 0 
( -0.0014799 -0.00167502 0.0110791 ) 0 
( -0.00155875 -0.00277777 0.0110269 ) 0 
( -0.00208432 -0.00362732 0.0110571 ) 0 
( -0.00345581 -0.00262605 0.0111898 ) 0 
( -0.00402472 -0.000517301 0.0112431 ) 0 
( -0.0038811 -0.00471911 0.010621 ) 0 
( -0.00218916 -0.0021898 0.0115599 ) 0 
( -0.00431557 -0.00132525 0.0107315 ) 0 
( -0.00443511 -0.00258519 0.0113862 ) 0 
( -0.00200754 -0.000646299 0.0119792 ) 0 
( -0.00295058 -0.00342579 0.0115138 ) 0 
( -0.000253031 -0.00109483 0.0114554 ) 0 
( -0.000528988 -0.00289633 0.0110257 ) 0 
( -0.00112001 -0.0036472 0.0113198 ) 0 
( -0.00101454 -0.0022937 0.0117117 ) 0 
( -0.00390572 -0.00392445 0.0112271 ) 0 
( -0.00316442 -0.000548108 0.0117514 ) 0 
( -0.00194029 -0.00309895 0.0118935 ) 0 
( -0.00488899 -0.0016566 0.0114805 ) 0 
( -3.67092e-05 -0.00218841 0.011532 ) 0 
( -0.00490894 -0.000677349 0.0116813 ) 0 
( -0.00204836 -0.00456644 0.0113972 ) 0 
)
