FoamFile
{version 2.0; format ascii;class Cloud<passiveParticle>; location 0;object  positions;}
356
(
( -150.592 109.09 49.7742 ) 0 
( -2.46203 476.863 49.8754 ) 0 
( -265.918 143.518 49.8838 ) 0 
( -387.109 393.743 49.8507 ) 0 
( -24.115 4.43934 49.9049 ) 0 
( -386.399 493.835 49.8127 ) 0 
( -181.697 204.064 49.8242 ) 0 
( -12.2517 247.797 49.8596 ) 0 
( -482.561 364.071 49.8516 ) 0 
( -297.506 438.287 49.9646 ) 0 
( -205.828 316.644 49.8642 ) 0 
( -486.097 464.055 49.9105 ) 0 
( -425.28 282.138 49.8762 ) 0 
( -449.976 149.393 49.8919 ) 0 
( -125.863 376.687 49.9133 ) 0 
( -303.776 338.516 49.8982 ) 0 
( -350.788 280.617 116.44 ) 0 
( -102.543 476.133 49.8628 ) 0 
( -277.466 44.2193 49.8883 ) 0 
( -197.811 446.097 49.7861 ) 0 
( -25.9001 379.622 49.8485 ) 0 
( -499.918 25.7322 126.648 ) 0 
( -437.084 36.7959 49.8267 ) 0 
( -273.649 243.208 49.9567 ) 0 
( -364.871 202.398 49.8647 ) 0 
( -361.669 102.508 49.8767 ) 0 
( -427.785 441.179 127.722 ) 0 
( -352.127 26.4517 113.885 ) 0 
( -29.3769 104.264 49.9595 ) 0 
( -423.053 95.0904 129.675 ) 0 
( -48.9445 310.618 118.347 ) 0 
( -334.984 477.803 133.797 ) 0 
( -151.742 420.316 135.938 ) 0 
( -113.817 277.486 49.9147 ) 0 
( -86.1005 183.829 71.0024 ) 0 
( -198.596 259.263 131.276 ) 0 
( -311.711 118.044 135.007 ) 0 
( -492.854 295.744 122.138 ) 0 
( -235.187 481.685 135.2 ) 0 
( -206.141 61.3815 117.689 ) 0 
( -110.567 28.801 93.7321 ) 0 
( -134.578 326.988 167.197 ) 0 
( -110.748 116.856 140.933 ) 0 
( -46.4522 218.094 156.141 ) 0 
( -259.535 134.789 218.569 ) 0 
( -339.469 377.962 136.253 ) 0 
( -139.91 200.645 186.993 ) 0 
( -273.879 309.906 173.168 ) 0 
( -213.657 159.747 133.442 ) 0 
( -49.5372 368.796 199.577 ) 0 
( -416.717 194.689 134.823 ) 0 
( -49.6834 1.76976 168.188 ) 0 
( -242.233 383.99 114.097 ) 0 
( -278.823 35.6885 181.168 ) 0 
( -499.937 95.9706 197.733 ) 0 
( -293.523 212.562 161.991 ) 0 
( -52.3175 437.409 126.991 ) 0 
( -296.467 429.604 212.312 ) 0 
( -179.782 11.9584 200.349 ) 0 
( -346.519 345.313 231.85 ) 0 
( -217.128 65.1013 276.248 ) 0 
( -222.457 240.844 226.46 ) 0 
( -129.651 90.9393 235.434 ) 0 
( -428.234 351.728 173.859 ) 0 
( -405.505 81.5873 227.053 ) 0 
( -389.577 465.838 216.568 ) 0 
( -480.944 66.0763 291.182 ) 0 
( -353.751 167.096 227.528 ) 0 
( -23.2066 111.822 188.727 ) 0 
( -395.712 262.54 205.023 ) 0 
( -209.313 380.89 208.273 ) 0 
( -486.504 495.95 187.322 ) 0 
( -319.698 53.6208 270.508 ) 0 
( -314.83 252.168 262.739 ) 0 
( -481.342 161.55 320.703 ) 0 
( -127.45 359.544 261.344 ) 0 
( -173.145 170.437 277.376 ) 0 
( -367.891 415.332 299.878 ) 0 
( -468.099 410.446 244.148 ) 0 
( -41.7752 80.0233 281.605 ) 0 
( -177.357 441.143 290.458 ) 0 
( -88.6015 270.983 236.024 ) 0 
( -106.368 448.348 220.469 ) 0 
( -471.191 267.441 270.34 ) 0 
( -453 179.384 226.603 ) 0 
( -69.8004 173.008 252.581 ) 0 
( -268.761 402.723 304.424 ) 0 
( -465.875 0.759511 217.148 ) 0 
( -70.2101 408.226 327.12 ) 0 
( -133.641 80.0563 334.682 ) 0 
( -302.5 315.338 339.139 ) 0 
( -491.761 356.572 324.923 ) 0 
( -10.8203 338.752 286.699 ) 0 
( -215.539 319.927 287.17 ) 0 
( -267.795 176.912 308.78 ) 0 
( -35.3233 490.217 281.998 ) 0 
( -398.919 321.29 313.445 ) 0 
( -159.814 367.314 355.496 ) 0 
( -175.187 246.704 341.823 ) 0 
( -395.728 212.653 306.119 ) 0 
( -382.81 114.307 318.611 ) 0 
( -90.6767 299.118 331.862 ) 0 
( -234.922 467.881 372.201 ) 0 
( -193.128 85.9326 446.716 ) 0 
( -443.956 69.8049 383.857 ) 0 
( -20.4348 229.215 318.922 ) 0 
( -304.821 495.794 300.022 ) 0 
( -450.306 465.764 325.441 ) 0 
( -124.701 482.467 365.804 ) 0 
( -337.742 178.823 380.088 ) 0 
( -19.9386 357.015 396.59 ) 0 
( -269.737 89.6713 357.498 ) 0 
( -84.2559 257.235 422.259 ) 0 
( -195.071 154.086 373.667 ) 0 
( -101.979 178.815 347.02 ) 0 
( -327.65 433.444 389.457 ) 0 
( -28.3294 116.646 373.548 ) 0 
( -192.17 12.3321 379.128 ) 0 
( -412.354 262.915 393.469 ) 0 
( -348.292 333.366 426.092 ) 0 
( -417.773 390.655 382.832 ) 0 
( -339.363 239.567 459.352 ) 0 
( -9.82183 24.0303 406.326 ) 0 
( -350.087 80.828 416.184 ) 0 
( -185.883 299.676 425.797 ) 0 
( -471.971 0.516111 450.795 ) 0 
( -432.868 166.154 407.977 ) 0 
( -96.1651 68.2615 430.202 ) 0 
( -261.123 241.779 392.658 ) 0 
( -274.703 143.625 449.105 ) 0 
( -248.807 373.06 400.573 ) 0 
( -288.821 2.93178 403.283 ) 0 
( -65.7633 442.443 435.944 ) 0 
( -115.57 165.128 445.062 ) 0 
( -462.295 21.0486 548.731 ) 0 
( -297.186 407.342 480.988 ) 0 
( -0.321754 288.448 466.597 ) 0 
( -449.979 93.2872 480.761 ) 0 
( -268.938 307.082 480.875 ) 0 
( -477.58 328.361 433.056 ) 0 
( -399.452 399.217 481.188 ) 0 
( -169.462 426.503 435.369 ) 0 
( -25.4319 124.441 473.078 ) 0 
( -381.919 20.5911 489.304 ) 0 
( -103.913 351.2 450.44 ) 0 
( -202.144 210.021 466.835 ) 0 
( -125.202 99.1173 520.669 ) 0 
( -366.642 147.923 488.335 ) 0 
( -410.133 481.044 424.797 ) 0 
( -227.382 120.432 534.035 ) 0 
( -457.849 469.285 522.195 ) 0 
( -490.226 232.062 456.417 ) 0 
( -54.2443 213.866 507.197 ) 0 
( -211.095 466.071 517.079 ) 0 
( -278.289 206.553 531.462 ) 0 
( -287.138 53.1291 489.682 ) 0 
( -133.878 274.288 507.286 ) 0 
( -41.7736 21.1808 500.918 ) 0 
( -57.2701 331.429 536.614 ) 0 
( -193.652 26.5592 527.088 ) 0 
( -493.281 426.936 437.284 ) 0 
( -44.2171 85.2434 577.577 ) 0 
( -336.081 434.124 569.022 ) 0 
( -6.66487 188.129 593.068 ) 0 
( -187.342 358.743 506.526 ) 0 
( -365.61 192.181 577.922 ) 0 
( -289.076 136.974 610.897 ) 0 
( -89.786 250.683 593.812 ) 0 
( -358.807 82.9253 563.877 ) 0 
( -243.438 395.887 580.429 ) 0 
( -480.716 362.995 526.751 ) 0 
( -418.062 285.203 500.704 ) 0 
( -140.339 336.895 591.956 ) 0 
( -156.474 188.323 553.022 ) 0 
( -108.224 416.774 525.738 ) 0 
( -11.1497 437.844 537.069 ) 0 
( -459.951 206.188 548.04 ) 0 
( -132.649 48.1486 606.336 ) 0 
( -343.267 338.847 539.673 ) 0 
( -190.996 126.595 627.169 ) 0 
( -419.017 388.528 601.185 ) 0 
( -315.299 374.438 646.469 ) 0 
( -180.092 230.532 640.431 ) 0 
( -272.38 38.5486 587.462 ) 0 
( -307.922 269.934 602.892 ) 0 
( -170.558 414.934 646.624 ) 0 
( -219.498 55.6445 691.574 ) 0 
( -62.6604 396.448 612.364 ) 0 
( -452.496 294.616 594.037 ) 0 
( -217.237 280.35 562.124 ) 0 
( -319.281 487.324 651.933 ) 0 
( -315.484 31.6307 677.354 ) 0 
( -405.241 498.425 602.084 ) 0 
( -125.365 487.375 594.679 ) 0 
( -486.64 353.188 667.471 ) 0 
( -115.016 295.533 679.505 ) 0 
( -381.769 104.148 658.774 ) 0 
( -451.614 113.636 584.847 ) 0 
( -50.419 40.32 666.635 ) 0 
( -264.76 248.127 690.496 ) 0 
( -493.429 453.57 616.319 ) 0 
( -430.397 215.13 650.477 ) 0 
( -1.79192 466.753 649.096 ) 0 
( -220.755 328.583 650.759 ) 0 
( -95.529 156.178 625.81 ) 0 
( -252.072 149.684 702.88 ) 0 
( -392.836 6.86939 619.141 ) 0 
( -47.1045 363.994 705.788 ) 0 
( -185.895 480.105 728.171 ) 0 
( -48.0256 134.614 743.479 ) 0 
( -380.998 301.062 663.596 ) 0 
( -402.084 441.546 684.23 ) 0 
( -331.459 103.282 745.229 ) 0 
( -345.36 189.338 696.27 ) 0 
( -127.894 95.1483 698.077 ) 0 
( -340.6 273.099 750.671 ) 0 
( -123.501 193.717 714.176 ) 0 
( -271.284 429.213 717.596 ) 0 
( -181.151 136.179 772.196 ) 0 
( -38.4605 231.261 677.436 ) 0 
( -260.954 333.079 743.057 ) 0 
( -469.982 57.6392 665.609 ) 0 
( -184.208 266.079 746.943 ) 0 
( -8.54971 0.833735 748.361 ) 0 
( -490.991 431.917 728.93 ) 0 
( -0.942888 235.438 769.99 ) 0 
( -89.6991 50.6026 779.035 ) 0 
( -166.288 363.329 732.109 ) 0 
( -202.721 4.19166 775.627 ) 0 
( -449.935 346.274 760.216 ) 0 
( -359.013 185.571 795.37 ) 0 
( -29.9971 429.474 779.376 ) 0 
( -92.5541 453.006 704.823 ) 0 
( -437.21 62.9693 759.943 ) 0 
( -355.585 371.125 737.87 ) 0 
( -143.548 429.506 803.487 ) 0 
( -262.661 209.59 782.697 ) 0 
( -205.27 353.47 823.703 ) 0 
( -314.36 8.58194 774.604 ) 0 
( -7.75553 53.8666 836.326 ) 0 
( -421.82 263.152 808.178 ) 0 
( -257.435 83.2323 809.401 ) 0 
( -479.794 256.928 726.707 ) 0 
( -410.204 438.673 787.432 ) 0 
( -433.19 159.262 733.342 ) 0 
( -381.777 354.315 832.979 ) 0 
( -330.315 497.673 775.81 ) 0 
( -81.0996 295.136 773.527 ) 0 
( -127.022 214.96 811.795 ) 0 
( -292.442 165.109 867.133 ) 0 
( -167.816 410.109 898.613 ) 0 
( -99.1824 354.109 852.208 ) 0 
( -208.296 257.491 851.59 ) 0 
( -39.7862 219.352 860.685 ) 0 
( -69.9841 448.311 869.055 ) 0 
( -296.037 302.648 835.147 ) 0 
( -368.312 70.0455 832.113 ) 0 
( -293.042 399.52 810.534 ) 0 
( -80.1261 130.675 838.139 ) 0 
( -164.558 67.623 843.34 ) 0 
( -247.124 0.822183 865.143 ) 0 
( -496.88 405.896 825.329 ) 0 
( -351.429 459.003 865.754 ) 0 
( -443.078 145.698 832.007 ) 0 
( -119.748 267.107 897.058 ) 0 
( -479.202 225.161 880.784 ) 0 
( -430.761 25.5672 896.354 ) 0 
( -264.027 83.912 918.156 ) 0 
( -125.331 112.971 925.686 ) 0 
( -25.8582 241.866 957.349 ) 0 
( -290.648 251.679 921.26 ) 0 
( -235.897 481.493 814.733 ) 0 
( -83.115 343.226 950.63 ) 0 
( -383.233 199.191 891.651 ) 0 
( -467.466 324.291 875.216 ) 0 
( -379.82 296.474 914.773 ) 0 
( -181.072 30.4583 934.727 ) 0 
( -13.8294 312.777 885.196 ) 0 
( -466.458 114.716 924.308 ) 0 
( -192.551 160.229 868.623 ) 0 
( -315.073 374.103 905.031 ) 0 
( -226.601 329.487 918.816 ) 0 
( -14.6538 138.205 913.429 ) 0 
( -433.259 414.306 902.123 ) 0 
( -51.1993 45.7831 926.265 ) 0 
( -208.734 206.333 956.414 ) 0 
( -201.604 112.731 990.92 ) 0 
( -329.149 7.9517 922.306 ) 0 
( -366.985 104.075 926.365 ) 0 
( -58.3995 113.303 1000.14 ) 0 
( -435.128 233.405 970.579 ) 0 
( -247.411 426.533 957.09 ) 0 
( -64.6675 455.523 968.876 ) 0 
( -447.139 343.707 971.796 ) 0 
( -111.975 196.154 979.536 ) 0 
( -497.103 117.264 1028.57 ) 0 
( -261.818 20.2005 995.448 ) 0 
( -318.037 319.251 990.111 ) 0 
( -162.314 290.262 984.743 ) 0 
( -68.642 385.762 1040.58 ) 0 
( -159.146 389.538 996.309 ) 0 
( -298.415 163.679 968.229 ) 0 
( -74.8097 286.247 1032.98 ) 0 
( -160.274 484.596 965.273 ) 0 
( -344.236 431.35 982.014 ) 0 
( -398.871 292.331 1042.95 ) 0 
( -159.187 167.596 1063.11 ) 0 
( -22.0652 489.98 1052.83 ) 0 
( -439.362 208.602 1079.65 ) 0 
( -314.506 93.8544 1038.04 ) 0 
( -226.002 66.9362 1076.62 ) 0 
( -402.05 147.462 1009.53 ) 0 
( -432.466 453.637 1023.73 ) 0 
( -223.046 251.476 1054.29 ) 0 
( -247.437 369.815 1039.75 ) 0 
( -132.717 58.5908 1039.15 ) 0 
( -163.418 330.06 1076.7 ) 0 
( -359.333 6.72399 1018.01 ) 0 
( -452.333 34.6886 994.05 ) 0 
( -404.725 73.5912 1076.98 ) 0 
( -40.4342 195 1055.13 ) 0 
( -356.419 157.641 1102.7 ) 0 
( -81.8565 117.159 1102.3 ) 0 
( -203.602 458.702 1053.48 ) 0 
( -294.802 305.991 1100.67 ) 0 
( -214.866 499.032 1145.18 ) 0 
( -131.677 245.487 1119.75 ) 0 
( -319.867 231.103 1039.11 ) 0 
( -369.289 250.458 1137.85 ) 0 
( -110.564 461.96 1090.03 ) 0 
( -372.639 385.872 1066.56 ) 0 
( -171.275 113.356 1147.05 ) 0 
( -379.714 347.64 1159.48 ) 0 
( -128.284 473.457 1188.34 ) 0 
( -31.3026 321.551 1116.58 ) 0 
( -490.97 27.0371 1096.86 ) 0 
( -20.3622 420.589 1124.95 ) 0 
( -249.497 233.536 1153.26 ) 0 
( -298.992 451.563 1082.63 ) 0 
( -475.469 418.158 1106.91 ) 0 
( -187.579 309.809 1172.48 ) 0 
( -51.1906 246.073 1179.66 ) 0 
( -391.653 96.6266 1174.38 ) 0 
( -391.341 446.843 1153.71 ) 0 
( -313.988 34.6963 1119 ) 0 
( -473.975 126.926 1125.82 ) 0 
( -268.959 109.556 1168.37 ) 0 
( -256.974 162.037 1083.48 ) 0 
( -30.0501 33.7542 1124.3 ) 0 
( -108.738 378.244 1146.03 ) 0 
( -424.349 2.34547 1167.98 ) 0 
( -296.325 430.859 1181.03 ) 0 
( -42.2779 105.068 1193.59 ) 0 
( -216.228 396.829 1131.55 ) 0 
( -475.541 366.676 1192.98 ) 0 
( -458.134 296.547 1123.83 ) 0 
)
