/*--------------------------------*- C++ -*----------------------------------*\
| =========                 |                                                 |
| \\      /  F ield         | OpenFOAM: The Open Source CFD Toolbox           |
|  \\    /   O peration     | Version:  5.x                                   |
|   \\  /    A nd           | Web:      www.OpenFOAM.org                      |
|    \\/     M anipulation  |                                                 |
\*---------------------------------------------------------------------------*/
FoamFile
{
    version     2.0;
    format      ascii;
    class       volScalarField;
    location    "1000";
    object      p;
}
// * * * * * * * * * * * * * * * * * * * * * * * * * * * * * * * * * * * * * //

dimensions      [0 2 -2 0 0 0 0];

internalField   nonuniform List<scalar> 
180
(
-5.86808e-08
-1.74639e-07
-2.89626e-07
-4.04543e-07
-5.18684e-07
-6.32273e-07
-7.45216e-07
-8.57487e-07
-9.69105e-07
-1.08014e-06
-1.19071e-06
-1.30098e-06
-1.41117e-06
-1.5215e-06
-1.63223e-06
-1.74362e-06
-1.85593e-06
-1.96939e-06
-2.08422e-06
-2.20057e-06
-2.31856e-06
-2.43825e-06
-2.55962e-06
-2.68261e-06
-2.80707e-06
-2.93282e-06
-3.05962e-06
-3.18719e-06
-3.31519e-06
-3.44326e-06
-3.57097e-06
-3.69785e-06
-3.82333e-06
-3.9467e-06
-4.06694e-06
-4.18295e-06
-4.29378e-06
-4.39829e-06
-4.49514e-06
-4.5827e-06
-4.65902e-06
-4.72173e-06
-4.76796e-06
-4.79423e-06
-4.79634e-06
-4.76925e-06
-4.70692e-06
-4.60216e-06
-4.44642e-06
-4.22961e-06
-3.93978e-06
-3.5629e-06
-3.08249e-06
-2.47918e-06
-1.73028e-06
-8.09172e-07
3.15344e-07
1.67987e-06
3.32736e-06
5.30826e-06
7.68189e-06
1.0518e-05
1.38991e-05
1.79225e-05
2.27007e-05
2.83648e-05
3.50688e-05
4.29934e-05
5.23502e-05
6.33869e-05
7.63928e-05
9.1706e-05
0.00010972
0.000130886
0.000155712
0.000184847
0.000219685
0.000263118
0.000315298
0.00022596
0.000316925
0.000565722
0.000853025
0.00149679
0.000841724
-0.00137022
-0.0136571
-0.0343178
-0.0467402
-0.06116
-0.0753171
-0.0934286
-0.11063
-0.128817
-0.15265
-0.181444
-0.211113
-0.24029
-0.270598
-0.300659
-0.322542
-0.332241
-0.330166
-0.32624
-0.325147
-0.325188
-0.325047
-0.324921
-0.324815
-0.324727
-0.324653
-0.32459
-0.324538
-0.324494
-0.324457
-0.324426
-0.3244
-0.324378
-0.32436
-0.324344
-0.324331
-0.32432
-0.324311
-0.324303
-0.324297
-0.324291
-0.324287
-0.324283
-0.324279
-0.324277
-0.324274
-0.324272
-0.324271
-0.324269
-0.324268
-0.324267
-0.324267
-0.324266
-0.324265
-0.324265
-0.324265
-0.324264
-0.324264
-0.324264
-0.324264
-0.324264
-0.324264
-0.324263
-0.324263
-0.324263
-0.324263
-0.324263
-0.324263
-0.324263
-0.324263
-0.324263
-0.324263
-0.324262
-0.324262
-0.324262
-0.324262
-0.324262
-0.324262
-0.324262
-0.324262
-0.324262
-0.324261
-0.324261
-0.324261
-0.324261
-0.324261
-0.324261
-0.324261
-0.324261
-0.324261
-0.324261
-0.324261
-0.324261
-0.324261
-0.324261
)
;

boundaryField
{
    inlet
    {
        type            zeroGradient;
    }
    outlet
    {
        type            fixedValue;
        value           uniform 0;
    }
    repeat_boundary
    {
        type            zeroGradient;
    }
    procBoundary3to1
    {
        type            processor;
        value           nonuniform List<scalar> 
180
(
-7.04674e-08
-2.09901e-07
-3.4901e-07
-4.8773e-07
-6.23838e-07
-7.57536e-07
-8.88224e-07
-1.01544e-06
-1.13883e-06
-1.25815e-06
-1.37326e-06
-1.48417e-06
-1.59099e-06
-1.69394e-06
-1.79339e-06
-1.88982e-06
-1.98379e-06
-2.07599e-06
-2.16717e-06
-2.25816e-06
-2.34984e-06
-2.44314e-06
-2.53902e-06
-2.63846e-06
-2.74246e-06
-2.852e-06
-2.96806e-06
-3.09159e-06
-3.22354e-06
-3.36486e-06
-3.51649e-06
-3.67942e-06
-3.8547e-06
-4.04355e-06
-4.24746e-06
-4.46807e-06
-4.70687e-06
-4.96562e-06
-5.2463e-06
-5.55129e-06
-5.88336e-06
-6.24583e-06
-6.64266e-06
-7.07861e-06
-7.55937e-06
-8.0918e-06
-8.68409e-06
-9.3461e-06
-1.00896e-05
-1.09285e-05
-1.18796e-05
-1.29628e-05
-1.42015e-05
-1.56236e-05
-1.72619e-05
-1.9155e-05
-2.13485e-05
-2.38957e-05
-2.68592e-05
-3.03125e-05
-3.43414e-05
-3.90464e-05
-4.45453e-05
-5.09761e-05
-5.84981e-05
-6.72957e-05
-7.75843e-05
-8.96145e-05
-0.000103678
-0.000120116
-0.000139321
-0.000161755
-0.00018795
-0.000218528
-0.000254226
-0.000295818
-0.000343609
-0.000396509
-0.000459272
-0.000728826
-0.000941395
-0.00135965
-0.00215133
-0.00295638
-0.00599321
-0.0127398
-0.0217309
-0.0318993
-0.0445262
-0.0575435
-0.0751126
-0.0953798
-0.117888
-0.143784
-0.171289
-0.197401
-0.22301
-0.249578
-0.27382
-0.295246
-0.312125
-0.322695
-0.324301
-0.323065
-0.322709
-0.322983
-0.323194
-0.323362
-0.323501
-0.323618
-0.323718
-0.323801
-0.323872
-0.323932
-0.323983
-0.324025
-0.324062
-0.324092
-0.324118
-0.32414
-0.324159
-0.324175
-0.324188
-0.324199
-0.324209
-0.324217
-0.324224
-0.32423
-0.324235
-0.324239
-0.324243
-0.324246
-0.324248
-0.32425
-0.324252
-0.324254
-0.324255
-0.324256
-0.324257
-0.324258
-0.324259
-0.32426
-0.32426
-0.32426
-0.324261
-0.324261
-0.324261
-0.324262
-0.324262
-0.324262
-0.324262
-0.324262
-0.324262
-0.324262
-0.324262
-0.324262
-0.324262
-0.324262
-0.324262
-0.324262
-0.324262
-0.324262
-0.324262
-0.324262
-0.324262
-0.324261
-0.324261
-0.324261
-0.324261
-0.324261
-0.324261
-0.324261
-0.324261
-0.324261
-0.324261
-0.324261
-0.324261
-0.324261
-0.324261
-0.324261
)
;
    }
    procBoundary3to2
    {
        type            processor;
        value           nonuniform List<scalar> 
180
(
-7.11361e-08
-2.1191e-07
-3.52354e-07
-4.92404e-07
-6.29834e-07
-7.64839e-07
-8.96812e-07
-1.02528e-06
-1.14988e-06
-1.27035e-06
-1.38652e-06
-1.49838e-06
-1.606e-06
-1.70958e-06
-1.80941e-06
-1.90589e-06
-1.99949e-06
-2.09076e-06
-2.18031e-06
-2.26877e-06
-2.35682e-06
-2.4451e-06
-2.53429e-06
-2.62501e-06
-2.71782e-06
-2.81319e-06
-2.91151e-06
-3.01302e-06
-3.1178e-06
-3.22578e-06
-3.33664e-06
-3.44984e-06
-3.56457e-06
-3.67968e-06
-3.79372e-06
-3.90491e-06
-4.01102e-06
-4.10936e-06
-4.19673e-06
-4.2693e-06
-4.32255e-06
-4.35118e-06
-4.34901e-06
-4.30883e-06
-4.22223e-06
-4.07947e-06
-3.86922e-06
-3.57834e-06
-3.19157e-06
-2.69118e-06
-2.05655e-06
-1.26365e-06
-2.84492e-07
9.13638e-07
2.36901e-06
4.12644e-06
6.23818e-06
8.76507e-06
1.17777e-05
1.53577e-05
1.95983e-05
2.46039e-05
3.04982e-05
3.74292e-05
4.55691e-05
5.51185e-05
6.63104e-05
7.94157e-05
9.47494e-05
0.000112677
0.000133623
0.000158082
0.000186643
0.00021999
0.000258897
0.000304314
0.000357906
0.000423234
0.000504942
0.000438296
0.000564058
0.00141072
0.00127441
0.00118288
-0.000539712
-0.00489758
-0.0106943
-0.0202834
-0.0342318
-0.0519447
-0.0718042
-0.0916802
-0.113783
-0.138033
-0.165724
-0.196034
-0.228248
-0.260101
-0.28632
-0.304442
-0.31816
-0.327213
-0.336423
-0.326194
-0.324896
-0.324897
-0.324834
-0.324766
-0.324705
-0.32465
-0.324601
-0.324558
-0.32452
-0.324487
-0.324457
-0.324431
-0.324409
-0.324389
-0.324372
-0.324357
-0.324344
-0.324333
-0.324323
-0.324314
-0.324307
-0.324301
-0.324295
-0.324291
-0.324287
-0.324283
-0.32428
-0.324278
-0.324275
-0.324274
-0.324272
-0.324271
-0.324269
-0.324268
-0.324268
-0.324267
-0.324266
-0.324266
-0.324265
-0.324265
-0.324265
-0.324264
-0.324264
-0.324264
-0.324264
-0.324264
-0.324263
-0.324263
-0.324263
-0.324263
-0.324263
-0.324263
-0.324263
-0.324262
-0.324262
-0.324262
-0.324262
-0.324262
-0.324262
-0.324262
-0.324262
-0.324262
-0.324261
-0.324261
-0.324261
-0.324261
-0.324261
-0.324261
-0.324261
-0.324261
-0.324261
-0.324261
-0.324261
-0.324261
-0.324261
-0.324261
)
;
    }
}


// ************************************************************************* //
