/*--------------------------------*- C++ -*----------------------------------*\
| =========                 |                                                 |
| \\      /  F ield         | OpenFOAM: The Open Source CFD Toolbox           |
|  \\    /   O peration     | Version:  5.x                                   |
|   \\  /    A nd           | Web:      www.OpenFOAM.org                      |
|    \\/     M anipulation  |                                                 |
\*---------------------------------------------------------------------------*/
FoamFile
{
    version     2.0;
    format      ascii;
    class       surfaceScalarField;
    location    "1000";
    object      phi;
}
// * * * * * * * * * * * * * * * * * * * * * * * * * * * * * * * * * * * * * //

dimensions      [0 3 -1 0 0 0 0];

internalField   nonuniform List<scalar> 
179
(
-249.993
-249.993
-249.994
-249.994
-249.993
-249.993
-249.993
-249.993
-249.992
-249.992
-249.992
-249.992
-249.992
-249.992
-249.993
-249.993
-249.994
-249.996
-249.998
-250.001
-250.004
-250.007
-250.012
-250.017
-250.023
-250.03
-250.037
-250.046
-250.056
-250.066
-250.078
-250.091
-250.105
-250.121
-250.138
-250.158
-250.18
-250.204
-250.23
-250.26
-250.294
-250.331
-250.374
-250.422
-250.476
-250.537
-250.607
-250.686
-250.776
-250.879
-250.995
-251.127
-251.278
-251.449
-251.644
-251.866
-252.119
-252.408
-252.737
-253.112
-253.54
-254.03
-254.589
-255.228
-255.957
-256.789
-257.74
-258.827
-260.071
-261.495
-263.126
-264.995
-267.138
-269.597
-272.419
-275.658
-279.38
-283.641
-288.376
-293.329
-294.328
-294.421
-295.193
-294.947
-296.82
-304.024
-305.852
-300.539
-295.37
-288.373
-284.675
-281.999
-282.179
-283.865
-286.651
-290.487
-293.996
-296.479
-295.915
-290.323
-282.883
-274.029
-268.109
-257.97
-250.866
-248.441
-247.157
-246.342
-245.832
-245.556
-245.451
-245.472
-245.584
-245.758
-245.973
-246.213
-246.465
-246.721
-246.974
-247.219
-247.455
-247.68
-247.891
-248.09
-248.274
-248.444
-248.601
-248.744
-248.874
-248.991
-249.097
-249.191
-249.276
-249.352
-249.42
-249.48
-249.533
-249.58
-249.622
-249.659
-249.692
-249.722
-249.75
-249.774
-249.797
-249.818
-249.838
-249.856
-249.873
-249.888
-249.903
-249.915
-249.927
-249.937
-249.945
-249.953
-249.959
-249.963
-249.967
-249.969
-249.971
-249.972
-249.972
-249.972
-249.972
-249.971
-249.971
-249.97
-249.97
-249.971
-249.971
-249.973
-249.975
-249.977
-249.98
-249.983
-249.987
-249.991
-249.995
)
;

boundaryField
{
    inlet
    {
        type            calculated;
        value           uniform -250;
    }
    outlet
    {
        type            calculated;
        value           uniform 249.993;
    }
    repeat_boundary
    {
        type            calculated;
        value           uniform 0;
    }
    procBoundary3to1
    {
        type            processor;
        value           nonuniform List<scalar> 
180
(
7.54738e-05
0.000209894
0.000355418
0.000500055
0.000637388
0.000766775
0.000885879
0.000992696
0.00108549
0.00116286
0.00122374
0.001268
0.00129485
0.00130453
0.00129767
0.00127538
0.00123922
0.00119126
0.00113401
0.00107041
0.00100379
0.000937757
0.000876132
0.000822788
0.000781481
0.000755602
0.000752146
0.000780639
0.000849505
0.000969539
0.0011556
0.00142977
0.00182757
0.00241118
0.00309211
0.00375278
0.0045348
0.00545223
0.00652143
0.00776161
0.00919548
0.0108501
0.0127577
0.014957
0.0174942
0.0204244
0.0238137
0.0277404
0.0322978
0.0375965
0.0437671
0.0509641
0.0593691
0.0691962
0.0806968
0.0941656
0.109949
0.128451
0.150148
0.175596
0.205444
0.240457
0.281529
0.328478
0.382632
0.445953
0.519966
0.606456
0.707509
0.825559
0.963453
1.12451
1.31259
1.53223
1.78876
2.08779
2.437
2.84205
3.27023
3.69218
0.939541
1.73288
1.15177
-0.0933006
1.53451
4.50082
0.886475
-2.33561
-2.65084
-3.67883
-2.23723
-0.634379
0.871862
1.69804
2.26581
2.6456
1.67928
0.615698
-2.13926
-4.61512
-5.93199
-5.56999
-3.14768
-4.04263
-3.38007
-1.886
-1.32567
-0.947166
-0.664377
-0.44364
-0.272185
-0.14041
-0.0403303
0.0345199
0.0893669
0.128427
0.155099
0.171911
0.180714
0.183938
0.182971
0.178923
0.172669
0.164898
0.156147
0.146831
0.137268
0.127698
0.118297
0.109191
0.10047
0.0921908
0.0843864
0.0770736
0.0702588
0.0639356
0.0580892
0.0526752
0.0475187
0.0428654
0.0386566
0.0348432
0.0313839
0.0282439
0.0253933
0.0228063
0.0204601
0.0183351
0.0164133
0.0146786
0.0131164
0.0117129
0.0104552
0.00933137
0.00832982
0.00743964
0.00665038
0.00595212
0.00533541
0.00479135
0.00431159
0.00388838
0.0035146
0.00318379
0.00289016
0.0026286
0.0023947
0.00218465
0.00199531
0.00182415
0.0016692
0.00152902
0.00140267
0.00128957
0.0011896
0.00110295
0.00103004
0.000973341
0.000928235
0.000917514
)
;
    }
    procBoundary3to2
    {
        type            processor;
        value           nonuniform List<scalar> 
180
(
0.000107302
0.000283397
0.000476844
0.000671671
0.000861265
0.00104567
0.00122324
0.00139276
0.0015533
0.00170437
0.00184588
0.00197827
0.00210142
0.00221716
0.00232731
0.00243672
0.00254654
0.00266085
0.00278424
0.00292196
0.00307993
0.00326471
0.00348354
0.00374428
0.00405533
0.00442559
0.00486441
0.00538154
0.00598717
0.00669188
0.00750669
0.00844312
0.00951339
0.0107307
0.0121101
0.0136678
0.0154198
0.0173836
0.0195784
0.0220256
0.0247488
0.0277749
0.0311339
0.03486
0.0389918
0.0435735
0.048655
0.0542931
0.0605523
0.0675055
0.0752352
0.0838345
0.093408
0.104073
0.115963
0.129223
0.14402
0.160538
0.178983
0.199584
0.222598
0.248311
0.27704
0.309143
0.345008
0.385061
0.429774
0.479675
0.535351
0.597451
0.666701
0.743903
0.829962
0.925882
1.03283
1.15227
1.28431
1.42091
1.46508
1.26175
0.0601482
-1.63855
-0.378056
-0.153087
0.338704
2.70332
0.941423
-2.97774
-2.51804
-3.31825
-1.46001
-2.04247
-0.691557
-0.0123607
0.520218
1.18999
1.82915
1.86786
1.57419
-0.976762
-1.50836
-3.28452
-2.77386
-6.09552
-3.72536
-0.537631
0.0441768
0.128563
0.153518
0.163814
0.16477
0.159394
0.149953
0.138043
0.12486
0.111251
0.0977968
0.0848835
0.0727496
0.0615262
0.0532043
0.0455913
0.0386886
0.0325081
0.027035
0.0222361
0.0180663
0.014474
0.0114041
0.00880078
0.00660932
0.00477722
0.00339875
0.00284399
0.00206961
0.001261
0.000511187
-0.000141375
-0.00068735
-0.00113014
-0.00148092
-0.00175288
-0.0019588
-0.00211006
-0.00221623
-0.0022851
-0.00232284
-0.00233409
-0.00232172
-0.00228887
-0.00223809
-0.00217144
-0.00209072
-0.00199766
-0.00189397
-0.00178147
-0.00166211
-0.00153791
-0.00141124
-0.0012862
-0.00116661
-0.00104847
-0.000935589
-0.000830389
-0.0007343
-0.000648311
-0.000572948
-0.000508299
-0.000454075
-0.000409683
-0.000374297
-0.000346875
-0.000326132
-0.000311066
-0.000305234
-0.000309879
-0.00031098
-0.000311814
-0.000316725
-0.000323269
)
;
    }
}


// ************************************************************************* //
