/*--------------------------------*- C++ -*----------------------------------*\
| =========                 |                                                 |
| \\      /  F ield         | OpenFOAM: The Open Source CFD Toolbox           |
|  \\    /   O peration     | Version:  5.x                                   |
|   \\  /    A nd           | Web:      www.OpenFOAM.org                      |
|    \\/     M anipulation  |                                                 |
\*---------------------------------------------------------------------------*/
FoamFile
{
    version     2.0;
    format      ascii;
    class       surfaceScalarField;
    location    "0.008";
    object      phi;
}
// * * * * * * * * * * * * * * * * * * * * * * * * * * * * * * * * * * * * * //

dimensions      [0 3 -1 0 0 0 0];

internalField   nonuniform List<scalar> 
179
(
-2.49991e-10
-2.49991e-10
-2.4999e-10
-2.4999e-10
-2.49989e-10
-2.49988e-10
-2.49987e-10
-2.49986e-10
-2.49984e-10
-2.49982e-10
-2.4998e-10
-2.49978e-10
-2.49975e-10
-2.49972e-10
-2.49969e-10
-2.49965e-10
-2.49961e-10
-2.49957e-10
-2.49952e-10
-2.49946e-10
-2.4994e-10
-2.49933e-10
-2.49925e-10
-2.49916e-10
-2.49907e-10
-2.49896e-10
-2.49885e-10
-2.49872e-10
-2.49858e-10
-2.49842e-10
-2.49824e-10
-2.49805e-10
-2.49784e-10
-2.4976e-10
-2.49734e-10
-2.49705e-10
-2.49673e-10
-2.49638e-10
-2.49599e-10
-2.49555e-10
-2.49507e-10
-2.49454e-10
-2.49395e-10
-2.4933e-10
-2.49257e-10
-2.49177e-10
-2.49088e-10
-2.4899e-10
-2.48881e-10
-2.4876e-10
-2.48626e-10
-2.48478e-10
-2.48313e-10
-2.48131e-10
-2.47929e-10
-2.47704e-10
-2.47455e-10
-2.47179e-10
-2.46873e-10
-2.46533e-10
-2.46156e-10
-2.45737e-10
-2.45273e-10
-2.44757e-10
-2.44186e-10
-2.43552e-10
-2.42849e-10
-2.42071e-10
-2.41208e-10
-2.40253e-10
-2.39196e-10
-2.3803e-10
-2.36744e-10
-2.35334e-10
-2.33805e-10
-2.32179e-10
-2.30516e-10
-2.28929e-10
-2.27598e-10
-2.26959e-10
-2.276e-10
-2.27792e-10
-2.17594e-10
-2.17453e-10
-2.23507e-10
-2.35199e-10
-2.39418e-10
-2.45316e-10
-2.42552e-10
-2.3596e-10
-2.33105e-10
-2.3172e-10
-2.38993e-10
-2.46503e-10
-2.49922e-10
-2.56478e-10
-2.67352e-10
-2.74015e-10
-2.80529e-10
-2.81441e-10
-2.83799e-10
-2.86466e-10
-2.85542e-10
-2.84544e-10
-2.83701e-10
-2.82032e-10
-2.79812e-10
-2.7732e-10
-2.74807e-10
-2.72421e-10
-2.70222e-10
-2.68225e-10
-2.66422e-10
-2.64798e-10
-2.63337e-10
-2.62023e-10
-2.6084e-10
-2.59776e-10
-2.58817e-10
-2.57954e-10
-2.57176e-10
-2.56476e-10
-2.55845e-10
-2.55276e-10
-2.54763e-10
-2.54301e-10
-2.53884e-10
-2.53508e-10
-2.53168e-10
-2.52862e-10
-2.52586e-10
-2.52336e-10
-2.52111e-10
-2.51908e-10
-2.51724e-10
-2.51558e-10
-2.51409e-10
-2.51273e-10
-2.51151e-10
-2.51041e-10
-2.50941e-10
-2.50851e-10
-2.50769e-10
-2.50695e-10
-2.50629e-10
-2.50569e-10
-2.50514e-10
-2.50465e-10
-2.5042e-10
-2.5038e-10
-2.50344e-10
-2.50311e-10
-2.50281e-10
-2.50254e-10
-2.5023e-10
-2.50208e-10
-2.50188e-10
-2.5017e-10
-2.50154e-10
-2.50139e-10
-2.50125e-10
-2.50113e-10
-2.50102e-10
-2.50092e-10
-2.50083e-10
-2.50075e-10
-2.50068e-10
-2.50061e-10
-2.50055e-10
-2.50049e-10
-2.50044e-10
-2.50039e-10
-2.50035e-10
-2.50031e-10
-2.50028e-10
-2.50024e-10
-2.50021e-10
-2.50018e-10
-2.50015e-10
)
;

boundaryField
{
    inlet
    {
        type            calculated;
        value           uniform -2.50013e-10;
    }
    outlet
    {
        type            calculated;
        value           uniform 2.49992e-10;
    }
    repeat_boundary
    {
        type            calculated;
        value           uniform 0;
    }
    procBoundary1to0
    {
        type            processor;
        value           nonuniform List<scalar> 
180
(
-1.47951e-17
-1.46984e-17
-1.40426e-17
-1.47538e-17
-1.7019e-17
-2.05842e-17
-2.51951e-17
-3.07176e-17
-3.71319e-17
-4.449e-17
-5.28785e-17
-6.23975e-17
-7.31516e-17
-8.52462e-17
-9.87852e-17
-1.13869e-16
-1.30593e-16
-1.49049e-16
-1.69323e-16
-1.91491e-16
-2.15623e-16
-2.41777e-16
-2.69992e-16
-3.00279e-16
-3.32581e-16
-3.66862e-16
-4.03323e-16
-4.42393e-16
-4.84824e-16
-5.31397e-16
-5.83201e-16
-6.41664e-16
-7.08673e-16
-7.86584e-16
-8.78204e-16
-9.8673e-16
-1.11562e-15
-1.26844e-15
-1.44902e-15
-1.66226e-15
-1.91691e-15
-2.23187e-15
-2.64815e-15
-3.16043e-15
-3.60983e-15
-4.13244e-15
-4.74004e-15
-5.44659e-15
-6.26853e-15
-7.22526e-15
-8.33951e-15
-9.63774e-15
-1.11443e-14
-1.28883e-14
-1.49056e-14
-1.7237e-14
-1.99289e-14
-2.30345e-14
-2.66139e-14
-3.07354e-14
-3.54758e-14
-4.09209e-14
-4.71662e-14
-5.43173e-14
-6.24903e-14
-7.18107e-14
-8.24125e-14
-9.44349e-14
-1.08014e-13
-1.23262e-13
-1.40218e-13
-1.58789e-13
-1.78686e-13
-1.99009e-13
-2.17733e-13
-2.31148e-13
-2.33349e-13
-2.14961e-13
-1.5433e-13
-1.3595e-14
2.51425e-13
1.67091e-13
-4.38627e-12
1.21291e-13
3.66374e-12
9.38739e-12
1.49655e-12
3.64692e-12
-3.73985e-13
-4.38604e-12
-3.02692e-12
-1.4733e-12
-1.90189e-13
2.87065e-12
7.7548e-13
2.09206e-12
6.01254e-12
2.0667e-12
3.26172e-12
1.13421e-12
3.6306e-12
4.46404e-12
9.03895e-13
3.73329e-13
2.30685e-13
-1.20479e-12
-1.96628e-12
-2.28655e-12
-2.32855e-12
-2.22515e-12
-2.06202e-12
-1.88404e-12
-1.71112e-12
-1.55043e-12
-1.40362e-12
-1.27032e-12
-1.14953e-12
-1.04016e-12
-9.4115e-13
-8.51524e-13
-7.70401e-13
-6.9698e-13
-6.30536e-13
-5.70409e-13
-5.16003e-13
-4.66775e-13
-4.22236e-13
-3.81941e-13
-3.45486e-13
-3.12506e-13
-2.82672e-13
-2.55684e-13
-2.31272e-13
-2.09189e-13
-1.89215e-13
-1.71147e-13
-1.54805e-13
-1.40023e-13
-1.26653e-13
-1.1456e-13
-1.03622e-13
-9.37296e-14
-8.47823e-14
-7.66899e-14
-6.93708e-14
-6.27511e-14
-5.6764e-14
-5.13491e-14
-4.64517e-14
-4.20225e-14
-3.80167e-14
-3.4394e-14
-3.11178e-14
-2.81551e-14
-2.54761e-14
-2.30537e-14
-2.08637e-14
-1.8884e-14
-1.70946e-14
-1.54777e-14
-1.40169e-14
-1.26977e-14
-1.15066e-14
-1.04319e-14
-9.46257e-15
-8.58899e-15
-7.80232e-15
-7.09459e-15
-6.45865e-15
-5.88804e-15
-5.37693e-15
-4.92008e-15
-4.51283e-15
-4.15101e-15
-3.83106e-15
-3.55009e-15
-3.30616e-15
-3.10002e-15
-2.93852e-15
-2.87981e-15
)
;
    }
    procBoundary1to3
    {
        type            processor;
        value           nonuniform List<scalar> 
180
(
-2.71136e-16
-3.37509e-16
-4.52874e-16
-5.97024e-16
-7.59453e-16
-9.35059e-16
-1.12235e-15
-1.32184e-15
-1.53501e-15
-1.76384e-15
-2.01059e-15
-2.27772e-15
-2.56791e-15
-2.88406e-15
-3.22934e-15
-3.60718e-15
-4.02134e-15
-4.47596e-15
-4.97554e-15
-5.52506e-15
-6.12998e-15
-6.79632e-15
-7.53072e-15
-8.34049e-15
-9.23372e-15
-1.02193e-14
-1.13072e-14
-1.25081e-14
-1.38342e-14
-1.52987e-14
-1.69161e-14
-1.87028e-14
-2.06765e-14
-2.28571e-14
-2.52662e-14
-2.79281e-14
-3.08694e-14
-3.41198e-14
-3.77118e-14
-4.16817e-14
-4.60692e-14
-5.09186e-14
-5.6279e-14
-6.22049e-14
-6.87573e-14
-7.60019e-14
-8.4012e-14
-9.28685e-14
-1.02661e-13
-1.13487e-13
-1.25456e-13
-1.38688e-13
-1.53317e-13
-1.69487e-13
-1.87361e-13
-2.07115e-13
-2.28946e-13
-2.53067e-13
-2.79712e-13
-3.09142e-13
-3.41637e-13
-3.77504e-13
-4.17077e-13
-4.60714e-13
-5.08803e-13
-5.61762e-13
-6.20033e-13
-6.84089e-13
-7.54426e-13
-8.31549e-13
-9.15917e-13
-1.00777e-12
-1.10666e-12
-1.2102e-12
-1.31144e-12
-1.39433e-12
-1.42905e-12
-1.37178e-12
-1.17578e-12
-6.25523e-13
3.90035e-13
2.50929e-14
-5.81074e-12
-2.62604e-13
2.39059e-12
2.30438e-12
2.72229e-12
2.25183e-12
-2.39021e-12
-2.20593e-12
1.72035e-13
8.88131e-14
7.46321e-12
4.63966e-12
2.64379e-12
4.46368e-12
4.86195e-12
4.59661e-12
3.25216e-12
-2.21843e-13
-1.27186e-12
-1.79741e-12
-1.82803e-12
-1.37031e-12
-1.07318e-12
-4.63937e-13
-2.53504e-13
-2.05553e-13
-1.83437e-13
-1.60689e-13
-1.36487e-13
-1.12929e-13
-9.14489e-14
-7.27294e-14
-5.68974e-14
-4.37478e-14
-3.29434e-14
-2.41327e-14
-1.69969e-14
-1.126e-14
-6.68656e-15
-3.07746e-15
-2.6445e-16
1.8941e-15
3.51714e-15
4.7043e-15
5.53887e-15
6.09031e-15
6.41646e-15
6.56559e-15
6.57828e-15
6.48221e-15
6.30493e-15
6.06886e-15
5.79166e-15
5.48746e-15
5.16755e-15
4.84086e-15
4.51441e-15
4.19365e-15
3.88276e-15
3.58487e-15
3.30226e-15
3.03651e-15
2.78762e-15
2.55463e-15
2.33692e-15
2.1342e-15
1.94509e-15
1.76972e-15
1.60805e-15
1.46007e-15
1.32481e-15
1.20153e-15
1.08948e-15
9.87888e-16
8.95969e-16
8.12975e-16
7.38174e-16
6.70872e-16
6.10411e-16
5.56178e-16
5.07609e-16
4.64191e-16
4.25466e-16
3.91029e-16
3.60536e-16
3.33696e-16
3.10275e-16
2.9009e-16
2.7301e-16
2.58943e-16
2.47825e-16
2.39588e-16
2.3411e-16
2.31145e-16
2.30312e-16
2.30853e-16
2.31964e-16
2.48601e-16
)
;
    }
}


// ************************************************************************* //
