FoamFile
{version 2.0; format ascii;class vectorField; location 0;object  v;}
353
(
( 9.30172e-07 4.42987e-06 -7.51493e-07 )  
( 4.28044e-06 5.06464e-06 6.92393e-07 )  
( 7.16232e-06 1.01561e-05 7.14702e-07 )  
( 1.33748e-06 4.1982e-06 2.52472e-07 )  
( 2.47e-06 4.0057e-06 1.48359e-06 )  
( 2.857e-06 6.13213e-06 -1.308e-08 )  
( 1.14528e-06 3.62059e-06 5.85823e-07 )  
( 1.87812e-06 4.9398e-06 1.0309e-06 )  
( 2.36751e-06 4.9521e-06 -1.60144e-07 )  
( 5.20593e-06 2.61363e-06 -6.66812e-08 )  
( 3.27937e-06 5.27787e-06 -2.29016e-09 )  
( 2.36979e-06 5.52515e-06 2.20084e-06 )  
( 4.31514e-06 8.3138e-06 -1.36224e-06 )  
( -3.9013e-09 4.88319e-06 -6.0383e-07 )  
( 1.02569e-07 -1.54852e-06 5.25867e-08 )  
( -5.70819e-07 5.04513e-06 -8.39637e-07 )  
( 1.82545e-06 4.72507e-06 -1.47787e-06 )  
( 3.31313e-06 8.60289e-06 1.91788e-06 )  
( 1.83973e-06 5.11129e-06 -6.57705e-07 )  
( 5.43644e-06 -1.11347e-07 -9.61885e-07 )  
( 1.892e-06 5.31287e-06 1.0149e-06 )  
( 2.16725e-06 5.42124e-06 -5.48727e-07 )  
( 5.90479e-06 8.9536e-06 -7.36046e-07 )  
( 2.78164e-06 4.53183e-06 2.50992e-07 )  
( 1.48135e-06 5.3262e-06 -2.21412e-06 )  
( 3.79721e-06 7.31059e-06 1.63447e-06 )  
( 1.9001e-06 4.43842e-06 1.38209e-06 )  
( 3.63708e-06 1.04202e-05 1.37882e-06 )  
( 4.75718e-06 1.14166e-05 8.35581e-07 )  
( 4.85499e-06 1.46338e-05 1.52539e-06 )  
( 4.85117e-06 8.62006e-06 -3.83331e-07 )  
( 6.13886e-06 8.16981e-06 -1.16236e-06 )  
( 3.24893e-06 8.82396e-06 -1.99698e-06 )  
( 5.46784e-06 7.33012e-06 -1.02344e-06 )  
( 3.69061e-06 7.40492e-06 1.16244e-06 )  
( 5.53309e-06 9.23213e-06 -9.88859e-07 )  
( 1.03586e-05 7.85171e-06 -2.36441e-06 )  
( 5.52433e-06 1.05513e-05 -4.88168e-07 )  
( 4.2804e-06 1.1656e-05 1.36438e-06 )  
( 3.8349e-06 1.11081e-05 7.73702e-07 )  
( 7.46968e-06 1.17521e-05 1.29917e-07 )  
( 8.72839e-06 1.44052e-05 1.13221e-06 )  
( 8.27221e-06 1.70883e-05 -1.66394e-06 )  
( 8.47605e-06 8.42084e-06 -1.9697e-06 )  
( 9.42105e-06 7.46392e-06 -1.80705e-06 )  
( 4.29144e-06 1.32498e-05 -1.09132e-06 )  
( 8.28664e-06 1.24078e-05 1.75114e-06 )  
( 4.05998e-06 1.12807e-05 1.51344e-06 )  
( 5.45386e-06 1.06163e-05 4.97795e-07 )  
( 3.21285e-06 1.06637e-05 -3.3815e-06 )  
( 4.55249e-06 1.03886e-05 9.59112e-07 )  
( 5.08952e-06 1.10601e-05 -1.54514e-07 )  
( 7.9926e-06 1.49784e-05 1.26566e-06 )  
( 6.19191e-06 1.50003e-05 1.11483e-06 )  
( 9.59605e-06 1.79977e-05 2.18866e-06 )  
( 6.00202e-06 1.45076e-05 -2.53695e-06 )  
( 5.88825e-06 1.26675e-05 4.15069e-07 )  
( 9.49092e-06 1.27472e-05 6.47091e-07 )  
( 1.26532e-05 1.45891e-05 5.13807e-07 )  
( 1.18352e-05 1.4384e-05 4.85475e-07 )  
( -2.05435e-07 1.16337e-05 9.10513e-08 )  
( 8.56009e-06 1.70132e-05 -2.46022e-06 )  
( 5.20798e-06 1.43785e-05 2.15954e-06 )  
( 7.3591e-06 1.37796e-05 -3.75489e-07 )  
( 1.17807e-05 1.09886e-05 -3.48271e-06 )  
( 7.24423e-06 1.66915e-05 2.08641e-06 )  
( 1.04557e-05 1.2962e-05 -1.36463e-06 )  
( 8.997e-06 1.65356e-05 8.12379e-07 )  
( 9.16527e-06 1.03684e-05 -1.74272e-07 )  
( 6.47818e-06 1.43199e-05 1.0898e-06 )  
( 9.31546e-06 1.2873e-05 1.34254e-06 )  
( 3.64137e-06 1.07652e-05 2.70894e-06 )  
( 8.84508e-06 1.89703e-05 -2.17356e-07 )  
( 8.19818e-06 1.79224e-05 -1.00528e-06 )  
( 1.00511e-05 1.60384e-05 1.72208e-06 )  
( 7.99836e-06 1.67897e-05 1.15508e-07 )  
( 9.24329e-06 1.79514e-05 1.12727e-06 )  
( 1.04671e-05 1.24646e-05 1.82129e-07 )  
( 8.82861e-06 1.66809e-05 -7.08224e-07 )  
( 1.01369e-05 1.82147e-05 2.61005e-07 )  
( 1.17601e-05 1.5339e-05 2.40332e-06 )  
( 7.20772e-06 1.64228e-05 1.42933e-06 )  
( 8.94946e-06 2.07352e-05 3.22338e-06 )  
( 1.02623e-05 1.87207e-05 6.38753e-07 )  
( 7.94307e-06 1.81521e-05 2.10434e-06 )  
( 9.52763e-06 1.84404e-05 2.22515e-07 )  
( 1.02484e-05 1.93706e-05 -1.83788e-06 )  
( 6.33538e-06 1.64144e-05 -2.98068e-06 )  
( 1.18712e-05 1.34811e-05 1.21334e-06 )  
( 1.25168e-05 2.00754e-05 -1.13461e-06 )  
( 1.25604e-05 2.02775e-05 3.66324e-07 )  
( 1.24574e-05 1.47453e-05 -6.30842e-07 )  
( 9.23315e-06 1.96686e-05 5.49206e-07 )  
( 6.60908e-06 1.81584e-05 -1.288e-06 )  
( 1.03195e-05 2.31917e-05 -9.76409e-07 )  
( 9.48026e-06 1.85093e-05 -1.71447e-06 )  
( 1.22495e-05 2.15119e-05 -6.16653e-07 )  
( 1.08579e-05 2.16242e-05 8.50668e-07 )  
( 1.27917e-05 1.82612e-05 4.05008e-07 )  
( 9.59294e-06 1.81701e-05 1.58963e-06 )  
( 1.08029e-05 1.95369e-05 -1.41913e-07 )  
( 1.06511e-05 2.0952e-05 9.00105e-07 )  
( 1.30764e-05 2.16671e-05 1.8936e-06 )  
( 1.38279e-05 1.8752e-05 1.30588e-06 )  
( 1.25355e-05 2.39688e-05 -1.09478e-06 )  
( 1.18272e-05 2.22587e-05 2.99331e-06 )  
( 1.27191e-05 2.28745e-05 3.44573e-06 )  
( 9.23523e-06 2.34783e-05 1.06913e-06 )  
( 1.0969e-05 2.50481e-05 2.6069e-06 )  
( 1.4464e-05 2.46123e-05 -3.05405e-07 )  
( 1.56899e-05 2.80113e-05 6.23346e-07 )  
( 1.08719e-05 2.03601e-05 1.62607e-06 )  
( 1.15977e-05 2.34742e-05 1.44393e-07 )  
( 1.37309e-05 2.30642e-05 1.52593e-06 )  
( 1.27569e-05 2.30783e-05 5.2626e-07 )  
( 1.55339e-05 1.79986e-05 -5.83604e-07 )  
( 1.74021e-05 2.55082e-05 2.04858e-06 )  
( 1.39946e-05 2.31386e-05 1.4435e-06 )  
( 1.76929e-05 2.56359e-05 5.32327e-07 )  
( 1.21402e-05 2.38351e-05 1.2248e-06 )  
( 1.61181e-05 2.52678e-05 2.4063e-06 )  
( 1.49691e-05 2.36419e-05 3.45407e-06 )  
( 1.52447e-05 2.3364e-05 5.60636e-07 )  
( 1.27904e-05 2.09101e-05 6.65018e-07 )  
( 1.14207e-05 2.04261e-05 1.86635e-06 )  
( 1.53319e-05 2.26921e-05 4.98148e-07 )  
( 1.24939e-05 2.61113e-05 1.45515e-06 )  
( 1.65963e-05 2.72509e-05 2.00086e-06 )  
( 1.37897e-05 2.2982e-05 -8.6567e-07 )  
( 1.71377e-05 2.48287e-05 1.61422e-06 )  
( 1.38954e-05 2.65573e-05 1.11625e-06 )  
( 1.73301e-05 2.32267e-05 2.76699e-06 )  
( 1.52129e-05 2.67154e-05 2.80375e-06 )  
( 1.84809e-05 2.60206e-05 -7.28441e-07 )  
( 1.90147e-05 3.06298e-05 1.33404e-06 )  
( 1.62062e-05 2.53931e-05 9.64584e-07 )  
( 1.05597e-05 2.50141e-05 3.91326e-07 )  
( 1.48944e-05 2.58328e-05 1.27676e-06 )  
( 1.49932e-05 2.4847e-05 6.2094e-07 )  
( 1.34831e-05 2.66291e-05 3.29189e-06 )  
( 1.46845e-05 2.25501e-05 9.66645e-07 )  
( 1.68235e-05 2.60289e-05 1.63818e-06 )  
( 1.74951e-05 2.60548e-05 3.9279e-06 )  
( 1.68478e-05 3.02738e-05 2.15737e-06 )  
( 1.68922e-05 2.70903e-05 7.6886e-07 )  
( 1.76206e-05 2.9618e-05 1.72468e-06 )  
( 1.8461e-05 3.23196e-05 -3.53783e-07 )  
( 1.42324e-05 2.74143e-05 2.99852e-06 )  
( 1.68167e-05 2.92186e-05 2.72306e-06 )  
( 1.60054e-05 2.72923e-05 1.1321e-07 )  
( 1.72212e-05 2.96005e-05 1.40369e-08 )  
( 1.44799e-05 2.53086e-05 -1.85201e-08 )  
( 1.67742e-05 2.44723e-05 3.18914e-06 )  
( 1.98906e-05 2.97816e-05 5.43636e-07 )  
( 1.98925e-05 2.88526e-05 4.58321e-07 )  
( 2.13632e-05 2.92444e-05 -6.57049e-07 )  
( 2.13967e-05 2.73996e-05 1.71761e-06 )  
( 1.45551e-05 2.92477e-05 3.77392e-07 )  
( 2.27931e-05 3.30026e-05 -5.56155e-07 )  
( 2.05783e-05 3.21853e-05 -4.55284e-07 )  
( 2.10618e-05 3.35085e-05 1.10588e-06 )  
( 1.86e-05 3.236e-05 2.89088e-06 )  
( 2.05345e-05 2.52256e-05 1.71063e-06 )  
( 1.93298e-05 2.93675e-05 4.24703e-07 )  
( 1.67948e-05 2.82642e-05 1.80916e-06 )  
( 1.68229e-05 3.1115e-05 1.60934e-06 )  
( 1.7952e-05 2.88428e-05 2.22311e-06 )  
( 1.97388e-05 2.94699e-05 4.94976e-07 )  
( 1.89601e-05 2.91015e-05 1.80748e-06 )  
( 2.07481e-05 3.02828e-05 2.11441e-06 )  
( 1.96794e-05 3.13668e-05 2.4077e-06 )  
( 2.126e-05 3.36336e-05 1.1381e-06 )  
( 1.98036e-05 3.02689e-05 2.32084e-06 )  
( 2.10261e-05 3.0915e-05 8.8874e-07 )  
( 1.57855e-05 2.79177e-05 1.17631e-06 )  
( 2.14541e-05 3.34139e-05 7.06858e-06 )  
( 2.31019e-05 3.65e-05 2.43299e-06 )  
( 2.19107e-05 3.6199e-05 2.01553e-06 )  
( 2.18694e-05 3.31104e-05 2.48872e-06 )  
( 1.73865e-05 2.87796e-05 2.07745e-06 )  
( 2.28613e-05 2.9549e-05 -2.03674e-06 )  
( 2.15413e-05 3.33239e-05 2.39071e-06 )  
( 2.30603e-05 3.0627e-05 1.72873e-06 )  
( 2.19885e-05 3.29821e-05 -2.41036e-06 )  
( 1.97656e-05 3.14286e-05 3.09505e-06 )  
( 2.07287e-05 3.28661e-05 2.56256e-06 )  
( 2.269e-05 3.89129e-05 1.86711e-06 )  
( 2.25344e-05 3.67176e-05 4.66379e-06 )  
( 2.26269e-05 3.78918e-05 2.95081e-06 )  
( 1.98466e-05 3.20331e-05 1.90574e-06 )  
( 2.363e-05 3.75439e-05 -1.19136e-06 )  
( 2.07132e-05 3.08334e-05 1.48465e-06 )  
( 1.75976e-05 3.0635e-05 3.36399e-06 )  
( 1.95468e-05 3.155e-05 3.23762e-06 )  
( 2.18762e-05 3.28984e-05 2.00477e-06 )  
( 2.09062e-05 3.42874e-05 4.37519e-06 )  
( 2.40491e-05 3.45943e-05 3.81196e-06 )  
( 2.32876e-05 3.72973e-05 2.29857e-06 )  
( 2.49822e-05 3.51381e-05 2.64459e-06 )  
( 2.22062e-05 3.57664e-05 1.74374e-06 )  
( 2.35205e-05 3.12864e-05 2.84271e-06 )  
( 2.57266e-05 4.24699e-05 6.90227e-07 )  
( 2.29064e-05 3.85652e-05 9.97695e-07 )  
( 2.40896e-05 3.60753e-05 1.95182e-06 )  
( 2.2536e-05 3.16807e-05 2.01671e-06 )  
( 2.55771e-05 3.852e-05 1.51211e-06 )  
( 2.33569e-05 3.30828e-05 2.22056e-06 )  
( 2.32971e-05 3.91486e-05 9.11341e-07 )  
( 2.45541e-05 3.98341e-05 2.12124e-06 )  
( 2.40381e-05 3.87665e-05 2.64242e-06 )  
( 2.42426e-05 3.32553e-05 3.6554e-06 )  
( 2.30447e-05 3.67412e-05 5.89177e-07 )  
( 2.39752e-05 3.41282e-05 1.75652e-06 )  
( 2.48788e-05 3.46248e-05 3.63462e-06 )  
( 2.39255e-05 3.60564e-05 1.64439e-06 )  
( 2.70054e-05 3.97143e-05 3.86846e-06 )  
( 2.49816e-05 3.80384e-05 9.89266e-07 )  
( 2.76213e-05 3.69962e-05 3.89993e-06 )  
( 2.64977e-05 4.10549e-05 -7.87693e-08 )  
( 2.11705e-05 3.67147e-05 6.92343e-07 )  
( 2.51312e-05 4.19163e-05 2.54877e-06 )  
( 2.54947e-05 4.04016e-05 3.45326e-06 )  
( 2.42651e-05 3.9881e-05 5.11289e-06 )  
( 2.7155e-05 4.08983e-05 2.01675e-06 )  
( 2.33647e-05 3.8337e-05 3.48879e-06 )  
( 2.29279e-05 3.44298e-05 1.15632e-06 )  
( 2.4481e-05 3.72787e-05 1.42386e-06 )  
( 2.86969e-05 4.1487e-05 5.51393e-08 )  
( 2.18262e-05 3.53153e-05 7.68456e-06 )  
( 2.43878e-05 3.54229e-05 -3.55735e-07 )  
( 2.7764e-05 3.56441e-05 3.6697e-06 )  
( 2.48497e-05 4.0032e-05 1.64681e-06 )  
( 2.8624e-05 4.57529e-05 4.56382e-06 )  
( 2.68585e-05 3.97275e-05 4.31667e-06 )  
( 2.65495e-05 5.0105e-05 5.35305e-06 )  
( 2.57896e-05 3.89794e-05 3.38344e-06 )  
( 3.02739e-05 4.51528e-05 6.4649e-07 )  
( 2.83763e-05 4.07137e-05 -9.62736e-07 )  
( 2.89219e-05 3.97853e-05 5.97478e-06 )  
( 2.17418e-05 3.81737e-05 4.30639e-06 )  
( 2.73983e-05 3.97857e-05 1.68765e-06 )  
( 2.70567e-05 3.94881e-05 -1.18369e-06 )  
( 3.08823e-05 4.04794e-05 2.412e-06 )  
( 2.78523e-05 4.38136e-05 1.533e-06 )  
( 2.46406e-05 4.29139e-05 4.17562e-06 )  
( 3.05288e-05 4.46696e-05 4.52804e-07 )  
( 2.84776e-05 4.09464e-05 2.85468e-06 )  
( 2.92551e-05 4.15043e-05 -6.40883e-07 )  
( 2.54883e-05 4.2191e-05 6.25291e-06 )  
( 2.87432e-05 4.20306e-05 3.39092e-06 )  
( 2.90375e-05 4.12196e-05 -2.91078e-06 )  
( 2.63648e-05 4.03214e-05 2.39154e-07 )  
( 2.87006e-05 4.35845e-05 2.99099e-08 )  
( 3.01985e-05 4.20438e-05 3.7536e-06 )  
( 2.85933e-05 4.90788e-05 5.65885e-06 )  
( 3.21257e-05 4.57305e-05 1.50032e-06 )  
( 3.0655e-05 4.3515e-05 2.27599e-06 )  
( 2.96536e-05 4.49449e-05 -9.68362e-08 )  
( 3.29624e-05 4.67092e-05 -6.60097e-07 )  
( 3.08882e-05 4.15507e-05 8.05633e-07 )  
( 3.18347e-05 4.82596e-05 4.25031e-06 )  
( 3.08137e-05 4.81384e-05 7.50431e-06 )  
( 2.97804e-05 4.77132e-05 1.21787e-06 )  
( 3.05492e-05 4.20081e-05 -4.01051e-07 )  
( 3.13213e-05 4.397e-05 1.6543e-06 )  
( 3.47448e-05 4.81304e-05 -1.15667e-06 )  
( 2.87481e-05 4.40575e-05 3.05035e-06 )  
( 2.82601e-05 4.39462e-05 2.52195e-06 )  
( 3.62637e-05 4.70686e-05 3.0503e-06 )  
( 3.29365e-05 4.3911e-05 1.84518e-06 )  
( 2.8892e-05 4.47907e-05 5.569e-06 )  
( 3.52473e-05 4.66807e-05 1.33535e-06 )  
( 3.24278e-05 4.66921e-05 2.5461e-07 )  
( 3.59176e-05 5.47969e-05 -5.54193e-06 )  
( 2.94319e-05 4.50241e-05 3.19291e-07 )  
( 3.00532e-05 4.20577e-05 3.20156e-06 )  
( 2.90574e-05 4.17342e-05 4.81185e-06 )  
( 3.44724e-05 4.83761e-05 -7.26838e-07 )  
( 3.14967e-05 5.0712e-05 6.57829e-06 )  
( 3.12e-05 4.50538e-05 1.64768e-08 )  
( 3.44327e-05 4.5703e-05 8.30446e-07 )  
( 4.60248e-05 6.28206e-05 1.29037e-05 )  
( 3.38216e-05 4.83319e-05 1.23699e-06 )  
( 3.62226e-05 4.98914e-05 -1.54393e-06 )  
( 3.41341e-05 4.80045e-05 2.7727e-06 )  
( 3.50769e-05 4.77712e-05 -4.0585e-07 )  
( 3.45828e-05 4.97262e-05 -8.3131e-07 )  
( 3.31764e-05 4.71259e-05 1.23928e-06 )  
( 3.71279e-05 4.84034e-05 5.61025e-06 )  
( 4.56555e-05 5.7462e-05 1.14347e-05 )  
( 3.1788e-05 4.81518e-05 1.07823e-06 )  
( 3.3736e-05 4.75415e-05 3.11991e-07 )  
( 3.64015e-05 4.82752e-05 2.11018e-07 )  
( 3.77852e-05 4.83444e-05 -6.83089e-07 )  
( 3.55213e-05 4.75757e-05 1.00033e-06 )  
( 3.68879e-05 5.16353e-05 1.66571e-06 )  
( 3.54579e-05 4.71533e-05 1.3657e-06 )  
( 3.31038e-05 4.65781e-05 1.32725e-06 )  
( 3.13551e-05 4.69418e-05 4.97212e-07 )  
( 4.25837e-05 4.42179e-05 4.71166e-06 )  
( 3.95921e-05 5.54888e-05 -2.51364e-06 )  
( 3.22021e-05 4.86898e-05 2.66976e-07 )  
( 3.46505e-05 4.7825e-05 -1.42498e-06 )  
( 3.40375e-05 4.89857e-05 -6.4735e-07 )  
( 3.44566e-05 5.0456e-05 1.66444e-06 )  
( 4.00564e-05 5.07102e-05 -3.6895e-07 )  
( 3.33889e-05 4.94466e-05 -3.24987e-07 )  
( 3.08566e-05 4.80046e-05 5.68498e-06 )  
( 4.20009e-05 5.43525e-05 -2.02661e-06 )  
( 3.68867e-05 5.64735e-05 1.5005e-06 )  
( 4.04284e-05 4.83639e-05 -1.68032e-06 )  
( 4.3891e-05 5.12797e-05 1.21798e-06 )  
( 3.19553e-05 5.1179e-05 4.68362e-07 )  
( 3.35863e-05 4.84167e-05 2.42527e-06 )  
( 3.7681e-05 5.28444e-05 7.59769e-06 )  
( 3.86522e-05 5.31043e-05 2.15095e-06 )  
( 3.57079e-05 5.07198e-05 1.45459e-06 )  
( 3.17484e-05 5.00679e-05 2.96732e-06 )  
( 3.62745e-05 5.51727e-05 -3.94491e-07 )  
( 4.39037e-05 6.08872e-05 -1.82573e-06 )  
( 3.30507e-05 5.17432e-05 7.20552e-07 )  
( 3.45612e-05 4.99184e-05 -1.91484e-06 )  
( 3.52393e-05 5.10979e-05 -1.63072e-06 )  
( 3.65056e-05 5.17619e-05 5.26944e-06 )  
( 2.83212e-05 5.38462e-05 5.45707e-06 )  
( 4.80912e-05 6.01818e-05 5.07738e-06 )  
( 3.44023e-05 5.07208e-05 -3.80176e-07 )  
( 4.309e-05 5.40828e-05 2.11161e-06 )  
( 3.57221e-05 4.84446e-05 2.17588e-06 )  
( 5.17405e-05 5.54584e-05 4.54974e-06 )  
( 3.61932e-05 5.16449e-05 -1.81935e-06 )  
( 3.47315e-05 5.05827e-05 -6.49841e-07 )  
( 6.2745e-05 9.6549e-05 -3.44195e-05 )  
( 2.24711e-05 5.75162e-05 1.86492e-06 )  
( 3.09539e-05 5.04935e-05 1.2538e-06 )  
( 3.48773e-05 5.5541e-05 -1.27694e-06 )  
( 3.5867e-05 5.25481e-05 -3.57409e-06 )  
( 4.16581e-05 5.34117e-05 -1.86453e-06 )  
( 3.74101e-05 5.13252e-05 -4.25369e-06 )  
( 2.77192e-05 6.44606e-05 1.51745e-05 )  
( 3.51791e-05 5.00354e-05 6.54062e-08 )  
( 3.37407e-05 4.97311e-05 -8.4024e-07 )  
( 0.000289413 0.000242147 -9.24678e-05 )  
( 4.92511e-05 8.14001e-05 3.17656e-06 )  
( 3.78112e-05 6.12106e-05 -5.76968e-06 )  
( 3.63517e-05 5.3e-05 7.83068e-07 )  
( 2.54377e-05 2.55734e-05 7.76181e-07 )  
( 3.71058e-05 5.2702e-05 -3.45014e-06 )  
( 4.2246e-06 9.66363e-05 -6.68445e-07 )  
( 3.54831e-05 5.13612e-05 5.84488e-07 )  
( 6.78496e-05 8.48203e-06 -4.01606e-05 )  
( 3.44425e-05 5.26342e-05 -3.59582e-06 )  
( 0.000187701 0.000429575 2.43117e-05 )  
)
