/*--------------------------------*- C++ -*----------------------------------*\
| =========                 |                                                 |
| \\      /  F ield         | OpenFOAM: The Open Source CFD Toolbox           |
|  \\    /   O peration     | Version:  5.x                                   |
|   \\  /    A nd           | Web:      www.OpenFOAM.org                      |
|    \\/     M anipulation  |                                                 |
\*---------------------------------------------------------------------------*/
FoamFile
{
    version     2.0;
    format      ascii;
    class       volScalarField;
    location    "3000";
    object      p;
}
// * * * * * * * * * * * * * * * * * * * * * * * * * * * * * * * * * * * * * //

dimensions      [0 2 -2 0 0 0 0];

internalField   nonuniform List<scalar> 
180
(
1.40155e-05
4.19612e-05
6.96627e-05
9.67152e-05
0.00012271
0.000147445
0.000170695
0.000192286
0.000212092
0.000230045
0.000246128
0.000260383
0.000272898
0.000283814
0.000293319
0.000301633
0.000309019
0.000315738
0.00032205
0.000328218
0.000334491
0.000341103
0.000348264
0.000356151
0.000364912
0.000374662
0.000385491
0.000397472
0.000410667
0.000425148
0.00044101
0.000458391
0.000477494
0.000498612
0.000522149
0.000548646
0.000578806
0.000613513
0.000653858
0.000701153
0.00075695
0.000823056
0.000901548
0.000994783
0.00110541
0.00123639
0.00139101
0.0015729
0.00178605
0.0020349
0.00232441
0.00266012
0.00304824
0.00349575
0.00401059
0.00460176
0.00527957
0.00605581
0.00694402
0.00795977
0.00912089
0.0104477
0.0119636
0.0136955
0.0156741
0.0179342
0.0205155
0.0234629
0.026827
0.0306648
0.0350407
0.0400265
0.0457028
0.0521594
0.0594964
0.067825
0.0772676
0.0879431
0.0998655
0.117083
0.161229
0.419662
1.40563
2.72716
4.34348
6.03907
8.65976
12.6488
16.2873
20.376
26.0896
33.7723
42.6575
53.5241
66.8986
83.059
103.317
125.786
151.456
178.954
205.436
231.363
261.312
294.295
308.52
312.469
312.974
312.995
313.007
313.02
313.031
313.041
313.049
313.056
313.063
313.068
313.073
313.077
313.081
313.084
313.087
313.089
313.091
313.093
313.095
313.096
313.098
313.099
313.099
313.1
313.101
313.102
313.102
313.102
313.103
313.103
313.103
313.104
313.104
313.104
313.104
313.104
313.105
313.105
313.105
313.105
313.105
313.105
313.105
313.105
313.105
313.105
313.105
313.105
313.105
313.105
313.105
313.105
313.105
313.105
313.105
313.105
313.106
313.106
313.106
313.106
313.106
313.106
313.106
313.106
313.106
313.106
313.106
313.106
313.106
313.106
313.106
313.106
313.106
313.106
)
;

boundaryField
{
    inlet
    {
        type            zeroGradient;
    }
    outlet
    {
        type            fixedValue;
        value           uniform 0;
    }
    repeat_boundary
    {
        type            zeroGradient;
    }
    procBoundary1to0
    {
        type            processor;
        value           nonuniform List<scalar> 
180
(
2.24269e-05
6.75346e-05
0.000112379
0.000155762
0.000197008
0.000235563
0.000270923
0.000302664
0.00033046
0.000354077
0.000373391
0.000388377
0.00039912
0.000405801
0.000408686
0.000408129
0.000404546
0.000398425
0.000390308
0.000380763
0.00037037
0.000359711
0.000349346
0.000339809
0.000331593
0.000325139
0.000320838
0.000319021
0.000319967
0.000323909
0.000331043
0.000341544
0.000355582
0.000373349
0.000395079
0.000421075
0.000451743
0.000487613
0.000529376
0.000577909
0.000634304
0.000699896
0.000776289
0.000865386
0.000969412
0.00109094
0.00123294
0.0013988
0.00159237
0.00181803
0.00208078
0.00238628
0.00274101
0.00315238
0.00362889
0.00418033
0.00481807
0.00555537
0.00640769
0.0073931
0.00853273
0.00985136
0.011378
0.0131467
0.0151973
0.0175767
0.0203397
0.0235508
0.0272852
0.0316313
0.036693
0.0425923
0.0494726
0.0575023
0.0668799
0.0778392
0.0906578
0.105651
0.123055
0.14605
0.196771
0.445695
1.27211
2.18211
3.43947
5.47857
8.62821
12.5017
16.9358
21.6389
27.2008
34.6206
43.6037
55.6318
70.2494
86.5336
107.883
132.235
153.354
181.759
215.097
239.566
262.801
289.712
306.853
312.165
312.809
312.859
312.89
312.919
312.944
312.965
312.983
313
313.014
313.026
313.036
313.045
313.053
313.06
313.066
313.071
313.076
313.08
313.083
313.086
313.089
313.091
313.093
313.094
313.096
313.097
313.098
313.099
313.1
313.101
313.101
313.102
313.102
313.103
313.103
313.103
313.104
313.104
313.104
313.104
313.104
313.104
313.105
313.105
313.105
313.105
313.105
313.105
313.105
313.105
313.105
313.105
313.105
313.105
313.105
313.105
313.105
313.105
313.106
313.106
313.106
313.106
313.106
313.106
313.106
313.106
313.106
313.106
313.106
313.106
313.106
313.106
313.106
313.106
)
;
    }
    procBoundary1to3
    {
        type            processor;
        value           nonuniform List<scalar> 
180
(
2.20856e-05
6.65022e-05
0.000110633
0.000153265
0.000193709
0.000231392
0.000265791
0.000296464
0.000323059
0.00034532
0.000363089
0.000376313
0.000385034
0.000389391
0.00038961
0.000385995
0.000378908
0.000368768
0.000356026
0.000341152
0.000324615
0.00030687
0.000288329
0.000269356
0.000250248
0.000231224
0.000212413
0.000193849
0.000175462
0.000157083
0.000138444
0.000119183
9.88502e-05
7.69192e-05
5.27954e-05
2.58258e-05
-4.69252e-06
-3.95061e-05
-7.94026e-05
-0.000125213
-0.000177818
-0.000238162
-0.000307276
-0.000386302
-0.000476526
-0.000579428
-0.00069672
-0.000830406
-0.000982824
-0.00115675
-0.00135549
-0.00158294
-0.00184366
-0.00214296
-0.00248703
-0.00288296
-0.00333892
-0.00386423
-0.00446946
-0.0051666
-0.0059692
-0.0068925
-0.00795363
-0.00917192
-0.0105691
-0.0121697
-0.0140008
-0.0160929
-0.01848
-0.0211998
-0.0242941
-0.027809
-0.0317952
-0.0363078
-0.0414065
-0.0471553
-0.0536256
-0.0609224
-0.0692293
-0.0756196
-0.0680549
0.0630555
0.793382
1.88085
3.31442
5.34354
7.40148
9.83449
14.0948
18.8381
23.7076
30.8976
40.8518
52.0775
63.1519
76.7491
93.9104
115.54
145.819
174.916
200.489
227.918
265.61
291.611
307.409
312.793
313.377
313.327
313.294
313.27
313.25
313.232
313.216
313.202
313.189
313.179
313.17
313.161
313.154
313.148
313.143
313.138
313.134
313.13
313.127
313.124
313.122
313.12
313.118
313.116
313.115
313.114
313.113
313.112
313.111
313.11
313.11
313.109
313.109
313.108
313.108
313.107
313.107
313.107
313.107
313.106
313.106
313.106
313.106
313.106
313.106
313.106
313.106
313.106
313.106
313.106
313.106
313.106
313.106
313.106
313.106
313.106
313.106
313.106
313.106
313.106
313.106
313.106
313.106
313.106
313.106
313.106
313.106
313.106
313.106
313.106
313.106
313.106
313.106
313.106
)
;
    }
}


// ************************************************************************* //
