/*--------------------------------*- C++ -*----------------------------------*\
| =========                 |                                                 |
| \\      /  F ield         | OpenFOAM: The Open Source CFD Toolbox           |
|  \\    /   O peration     | Version:  5.x                                   |
|   \\  /    A nd           | Web:      www.OpenFOAM.org                      |
|    \\/     M anipulation  |                                                 |
\*---------------------------------------------------------------------------*/
FoamFile
{
    version     2.0;
    format      ascii;
    class       volVectorField;
    location    "3000";
    object      stored_U;
}
// * * * * * * * * * * * * * * * * * * * * * * * * * * * * * * * * * * * * * //

dimensions      [0 1 -1 0 0 0 0];

internalField   nonuniform List<vector> 
180
(
(-4.06568e-08 6.18671e-08 -0.000999401)
(-1.53313e-07 2.05679e-07 -0.000999298)
(-2.60464e-07 3.48475e-07 -0.000999081)
(-3.52538e-07 4.77022e-07 -0.000998822)
(-4.25794e-07 5.87845e-07 -0.000998501)
(-4.75905e-07 6.77021e-07 -0.000998121)
(-4.98482e-07 7.40519e-07 -0.000997692)
(-4.89729e-07 7.74891e-07 -0.000997224)
(-4.46355e-07 7.77206e-07 -0.000996728)
(-3.65617e-07 7.45096e-07 -0.000996213)
(-2.45343e-07 6.76777e-07 -0.00099569)
(-8.39437e-08 5.71055e-07 -0.000995169)
(1.19596e-07 4.27323e-07 -0.000994657)
(3.65738e-07 2.45519e-07 -0.000994162)
(6.54438e-07 2.60862e-08 -0.00099369)
(9.85245e-07 -2.30099e-07 -0.000993241)
(1.35739e-06 -5.21831e-07 -0.000992816)
(1.76988e-06 -8.47791e-07 -0.000992412)
(2.22161e-06 -1.20666e-06 -0.000992021)
(2.71154e-06 -1.59735e-06 -0.000991634)
(3.23878e-06 -2.01878e-06 -0.000991238)
(3.80278e-06 -2.47011e-06 -0.000990809)
(4.40405e-06 -2.95223e-06 -0.000990322)
(5.0437e-06 -3.46663e-06 -0.000989755)
(5.72359e-06 -4.01551e-06 -0.000989081)
(6.44679e-06 -4.60259e-06 -0.000988264)
(7.21781e-06 -5.23334e-06 -0.000987267)
(8.04282e-06 -5.91531e-06 -0.000986048)
(8.92983e-06 -6.65838e-06 -0.000984561)
(9.88897e-06 -7.47514e-06 -0.000982757)
(1.09327e-05 -8.38124e-06 -0.000980582)
(1.2076e-05 -9.39572e-06 -0.000977979)
(1.33366e-05 -1.05415e-05 -0.000974884)
(1.47354e-05 -1.18459e-05 -0.000971229)
(1.62966e-05 -1.33408e-05 -0.00096694)
(1.80477e-05 -1.50638e-05 -0.000961935)
(2.00205e-05 -1.70584e-05 -0.000956121)
(2.22506e-05 -1.93749e-05 -0.000949397)
(2.47783e-05 -2.20713e-05 -0.000941649)
(2.76489e-05 -2.52142e-05 -0.000932744)
(3.09134e-05 -2.88801e-05 -0.000922534)
(3.46286e-05 -3.31569e-05 -0.000910849)
(3.88579e-05 -3.8145e-05 -0.000897495)
(4.36721e-05 -4.3959e-05 -0.000882252)
(4.91499e-05 -5.07294e-05 -0.000864871)
(5.53785e-05 -5.8605e-05 -0.000845069)
(6.24545e-05 -6.7754e-05 -0.000822536)
(7.04841e-05 -7.83654e-05 -0.00079694)
(7.95821e-05 -9.06487e-05 -0.000767879)
(8.98777e-05 -0.000104845 -0.000734823)
(0.000101518 -0.000121236 -0.000697176)
(0.000114669 -0.000140145 -0.000654295)
(0.000129515 -0.000161941 -0.000605448)
(0.000146262 -0.000187045 -0.000549803)
(0.000165144 -0.000215937 -0.000486411)
(0.000186425 -0.000249166 -0.0004142)
(0.000210396 -0.000287362 -0.000331949)
(0.000237378 -0.000331239 -0.000238279)
(0.000267726 -0.000381615 -0.000131629)
(0.000301832 -0.000439422 -1.02346e-05)
(0.000340135 -0.000505721 0.000127892)
(0.000383116 -0.000581722 0.000284997)
(0.000431307 -0.000668797 0.000463776)
(0.000485306 -0.000768541 0.000667386)
(0.000545783 -0.000882785 0.000899255)
(0.000613468 -0.00101362 0.00116315)
(0.000689159 -0.0011634 0.00146333)
(0.000773721 -0.00133481 0.00180437)
(0.00086807 -0.0015309 0.00219221)
(0.000973263 -0.00175516 0.00263312)
(0.00109037 -0.00201146 0.00313364)
(0.00122056 -0.00230422 0.00370168)
(0.00136504 -0.00263841 0.00434597)
(0.00152507 -0.00301966 0.0050762)
(0.00170194 -0.00345405 0.00590229)
(0.00189708 -0.0039485 0.00683967)
(0.00211333 -0.00451092 0.00793057)
(0.00235683 -0.00514716 0.00921986)
(0.00266248 -0.00579701 0.00981114)
(0.00383777 -0.00466664 0.0324729)
(0.0143618 0.0117251 0.00990641)
(0.0251095 0.0128302 0.047817)
(0.0320651 0.00610569 0.0416583)
(0.0267349 -0.00554206 0.0308242)
(0.00903255 -0.00751822 0.0667457)
(0.00787515 -0.00507148 0.0107217)
(0.00689692 -0.0125123 0.0934258)
(-0.000672285 0.000662595 0.0561531)
(0.015934 0.00672765 0.0171321)
(0.00458385 0.0273088 0.137075)
(-0.0054199 0.0200929 -0.0482711)
(-0.00173686 -0.0196426 0.0618357)
(0.00513135 -0.0339733 0.137287)
(-0.00640941 -0.00967643 0.0560257)
(-0.00347997 0.00529647 -0.012369)
(0.022619 0.0160125 0.139191)
(0.0096873 0.020186 -0.0637851)
(-0.0302602 0.0458681 0.0509744)
(-0.0338957 0.0500776 -0.0891445)
(-0.000819988 -0.00100656 -0.0375849)
(0.00971803 0.0062299 0.196673)
(0.00137703 0.00292324 -0.00350508)
(-0.00496282 -0.00857154 0.00401787)
(-0.00661102 -0.0187813 0.0674093)
(-0.00785158 0.00196294 0.0535197)
(-0.0025039 -0.00469907 0.0576978)
(-0.00289776 -0.00223533 -0.0190398)
(-0.00227293 0.00188694 0.00380885)
(-0.00186887 0.00214976 0.00728018)
(-0.00161255 0.00190635 0.00490278)
(-0.00139855 0.00166962 0.0040579)
(-0.00121377 0.00146151 0.00340879)
(-0.00105434 0.00127938 0.00284029)
(-0.000916586 0.00111985 0.00234492)
(-0.000797384 0.000980066 0.00191353)
(-0.000694144 0.000857591 0.00153819)
(-0.000604586 0.000750213 0.00121191)
(-0.000526809 0.000656055 0.000927633)
(-0.000459215 0.00057351 0.000679736)
(-0.000400382 0.00050116 0.000463686)
(-0.000349255 0.000437757 0.000275403)
(-0.000304754 0.000382206 0.000111292)
(-0.000265996 0.000333536 -3.17572e-05)
(-0.000232223 0.000290943 -0.000156453)
(-0.00020278 0.000253666 -0.000265154)
(-0.000177098 0.000221048 -0.000359916)
(-0.000154685 0.000192512 -0.000442526)
(-0.000135113 0.000167553 -0.000514545)
(-0.000118012 0.000145725 -0.00057733)
(-0.000103061 0.00012664 -0.000632062)
(-8.99828e-05 0.000109955 -0.000679771)
(-7.85367e-05 9.53712e-05 -0.000721352)
(-6.85154e-05 8.26288e-05 -0.000757584)
(-5.97401e-05 7.14979e-05 -0.000789147)
(-5.20567e-05 6.17736e-05 -0.000816631)
(-4.53326e-05 5.32801e-05 -0.000840553)
(-3.94501e-05 4.58649e-05 -0.000861361)
(-3.43024e-05 3.93954e-05 -0.000879449)
(-2.97979e-05 3.37554e-05 -0.000895159)
(-2.58569e-05 2.88433e-05 -0.000908785)
(-2.24094e-05 2.45693e-05 -0.000920623)
(-1.9398e-05 2.08619e-05 -0.000930968)
(-1.67751e-05 1.76632e-05 -0.000940007)
(-1.44957e-05 1.4915e-05 -0.000947861)
(-1.25181e-05 1.25621e-05 -0.000954661)
(-1.08046e-05 1.05535e-05 -0.000960537)
(-9.32133e-06 8.84333e-06 -0.000965609)
(-8.03807e-06 7.39134e-06 -0.000969986)
(-6.92789e-06 6.16048e-06 -0.000973766)
(-5.96703e-06 5.11754e-06 -0.000977039)
(-5.13472e-06 4.23397e-06 -0.00097988)
(-4.41306e-06 3.48539e-06 -0.000982354)
(-3.78606e-06 2.85094e-06 -0.00098452)
(-3.2407e-06 2.31301e-06 -0.000986422)
(-2.76563e-06 1.8567e-06 -0.000988097)
(-2.35126e-06 1.46942e-06 -0.000989576)
(-1.9895e-06 1.14065e-06 -0.000990883)
(-1.67352e-06 8.61601e-07 -0.000992038)
(-1.39768e-06 6.24972e-07 -0.000993058)
(-1.15726e-06 4.24759e-07 -0.000993957)
(-9.48409e-07 2.56063e-07 -0.000994746)
(-7.67946e-07 1.14886e-07 -0.000995437)
(-6.12813e-07 -2.18521e-09 -0.000996042)
(-4.8048e-07 -9.78819e-08 -0.000996571)
(-3.68792e-07 -1.74526e-07 -0.00099703)
(-2.75794e-07 -2.34235e-07 -0.000997426)
(-1.99604e-07 -2.79038e-07 -0.000997767)
(-1.38642e-07 -3.10639e-07 -0.000998065)
(-9.12129e-08 -3.30675e-07 -0.000998325)
(-5.57307e-08 -3.40823e-07 -0.000998551)
(-3.02999e-08 -3.42985e-07 -0.000998748)
(-1.3205e-08 -3.38929e-07 -0.000998923)
(-2.80527e-09 -3.30329e-07 -0.000999081)
(2.53708e-09 -3.18822e-07 -0.000999227)
(4.38312e-09 -3.05957e-07 -0.000999362)
(4.16435e-09 -2.93164e-07 -0.000999491)
(3.04607e-09 -2.81599e-07 -0.000999614)
(3.35084e-09 -2.73553e-07 -0.000999735)
(2.05648e-09 -2.65952e-07 -0.000999855)
(4.24722e-09 -2.64216e-07 -0.000999957)
)
;

boundaryField
{
    inlet
    {
        type            calculated;
        value           uniform (4.24722e-09 -2.64216e-07 -0.000999957);
    }
    outlet
    {
        type            calculated;
        value           uniform (-4.06568e-08 6.18671e-08 -0.000999401);
    }
    repeat_boundary
    {
        type            calculated;
        value           nonuniform List<vector> 
360
(
(-4.06568e-08 0 -0.000999401)
(-1.53313e-07 0 -0.000999298)
(-2.60464e-07 0 -0.000999081)
(-3.52538e-07 0 -0.000998822)
(-4.25794e-07 0 -0.000998501)
(-4.75905e-07 0 -0.000998121)
(-4.98482e-07 0 -0.000997692)
(-4.89729e-07 0 -0.000997224)
(-4.46355e-07 0 -0.000996728)
(-3.65617e-07 0 -0.000996213)
(-2.45343e-07 0 -0.00099569)
(-8.39437e-08 0 -0.000995169)
(1.19596e-07 0 -0.000994657)
(3.65738e-07 0 -0.000994162)
(6.54438e-07 0 -0.00099369)
(9.85245e-07 0 -0.000993241)
(1.35739e-06 0 -0.000992816)
(1.76988e-06 0 -0.000992412)
(2.22161e-06 0 -0.000992021)
(2.71154e-06 0 -0.000991634)
(3.23878e-06 0 -0.000991238)
(3.80278e-06 0 -0.000990809)
(4.40405e-06 0 -0.000990322)
(5.0437e-06 0 -0.000989755)
(5.72359e-06 0 -0.000989081)
(6.44679e-06 0 -0.000988264)
(7.21781e-06 0 -0.000987267)
(8.04282e-06 0 -0.000986048)
(8.92983e-06 0 -0.000984561)
(9.88897e-06 0 -0.000982757)
(1.09327e-05 0 -0.000980582)
(1.2076e-05 0 -0.000977979)
(1.33366e-05 0 -0.000974884)
(1.47354e-05 0 -0.000971229)
(1.62966e-05 0 -0.00096694)
(1.80477e-05 0 -0.000961935)
(2.00205e-05 0 -0.000956121)
(2.22506e-05 0 -0.000949397)
(2.47783e-05 0 -0.000941649)
(2.76489e-05 0 -0.000932744)
(3.09134e-05 0 -0.000922534)
(3.46286e-05 0 -0.000910849)
(3.88579e-05 0 -0.000897495)
(4.36721e-05 0 -0.000882252)
(4.91499e-05 0 -0.000864871)
(5.53785e-05 0 -0.000845069)
(6.24545e-05 0 -0.000822536)
(7.04841e-05 0 -0.00079694)
(7.95821e-05 0 -0.000767879)
(8.98777e-05 0 -0.000734823)
(0.000101518 0 -0.000697176)
(0.000114669 0 -0.000654295)
(0.000129515 0 -0.000605448)
(0.000146262 0 -0.000549803)
(0.000165144 0 -0.000486411)
(0.000186425 0 -0.0004142)
(0.000210396 0 -0.000331949)
(0.000237378 0 -0.000238279)
(0.000267726 0 -0.000131629)
(0.000301832 0 -1.02346e-05)
(0.000340135 0 0.000127892)
(0.000383116 0 0.000284997)
(0.000431307 0 0.000463776)
(0.000485306 0 0.000667386)
(0.000545783 0 0.000899255)
(0.000613468 0 0.00116315)
(0.000689159 0 0.00146333)
(0.000773721 0 0.00180437)
(0.00086807 0 0.00219221)
(0.000973263 0 0.00263312)
(0.00109037 0 0.00313364)
(0.00122056 0 0.00370168)
(0.00136504 0 0.00434597)
(0.00152507 0 0.0050762)
(0.00170194 0 0.00590229)
(0.00189708 0 0.00683967)
(0.00211333 0 0.00793057)
(0.00235683 0 0.00921986)
(0.00266248 0 0.00981114)
(0.00383777 0 0.0324729)
(0.0143618 0 0.00990641)
(0.0251095 0 0.047817)
(0.0320651 0 0.0416583)
(0.0267349 0 0.0308242)
(0.00903255 0 0.0667457)
(0.00787515 0 0.0107217)
(0.00689692 0 0.0934258)
(-0.000672285 0 0.0561531)
(0.015934 0 0.0171321)
(0.00458385 0 0.137075)
(-0.0054199 0 -0.0482711)
(-0.00173686 0 0.0618357)
(0.00513135 0 0.137287)
(-0.00640941 0 0.0560257)
(-0.00347997 0 -0.012369)
(0.022619 0 0.139191)
(0.0096873 0 -0.0637851)
(-0.0302602 0 0.0509744)
(-0.0338957 0 -0.0891445)
(-0.000819988 0 -0.0375849)
(0.00971803 0 0.196673)
(0.00137703 0 -0.00350508)
(-0.00496282 0 0.00401787)
(-0.00661102 0 0.0674093)
(-0.00785158 0 0.0535197)
(-0.0025039 0 0.0576978)
(-0.00289776 0 -0.0190398)
(-0.00227293 0 0.00380885)
(-0.00186887 0 0.00728018)
(-0.00161255 0 0.00490278)
(-0.00139855 0 0.0040579)
(-0.00121377 0 0.00340879)
(-0.00105434 0 0.00284029)
(-0.000916586 0 0.00234492)
(-0.000797384 0 0.00191353)
(-0.000694144 0 0.00153819)
(-0.000604586 0 0.00121191)
(-0.000526809 0 0.000927633)
(-0.000459215 0 0.000679736)
(-0.000400382 0 0.000463686)
(-0.000349255 0 0.000275403)
(-0.000304754 0 0.000111292)
(-0.000265996 0 -3.17572e-05)
(-0.000232223 0 -0.000156453)
(-0.00020278 0 -0.000265154)
(-0.000177098 0 -0.000359916)
(-0.000154685 0 -0.000442526)
(-0.000135113 0 -0.000514545)
(-0.000118012 0 -0.00057733)
(-0.000103061 0 -0.000632062)
(-8.99828e-05 0 -0.000679771)
(-7.85367e-05 0 -0.000721352)
(-6.85154e-05 0 -0.000757584)
(-5.97401e-05 0 -0.000789147)
(-5.20567e-05 0 -0.000816631)
(-4.53326e-05 0 -0.000840553)
(-3.94501e-05 0 -0.000861361)
(-3.43024e-05 0 -0.000879449)
(-2.97979e-05 0 -0.000895159)
(-2.58569e-05 0 -0.000908785)
(-2.24094e-05 0 -0.000920623)
(-1.9398e-05 0 -0.000930968)
(-1.67751e-05 0 -0.000940007)
(-1.44957e-05 0 -0.000947861)
(-1.25181e-05 0 -0.000954661)
(-1.08046e-05 0 -0.000960537)
(-9.32133e-06 0 -0.000965609)
(-8.03807e-06 0 -0.000969986)
(-6.92789e-06 0 -0.000973766)
(-5.96703e-06 0 -0.000977039)
(-5.13472e-06 0 -0.00097988)
(-4.41306e-06 0 -0.000982354)
(-3.78606e-06 0 -0.00098452)
(-3.2407e-06 0 -0.000986422)
(-2.76563e-06 0 -0.000988097)
(-2.35126e-06 0 -0.000989576)
(-1.9895e-06 0 -0.000990883)
(-1.67352e-06 0 -0.000992038)
(-1.39768e-06 0 -0.000993058)
(-1.15726e-06 0 -0.000993957)
(-9.48409e-07 0 -0.000994746)
(-7.67946e-07 0 -0.000995437)
(-6.12813e-07 0 -0.000996042)
(-4.8048e-07 0 -0.000996571)
(-3.68792e-07 0 -0.00099703)
(-2.75794e-07 0 -0.000997426)
(-1.99604e-07 0 -0.000997767)
(-1.38642e-07 0 -0.000998065)
(-9.12129e-08 0 -0.000998325)
(-5.57307e-08 0 -0.000998551)
(-3.02999e-08 0 -0.000998748)
(-1.3205e-08 0 -0.000998923)
(-2.80527e-09 0 -0.000999081)
(2.53708e-09 0 -0.000999227)
(4.38312e-09 0 -0.000999362)
(4.16435e-09 0 -0.000999491)
(3.04607e-09 0 -0.000999614)
(3.35084e-09 0 -0.000999735)
(2.05648e-09 0 -0.000999855)
(4.24722e-09 0 -0.000999957)
(0 6.18671e-08 -0.000999401)
(0 2.05679e-07 -0.000999298)
(0 3.48475e-07 -0.000999081)
(0 4.77022e-07 -0.000998822)
(0 5.87845e-07 -0.000998501)
(0 6.77021e-07 -0.000998121)
(0 7.40519e-07 -0.000997692)
(0 7.74891e-07 -0.000997224)
(0 7.77206e-07 -0.000996728)
(0 7.45096e-07 -0.000996213)
(0 6.76777e-07 -0.00099569)
(0 5.71055e-07 -0.000995169)
(0 4.27323e-07 -0.000994657)
(0 2.45519e-07 -0.000994162)
(0 2.60862e-08 -0.00099369)
(0 -2.30099e-07 -0.000993241)
(0 -5.21831e-07 -0.000992816)
(0 -8.47791e-07 -0.000992412)
(0 -1.20666e-06 -0.000992021)
(0 -1.59735e-06 -0.000991634)
(0 -2.01878e-06 -0.000991238)
(0 -2.47011e-06 -0.000990809)
(0 -2.95223e-06 -0.000990322)
(0 -3.46663e-06 -0.000989755)
(0 -4.01551e-06 -0.000989081)
(0 -4.60259e-06 -0.000988264)
(0 -5.23334e-06 -0.000987267)
(0 -5.91531e-06 -0.000986048)
(0 -6.65838e-06 -0.000984561)
(0 -7.47514e-06 -0.000982757)
(0 -8.38124e-06 -0.000980582)
(0 -9.39572e-06 -0.000977979)
(0 -1.05415e-05 -0.000974884)
(0 -1.18459e-05 -0.000971229)
(0 -1.33408e-05 -0.00096694)
(0 -1.50638e-05 -0.000961935)
(0 -1.70584e-05 -0.000956121)
(0 -1.93749e-05 -0.000949397)
(0 -2.20713e-05 -0.000941649)
(0 -2.52142e-05 -0.000932744)
(0 -2.88801e-05 -0.000922534)
(0 -3.31569e-05 -0.000910849)
(0 -3.8145e-05 -0.000897495)
(0 -4.3959e-05 -0.000882252)
(0 -5.07294e-05 -0.000864871)
(0 -5.8605e-05 -0.000845069)
(0 -6.7754e-05 -0.000822536)
(0 -7.83654e-05 -0.00079694)
(0 -9.06487e-05 -0.000767879)
(0 -0.000104845 -0.000734823)
(0 -0.000121236 -0.000697176)
(0 -0.000140145 -0.000654295)
(0 -0.000161941 -0.000605448)
(0 -0.000187045 -0.000549803)
(0 -0.000215937 -0.000486411)
(0 -0.000249166 -0.0004142)
(0 -0.000287362 -0.000331949)
(0 -0.000331239 -0.000238279)
(0 -0.000381615 -0.000131629)
(0 -0.000439422 -1.02346e-05)
(0 -0.000505721 0.000127892)
(0 -0.000581722 0.000284997)
(0 -0.000668797 0.000463776)
(0 -0.000768541 0.000667386)
(0 -0.000882785 0.000899255)
(0 -0.00101362 0.00116315)
(0 -0.0011634 0.00146333)
(0 -0.00133481 0.00180437)
(0 -0.0015309 0.00219221)
(0 -0.00175516 0.00263312)
(0 -0.00201146 0.00313364)
(0 -0.00230422 0.00370168)
(0 -0.00263841 0.00434597)
(0 -0.00301966 0.0050762)
(0 -0.00345405 0.00590229)
(0 -0.0039485 0.00683967)
(0 -0.00451092 0.00793057)
(0 -0.00514716 0.00921986)
(0 -0.00579701 0.00981114)
(0 -0.00466664 0.0324729)
(0 0.0117251 0.00990641)
(0 0.0128302 0.047817)
(0 0.00610569 0.0416583)
(0 -0.00554206 0.0308242)
(0 -0.00751822 0.0667457)
(0 -0.00507148 0.0107217)
(0 -0.0125123 0.0934258)
(0 0.000662595 0.0561531)
(0 0.00672765 0.0171321)
(0 0.0273088 0.137075)
(0 0.0200929 -0.0482711)
(0 -0.0196426 0.0618357)
(0 -0.0339733 0.137287)
(0 -0.00967643 0.0560257)
(0 0.00529647 -0.012369)
(0 0.0160125 0.139191)
(0 0.020186 -0.0637851)
(0 0.0458681 0.0509744)
(0 0.0500776 -0.0891445)
(0 -0.00100656 -0.0375849)
(0 0.0062299 0.196673)
(0 0.00292324 -0.00350508)
(0 -0.00857154 0.00401787)
(0 -0.0187813 0.0674093)
(0 0.00196294 0.0535197)
(0 -0.00469907 0.0576978)
(0 -0.00223533 -0.0190398)
(0 0.00188694 0.00380885)
(0 0.00214976 0.00728018)
(0 0.00190635 0.00490278)
(0 0.00166962 0.0040579)
(0 0.00146151 0.00340879)
(0 0.00127938 0.00284029)
(0 0.00111985 0.00234492)
(0 0.000980066 0.00191353)
(0 0.000857591 0.00153819)
(0 0.000750213 0.00121191)
(0 0.000656055 0.000927633)
(0 0.00057351 0.000679736)
(0 0.00050116 0.000463686)
(0 0.000437757 0.000275403)
(0 0.000382206 0.000111292)
(0 0.000333536 -3.17572e-05)
(0 0.000290943 -0.000156453)
(0 0.000253666 -0.000265154)
(0 0.000221048 -0.000359916)
(0 0.000192512 -0.000442526)
(0 0.000167553 -0.000514545)
(0 0.000145725 -0.00057733)
(0 0.00012664 -0.000632062)
(0 0.000109955 -0.000679771)
(0 9.53712e-05 -0.000721352)
(0 8.26288e-05 -0.000757584)
(0 7.14979e-05 -0.000789147)
(0 6.17736e-05 -0.000816631)
(0 5.32801e-05 -0.000840553)
(0 4.58649e-05 -0.000861361)
(0 3.93954e-05 -0.000879449)
(0 3.37554e-05 -0.000895159)
(0 2.88433e-05 -0.000908785)
(0 2.45693e-05 -0.000920623)
(0 2.08619e-05 -0.000930968)
(0 1.76632e-05 -0.000940007)
(0 1.4915e-05 -0.000947861)
(0 1.25621e-05 -0.000954661)
(0 1.05535e-05 -0.000960537)
(0 8.84333e-06 -0.000965609)
(0 7.39134e-06 -0.000969986)
(0 6.16048e-06 -0.000973766)
(0 5.11754e-06 -0.000977039)
(0 4.23397e-06 -0.00097988)
(0 3.48539e-06 -0.000982354)
(0 2.85094e-06 -0.00098452)
(0 2.31301e-06 -0.000986422)
(0 1.8567e-06 -0.000988097)
(0 1.46942e-06 -0.000989576)
(0 1.14065e-06 -0.000990883)
(0 8.61601e-07 -0.000992038)
(0 6.24972e-07 -0.000993058)
(0 4.24759e-07 -0.000993957)
(0 2.56063e-07 -0.000994746)
(0 1.14886e-07 -0.000995437)
(0 -2.18521e-09 -0.000996042)
(0 -9.78819e-08 -0.000996571)
(0 -1.74526e-07 -0.00099703)
(0 -2.34235e-07 -0.000997426)
(0 -2.79038e-07 -0.000997767)
(0 -3.10639e-07 -0.000998065)
(0 -3.30675e-07 -0.000998325)
(0 -3.40823e-07 -0.000998551)
(0 -3.42985e-07 -0.000998748)
(0 -3.38929e-07 -0.000998923)
(0 -3.30329e-07 -0.000999081)
(0 -3.18822e-07 -0.000999227)
(0 -3.05957e-07 -0.000999362)
(0 -2.93164e-07 -0.000999491)
(0 -2.81599e-07 -0.000999614)
(0 -2.73553e-07 -0.000999735)
(0 -2.65952e-07 -0.000999855)
(0 -2.64216e-07 -0.000999957)
)
;
    }
    procBoundary1to0
    {
        type            processor;
        value           nonuniform List<vector> 
180
(
(-4.06454e-08 -8.12554e-08 -0.000997386)
(-1.53287e-07 -2.62303e-07 -0.000997203)
(-2.60462e-07 -4.43892e-07 -0.000997113)
(-3.52531e-07 -6.13751e-07 -0.00099717)
(-4.25789e-07 -7.69297e-07 -0.00099727)
(-4.75904e-07 -9.07631e-07 -0.000997398)
(-4.98482e-07 -1.02589e-06 -0.000997557)
(-4.89729e-07 -1.12195e-06 -0.000997748)
(-4.46354e-07 -1.19432e-06 -0.000997971)
(-3.65616e-07 -1.2423e-06 -0.000998225)
(-2.45342e-07 -1.26597e-06 -0.000998509)
(-8.39425e-08 -1.26629e-06 -0.00099882)
(1.19597e-07 -1.24508e-06 -0.000999155)
(3.65739e-07 -1.2051e-06 -0.000999512)
(6.54439e-07 -1.15006e-06 -0.000999885)
(9.85247e-07 -1.08453e-06 -0.00100027)
(1.35739e-06 -1.01399e-06 -0.00100066)
(1.76988e-06 -9.44675e-07 -0.00100105)
(2.22161e-06 -8.8361e-07 -0.00100144)
(2.71154e-06 -8.38433e-07 -0.00100181)
(3.23879e-06 -8.17786e-07 -0.00100215)
(3.80279e-06 -8.31119e-07 -0.00100246)
(4.40406e-06 -8.88541e-07 -0.00100273)
(5.04371e-06 -1.00081e-06 -0.00100295)
(5.7236e-06 -1.17937e-06 -0.00100312)
(6.44681e-06 -1.43634e-06 -0.00100321)
(7.21784e-06 -1.78461e-06 -0.00100323)
(8.04285e-06 -2.23794e-06 -0.00100318)
(8.92987e-06 -2.81106e-06 -0.00100303)
(9.88902e-06 -3.51988e-06 -0.0010028)
(1.09328e-05 -4.38174e-06 -0.00100247)
(1.20761e-05 -5.41575e-06 -0.00100204)
(1.33367e-05 -6.64313e-06 -0.0010015)
(1.47356e-05 -8.08769e-06 -0.00100086)
(1.62968e-05 -9.77635e-06 -0.00100009)
(1.8048e-05 -1.17399e-05 -0.00099921)
(2.00208e-05 -1.40137e-05 -0.000998191)
(2.2251e-05 -1.66387e-05 -0.000997023)
(2.47788e-05 -1.96622e-05 -0.000995688)
(2.76496e-05 -2.31395e-05 -0.000994158)
(3.09143e-05 -2.71345e-05 -0.000992402)
(3.46297e-05 -3.17223e-05 -0.000990376)
(3.88593e-05 -3.69899e-05 -0.000988024)
(4.3674e-05 -4.3039e-05 -0.000985279)
(4.91522e-05 -4.9988e-05 -0.000982056)
(5.53815e-05 -5.79744e-05 -0.000978254)
(6.24583e-05 -6.71582e-05 -0.00097375)
(7.04889e-05 -7.77249e-05 -0.000968397)
(7.95883e-05 -8.98894e-05 -0.000962022)
(8.98857e-05 -0.0001039 -0.000954422)
(0.000101529 -0.000120045 -0.000945361)
(0.000114682 -0.000138656 -0.000934566)
(0.000129531 -0.000160114 -0.000921729)
(0.000146283 -0.000184858 -0.000906502)
(0.000165171 -0.00021339 -0.000888502)
(0.000186459 -0.000246283 -0.000867252)
(0.00021044 -0.000284201 -0.000842093)
(0.000237435 -0.000327921 -0.000812266)
(0.000267798 -0.000378344 -0.000776962)
(0.000301924 -0.000436506 -0.000735236)
(0.000340253 -0.000503604 -0.000685981)
(0.000383266 -0.000581018 -0.000627898)
(0.000431499 -0.000670344 -0.000559465)
(0.000485551 -0.000773425 -0.000478891)
(0.000546096 -0.000892392 -0.000384076)
(0.000613867 -0.00102971 -0.000272543)
(0.000689668 -0.00118823 -0.000141376)
(0.000774371 -0.00137125 1.28391e-05)
(0.000868898 -0.0015826 0.000194108)
(0.000974318 -0.00182671 0.000407139)
(0.00109172 -0.00210874 0.000657474)
(0.00122227 -0.00243464 0.000951654)
(0.00136722 -0.00281139 0.00129747)
(0.00152784 -0.0032472 0.00170417)
(0.00170544 -0.00375127 0.00218173)
(0.00190137 -0.00433448 0.00273755)
(0.00211793 -0.00501005 0.00337567)
(0.00235651 -0.00578987 0.00413643)
(0.00264317 -0.00660238 0.00634359)
(0.00364512 -0.00509698 0.0177175)
(0.0107462 0.0172166 0.00401781)
(0.0228233 0.0212789 0.00914288)
(0.0328902 0.017416 0.0322096)
(0.0367074 0.0197134 -0.0159825)
(0.0484287 0.0113902 0.0016357)
(0.0577526 0.0152728 0.0404294)
(0.0213316 0.0321669 -0.0848182)
(-0.00652438 0.0165503 0.0762561)
(-0.0180542 0.0176112 -0.0373979)
(-0.0170575 0.0103677 0.0110285)
(-0.0207923 -0.00244536 -0.0361014)
(-0.0143422 -0.00807344 0.070928)
(-0.0199128 0.000480256 -0.111483)
(-0.0367828 -0.0242144 -0.010333)
(-0.0133475 -0.0340551 0.165635)
(0.0268171 -0.0015802 -0.124546)
(0.0219665 0.00753419 -0.0357791)
(-0.0146058 -0.00778227 0.0390585)
(-0.0385531 -0.0184734 -0.24246)
(-0.0156485 -0.017246 0.0736806)
(0.00214928 0.0190044 0.178078)
(-0.00206633 0.0186414 -0.148122)
(-0.00413829 0.0149786 0.100662)
(-0.00466184 0.0155392 0.0222847)
(-0.0128206 0.00999687 0.0230175)
(-0.00549967 0.0125691 0.0282961)
(-0.00291372 0.00950922 -0.0122514)
(-0.00236537 0.00518801 1.9914e-05)
(-0.0018646 0.00383103 0.000491969)
(-0.00161122 0.00331208 0.00027825)
(-0.00139736 0.00288276 0.000114906)
(-0.00121308 0.00251028 -2.38115e-06)
(-0.00105394 0.00218462 -0.000109151)
(-0.000916364 0.00190002 -0.000208217)
(-0.000797271 0.00165151 -0.000298755)
(-0.000694094 0.00143469 -0.000380835)
(-0.000604572 0.00124567 -0.000454781)
(-0.000526815 0.00108099 -0.000521116)
(-0.00045923 0.000937625 -0.000580816)
(-0.000400401 0.00081293 -0.000633106)
(-0.000349274 0.000704424 -0.000678762)
(-0.000304771 0.000610048 -0.000719691)
(-0.000266011 0.00052811 -0.000755833)
(-0.000232236 0.000456971 -0.000787668)
(-0.000202791 0.000395237 -0.000815679)
(-0.000177107 0.000341693 -0.000840307)
(-0.000154692 0.000295281 -0.000861944)
(-0.000135118 0.000255073 -0.000880934)
(-0.000118016 0.00022026 -0.00089758)
(-0.000103064 0.000190135 -0.000912144)
(-8.99853e-05 0.000164082 -0.00092485)
(-7.85385e-05 0.000141559 -0.000935894)
(-6.85168e-05 0.000122093 -0.000945445)
(-5.97411e-05 0.000105274 -0.00095365)
(-5.20575e-05 9.07466e-05 -0.000960638)
(-4.53332e-05 7.81965e-05 -0.000966564)
(-3.94505e-05 6.73555e-05 -0.000971618)
(-3.43027e-05 5.79992e-05 -0.000975935)
(-2.97981e-05 4.99302e-05 -0.000979584)
(-2.58571e-05 4.29757e-05 -0.000982644)
(-2.24095e-05 3.69851e-05 -0.000985191)
(-1.9398e-05 3.18273e-05 -0.000987293)
(-1.67751e-05 2.7388e-05 -0.000989015)
(-1.44957e-05 2.35682e-05 -0.000990418)
(-1.25181e-05 2.0282e-05 -0.000991561)
(-1.08046e-05 1.74552e-05 -0.000992494)
(-9.32134e-06 1.50238e-05 -0.000993265)
(-8.03808e-06 1.29317e-05 -0.000993913)
(-6.92791e-06 1.11318e-05 -0.00099447)
(-5.96706e-06 9.58434e-06 -0.000994963)
(-5.13484e-06 8.25499e-06 -0.000995415)
(-4.41304e-06 7.11431e-06 -0.000995838)
(-3.78607e-06 6.13673e-06 -0.00099624)
(-3.2407e-06 5.30001e-06 -0.000996624)
(-2.76563e-06 4.58483e-06 -0.00099699)
(-2.35126e-06 3.9743e-06 -0.000997336)
(-1.98949e-06 3.45365e-06 -0.00099766)
(-1.67352e-06 3.00989e-06 -0.000997956)
(-1.39767e-06 2.63156e-06 -0.000998221)
(-1.15726e-06 2.30855e-06 -0.00099845)
(-9.48406e-07 2.03183e-06 -0.00099864)
(-7.67942e-07 1.79343e-06 -0.000998795)
(-6.1281e-07 1.58746e-06 -0.000998919)
(-4.80477e-07 1.40898e-06 -0.000999013)
(-3.68793e-07 1.25355e-06 -0.000999078)
(-2.75807e-07 1.1173e-06 -0.000999119)
(-1.99651e-07 9.96936e-07 -0.00099914)
(-1.38618e-07 8.89857e-07 -0.00099915)
(-9.12148e-08 7.94042e-07 -0.000999156)
(-5.57327e-08 7.07979e-07 -0.000999162)
(-3.02977e-08 6.30595e-07 -0.000999175)
(-1.32034e-08 5.61153e-07 -0.0009992)
(-2.80411e-09 4.99257e-07 -0.00099924)
(2.53867e-09 4.44837e-07 -0.0009993)
(4.38314e-09 3.98049e-07 -0.00099938)
(4.14713e-09 3.59166e-07 -0.000999478)
(3.06003e-09 3.28504e-07 -0.000999594)
(3.4032e-09 3.07631e-07 -0.000999722)
(2.13276e-09 2.92915e-07 -0.000999855)
(4.27031e-09 2.87237e-07 -0.000999986)
)
;
    }
    procBoundary1to3
    {
        type            processor;
        value           nonuniform List<vector> 
180
(
(1.02468e-07 6.1858e-08 -0.000996687)
(3.14669e-07 2.05652e-07 -0.000996497)
(5.3191e-07 3.48481e-07 -0.000996393)
(7.38237e-07 4.77017e-07 -0.000996431)
(9.31349e-07 5.87842e-07 -0.000996503)
(1.10875e-06 6.77021e-07 -0.000996597)
(1.26793e-06 7.40519e-07 -0.000996716)
(1.40711e-06 7.74891e-07 -0.000996859)
(1.52517e-06 7.77206e-07 -0.000997027)
(1.62178e-06 7.45096e-07 -0.000997219)
(1.69741e-06 6.76777e-07 -0.000997431)
(1.7534e-06 5.71055e-07 -0.000997663)
(1.792e-06 4.27324e-07 -0.000997912)
(1.81636e-06 2.45519e-07 -0.000998174)
(1.83058e-06 2.60853e-08 -0.000998445)
(1.83967e-06 -2.30101e-07 -0.000998718)
(1.84955e-06 -5.21828e-07 -0.000998991)
(1.86676e-06 -8.47789e-07 -0.000999258)
(1.89856e-06 -1.20666e-06 -0.000999514)
(1.95262e-06 -1.59735e-06 -0.000999753)
(2.03778e-06 -2.01878e-06 -0.000999962)
(2.16378e-06 -2.47011e-06 -0.00100014)
(2.34036e-06 -2.95223e-06 -0.00100028)
(2.57788e-06 -3.46663e-06 -0.00100038)
(2.88743e-06 -4.01551e-06 -0.00100044)
(3.28052e-06 -4.60259e-06 -0.00100044)
(3.76906e-06 -5.23334e-06 -0.00100039)
(4.36543e-06 -5.91531e-06 -0.0010003)
(5.08248e-06 -6.65837e-06 -0.00100016)
(5.93367e-06 -7.47514e-06 -0.000999983)
(6.93315e-06 -8.38123e-06 -0.000999786)
(8.09595e-06 -9.39572e-06 -0.00099958)
(9.43815e-06 -1.05415e-05 -0.000999384)
(1.09772e-05 -1.18459e-05 -0.000999221)
(1.2732e-05 -1.33408e-05 -0.000999119)
(1.47236e-05 -1.50638e-05 -0.000999111)
(1.69756e-05 -1.70584e-05 -0.000999232)
(1.95141e-05 -1.93749e-05 -0.000999526)
(2.23689e-05 -2.20713e-05 -0.00100004)
(2.55738e-05 -2.52142e-05 -0.00100083)
(2.91673e-05 -2.88801e-05 -0.00100196)
(3.31933e-05 -3.31569e-05 -0.0010035)
(3.7702e-05 -3.8145e-05 -0.00100552)
(4.27511e-05 -4.39589e-05 -0.0010081)
(4.8407e-05 -5.07294e-05 -0.00101134)
(5.4746e-05 -5.8605e-05 -0.00101532)
(6.18564e-05 -6.7754e-05 -0.00102015)
(6.98405e-05 -7.83655e-05 -0.0010259)
(7.88188e-05 -9.06488e-05 -0.00103268)
(8.89282e-05 -0.000104845 -0.00104071)
(0.000100321 -0.000121236 -0.0010502)
(0.000113171 -0.000140146 -0.00106137)
(0.000127676 -0.000161942 -0.00107447)
(0.000144061 -0.000187046 -0.0010898)
(0.000162579 -0.000215938 -0.00110769)
(0.000183518 -0.000249169 -0.00112852)
(0.000207205 -0.000287365 -0.00115276)
(0.000234022 -0.000331243 -0.00118093)
(0.000264405 -0.000381622 -0.00121361)
(0.000298852 -0.000439432 -0.0012515)
(0.000337934 -0.000505736 -0.00129536)
(0.000382305 -0.000581743 -0.00134607)
(0.000432716 -0.000668827 -0.00140481)
(0.000490014 -0.000768583 -0.001473)
(0.000555163 -0.000882845 -0.00155212)
(0.000629269 -0.0010137 -0.00164374)
(0.000713613 -0.00116351 -0.00174964)
(0.000809673 -0.00133498 -0.00187183)
(0.000919155 -0.00153112 -0.00201273)
(0.00104402 -0.00175548 -0.00217447)
(0.00118662 -0.00201191 -0.00235934)
(0.00134967 -0.00230484 -0.00257069)
(0.00153632 -0.00263926 -0.00281207)
(0.00175042 -0.00302083 -0.00308484)
(0.00199633 -0.00345566 -0.00339312)
(0.00227942 -0.00395069 -0.00374571)
(0.00260721 -0.00451353 -0.00415131)
(0.00299479 -0.00514637 -0.00477432)
(0.00348909 -0.00571162 -0.00617929)
(0.00510754 -0.00209124 0.00606441)
(0.0126097 0.0357267 -0.0133051)
(0.0259965 0.0461525 -0.00390225)
(0.0329735 0.0417946 0.00247807)
(0.00695337 0.017179 -0.0277327)
(-0.00179849 0.00198662 0.00163061)
(-0.0131875 -0.0148107 0.0410935)
(-0.0113373 -0.0091496 -0.0934349)
(-0.00410924 -0.00563099 0.0727491)
(-0.0109856 -0.0051464 -0.0294271)
(-0.00967621 -0.0131109 -0.0415964)
(-0.00129526 -0.0176287 -0.0298638)
(-0.00291859 -0.0341398 0.0316765)
(0.00118816 -0.032837 -0.0280412)
(0.00137274 -0.00625231 0.00234643)
(0.0189017 0.0160095 -0.302388)
(0.00887491 0.0188196 0.145783)
(-0.00979196 0.0133827 -0.175487)
(0.00433148 0.0445488 -0.144366)
(0.032847 0.0448786 -0.0456111)
(0.00768353 0.0151012 0.0600891)
(-0.00668485 0.00325149 -0.0928385)
(0.00329401 0.0117809 0.107354)
(-0.00194837 0.00587713 0.0309346)
(-0.00636656 -0.00235799 0.039222)
(-0.0190659 0.00942664 0.00112161)
(-0.00877846 0.00992757 0.0511185)
(-0.0039491 0.00630934 -0.0116976)
(-0.00379574 0.00277092 -0.00489601)
(-0.00345786 0.00218282 0.00141539)
(-0.00300036 0.00190517 -0.000118461)
(-0.00260251 0.00166793 -0.000385576)
(-0.00225596 0.00146033 -0.000484149)
(-0.00195472 0.00127859 -0.000568556)
(-0.00169315 0.00111931 -0.000641912)
(-0.00146616 0.000979703 -0.000703814)
(-0.00126927 0.000857345 -0.000755987)
(-0.00109858 0.000750047 -0.000799782)
(-0.000950658 0.000655942 -0.000836281)
(-0.000822521 0.000573433 -0.000866543)