/*--------------------------------*- C++ -*----------------------------------*\
| =========                 |                                                 |
| \\      /  F ield         | OpenFOAM: The Open Source CFD Toolbox           |
|  \\    /   O peration     | Version:  5.x                                   |
|   \\  /    A nd           | Web:      www.OpenFOAM.org                      |
|    \\/     M anipulation  |                                                 |
\*---------------------------------------------------------------------------*/
FoamFile
{
    version     2.0;
    format      ascii;
    class       volVectorField;
    location    "400";
    object      Us;
}
// * * * * * * * * * * * * * * * * * * * * * * * * * * * * * * * * * * * * * //

dimensions      [0 1 -1 0 0 0 0];

internalField   nonuniform List<vector> 
90
(
(0 0 0)
(0 0 0)
(0 0 0)
(0 0 0)
(0 0 0)
(0 0 0)
(0 0 0)
(0 0 0)
(0 0 0)
(0 0 0)
(0 0 0)
(0 0 0)
(0 0 0)
(0 0 0)
(0 0 0)
(0 0 0)
(0 0 0)
(0 0 0)
(0 0 0)
(0 0 0)
(0 0 0)
(0 0 0)
(0 0 0)
(0 0 0)
(0 0 0)
(0 0 0)
(0 0 0)
(0 0 0)
(0 0 0)
(0 0 0)
(0 0 0)
(0 0 0)
(0 0 0)
(0 0 0)
(0 0 0)
(0 0 0)
(0 0 0)
(0 0 0)
(0 0 0)
(0 0 0)
(6.16789e-06 3.09739e-06 -9.2182e-08)
(1.139e-05 4.74055e-06 -4.81864e-07)
(1.58554e-05 5.90122e-06 -5.97854e-07)
(2.13676e-05 6.29053e-06 -5.56691e-08)
(2.75243e-05 6.9637e-06 8.13086e-07)
(3.12675e-05 8.13109e-06 8.07344e-07)
(3.62125e-05 9.78045e-06 5.20213e-07)
(4.12672e-05 1.0891e-05 1.97331e-06)
(4.68455e-05 1.02976e-05 1.71607e-06)
(5.04231e-05 1.25461e-05 7.57623e-07)
(5.32848e-05 1.27178e-05 2.36454e-06)
(4.84107e-05 1.05646e-06 -9.67475e-06)
(-6.29051e-05 -3.74374e-05 -8.98422e-05)
(-4.87677e-05 -2.54994e-05 -9.73615e-05)
(0 0 0)
(0 0 0)
(0 0 0)
(0 0 0)
(0 0 0)
(0 0 0)
(0 0 0)
(0 0 0)
(0 0 0)
(0 0 0)
(0 0 0)
(0 0 0)
(0 0 0)
(0 0 0)
(0 0 0)
(0 0 0)
(0 0 0)
(0 0 0)
(0 0 0)
(0 0 0)
(0 0 0)
(0 0 0)
(0 0 0)
(0 0 0)
(0 0 0)
(0 0 0)
(0 0 0)
(0 0 0)
(0 0 0)
(0 0 0)
(0 0 0)
(0 0 0)
(0 0 0)
(0 0 0)
(0 0 0)
(0 0 0)
)
;

boundaryField
{
    inlet
    {
        type            fixedValue;
        value           uniform (0 0 0);
    }
    outlet
    {
        type            fixedValue;
        value           uniform (0 0 0);
    }
    repeat_boundary
    {
        type            fixedValue;
        value           uniform (0 0 0);
    }
    procBoundary3to1
    {
        type            processor;
        value           nonuniform List<vector> 
90
(
(0 0 0)
(0 0 0)
(0 0 0)
(0 0 0)
(0 0 0)
(0 0 0)
(0 0 0)
(0 0 0)
(0 0 0)
(0 0 0)
(0 0 0)
(0 0 0)
(0 0 0)
(0 0 0)
(0 0 0)
(0 0 0)
(0 0 0)
(0 0 0)
(0 0 0)
(0 0 0)
(0 0 0)
(0 0 0)
(0 0 0)
(0 0 0)
(0 0 0)
(0 0 0)
(0 0 0)
(0 0 0)
(0 0 0)
(0 0 0)
(0 0 0)
(0 0 0)
(0 0 0)
(0 0 0)
(0 0 0)
(0 0 0)
(0 0 0)
(0 0 0)
(0 0 0)
(0 0 0)
(4.87073e-06 2.21224e-06 2.02899e-08)
(1.04009e-05 4.15524e-06 3.94652e-07)
(1.49565e-05 5.46484e-06 6.81149e-07)
(2.10061e-05 7.01824e-06 9.29946e-07)
(2.66912e-05 7.73938e-06 9.15461e-07)
(3.06185e-05 9.14603e-06 1.54548e-06)
(3.72963e-05 1.07847e-05 1.97357e-06)
(4.07911e-05 1.29934e-05 6.32003e-07)
(4.45159e-05 1.11759e-05 -9.25775e-07)
(4.95059e-05 9.63681e-06 -3.12013e-06)
(5.54292e-05 1.02711e-05 -7.32748e-06)
(5.29043e-05 1.93634e-05 -1.22247e-05)
(2.25582e-05 6.19163e-05 -2.12902e-05)
(0 0 0)
(0 0 0)
(0 0 0)
(0 0 0)
(0 0 0)
(0 0 0)
(0 0 0)
(0 0 0)
(0 0 0)
(0 0 0)
(0 0 0)
(0 0 0)
(0 0 0)
(0 0 0)
(0 0 0)
(0 0 0)
(0 0 0)
(0 0 0)
(0 0 0)
(0 0 0)
(0 0 0)
(0 0 0)
(0 0 0)
(0 0 0)
(0 0 0)
(0 0 0)
(0 0 0)
(0 0 0)
(0 0 0)
(0 0 0)
(0 0 0)
(0 0 0)
(0 0 0)
(0 0 0)
(0 0 0)
(0 0 0)
(0 0 0)
)
;
    }
    procBoundary3to2
    {
        type            processor;
        value           nonuniform List<vector> 
90
(
(0 0 0)
(0 0 0)
(0 0 0)
(0 0 0)
(0 0 0)
(0 0 0)
(0 0 0)
(0 0 0)
(0 0 0)
(0 0 0)
(0 0 0)
(0 0 0)
(0 0 0)
(0 0 0)
(0 0 0)
(0 0 0)
(0 0 0)
(0 0 0)
(0 0 0)
(0 0 0)
(0 0 0)
(0 0 0)
(0 0 0)
(0 0 0)
(0 0 0)
(0 0 0)
(0 0 0)
(0 0 0)
(0 0 0)
(0 0 0)
(0 0 0)
(0 0 0)
(0 0 0)
(0 0 0)
(0 0 0)
(0 0 0)
(0 0 0)
(0 0 0)
(0 0 0)
(0 0 0)
(6.62874e-06 1.47577e-06 2.84669e-08)
(1.12686e-05 4.10335e-06 2.49044e-07)
(1.58417e-05 6.25606e-06 -1.92153e-07)
(2.04211e-05 7.36353e-06 -4.1022e-07)
(2.47897e-05 8.25769e-06 -5.18597e-07)
(3.00105e-05 9.3009e-06 2.80897e-08)
(3.65146e-05 1.014e-05 8.22488e-07)
(4.02346e-05 9.21068e-06 7.24909e-07)
(4.41769e-05 9.1432e-06 1.42326e-06)
(4.74119e-05 9.73813e-06 1.87392e-06)
(5.12068e-05 1.28663e-05 1.14529e-06)
(4.60226e-05 9.92642e-06 -4.33749e-06)
(6.83858e-05 8.99131e-05 -6.71931e-05)
(0.000164617 0.000354018 -6.86608e-05)
(0 0 0)
(0 0 0)
(0 0 0)
(0 0 0)
(0 0 0)
(0 0 0)
(0 0 0)
(0 0 0)
(0 0 0)
(0 0 0)
(0 0 0)
(0 0 0)
(0 0 0)
(0 0 0)
(0 0 0)
(0 0 0)
(0 0 0)
(0 0 0)
(0 0 0)
(0 0 0)
(0 0 0)
(0 0 0)
(0 0 0)
(0 0 0)
(0 0 0)
(0 0 0)
(0 0 0)
(0 0 0)
(0 0 0)
(0 0 0)
(0 0 0)
(0 0 0)
(0 0 0)
(0 0 0)
(0 0 0)
(0 0 0)
)
;
    }
}


// ************************************************************************* //
