/*--------------------------------*- C++ -*----------------------------------*\
| =========                 |                                                 |
| \\      /  F ield         | OpenFOAM: The Open Source CFD Toolbox           |
|  \\    /   O peration     | Version:  5.x                                   |
|   \\  /    A nd           | Web:      www.OpenFOAM.org                      |
|    \\/     M anipulation  |                                                 |
\*---------------------------------------------------------------------------*/
FoamFile
{
    version     2.0;
    format      ascii;
    class       surfaceScalarField;
    location    "0.005";
    object      phi;
}
// * * * * * * * * * * * * * * * * * * * * * * * * * * * * * * * * * * * * * //

dimensions      [0 3 -1 0 0 0 0];

internalField   nonuniform List<scalar> 
179
(
-2.49985e-10
-2.49985e-10
-2.49985e-10
-2.49984e-10
-2.49984e-10
-2.49983e-10
-2.49982e-10
-2.49981e-10
-2.49979e-10
-2.49978e-10
-2.49976e-10
-2.49974e-10
-2.49971e-10
-2.49969e-10
-2.49966e-10
-2.49962e-10
-2.49958e-10
-2.49954e-10
-2.49949e-10
-2.49944e-10
-2.49938e-10
-2.49932e-10
-2.49925e-10
-2.49917e-10
-2.49908e-10
-2.49898e-10
-2.49887e-10
-2.49875e-10
-2.49862e-10
-2.49847e-10
-2.4983e-10
-2.49812e-10
-2.49792e-10
-2.4977e-10
-2.49745e-10
-2.49718e-10
-2.49688e-10
-2.49654e-10
-2.49617e-10
-2.49576e-10
-2.4953e-10
-2.4948e-10
-2.49424e-10
-2.49362e-10
-2.49293e-10
-2.49216e-10
-2.49131e-10
-2.49037e-10
-2.48933e-10
-2.48817e-10
-2.48689e-10
-2.48546e-10
-2.48387e-10
-2.48211e-10
-2.48015e-10
-2.47797e-10
-2.47555e-10
-2.47286e-10
-2.46987e-10
-2.46654e-10
-2.46284e-10
-2.45872e-10
-2.45413e-10
-2.44903e-10
-2.44335e-10
-2.43701e-10
-2.42996e-10
-2.42209e-10
-2.41332e-10
-2.40353e-10
-2.3926e-10
-2.3804e-10
-2.36675e-10
-2.3515e-10
-2.33445e-10
-2.31553e-10
-2.29487e-10
-2.27324e-10
-2.25241e-10
-2.23537e-10
-2.22954e-10
-2.23097e-10
-2.13247e-10
-2.14514e-10
-2.21032e-10
-2.33459e-10
-2.37452e-10
-2.44616e-10
-2.42184e-10
-2.36122e-10
-2.3415e-10
-2.34381e-10
-2.44188e-10
-2.53939e-10
-2.58917e-10
-2.65345e-10
-2.75484e-10
-2.82045e-10
-2.88125e-10
-2.88913e-10
-2.90806e-10
-2.93441e-10
-2.92216e-10
-2.90824e-10
-2.89287e-10
-2.86705e-10
-2.83606e-10
-2.8042e-10
-2.77401e-10
-2.74641e-10
-2.7215e-10
-2.69911e-10
-2.67901e-10
-2.66096e-10
-2.64475e-10
-2.6302e-10
-2.61712e-10
-2.60538e-10
-2.59482e-10
-2.58533e-10
-2.5768e-10
-2.56913e-10
-2.56224e-10
-2.55603e-10
-2.55045e-10
-2.54543e-10
-2.54091e-10
-2.53685e-10
-2.53319e-10
-2.5299e-10
-2.52694e-10
-2.52427e-10
-2.52187e-10
-2.51971e-10
-2.51776e-10
-2.51601e-10
-2.51443e-10
-2.513e-10
-2.51172e-10
-2.51056e-10
-2.50952e-10
-2.50858e-10
-2.50774e-10
-2.50697e-10
-2.50629e-10
-2.50567e-10
-2.50511e-10
-2.50461e-10
-2.50415e-10
-2.50374e-10
-2.50337e-10
-2.50304e-10
-2.50274e-10
-2.50247e-10
-2.50223e-10
-2.50201e-10
-2.50181e-10
-2.50163e-10
-2.50147e-10
-2.50132e-10
-2.50119e-10
-2.50107e-10
-2.50096e-10
-2.50087e-10
-2.50078e-10
-2.5007e-10
-2.50062e-10
-2.50056e-10
-2.5005e-10
-2.50044e-10
-2.50039e-10
-2.50035e-10
-2.5003e-10
-2.50026e-10
-2.50023e-10
-2.50019e-10
-2.50016e-10
-2.50013e-10
-2.5001e-10
)
;

boundaryField
{
    inlet
    {
        type            calculated;
        value           uniform -2.50007e-10;
    }
    outlet
    {
        type            calculated;
        value           uniform 2.49986e-10;
    }
    repeat_boundary
    {
        type            calculated;
        value           uniform 0;
    }
    procBoundary1to0
    {
        type            processor;
        value           nonuniform List<scalar> 
180
(
-1.75489e-17
-1.35589e-17
-1.17586e-17
-1.28359e-17
-1.56721e-17
-1.92998e-17
-2.32454e-17
-2.73326e-17
-3.15217e-17
-3.58216e-17
-4.02987e-17
-4.50397e-17
-5.01622e-17
-5.58064e-17
-6.21367e-17
-6.9341e-17
-7.76116e-17
-8.71859e-17
-9.8333e-17
-1.11339e-16
-1.26521e-16
-1.44228e-16
-1.6485e-16
-1.88827e-16
-2.16651e-16
-2.48889e-16
-2.86188e-16
-3.29296e-16
-3.79096e-16
-4.36629e-16
-5.03109e-16
-5.79906e-16
-6.68314e-16
-7.70595e-16
-8.88564e-16
-1.02388e-15
-1.17875e-15
-1.35589e-15
-1.55843e-15
-1.79004e-15
-2.055e-15
-2.3584e-15
-2.70625e-15
-3.10567e-15
-3.56509e-15
-4.09446e-15
-4.70549e-15
-5.41108e-15
-6.22891e-15
-7.17913e-15
-8.28238e-15
-9.56576e-15
-1.10627e-14
-1.28154e-14
-1.48788e-14
-1.73268e-14
-2.01003e-14
-2.31914e-14
-2.67726e-14
-3.09216e-14
-3.57289e-14
-4.12999e-14
-4.77573e-14
-5.52443e-14
-6.3928e-14
-7.40039e-14
-8.57015e-14
-9.92907e-14
-1.15091e-13
-1.33483e-13
-1.54924e-13
-1.79961e-13
-2.09237e-13
-2.43479e-13
-2.83854e-13
-3.27669e-13
-3.68261e-13
-3.87652e-13
-3.76286e-13
-3.39231e-13
-2.24228e-13
8.9228e-14
-3.76054e-12
6.62315e-13
3.99061e-12
9.65389e-12
6.26037e-13
4.06898e-12
5.63021e-14
-4.00279e-12
-2.03952e-12
-4.53293e-13
2.52837e-13
3.98139e-12
5.88744e-13
1.9264e-12
5.45754e-12
1.97924e-12
2.66903e-12
1.23721e-12
3.62788e-12
4.61448e-12
7.89807e-13
-2.45374e-13
-6.9196e-13
-2.07108e-12
-2.65257e-12
-2.74912e-12
-2.60882e-12
-2.39087e-12
-2.16408e-12
-1.95108e-12
-1.75716e-12
-1.58222e-12
-1.42477e-12
-1.28312e-12
-1.15568e-12
-1.04101e-12
-9.37826e-13
-8.44955e-13
-7.61357e-13
-6.86095e-13
-6.18329e-13
-5.57305e-13
-5.02346e-13
-4.52844e-13
-4.08251e-13
-3.68076e-13
-3.31876e-13
-2.99255e-13
-2.69854e-13
-2.43355e-13
-2.19468e-13
-1.97935e-13
-1.78521e-13
-1.61018e-13
-1.45235e-13
-1.31002e-13
-1.18167e-13
-1.06591e-13
-9.61513e-14
-8.67352e-14
-7.82422e-14
-7.05818e-14
-6.36723e-14
-5.74402e-14
-5.18191e-14
-4.67493e-14
-4.21768e-14
-3.80531e-14
-3.43345e-14
-3.09813e-14
-2.79581e-14
-2.52325e-14
-2.27756e-14
-2.05611e-14
-1.85655e-14
-1.67674e-14
-1.51476e-14
-1.36888e-14
-1.23754e-14
-1.11933e-14
-1.013e-14
-9.17402e-15
-8.31526e-15
-7.54455e-15
-6.8537e-15
-6.23536e-15
-5.68298e-15
-5.19073e-15
-4.75339e-15
-4.36635e-15
-4.02553e-15
-3.72735e-15
-3.46873e-15
-3.24702e-15
-3.06008e-15
-2.90697e-15
-2.78995e-15
-2.77284e-15
)
;
    }
    procBoundary1to3
    {
        type            processor;
        value           nonuniform List<scalar> 
180
(
-1.94271e-16
-2.73001e-16
-3.97977e-16
-5.42997e-16
-6.99124e-16
-8.63799e-16
-1.03733e-15
-1.22112e-15
-1.41694e-15
-1.62681e-15
-1.85291e-15
-2.0976e-15
-2.36343e-15
-2.6532e-15
-2.96996e-15
-3.31703e-15
-3.69806e-15
-4.11704e-15
-4.57837e-15
-5.08684e-15
-5.64776e-15
-6.26694e-15
-6.95079e-15
-7.70634e-15
-8.5414e-15
-9.46452e-15
-1.04852e-14
-1.16139e-14
-1.28621e-14
-1.42427e-14
-1.57699e-14
-1.74592e-14
-1.93282e-14
-2.1396e-14
-2.36839e-14
-2.62157e-14
-2.90174e-14
-3.21183e-14
-3.55503e-14
-3.93493e-14
-4.35548e-14
-4.82107e-14
-5.33655e-14
-5.90732e-14
-6.53935e-14
-7.23928e-14
-8.01444e-14
-8.873e-14
-9.82396e-14
-1.08773e-13
-1.20442e-13
-1.33369e-13
-1.47691e-13
-1.63559e-13
-1.81141e-13
-2.00625e-13
-2.22218e-13
-2.46151e-13
-2.7268e-13
-3.02088e-13
-3.34691e-13
-3.7084e-13
-4.10923e-13
-4.55372e-13
-5.04675e-13
-5.59377e-13
-6.20083e-13
-6.87474e-13
-7.6233e-13
-8.45519e-13
-9.38017e-13
-1.04091e-12
-1.15535e-12
-1.28213e-12
-1.4205e-12
-1.56495e-12
-1.69738e-12
-1.77598e-12
-1.70667e-12
-1.3645e-12
-3.58456e-13
5.44076e-14
-6.09056e-12
6.05568e-13
2.52773e-12
2.77228e-12
3.36754e-12
3.09496e-12
-2.48866e-12
-2.05927e-12
6.69082e-14
6.84837e-13
9.55401e-12
5.76915e-12
4.38922e-12
4.50225e-12
4.68066e-12
4.58173e-12
3.4114e-12
-4.49762e-13
-1.73445e-12
-1.97977e-12
-2.01535e-12
-1.14659e-12
-8.44556e-13
-5.10872e-13
-4.46406e-13
-4.37206e-13
-4.10078e-13
-3.69325e-13
-3.27028e-13
-2.88043e-13
-2.5332e-13
-2.22722e-13
-1.95867e-13
-1.72326e-13
-1.51689e-13
-1.33588e-13
-1.17702e-13
-1.03754e-13
-9.15014e-14
-8.07323e-14
-7.12633e-14
-6.2934e-14
-5.56047e-14
-4.91544e-14
-4.34361e-14
-3.81819e-14
-3.36316e-14
-2.9684e-14
-2.62442e-14
-2.32338e-14
-2.0589e-14
-1.82595e-14
-1.62041e-14
-1.43883e-14
-1.27825e-14
-1.13614e-14
-1.01037e-14
-8.98984e-15
-8.00281e-15
-7.12764e-15
-6.35127e-15
-5.66222e-15
-5.05046e-15
-4.50728e-15
-4.02487e-15
-3.5963e-15
-3.21544e-15
-2.87688e-15
-2.57584e-15
-2.30805e-15
-2.06976e-15
-1.85764e-15
-1.66866e-15
-1.50011e-15
-1.34962e-15
-1.21505e-15
-1.09456e-15
-9.86502e-16
-8.89454e-16
-8.02152e-16
-7.23502e-16
-6.52546e-16
-5.88442e-16
-5.30452e-16
-4.77973e-16
-4.30433e-16
-3.87316e-16
-3.48194e-16
-3.12696e-16
-2.80468e-16
-2.51194e-16
-2.24603e-16
-2.00487e-16
-1.78757e-16
-1.59582e-16
-1.43714e-16
-1.32941e-16
-1.18819e-16
)
;
    }
}


// ************************************************************************* //
