FoamFile
{version 2.0; format ascii;class Cloud<passiveParticle>; location 0;object  positions;}
356
(
( -1685.55 4046.77 498.988 ) 0 
( -3954.88 2494.45 498.506 ) 0 
( -3881.81 4223.55 498.726 ) 0 
( -4880.01 4266.95 498.781 ) 0 
( -2189.97 4909.83 499.511 ) 0 
( -3490.65 1609.38 498.694 ) 0 
( -2876.63 820.919 496.571 ) 0 
( -976.908 2179.87 498.996 ) 0 
( -2363.37 3286.94 497.714 ) 0 
( -4866.47 725.647 498.884 ) 0 
( -291.041 2917.66 498.272 ) 0 
( -551.906 141.934 498.742 ) 0 
( -4953.37 2535.61 497.651 ) 0 
( -1006.22 4782.13 497.171 ) 0 
( -3419.57 3338.38 498.282 ) 0 
( -1958.65 2373.92 496.93 ) 0 
( -4417.85 3380.07 498.506 ) 0 
( -605.805 3866.49 498.759 ) 0 
( -2518.8 1656.67 906.85 ) 0 
( -1110.09 4200.21 1300.88 ) 0 
( -4489.29 1650.39 497.725 ) 0 
( -1283.67 3131.39 499.641 ) 0 
( -1862.56 2959.57 1296.63 ) 0 
( -1509.27 438.504 496.824 ) 0 
( -3866.67 683.983 499.059 ) 0 
( -1636.43 1428.95 497.884 ) 0 
( -2850.1 4159.48 498.105 ) 0 
( -2956.47 2453.61 497.198 ) 0 
( -2794.43 4750.49 1300.38 ) 0 
( -437.918 4943.09 1303.67 ) 0 
( -3089.39 295.05 1316.27 ) 0 
( -4006.73 1282.75 1290.34 ) 0 
( -4469.5 2224.4 1314.56 ) 0 
( -562.57 1140.97 498.787 ) 0 
( -3857.35 4797.32 1315.5 ) 0 
( -715.148 3283.76 1324.69 ) 0 
( -2904.07 3042.9 1300.74 ) 0 
( -1181.54 983.278 1266.44 ) 0 
( -12.0811 1401.94 1323.32 ) 0 
( -437.035 2308.84 1329.38 ) 0 
( -1678.18 1951.94 1357.59 ) 0 
( -4204.08 305.338 1359.96 ) 0 
( -4960.04 2531.82 2127.93 ) 0 
( -3471.13 2183.09 1315.73 ) 0 
( -4369.15 4531.92 2130.97 ) 0 
( -2280.33 3893.06 1288.05 ) 0 
( -30.372 4030.44 1298.17 ) 0 
( -1524.64 3599.34 1981.09 ) 0 
( -4931.07 3110.77 1312.83 ) 0 
( -2566.55 2208.3 1737.46 ) 0 
( -1034.61 4803.08 2092.89 ) 0 
( -4855.69 4848.33 1310.64 ) 0 
( -3069.01 1243.93 1628.73 ) 0 
( -2153.99 768.864 1183.11 ) 0 
( -3930.65 3070.28 1313.85 ) 0 
( -342.581 464.459 1420.63 ) 0 
( -1798.44 1153.18 2032.57 ) 0 
( -4395.13 3955.09 1315.4 ) 0 
( -3381.2 3920 1309.39 ) 0 
( -4463.65 1622.18 2112.17 ) 0 
( -2783.56 510.828 2242.62 ) 0 
( -1056.01 490.785 2125.87 ) 0 
( -939.405 1657.85 1960.84 ) 0 
( -2372.94 3100.1 2142.75 ) 0 
( -4785.34 640.171 2100.05 ) 0 
( -3410.16 2929.75 2154.04 ) 0 
( -2060.12 4598.18 1961.6 ) 0 
( -1897.8 175.749 2563.51 ) 0 
( -26.5575 1469.99 2318.84 ) 0 
( -248.525 2970.65 2172.86 ) 0 
( -3507.36 1876.51 2266.36 ) 0 
( -3800.33 802.001 2146.55 ) 0 
( -2625.47 1464.53 2494.85 ) 0 
( -1841.04 2077.21 2410.39 ) 0 
( -4420.9 3372.74 2129.78 ) 0 
( -1159.83 2633.64 1937.92 ) 0 
( -586.762 3909.97 2117.29 ) 0 
( -1533.48 4205.25 2772.33 ) 0 
( -599.801 2196.49 2728.43 ) 0 
( -4140.07 2518.4 2698.13 ) 0 
( -2965.83 4884.47 2274.81 ) 0 
( -2490.06 740.5 3169.04 ) 0 
( -238.87 542.079 2696.97 ) 0 
( -3413.21 1134.4 3010.31 ) 0 
( -2981.19 3887.23 2223.73 ) 0 
( -1600.98 2982.92 2763.16 ) 0 
( -1510.34 403.327 3455.05 ) 0 
( -3721.63 4869.62 2988.29 ) 0 
( -3838.92 3912.08 2734.07 ) 0 
( -4921.71 3998.06 2768.75 ) 0 
( -1413.5 2167.12 3307.56 ) 0 
( -2784.98 2417.98 2741.29 ) 0 
( -1183.85 1200.12 2818.84 ) 0 
( -4285.72 1612.66 3095.03 ) 0 
( -1170.12 4167.16 3702.34 ) 0 
( -468.183 4568.86 2878.98 ) 0 
( -2417.96 4578.58 3051.97 ) 0 
( -2386.78 3580.82 3016.88 ) 0 
( -3366.02 137.77 2963.16 ) 0 
( -198.099 3951.53 3613.66 ) 0 
( -2308.49 1734.28 3402.03 ) 0 
( -3375.99 3121.79 3133.27 ) 0 
( -713.729 3394.75 2963.37 ) 0 
( -3504.75 2163.5 3382.35 ) 0 
( -3162.87 448.214 3888.59 ) 0 
( -510.257 2221.16 3727.14 ) 0 
( -1303.42 3090.32 3709.46 ) 0 
( -2218.93 2724.84 3505.16 ) 0 
( -4623.65 4720.84 3389.82 ) 0 
( -306.549 1356.79 3270.65 ) 0 
( -503.762 211.502 3599.87 ) 0 
( -1384.54 1318.12 3832.65 ) 0 
( -4203.36 662.788 3396.94 ) 0 
( -4916.02 3040.69 3049.16 ) 0 
( -2912.3 3237.56 4010.44 ) 0 
( -2837.66 2175.38 4124.49 ) 0 
( -1653.84 137.049 4406.54 ) 0 
( -1637.36 1067.17 4770.95 ) 0 
( -4206.58 2795.59 3706.58 ) 0 
( -2390.91 1039.96 4116.3 ) 0 
( -2273.42 4000.6 3915.52 ) 0 
( -1843.95 2121.15 4207.79 ) 0 
( -83.2548 3062.41 4053.33 ) 0 
( -3853.44 4515.81 3990.4 ) 0 
( -4551.53 1356.68 4023.82 ) 0 
( -501.134 1018.26 4190.32 ) 0 
( -4025.18 581.762 4375.72 ) 0 
( -2741.54 4881.6 3977.13 ) 0 
( -3551.52 1363.41 3975.29 ) 0 
( -3158.27 4042.18 3453.57 ) 0 
( -4368.42 3771.5 3568.68 ) 0 
( -673.748 3762.76 4469.96 ) 0 
( -3612.97 2725.69 4505.96 ) 0 
( -315.39 4715.99 4548.85 ) 0 
( -984.444 1804.87 4607.68 ) 0 
( -4816.02 4313.17 4281.49 ) 0 
( -3412.16 1812.25 4855.87 ) 0 
( -1762.79 4820.65 4172.08 ) 0 
( -3093.87 4097.02 4486.6 ) 0 
( -2424.82 1670.13 4890.13 ) 0 
( -1628.58 3969.13 4676.93 ) 0 
( -89.864 2248.24 4632.19 ) 0 
( -2011.09 3084.3 4414 ) 0 
( -4993.4 3332.67 4211.64 ) 0 
( -3162.34 847.222 4803.62 ) 0 
( -920.977 2801.11 4584.39 ) 0 
( -1093.92 393.868 5268.85 ) 0 
( -1364.53 4839.86 5088.22 ) 0 
( -4807.55 173.985 4843.98 ) 0 
( -1298.57 1527.93 5590.56 ) 0 
( -2464.73 3636.11 5111.64 ) 0 
( -4515.74 2990.28 5017.6 ) 0 
( -4751.38 2274.99 4361.78 ) 0 
( -2732.78 2683.23 4976.89 ) 0 
( -2391.46 269.489 5066.99 ) 0 
( -4875.6 4595.81 5299.57 ) 0 
( -2368.74 4614.81 4938.78 ) 0 
( -3928.12 4544.53 4985.4 ) 0 
( -3989.16 3652.6 4485.58 ) 0 
( -459.027 1173.56 5176.6 ) 0 
( -4286.31 1348.39 4986.03 ) 0 
( -2180.01 1059.03 5642.45 ) 0 
( -2960.49 2094.17 5751.08 ) 0 
( -3414.47 3359.32 5252.29 ) 0 
( -367.374 3260.91 5276.6 ) 0 
( -3643.48 1364.74 5750.59 ) 0 
( -627.79 4221.62 5357.66 ) 0 
( -3881.29 2399.7 5510.74 ) 0 
( -246.736 434.569 5814.65 ) 0 
( -3970.91 411.69 5357.26 ) 0 
( -1795.46 2393.59 5167.48 ) 0 
( -4563.44 1926.38 6165.75 ) 0 
( -4261.42 3793.89 5553.55 ) 0 
( -2016.06 2032.48 6072.23 ) 0 
( -1286.23 719.674 6193.43 ) 0 
( -4672.19 953.333 5817.59 ) 0 
( -641.874 163.033 6715.69 ) 0 
( -3118.54 4278.94 5507.54 ) 0 
( -1782.18 4128.27 5651.23 ) 0 
( -165.302 2785.17 6131.59 ) 0 
( -2288.4 2961.53 5826.37 ) 0 
( -500.983 1335.72 6161.73 ) 0 
( -4220.63 204.354 6301.07 ) 0 
( -3063.7 550.83 5751.76 ) 0 
( -1362.91 3275.64 5344.15 ) 0 
( -856.046 2420.24 5505.94 ) 0 
( -754.797 3602.97 6131.02 ) 0 
( -4211.03 3037.21 6204.37 ) 0 
( -4852.93 2607.68 6837.7 ) 0 
( -3660.37 2230.04 6468.13 ) 0 
( -4103.85 1159.66 6613.35 ) 0 
( -200.212 2042.9 6799.81 ) 0 
( -3118.59 3368.44 6206.67 ) 0 
( -2855.16 1312.25 6364.81 ) 0 
( -1227.41 4910.71 6074.89 ) 0 
( -2389.85 431.214 6478.08 ) 0 
( -3921.6 4626.4 5989.52 ) 0 
( -235.339 4922.84 5951.65 ) 0 
( -4691.95 4628.93 6625.48 ) 0 
( -1173.31 1931.01 6600.29 ) 0 
( -1388.45 2838.14 6240.69 ) 0 
( -2449.69 4274.9 7246.05 ) 0 
( -700.388 3021.49 6940.9 ) 0 
( -4229.87 1934.2 7232.34 ) 0 
( -1423.43 4123.91 6659.28 ) 0 
( -2205.69 3501.81 6662.25 ) 0 
( -185.686 4225.98 6666.02 ) 0 
( -2720.12 2530.9 6617.63 ) 0 
( -1921.84 1279.96 6721.57 ) 0 
( -2199.94 4681.2 6369.31 ) 0 
( -3121.91 4322.21 6506.39 ) 0 
( -2424.4 769.738 7417.1 ) 0 
( -4012.12 3898.64 6668.02 ) 0 
( -3371.21 692.2 7107.12 ) 0 
( -3603.61 3058.79 7023.8 ) 0 
( -1594.2 163.516 7019.67 ) 0 
( -530.4 3820.45 7516.16 ) 0 
( -3806.2 4800.59 7056.15 ) 0 
( -4907.46 3755.86 7087.63 ) 0 
( -3263.04 1680.77 7200.8 ) 0 
( -864.375 4876.43 7004.9 ) 0 
( -1503.65 3429.82 7373.28 ) 0 
( -1496.97 1704.11 7519.75 ) 0 
( -1834.62 2534.1 7079.66 ) 0 
( -4996.28 1324.14 7423.72 ) 0 
( -3986.76 1124.25 7764.61 ) 0 
( -4512.35 475.338 7216.23 ) 0 
( -887.289 1073.11 7044.42 ) 0 
( -2694.45 3102.28 7437.43 ) 0 
( -984.298 2527.18 7760.28 ) 0 
( -3974.69 108.16 7974.02 ) 0 
( -4421.79 3060.02 7616.23 ) 0 
( -3374.16 3947.19 7435.2 ) 0 
( -2989.39 253.404 8058.73 ) 0 
( -12.0225 2656.02 7565.48 ) 0 
( -3631.77 2152.73 8001.06 ) 0 
( -4017.43 4996.1 8079.85 ) 0 
( -4808.63 4596.73 7617.58 ) 0 
( -2190.79 3723.59 8037.18 ) 0 
( -2439.76 1999.75 7668.13 ) 0 
( -3080.72 4844.11 7770.03 ) 0 
( -72.8726 1379.23 7536.24 ) 0 
( -902.473 295.55 7728.28 ) 0 
( -4872.82 3762.88 8164.62 ) 0 
( -1530.62 4434.05 7603.48 ) 0 
( -299.909 2013.26 8274.95 ) 0 
( -2395.2 4555.2 8552.38 ) 0 
( -1220.32 3760.18 8272.8 ) 0 
( -4404.84 2893.46 8601.77 ) 0 
( -1439.87 4916.58 8473.93 ) 0 
( -2992.04 1270.16 8070.04 ) 0 
( -2813.96 2550.16 8413.21 ) 0 
( -607.819 4713.04 7958.83 ) 0 
( -779.707 4341.41 8956.01 ) 0 
( -4816.42 2219.46 7989.45 ) 0 
( -3913.37 4021.61 8273.24 ) 0 
( -876.93 1210.8 8128.69 ) 0 
( -3510.29 3144.61 8014.94 ) 0 
( -429.52 3152.24 8325.4 ) 0 
( -1910.23 2764.9 8048.11 ) 0 
( -1860.09 173.901 7987.33 ) 0 
( -3610.56 754.059 8660.34 ) 0 
( -398.729 2542.89 9116.99 ) 0 
( -3007.53 3768.16 8612.03 ) 0 
( -3270.22 4997.97 8743.06 ) 0 
( -2006.15 1200.45 8215.76 ) 0 
( -1154.69 443.394 8705.45 ) 0 
( -1273.39 2911.9 8803.73 ) 0 
( -3493.12 2986.12 9001.78 ) 0 
( -2382.58 91.0676 8835.35 ) 0 
( -1415.4 1978.69 8476.47 ) 0 
( -4183.09 1597.24 8622.05 ) 0 
( -2225.64 3202.34 8888.86 ) 0 
( -180.577 789.722 8709.51 ) 0 
( -331.897 51.4761 9374.43 ) 0 
( -2635.53 1047.53 8976.71 ) 0 
( -3148.37 322.651 9434.31 ) 0 
( -4187.27 3684.05 9173.05 ) 0 
( -3263.5 1827.86 8936.5 ) 0 
( -4063.07 1271.12 9558.84 ) 0 
( -704.236 3453.16 9420.91 ) 0 
( -4078.77 2260.81 9361.73 ) 0 
( -1648.28 1191.61 9148.18 ) 0 
( -721.408 1554.7 9056.75 ) 0 
( -4189.57 4669.12 9007.68 ) 0 
( -2260.23 1972.51 9010.35 ) 0 
( -4579.27 722.415 8900.36 ) 0 
( -1724.78 4043.83 9087.24 ) 0 
( -1393.2 2171.67 9464.4 ) 0 
( -2739.91 3713.89 9575.18 ) 0 
( -1649.8 4972.55 9449.32 ) 0 
( -2169.1 542.744 9702.4 ) 0 
( -3559.64 3285.83 9952.8 ) 0 
( -2730.45 2661.57 9560.72 ) 0 
( -3115.47 1423.67 9837.68 ) 0 
( -2675.77 4707.69 9499.9 ) 0 
( -178.061 4237.14 9747.24 ) 0 
( -4774.93 1899.66 9983.34 ) 0 
( -905.709 804.634 9693.35 ) 0 
( -135.174 2138.5 9992.12 ) 0 
( -4667.19 4417.73 9848.9 ) 0 
( -3460.68 2309.97 10145.6 ) 0 
( -3637.7 668.146 10234.1 ) 0 
( -3559.76 4276.32 9676.76 ) 0 
( -981.179 1654.41 10213.4 ) 0 
( -4439.12 2834.21 10096.8 ) 0 
( -4002.03 1555.28 10515.3 ) 0 
( -1292.62 90.0485 10275.1 ) 0 
( -300.441 30.9232 10376.4 ) 0 
( -922.262 2735.67 10141.4 ) 0 
( -1165.61 4220.74 9895.88 ) 0 
( -1651.05 3261.52 9704.32 ) 0 
( -4623.48 622.453 10073 ) 0 
( -2133.89 1590.62 9925.27 ) 0 
( -175.824 1021.67 10340.8 ) 0 
( -2124.28 4221.54 10177.2 ) 0 
( -1338.48 3543.69 10610.7 ) 0 
( -2268.02 3833.73 11087.2 ) 0 
( -2666.39 1998.38 10666.5 ) 0 
( -1504.29 1912.1 11024.7 ) 0 
( -358.808 3514.65 10413.8 ) 0 
( -2081.77 126.138 10887.1 ) 0 
( -2689.99 826.326 10515.6 ) 0 
( -1878.07 2484.88 10291 ) 0 
( -2589.4 3177.73 10404.8 ) 0 
( -558.267 4560.03 10613.4 ) 0 
( -3937.4 4737.31 10479 ) 0 
( -4273.7 3747.98 10478 ) 0 
( -1652.37 980.212 10553.1 ) 0 
( -3052.73 4060.46 10510.4 ) 0 
( -3429.36 3241.65 10942.9 ) 0 
( -3256.55 1352.33 11149.5 ) 0 
( -2499.26 2750.72 11303.9 ) 0 
( -2826.94 515.933 11489 ) 0 
( -825.904 622.68 10987.1 ) 0 
( -2265.21 1315.22 11276.8 ) 0 
( -4796.34 1805.38 11068.2 ) 0 
( -540.36 2777.41 11064.2 ) 0 
( -1428.23 4370.77 11164.9 ) 0 
( -4051.77 2459.58 10938.5 ) 0 
( -343.497 1777.5 10973.2 ) 0 
( -1506.21 2865.32 11325.3 ) 0 
( -4867.63 3103.16 10958.6 ) 0 
( -4938.83 503.18 11040.8 ) 0 
( -3318.08 2250.47 11584.4 ) 0 
( -857.435 2128.6 11755.6 ) 0 
( -4000.92 707.462 11320.1 ) 0 
( -1655.19 3693.8 11864.7 ) 0 
( -253.729 1070.1 11674 ) 0 
( -3190.64 4761.9 11209.1 ) 0 
( -2863.26 1495.97 12057.3 ) 0 
( -2014.63 2082.08 11867.4 ) 0 
( -4169.91 3466.15 11575.8 ) 0 
( -3095.79 3868.12 11646.9 ) 0 
( -584.879 3858.1 11324.9 ) 0 
( -4461.22 4363.05 11243.7 ) 0 
)
