FoamFile
{version 2.0; format ascii;class vectorField; location 0;object  v;}
345
(
( -9.0798e-07 3.24356e-06 -2.03069e-05 )  
( -6.28218e-07 -1.94489e-06 -1.87224e-05 )  
( 7.30702e-07 -2.41319e-06 -1.73269e-05 )  
( 1.8559e-06 -3.73627e-06 -1.46333e-05 )  
( 7.74116e-08 -1.85136e-06 -2.15099e-05 )  
( 3.18356e-06 -5.7459e-06 -1.90255e-05 )  
( -6.47045e-07 -1.54585e-06 -1.69728e-05 )  
( 5.88608e-06 3.64196e-06 -2.07213e-05 )  
( -1.66959e-06 -6.2487e-06 -2.00601e-05 )  
( 2.63866e-06 2.98354e-06 -2.20517e-05 )  
( 3.44329e-06 -9.62226e-07 -2.01449e-05 )  
( 1.2066e-06 2.05106e-06 -1.59861e-05 )  
( -4.7259e-07 -3.42546e-06 -1.75361e-05 )  
( 9.63686e-07 -2.34273e-06 -1.62611e-05 )  
( -1.21003e-06 -2.6053e-06 -2.00842e-05 )  
( 3.52501e-06 -6.2663e-06 -1.65921e-05 )  
( -3.08769e-08 -5.99353e-06 -7.80045e-06 )  
( -3.41316e-06 -9.04365e-07 -4.08015e-05 )  
( -3.12416e-06 4.0364e-06 -3.46656e-05 )  
( -1.65751e-06 -2.52808e-06 -1.82085e-05 )  
( 1.19102e-07 -9.75853e-07 -4.05357e-05 )  
( 2.1445e-06 1.53308e-07 -1.92827e-05 )  
( -1.51075e-06 -2.70205e-07 -1.4004e-05 )  
( 1.80049e-06 -3.04387e-06 -1.42356e-05 )  
( 2.06424e-06 -2.87283e-06 -3.31309e-05 )  
( 6.19177e-07 -1.06312e-06 -1.85935e-05 )  
( 2.07676e-06 -1.94905e-06 -2.09201e-05 )  
( 2.19524e-06 -4.85147e-06 -1.91568e-05 )  
( 2.52405e-06 1.02038e-05 -1.52413e-05 )  
( 3.48225e-06 -9.16135e-06 -1.60841e-05 )  
( 2.06751e-06 -2.73852e-06 -4.17066e-05 )  
( 9.52609e-06 -9.02453e-07 -4.03621e-05 )  
( 6.90043e-07 3.38093e-07 -3.4393e-05 )  
( 2.06074e-06 6.04066e-06 -3.41532e-05 )  
( 6.83905e-06 -4.80529e-06 -3.99027e-05 )  
( -2.52404e-06 2.73892e-06 -1.3907e-05 )  
( -1.48563e-06 -5.26174e-06 -3.52383e-05 )  
( 3.12362e-06 -3.30993e-07 -3.69967e-05 )  
( 7.08012e-06 -2.46154e-06 -4.09861e-05 )  
( -9.40116e-07 -4.03564e-06 -3.77055e-05 )  
( -4.32358e-06 -8.45872e-06 -3.75014e-05 )  
( 3.87113e-06 -5.85226e-06 -3.5729e-05 )  
( 8.40025e-06 4.57398e-06 -3.84371e-05 )  
( 9.49019e-07 -1.15936e-06 -4.63017e-05 )  
( -5.60906e-06 9.8935e-07 -3.32556e-05 )  
( 6.62054e-06 -5.44687e-06 -4.34432e-05 )  
( 7.04893e-06 -3.03665e-06 -5.22603e-05 )  
( -8.71924e-07 1.02242e-06 -3.8278e-05 )  
( 2.2165e-06 -3.38083e-06 -3.16437e-05 )  
( -4.42516e-06 4.20006e-07 -5.80396e-05 )  
( -7.30549e-07 -9.38372e-06 -3.27496e-05 )  
( 6.34675e-06 -1.30139e-05 -3.30582e-05 )  
( 1.13307e-05 -5.98919e-06 -4.77507e-05 )  
( 2.29929e-06 -9.27196e-07 -3.55114e-05 )  
( 1.337e-05 1.71307e-06 -8.48764e-05 )  
( -4.14562e-06 -2.85538e-06 -5.21955e-05 )  
( 2.12056e-06 -5.746e-06 -6.48127e-05 )  
( -1.27022e-06 -1.11573e-06 -5.06685e-05 )  
( 1.93915e-06 -8.99483e-06 -5.51127e-05 )  
( 2.97039e-06 -5.93654e-06 -6.44229e-05 )  
( 1.69068e-07 7.73433e-06 -5.97787e-05 )  
( -3.35127e-06 -9.21199e-06 -4.92767e-05 )  
( -2.61239e-06 -3.09543e-06 -5.4126e-05 )  
( -2.45287e-06 -2.58792e-06 -5.60836e-05 )  
( 2.85947e-06 -6.84955e-08 -5.32867e-05 )  
( -5.83149e-07 4.88612e-06 -6.49642e-05 )  
( 6.09524e-06 2.01728e-06 -5.52805e-05 )  
( 3.09736e-06 3.09028e-07 -4.25644e-05 )  
( 8.70737e-06 -1.07991e-05 -4.74749e-05 )  
( -1.53559e-06 -1.12061e-06 -8.00553e-05 )  
( -2.86048e-06 1.202e-05 -6.08256e-05 )  
( 9.04753e-06 -3.11184e-06 -6.31199e-05 )  
( 3.5535e-06 4.97109e-06 -4.9747e-05 )  
( 1.10747e-05 -4.05589e-06 -7.61988e-05 )  
( -1.11387e-06 -8.0957e-06 -6.69957e-05 )  
( 5.50376e-06 2.50014e-06 -7.42491e-05 )  
( -4.94798e-06 1.26581e-07 -7.60449e-05 )  
( -3.01135e-06 -5.67792e-06 -5.46077e-05 )  
( 3.62735e-06 1.54439e-06 -6.79247e-05 )  
( -1.73681e-06 -1.97489e-06 -8.19395e-05 )  
( -5.70024e-06 -1.74056e-06 -7.8366e-05 )  
( -3.90113e-06 2.74189e-06 -7.00344e-05 )  
( 6.65982e-06 -1.33077e-06 -6.35474e-05 )  
( -4.52707e-06 5.62001e-06 -8.57108e-05 )  
( 8.78176e-07 3.35266e-07 -6.54616e-05 )  
( 2.05173e-06 -3.86041e-06 -5.21737e-05 )  
( 1.2383e-05 2.06503e-06 -5.5389e-05 )  
( -2.49422e-06 -2.73105e-06 -8.6887e-05 )  
( 8.77334e-07 6.09154e-06 -8.01749e-05 )  
( -4.74984e-06 -2.08935e-06 -7.12271e-05 )  
( -3.62924e-06 5.04402e-06 -9.04199e-05 )  
( -5.75053e-06 -2.03657e-06 -8.11501e-05 )  
( 6.9916e-06 -2.3405e-06 -7.10359e-05 )  
( -9.02327e-06 -3.33475e-06 -7.52248e-05 )  
( -5.13756e-06 -1.76422e-06 -9.54606e-05 )  
( 6.71006e-06 -1.22697e-05 -6.03069e-05 )  
( -3.13352e-06 -2.58391e-06 -8.82131e-05 )  
( 1.69775e-05 -2.46439e-07 -7.58775e-05 )  
( -7.29623e-06 -1.13972e-06 -9.36382e-05 )  
( 9.93587e-07 -1.33079e-06 -9.15838e-05 )  
( -3.69422e-06 -1.27842e-06 -9.3675e-05 )  
( -5.33701e-06 -1.61964e-06 -9.23941e-05 )  
( -6.81153e-06 -6.23381e-06 -0.000101389 )  
( -7.12398e-06 -5.16607e-08 -9.26582e-05 )  
( 1.03769e-05 -2.99176e-06 -9.40471e-05 )  
( -1.1925e-06 -1.43879e-06 -0.000103114 )  
( 6.75862e-06 -1.22649e-06 -9.3811e-05 )  
( -3.39843e-06 2.00418e-07 -8.46865e-05 )  
( -8.31466e-06 6.01312e-07 -0.000115441 )  
( -3.29603e-06 -1.86196e-07 -7.21264e-05 )  
( 1.39073e-05 -5.17536e-06 -8.52432e-05 )  
( 1.06151e-05 -5.64778e-06 -0.000103316 )  
( 1.16545e-05 -3.80493e-06 -0.00010014 )  
( 3.84883e-06 3.98506e-07 -8.11353e-05 )  
( -1.46142e-06 2.64247e-06 -0.000103785 )  
( -1.59708e-07 -5.18783e-06 -0.00012687 )  
( 4.33076e-08 3.34249e-06 -0.000100421 )  
( 4.45922e-06 6.10971e-07 -0.000115502 )  
( -1.03089e-06 -4.44773e-07 -9.85753e-05 )  
( -4.79859e-06 5.41492e-07 -0.000111119 )  
( 5.51053e-06 -4.95858e-08 -0.00011206 )  
( 8.9364e-06 -4.04632e-06 -9.30705e-05 )  
( 1.09278e-05 -9.54118e-07 -9.96846e-05 )  
( -3.40708e-06 -4.45475e-07 -0.00010387 )  
( 4.59915e-06 -5.99055e-06 -0.000105252 )  
( -6.65949e-06 -1.01762e-06 -0.000108395 )  
( 1.76942e-06 7.56083e-06 -9.10302e-05 )  
( -3.20999e-06 1.87632e-06 -0.000115951 )  
( -4.48551e-07 3.4591e-08 -0.000105417 )  
( 5.72989e-06 -2.62425e-06 -0.000111734 )  
( 1.48651e-06 3.42063e-06 -0.000120039 )  
( 5.93878e-06 -5.59637e-06 -0.000121171 )  
( 1.27852e-05 -5.6042e-06 -0.000110731 )  
( -6.62076e-07 1.63459e-07 -0.000111653 )  
( 1.03484e-05 -4.57384e-06 -0.000115178 )  
( 1.30018e-05 -2.91556e-06 -0.000116187 )  
( 5.02286e-06 -1.21369e-05 -0.000111324 )  
( -3.92416e-06 -3.97939e-06 -0.000105745 )  
( -5.53361e-06 3.43564e-06 -0.00010694 )  
( -3.48739e-06 -8.32835e-06 -0.000135517 )  
( -3.20888e-06 1.06857e-06 -0.000104963 )  
( 3.91138e-06 -9.32896e-06 -0.000132299 )  
( 3.50816e-06 -1.0601e-06 -0.000126391 )  
( -2.93504e-06 -2.73985e-06 -0.000115182 )  
( -3.69981e-06 -6.83796e-07 -0.000124092 )  
( 1.15412e-06 -2.58872e-06 -0.000121574 )  
( -7.25903e-06 2.32845e-06 -0.000133547 )  
( 1.07189e-05 -9.88687e-07 -0.000118359 )  
( -3.66589e-06 5.41168e-06 -0.000126256 )  
( 7.13385e-06 -6.00553e-06 -0.000145257 )  
( 1.02193e-05 2.74146e-07 -0.000126654 )  
( 2.47801e-06 -9.87632e-07 -0.000119789 )  
( 1.38625e-05 -4.50641e-06 -0.000133024 )  
( -2.95959e-06 -7.27055e-06 -0.000135025 )  
( 2.98105e-06 -5.71658e-06 -0.000141148 )  
( -4.36759e-06 -2.72801e-06 -0.000120187 )  
( -3.3143e-06 -3.74548e-06 -0.000132155 )  
( 2.94038e-06 1.1106e-07 -0.000140766 )  
( 8.50633e-06 -1.62134e-06 -0.000127514 )  
( -5.53456e-06 -4.84016e-06 -0.000119971 )  
( 1.49259e-06 -3.58694e-06 -0.000123352 )  
( 7.50577e-06 -3.49925e-06 -0.00012709 )  
( 1.03042e-05 -2.85591e-06 -0.000134168 )  
( -2.13443e-06 -3.15323e-06 -0.000128257 )  
( 8.20624e-06 -2.82676e-06 -0.00012942 )  
( 1.36571e-06 -2.35233e-06 -0.000136444 )  
( -1.04466e-06 -4.05597e-06 -0.000134062 )  
( -4.71038e-06 -1.16321e-06 -0.000149801 )  
( 1.73348e-06 -3.57499e-06 -0.000129153 )  
( -5.8735e-06 -1.05748e-07 -0.000123236 )  
( -1.01447e-05 -8.80381e-07 -0.000144477 )  
( -1.71033e-06 -2.21436e-06 -0.000140035 )  
( -4.75567e-06 -6.99521e-06 -0.000144783 )  
( 6.16e-07 -8.45884e-06 -0.000130344 )  
( 2.51046e-06 -4.96212e-06 -0.000143655 )  
( 7.91073e-06 -3.9581e-06 -0.000138341 )  
( 5.22701e-06 -6.06403e-06 -0.000136148 )  
( 3.69532e-07 -5.1882e-06 -0.000134059 )  
( 4.14312e-06 -7.41946e-06 -0.000146112 )  
( -6.79152e-06 1.40383e-06 -0.000139896 )  
( 6.27182e-06 -2.98e-06 -0.000146393 )  
( 3.84025e-06 -7.03082e-06 -0.000137464 )  
( -8.23317e-06 -3.59284e-06 -0.000138767 )  
( 2.85834e-06 -8.52175e-06 -0.000141686 )  
( 6.25179e-06 -4.29839e-06 -0.000138269 )  
( 8.17779e-07 -5.22256e-06 -0.000151882 )  
( 3.91165e-06 -6.40507e-06 -0.000143368 )  
( 6.24205e-06 -4.41493e-06 -0.000146307 )  
( 6.18713e-06 -2.69942e-06 -0.000149617 )  
( -3.12801e-06 -6.24452e-06 -0.000144592 )  
( -2.67079e-06 -3.0063e-06 -0.000148067 )  
( -2.0975e-06 -1.85847e-06 -0.000150973 )  
( 5.34711e-06 -8.21134e-06 -0.000150552 )  
( 8.90719e-06 -5.52797e-07 -0.000142176 )  
( 7.81853e-06 -5.2747e-06 -0.000145657 )  
( 4.3024e-06 -7.38855e-06 -0.000148278 )  
( -1.40902e-06 -3.71237e-06 -0.000140544 )  
( 6.86441e-06 -8.58993e-06 -0.000148942 )  
( -7.4463e-07 -3.46111e-06 -0.000149592 )  
( 2.42697e-06 -9.06344e-06 -0.000147606 )  
( -7.27109e-07 -5.8886e-06 -0.00015852 )  
( 6.79777e-06 4.42535e-07 -0.000146215 )  
( -1.764e-06 -1.36688e-06 -0.000151925 )  
( 6.956e-06 -2.36595e-06 -0.000144502 )  
( 6.32037e-06 -9.67665e-06 -0.00014796 )  
( -6.41692e-06 -3.9513e-06 -0.000160724 )  
( 7.07048e-06 -3.58091e-06 -0.000155828 )  
( -4.69879e-06 -1.70668e-06 -0.000147419 )  
( 5.88674e-06 -4.69476e-06 -0.000151697 )  
( -8.70258e-07 -5.22486e-06 -0.000158081 )  
( -2.09022e-06 -9.22677e-07 -0.000155717 )  
( 1.22119e-05 -7.38573e-06 -0.000146248 )  
( -1.59359e-06 -5.69761e-06 -0.000161144 )  
( 2.25269e-06 -4.96229e-06 -0.000149633 )  
( -2.04486e-06 -2.28568e-06 -0.000151987 )  
( 5.19902e-06 -4.4258e-06 -0.000157834 )  
( -2.1028e-06 -1.32314e-07 -0.000155816 )  
( -8.79366e-06 3.38264e-06 -0.000141785 )  
( -3.13517e-07 -5.44421e-06 -0.000159867 )  
( 4.36567e-06 -4.31191e-06 -0.000155253 )  
( 5.78974e-06 -3.4682e-06 -0.000154272 )  
( 4.50378e-06 -3.39331e-06 -0.000155424 )  
( -2.03275e-06 -7.78085e-06 -0.000164695 )  
( 4.53357e-06 -5.10407e-06 -0.00016346 )  
( 1.56917e-06 -6.55858e-06 -0.00016289 )  
( 4.92767e-07 -2.84384e-06 -0.000160964 )  
( 6.47585e-06 -4.05309e-06 -0.000159804 )  
( 1.07139e-06 7.7749e-07 -0.000149131 )  
( -3.16799e-06 -2.28114e-06 -0.000159238 )  
( 5.1658e-06 -4.1366e-06 -0.000162283 )  
( 6.79113e-06 -8.58957e-06 -0.000150543 )  
( -5.49528e-06 -9.67326e-06 -0.00017183 )  
( 5.77153e-06 -2.39266e-06 -0.000161837 )  
( -4.67363e-06 -9.12474e-06 -0.000168943 )  
( -2.78448e-07 -1.82399e-06 -0.000166258 )  
( -2.36857e-06 -6.36151e-06 -0.00017279 )  
( 4.72566e-06 -2.00428e-06 -0.000162375 )  
( 5.45091e-06 -5.09793e-06 -0.000157934 )  
( 6.03658e-06 -5.10281e-06 -0.000148195 )  
( 2.27209e-05 -8.56277e-07 -0.000164808 )  
( 3.12497e-06 -4.44156e-07 -0.00016221 )  
( 2.55547e-06 -2.74314e-06 -0.000158426 )  
( 5.26949e-06 -5.67676e-06 -0.000162595 )  
( 2.20614e-06 -2.02546e-06 -0.000160799 )  
( 6.98731e-06 3.76678e-06 -0.000150634 )  
( -4.12768e-07 -5.52724e-06 -0.000169163 )  
( 1.41656e-06 -1.90389e-06 -0.000173505 )  
( 1.58163e-06 -5.84015e-06 -0.000168617 )  
( 1.01469e-06 -5.01236e-07 -0.000146498 )  
( 5.9809e-06 -4.05482e-07 -0.000168473 )  
( 7.38564e-06 5.00584e-06 -0.000147419 )  
( 5.61253e-06 -3.92515e-06 -0.000165562 )  
( 5.92022e-06 -8.51191e-07 -0.000155291 )  
( 3.56218e-06 4.14365e-06 -0.000161087 )  
( 9.08588e-06 1.15325e-06 -0.000165078 )  
( 3.61954e-06 2.623e-06 -0.000166383 )  
( 1.15617e-05 -1.04966e-05 -0.00014956 )  
( 1.45151e-06 1.16097e-06 -0.000162176 )  
( 1.29412e-05 2.7071e-06 -0.000159531 )  
( 4.23635e-06 2.55914e-07 -0.00016764 )  
( -1.6742e-05 -2.91997e-05 -0.00015048 )  
( -5.26308e-06 4.27579e-06 -0.000172391 )  
( 3.25033e-06 5.42843e-06 -0.000164516 )  
( 3.38403e-06 1.38049e-06 -0.000172252 )  
( 4.17792e-06 -2.55485e-06 -0.00016405 )  
( 1.28573e-05 5.36548e-06 -0.000168628 )  
( 1.40442e-05 1.92353e-06 -0.000157891 )  
( 5.55573e-06 2.28646e-05 -0.000174849 )  
( 6.29968e-06 1.03861e-06 -0.000164773 )  
( 9.7222e-06 4.348e-06 -0.000156617 )  
( 7.06102e-06 4.10601e-06 -0.00017266 )  
( 5.68612e-06 3.05662e-06 -0.000169301 )  
( 6.98316e-06 -7.29234e-06 -0.000171236 )  
( 7.13546e-07 3.46158e-06 -0.000142151 )  
( 1.20635e-05 6.48024e-06 -0.000154376 )  
( 5.809e-06 2.32732e-06 -0.000160288 )  
( 7.38437e-06 3.24234e-06 -0.000147355 )  
( -1.00259e-06 -3.13344e-06 -0.000168825 )  
( -2.21477e-07 -5.93811e-06 -0.000173004 )  
( -1.33895e-06 1.88922e-06 -0.000174148 )  
( -1.24534e-06 4.55814e-06 -0.000168478 )  
( 4.65962e-08 5.98666e-06 -0.000165854 )  
( 2.05438e-05 2.07637e-05 -0.000174882 )  
( 6.67786e-06 2.20258e-06 -0.000173596 )  
( 1.16733e-05 8.51917e-06 -0.000162782 )  
( 6.81685e-06 9.06978e-06 -0.000163297 )  
( 8.4355e-06 1.39158e-06 -0.000159434 )  
( 5.81089e-07 1.01024e-05 -0.00017034 )  
( 8.11453e-06 4.55916e-06 -0.000143536 )  
( -5.14093e-07 -6.67475e-06 -0.000166283 )  
( 1.75758e-06 8.00931e-06 -0.000171679 )  
( 1.2219e-06 4.3271e-06 -0.000147297 )  
( -4.78183e-06 -1.55515e-05 -0.000171693 )  
( -5.86139e-06 1.09346e-05 -0.000169954 )  
( -8.57555e-07 1.95661e-06 -0.000148479 )  
( 1.08832e-05 -2.25692e-06 -0.000179486 )  
( 9.04494e-06 8.47809e-06 -0.00016792 )  
( 3.03345e-06 5.85949e-06 -0.000164289 )  
( 1.49415e-05 1.55473e-05 -0.000169649 )  
( -4.95929e-07 7.35575e-06 -0.000163713 )  
( -1.26969e-07 -6.1538e-06 -0.000170298 )  
( 1.56059e-05 1.02073e-05 -0.000162417 )  
( 1.64715e-05 4.1468e-05 -0.000158752 )  
( 2.0107e-05 9.96579e-06 -0.00016873 )  
( -3.43209e-06 1.08674e-05 -0.000160874 )  
( 1.1033e-05 1.77408e-05 -0.000174911 )  
( 1.80656e-06 1.10794e-05 -0.000167543 )  
( 1.43128e-05 5.37711e-06 -0.000171848 )  
( -4.76802e-06 -4.4455e-06 -0.000129096 )  
( -8.7592e-06 -1.05085e-05 -0.000140285 )  
( 2.54824e-06 2.10817e-06 -0.000163052 )  
( 1.9664e-05 4.3895e-06 -0.00016625 )  
( 7.87707e-06 1.43635e-05 -0.000173854 )  
( -2.62295e-07 1.78263e-05 -0.000186894 )  
( -6.30947e-07 1.40478e-05 -0.000171346 )  
( 3.52699e-06 1.06237e-05 -0.000161934 )  
( 1.94125e-06 6.14791e-06 -0.000178018 )  
( 4.52981e-05 1.47113e-05 -0.000166396 )  
( 1.16991e-06 7.0939e-06 -0.000151274 )  
( 2.38112e-06 -9.17216e-06 -0.000157328 )  
( 1.23189e-05 -4.75384e-06 -0.000163787 )  
( -4.55674e-06 1.47416e-05 -0.000182624 )  
( 1.07061e-05 1.11296e-05 -0.000167154 )  
( 2.49302e-05 -2.61011e-05 -0.000151279 )  
( -8.22516e-05 3.48223e-05 -0.0001608 )  
( 4.00445e-05 2.4262e-05 -0.000172888 )  
( 5.71704e-06 2.03427e-05 -0.000156226 )  
( 3.75704e-06 6.26486e-06 -0.000159074 )  
( 1.65509e-05 4.00465e-06 -0.000170558 )  
( -9.47152e-06 5.39437e-06 -0.0001302 )  
( 9.33152e-06 1.77491e-05 -0.000174125 )  
( 3.68968e-06 2.59289e-05 -0.000173139 )  
( 2.05964e-07 -2.73524e-05 -0.000148631 )  
( 3.41578e-06 -1.80195e-05 -0.000179043 )  
( 4.23079e-06 1.40995e-05 -0.00015919 )  
( -4.479e-05 -3.99113e-05 -0.000194807 )  
( 4.40896e-06 5.42187e-06 -0.000171425 )  
( 1.10765e-05 2.75206e-05 -0.000131358 )  
( -3.7114e-06 1.08003e-07 -0.000133986 )  
( 7.78567e-06 2.73866e-05 -0.000171395 )  
( -1.30474e-05 4.11397e-05 -0.000149839 )  
( 3.94725e-05 3.8906e-05 -0.000179784 )  
( 2.4752e-05 -9.91776e-06 -0.000165519 )  
( -3.60316e-05 4.40979e-05 -0.000164114 )  
( 5.99537e-06 9.78274e-06 -0.000180741 )  
)
