/*--------------------------------*- C++ -*----------------------------------*\
| =========                 |                                                 |
| \\      /  F ield         | OpenFOAM: The Open Source CFD Toolbox           |
|  \\    /   O peration     | Version:  5.x                                   |
|   \\  /    A nd           | Web:      www.OpenFOAM.org                      |
|    \\/     M anipulation  |                                                 |
\*---------------------------------------------------------------------------*/
FoamFile
{
    version     2.0;
    format      ascii;
    class       volScalarField;
    location    "0.08";
    object      p;
}
// * * * * * * * * * * * * * * * * * * * * * * * * * * * * * * * * * * * * * //

dimensions      [0 2 -2 0 0 0 0];

internalField   nonuniform List<scalar> 
2250
(
-1.48994e-10
3.57671e-11
1.28711e-10
2.13023e-10
2.68176e-10
-2.57041e-11
6.54466e-11
1.27986e-10
1.8669e-10
2.15372e-10
1.80798e-11
7.69965e-11
1.30973e-10
1.62675e-10
1.7701e-10
5.63399e-11
9.82606e-11
1.28627e-10
1.4307e-10
1.57118e-10
8.47732e-11
1.09702e-10
1.2944e-10
1.43921e-10
1.57482e-10
-2.50465e-10
1.91917e-10
4.46948e-10
6.41024e-10
7.33562e-10
2.08928e-11
2.6708e-10
4.28811e-10
5.53981e-10
6.07355e-10
1.4267e-10
2.93998e-10
4.12139e-10
4.90308e-10
5.27623e-10
2.35632e-10
3.29469e-10
4.04615e-10
4.60052e-10
4.92491e-10
2.8244e-10
3.4881e-10
4.10032e-10
4.58575e-10
4.84877e-10
9.08836e-11
5.22911e-10
8.19036e-10
1.00911e-09
1.0731e-09
2.69494e-10
5.54485e-10
7.50023e-10
8.83699e-10
9.31191e-10
3.90126e-10
5.66829e-10
7.05069e-10
8.01354e-10
8.40241e-10
4.78686e-10
5.87956e-10
6.87682e-10
7.63264e-10
7.92945e-10
5.09814e-10
5.93351e-10
6.81309e-10
7.4279e-10
7.64629e-10
7.34118e-10
9.42756e-10
1.15561e-09
1.27892e-09
1.31582e-09
6.37396e-10
8.52368e-10
1.02834e-09
1.14256e-09
1.18041e-09
6.59612e-10
8.1526e-10
9.52355e-10
1.04786e-09
1.0784e-09
6.8021e-10
7.93236e-10
9.07833e-10
9.82069e-10
1.0018e-09
6.67628e-10
7.66775e-10
8.71426e-10
9.31161e-10
9.40379e-10
1.25578e-09
1.29176e-09
1.42445e-09
1.51728e-09
1.56978e-09
9.45482e-10
1.08329e-09
1.23919e-09
1.34759e-09
1.38949e-09
8.38082e-10
9.76785e-10
1.11369e-09
1.20608e-09
1.23045e-09
7.63573e-10
8.96119e-10
1.01837e-09
1.08074e-09
1.08832e-09
7.04968e-10
8.34519e-10
9.42276e-10
9.87668e-10
9.82591e-10
1.46732e-09
1.53338e-09
1.6742e-09
1.80716e-09
1.90246e-09
1.1209e-09
1.24489e-09
1.40398e-09
1.52467e-09
1.57411e-09
9.13453e-10
1.05431e-09
1.18735e-09
1.26958e-09
1.288e-09
7.66888e-10
9.06407e-10
1.00933e-09
1.04972e-09
1.04823e-09
6.8901e-10
8.09165e-10
8.86401e-10
9.08441e-10
9.00031e-10
1.48088e-09
1.71746e-09
1.93349e-09
2.12375e-09
2.23809e-09
1.19648e-09
1.35807e-09
1.52368e-09
1.64886e-09
1.69672e-09
9.28041e-10
1.05819e-09
1.16489e-09
1.23003e-09
1.24922e-09
7.33499e-10
8.24155e-10
8.80168e-10
9.06207e-10
9.1289e-10
6.38932e-10
6.82057e-10
7.12567e-10
7.26715e-10
7.38682e-10
1.51238e-09
1.88591e-09
2.1543e-09
2.35094e-09
2.43755e-09
1.20851e-09
1.40526e-09
1.55991e-09
1.67085e-09
1.7145e-09
8.50876e-10
9.54249e-10
1.03014e-09
1.09372e-09
1.13136e-09
5.7442e-10
6.06105e-10
6.39776e-10
6.88776e-10
7.23929e-10
4.21432e-10
4.14198e-10
4.41893e-10
4.85652e-10
5.32099e-10
1.72706e-09
2.07931e-09
2.30521e-09
2.43523e-09
2.46659e-09
1.1864e-09
1.36899e-09
1.49537e-09
1.58051e-09
1.62371e-09
6.24556e-10
7.15778e-10
7.8882e-10
8.75061e-10
9.37234e-10
1.82828e-10
2.28316e-10
3.0201e-10
4.03225e-10
4.63283e-10
-7.00827e-11
-1.05961e-11
7.64415e-11
1.67843e-10
2.31756e-10
2.0687e-09
2.29278e-09
2.40028e-09
2.42259e-09
2.40031e-09
1.13029e-09
1.24545e-09
1.32976e-09
1.37892e-09
1.41638e-09
2.54564e-10
3.4193e-10
4.25644e-10
5.28394e-10
5.9399e-10
-4.19183e-10
-3.10938e-10
-1.80086e-10
-4.84484e-11
5.62919e-12
-7.81905e-10
-6.12042e-10
-4.66658e-10
-3.56783e-10
-3.11523e-10
2.21536e-09
2.36634e-09
2.37692e-09
2.31986e-09
2.27085e-09
8.98497e-10
9.41333e-10
9.81087e-10
9.92632e-10
1.01532e-09
-3.11685e-10
-2.52548e-10
-1.80757e-10
-9.44226e-11
-5.34194e-11
-1.23055e-09
-1.10857e-09
-9.72303e-10
-8.64733e-10
-8.43565e-10
-1.70389e-09
-1.51734e-09
-1.37749e-09
-1.29649e-09
-1.28774e-09
1.86318e-09
2.05212e-09
2.06737e-09
2.02512e-09
1.99525e-09
2.09246e-10
2.40049e-10
2.67634e-10
2.72188e-10
2.84596e-10
-1.32677e-09
-1.2948e-09
-1.24331e-09
-1.18738e-09
-1.17635e-09
-2.48383e-09
-2.40408e-09
-2.30876e-09
-2.2531e-09
-2.25779e-09
-3.08273e-09
-2.96972e-09
-2.88178e-09
-2.84286e-09
-2.85334e-09
1.01938e-09
1.25927e-09
1.36356e-09
1.42321e-09
1.44491e-09
-1.13843e-09
-1.04063e-09
-9.69023e-10
-9.22362e-10
-9.05962e-10
-3.08916e-09
-3.01891e-09
-2.94941e-09
-2.90059e-09
-2.89739e-09
-4.5208e-09
-4.45067e-09
-4.38075e-09
-4.35057e-09
-4.34736e-09
-5.2713e-09
-5.20798e-09
-5.15316e-09
-5.12348e-09
-5.12422e-09
-9.31978e-11
1.2823e-10
3.13885e-10
4.70877e-10
5.3307e-10
-3.1073e-09
-2.91672e-09
-2.77632e-09
-2.66681e-09
-2.63337e-09
-5.69509e-09
-5.52873e-09
-5.39861e-09
-5.32005e-09
-5.29242e-09
-7.5295e-09
-7.40266e-09
-7.3067e-09
-7.24807e-09
-7.21181e-09
-8.48557e-09
-8.39976e-09
-8.32186e-09
-8.25885e-09
-8.2336e-09
-1.35955e-09
-1.18676e-09
-9.82833e-10
-8.0353e-10
-7.3085e-10
-5.58854e-09
-5.33797e-09
-5.1481e-09
-4.98981e-09
-4.92691e-09
-9.11972e-09
-8.86835e-09
-8.66541e-09
-8.52924e-09
-8.45975e-09
-1.15942e-08
-1.13875e-08
-1.12195e-08
-1.10957e-08
-1.10282e-08
-1.28764e-08
-1.27241e-08
-1.25739e-08
-1.24558e-08
-1.24005e-08
-2.87236e-09
-2.68868e-09
-2.48412e-09
-2.3272e-09
-2.25579e-09
-8.66137e-09
-8.36558e-09
-8.13185e-09
-7.93869e-09
-7.84306e-09
-1.35075e-08
-1.31873e-08
-1.29061e-08
-1.27048e-08
-1.26047e-08
-1.69486e-08
-1.66456e-08
-1.63776e-08
-1.61876e-08
-1.61014e-08
-1.87415e-08
-1.84809e-08
-1.82319e-08
-1.80524e-08
-1.79707e-08
-4.74531e-09
-4.47083e-09
-4.22069e-09
-4.0669e-09
-3.99573e-09
-1.26001e-08
-1.2215e-08
-1.19025e-08
-1.16755e-08
-1.1562e-08
-1.92421e-08
-1.88084e-08
-1.8435e-08
-1.81808e-08
-1.8068e-08
-2.40335e-08
-2.35858e-08
-2.32084e-08
-2.29597e-08
-2.28516e-08
-2.65485e-08
-2.61247e-08
-2.57604e-08
-2.5507e-08
-2.53888e-08
-7.06569e-09
-6.67122e-09
-6.33166e-09
-6.13007e-09
-6.04011e-09
-1.77673e-08
-1.72314e-08
-1.67972e-08
-1.65159e-08
-1.63825e-08
-2.6841e-08
-2.62287e-08
-2.57392e-08
-2.54187e-08
-2.52715e-08
-3.34329e-08
-3.2792e-08
-3.22815e-08
-3.19374e-08
-3.17647e-08
-3.69097e-08
-3.6275e-08
-3.57478e-08
-3.537e-08
-3.51564e-08
-1.00604e-08
-9.51547e-09
-9.03516e-09
-8.69306e-09
-8.50929e-09
-2.46376e-08
-2.38835e-08
-2.32648e-08
-2.28434e-08
-2.2629e-08
-3.69828e-08
-3.6124e-08
-3.54315e-08
-3.49494e-08
-3.46961e-08
-4.59622e-08
-4.50536e-08
-4.43029e-08
-4.3757e-08
-4.34436e-08
-5.07138e-08
-4.97746e-08
-4.89645e-08
-4.83537e-08
-4.7981e-08
-1.39941e-08
-1.318e-08
-1.24352e-08
-1.18194e-08
-1.14469e-08
-3.3796e-08
-3.27032e-08
-3.17665e-08
-3.10643e-08
-3.06885e-08
-5.05831e-08
-4.93375e-08
-4.8262e-08
-4.74756e-08
-4.7045e-08
-6.27866e-08
-6.14326e-08
-6.02541e-08
-5.93709e-08
-5.88675e-08
-6.9244e-08
-6.78081e-08
-6.65421e-08
-6.55814e-08
-6.50526e-08
-1.89616e-08
-1.76796e-08
-1.64986e-08
-1.55345e-08
-1.49748e-08
-4.58985e-08
-4.42826e-08
-4.28611e-08
-4.17863e-08
-4.12207e-08
-6.87975e-08
-6.69469e-08
-6.53089e-08
-6.41138e-08
-6.34738e-08
-8.54364e-08
-8.33975e-08
-8.1613e-08
-8.0288e-08
-7.95935e-08
-9.42102e-08
-9.20553e-08
-9.01714e-08
-8.87891e-08
-8.81088e-08
-2.51407e-08
-2.31571e-08
-2.14052e-08
-2.01139e-08
-1.94455e-08
-6.18725e-08
-5.95176e-08
-5.74775e-08
-5.59968e-08
-5.5225e-08
-9.31744e-08
-9.04964e-08
-8.81696e-08
-8.64845e-08
-8.55987e-08
-1.15943e-07
-1.13001e-07
-1.10458e-07
-1.08605e-07
-1.07676e-07
-1.27916e-07
-1.24836e-07
-1.22181e-07
-1.20287e-07
-1.1937e-07
-3.29974e-08
-3.0092e-08
-2.76719e-08
-2.60064e-08
-2.51731e-08
-8.31464e-08
-7.98107e-08
-7.69859e-08
-7.4973e-08
-7.38935e-08
-1.25952e-07
-1.22194e-07
-1.18983e-07
-1.1665e-07
-1.15415e-07
-1.57155e-07
-1.53041e-07
-1.49516e-07
-1.46978e-07
-1.45685e-07
-1.73568e-07
-1.69271e-07
-1.65612e-07
-1.63011e-07
-1.61721e-07
-4.31298e-08
-3.9071e-08
-3.57796e-08
-3.34805e-08
-3.22355e-08
-1.11682e-07
-1.07015e-07
-1.03081e-07
-1.00243e-07
-9.8684e-08
-1.70262e-07
-1.65008e-07
-1.60533e-07
-1.57272e-07
-1.55532e-07
-2.13024e-07
-2.0729e-07
-2.02408e-07
-1.98897e-07
-1.97077e-07
-2.3554e-07
-2.29557e-07
-2.24504e-07
-2.20895e-07
-2.19059e-07
-5.63348e-08
-5.06991e-08
-4.61019e-08
-4.27809e-08
-4.09177e-08
-1.501e-07
-1.43509e-07
-1.37953e-07
-1.33908e-07
-1.31712e-07
-2.30333e-07
-2.22908e-07
-2.16602e-07
-2.12018e-07
-2.09597e-07
-2.88911e-07
-2.80873e-07
-2.74064e-07
-2.69158e-07
-2.66594e-07
-3.19744e-07
-3.11414e-07
-3.04381e-07
-2.9933e-07
-2.96675e-07
-7.34852e-08
-6.56471e-08
-5.9198e-08
-5.4509e-08
-5.19825e-08
-2.01796e-07
-1.92454e-07
-1.84619e-07
-1.78951e-07
-1.75967e-07
-3.11796e-07
-3.01257e-07
-2.92353e-07
-2.85927e-07
-2.82568e-07
-3.92116e-07
-3.80803e-07
-3.71223e-07
-3.64321e-07
-3.60663e-07
-4.34404e-07
-4.2275e-07
-4.12845e-07
-4.05679e-07
-4.01842e-07
-9.5315e-08
-8.45284e-08
-7.57097e-08
-6.94199e-08
-6.61879e-08
-2.71129e-07
-2.5799e-07
-2.47046e-07
-2.39261e-07
-2.35231e-07
-4.2222e-07
-4.07301e-07
-3.94731e-07
-3.8575e-07
-3.81021e-07
-5.32725e-07
-5.16726e-07
-5.0313e-07
-4.93361e-07
-4.88145e-07
-5.91033e-07
-5.74516e-07
-5.60367e-07
-5.50165e-07
-5.44717e-07
-1.22789e-07
-1.07933e-07
-9.60422e-08
-8.79042e-08
-8.37759e-08
-3.64018e-07
-3.4558e-07
-3.30308e-07
-3.19699e-07
-3.14169e-07
-5.72022e-07
-5.50954e-07
-5.331e-07
-5.20515e-07
-5.13768e-07
-7.24678e-07
-7.02003e-07
-6.8253e-07
-6.68761e-07
-6.61358e-07
-8.05381e-07
-7.81858e-07
-7.61471e-07
-7.47074e-07
-7.39276e-07
-1.56657e-07
-1.36181e-07
-1.20009e-07
-1.09535e-07
-1.04139e-07
-4.88228e-07
-4.62447e-07
-4.4084e-07
-4.26401e-07
-4.18722e-07
-7.75358e-07
-7.45838e-07
-7.20008e-07
-7.02369e-07
-6.92479e-07
-9.87019e-07
-9.55277e-07
-9.27065e-07
-9.07968e-07
-8.973e-07
-1.0988e-06
-1.06599e-06
-1.03624e-06
-1.0162e-06
-1.00454e-06
-1.96322e-07
-1.68559e-07
-1.46011e-07
-1.32629e-07
-1.25279e-07
-6.53286e-07
-6.18026e-07
-5.86533e-07
-5.67311e-07
-5.56607e-07
-1.05085e-06
-1.01081e-06
-9.71864e-07
-9.47415e-07
-9.31823e-07
-1.3457e-06
-1.30318e-06
-1.26116e-06
-1.2358e-06
-1.21996e-06
-1.50045e-06
-1.45739e-06
-1.41201e-06
-1.38532e-06
-1.36669e-06
-2.38363e-07
-2.02582e-07
-1.69135e-07
-1.53105e-07
-1.41691e-07
-8.69947e-07
-8.25373e-07
-7.76366e-07
-7.5317e-07
-7.38442e-07
-1.42123e-06
-1.37356e-06
-1.30866e-06
-1.27717e-06
-1.24934e-06
-1.83546e-06
-1.78597e-06
-1.71822e-06
-1.68928e-06
-1.66389e-06
-2.04874e-06
-2.00229e-06
-1.9246e-06
-1.89552e-06
-1.86176e-06
-2.70932e-07
-2.34832e-07
-1.7689e-07
-1.62823e-07
-1.39222e-07
-1.14775e-06
-1.10479e-06
-1.01818e-06
-9.99637e-07
-9.7862e-07
-1.91034e-06
-1.87755e-06
-1.75139e-06
-1.72407e-06
-1.6665e-06
-2.50332e-06
-2.46567e-06
-2.34252e-06
-2.32439e-06
-2.27731e-06
-2.7932e-06
-2.77182e-06
-2.62038e-06
-2.6094e-06
-2.53945e-06
-2.63431e-07
-2.6391e-07
-1.38026e-07
-1.51722e-07
-8.84575e-08
-1.49851e-06
-1.48182e-06
-1.31503e-06
-1.32548e-06
-1.29063e-06
-2.54494e-06
-2.58651e-06
-2.32679e-06
-2.33643e-06
-2.20904e-06
-3.42006e-06
-3.42895e-06
-3.20077e-06
-3.21935e-06
-3.12929e-06
-3.80451e-06
-3.86735e-06
-3.57057e-06
-3.61591e-06
-3.46914e-06
-1.50557e-07
-2.83819e-07
1.50435e-08
-9.6862e-08
7.29736e-08
-1.94721e-06
-1.96999e-06
-1.67302e-06
-1.74405e-06
-1.69237e-06
-3.36618e-06
-3.5913e-06
-3.08743e-06
-3.17945e-06
-2.90576e-06
-4.69777e-06
-4.79353e-06
-4.40617e-06
-4.48348e-06
-4.32923e-06
-5.18877e-06
-5.43351e-06
-4.88882e-06
-5.04481e-06
-4.74762e-06
1.64341e-07
-2.69192e-07
3.67025e-07
2.2779e-08
4.24336e-07
-2.54978e-06
-2.59399e-06
-2.13971e-06
-2.28803e-06
-2.25857e-06
-4.46282e-06
-5.05321e-06
-4.16102e-06
-4.39234e-06
-3.84736e-06
-6.52939e-06
-6.73526e-06
-6.16292e-06
-6.29526e-06
-6.06941e-06
-7.12446e-06
-7.69013e-06
-6.76972e-06
-7.11064e-06
-6.53917e-06
6.57376e-07
-2.42604e-07
6.71865e-07
4.94258e-08
5.07086e-07
-3.37622e-06
-3.46344e-06
-3.00646e-06
-3.21121e-06
-3.38717e-06
-5.96271e-06
-7.17706e-06
-5.92463e-06
-6.50874e-06
-5.895e-06
-9.18336e-06
-9.49793e-06
-8.81321e-06
-9.01505e-06
-8.73432e-06
-9.86039e-06
-1.09339e-05
-9.5004e-06
-1.0189e-05
-9.46263e-06
5.93487e-06
3.36821e-06
6.88361e-06
4.94193e-06
7.28712e-06
-3.09117e-06
-2.17478e-06
-8.56692e-08
-7.68875e-07
-1.07142e-06
-5.14867e-06
-8.16176e-06
-4.80241e-06
-4.72893e-06
-2.27997e-06
-1.12257e-05
-1.19787e-05
-1.00505e-05
-9.95976e-06
-9.421e-06
-1.11319e-05
-1.4659e-05
-1.0833e-05
-1.17447e-05
-8.54634e-06
-1.10665e-06
-2.2652e-06
-6.85779e-07
-2.80892e-06
-3.08354e-06
-9.4842e-06
-9.93155e-06
-9.9938e-06
-1.04295e-05
-1.16557e-05
-1.68822e-05
-1.85727e-05
-1.81081e-05
-1.93349e-05
-1.84357e-05
-2.31395e-05
-2.25234e-05
-2.35775e-05
-2.32445e-05
-2.23879e-05
-2.46522e-05
-2.5105e-05
-2.45397e-05
-2.50135e-05
-2.28837e-05
2.99542e-05
1.25667e-05
3.0599e-05
1.83311e-05
3.03928e-05
-7.33235e-06
-8.44211e-07
7.8098e-06
2.27259e-06
-9.87429e-07
-2.0217e-06
-1.68712e-05
-9.0135e-06
-4.69024e-06
5.90731e-06
-2.00404e-05
-2.24288e-05
-1.94829e-05
-1.72622e-05
-1.80577e-05
-1.13251e-05
-3.09251e-05
-1.77099e-05
-2.21882e-05
-2.08576e-06
-3.42655e-05
-9.58029e-06
9.01191e-06
1.10287e-06
-2.45662e-05
-1.80172e-05
-2.17925e-05
-3.49784e-05
-3.4932e-05
-2.64717e-05
-5.10961e-05
-4.25263e-05
-5.07984e-05
-6.37346e-05
-6.56436e-05
-5.66855e-05
-4.83544e-05
-5.62365e-05
-5.77066e-05
-4.3118e-05
-7.00843e-05
-4.93045e-05
-5.65896e-05
-5.51067e-05
-3.88119e-05
8.56784e-05
-4.91815e-05
3.9162e-05
6.55155e-05
8.86557e-05
-0.000145782
-8.15911e-06
-2.64376e-05
-6.70551e-05
-1.03107e-05
-3.19155e-05
-6.28584e-05
-8.70826e-05
-4.97286e-05
-2.10238e-05
-7.93498e-05
-7.0801e-05
-7.32207e-05
-6.78485e-05
-7.06685e-05
7.3529e-06
-6.27846e-05
-8.69889e-05
-0.00010765
2.7126e-05
0.000788809
0.000705377
0.000435364
0.000287234
0.000554831
0.000651735
0.000662804
0.000647027
0.00049585
0.000929657
0.000563315
0.000968967
0.000598929
0.000566259
0.000783357
0.000472751
0.000714121
0.000691036
0.000498464
0.000928418
0.000319157
0.000472379
0.000648671
0.000753478
0.000766766
0.00113916
0.00111608
0.000657195
0.00143516
0.00119152
0.00112976
0.00128995
0.000929555
0.00137252
0.00174757
0.00122597
0.00112764
0.000945464
0.0009772
0.00140903
0.00105231
0.00113312
0.0015155
0.00116584
0.00141986
0.000423919
0.00128284
0.00125335
0.00130608
0.00113859
0.00123775
0.00165248
0.00279933
0.00263408
0.00233501
0.0012641
0.00155923
0.00183362
0.00240578
0.00241884
0.00156729
0.00161495
0.00239122
0.00222787
0.00230134
0.00146802
0.0019872
0.00199422
0.0018566
0.00197915
0.00140933
0.00141621
0.00147119
0.00165778
0.00171004
0.00169049
0.00234785
0.00259839
0.00338945
0.00280406
0.00219545
0.00203866
0.00223694
0.00249579
0.00243191
0.00172505
0.00238365
0.00257028
0.00244041
0.00254511
0.00322394
0.00241595
0.00243384
0.00221634
0.00254303
0.00262992
0.00223827
0.00200257
0.00182465
0.00144646
0.00246057
0.00236306
0.00186714
0.000450181
0.00190064
0.00252956
0.002543
0.00235682
0.00215023
0.0019924
0.00107257
0.00257514
0.00245584
0.00246765
0.00263578
0.00267652
0.00219933
0.00250714
0.00233441
0.00247776
0.00307779
0.00236664
0.00245606
0.00207918
0.00348775
0.00321082
0.00267369
0.00237527
0.00274911
0.00308665
0.00287379
0.00295612
0.00276295
0.00270425
0.00259611
0.00271684
0.0030785
0.00277287
0.0029857
0.00287539
0.00181243
0.00283763
0.00257928
0.00300019
0.00204211
0.0024384
0.002528
0.00261765
0.00260134
0.00206194
0.00328438
0.00372895
0.00437228
0.00447206
0.00417828
0.0035335
0.00354457
0.00359429
0.00336063
0.00339247
0.00423845
0.00369144
0.00354101
0.0035524
0.00330433
0.0032303
0.00359943
0.00333099
0.00373389
0.00343011
0.00344595
0.00337192
0.00344362
0.00429959
0.00321103
0.0039906
0.00471581
0.00452283
0.00451249
0.00411384
0.00453152
0.00475581
0.00440666
0.00482673
0.00467654
0.00472898
0.00429727
0.00483798
0.00430171
0.00494073
0.0045587
0.00435043
0.00417302
0.00450948
0.00482856
0.00446401
0.00528832
0.00460495
0.00469546
0.0047855
0.00536447
0.00553464
0.00504022
0.0053158
0.0047667
0.00523205
0.00546696
0.00533449
0.00574636
0.00548986
0.00530189
0.00536272
0.00520606
0.00547631
0.00548201
0.00543016
0.00558773
0.00540132
0.00562008
0.00543188
0.00547893
0.00597446
0.00536553
0.00528416
0.00493617
0.00591629
0.00594947
0.00638008
0.00639678
0.00617224
0.00647092
0.00597684
0.00635723
0.00628084
0.00625111
0.00600056
0.0063508
0.00619063
0.00627614
0.00588532
0.00606471
0.00638417
0.00632364
0.0063057
0.00623885
0.00650762
0.00636139
0.00639407
0.00652492
0.00637223
0.00651148
0.00654102
0.00663702
0.00658329
0.00661673
0.00664134
0.00659164
0.00661895
0.00655262
0.0065484
0.00651803
0.00661304
0.00665419
0.00659838
0.00656132
0.00662567
0.00660513
0.00663496
0.00659644
0.00662148
0.00663176
0.00659242
0.00662769
0.0066229
0.00665134
0.00660801
0.00662014
0.00659014
0.00660973
0.0066092
0.00660228
0.00661656
0.00661514
0.00661505
0.00660544
0.00661398
0.00661029
0.00659944
0.00661968
0.00660238
0.00661421
0.00661205
0.00661754
0.00662269
0.00662104
0.00661038
0.00661109
0.00661267
0.00660872
0.00661548
0.00661679
0.00661086
0.00662067
0.0066123
0.00661589
0.00662395
0.00661713
0.00662231
0.00661666
0.00661831
0.00661064
0.00661269
0.00662237
0.00661471
0.00661948
0.00661911
0.0066135
0.00662427
0.0066166
0.00662163
0.00661898
0.00660993
0.00662235
0.00661653
0.0066237
0.00661305
0.0066135
0.00661185
0.00661325
0.00661409
0.00661456
0.00661543
0.00661605
0.00661542
0.00661503
0.00661337
0.006613
0.00661315
0.00661409
0.00661394
0.00661588
0.00661343
0.00661762
0.00661533
0.00661727
0.00661418
0.00661201
0.00661647
0.00661409
0.00661603
0.00661308
0.00661337
0.00661414
0.00661378
0.00661425
0.00661476
0.00661458
0.00661581
0.00661508
0.00661537
0.00661317
0.00661301
0.00661491
0.00661396
0.00661475
0.00661495
0.00661344
0.00661641
0.00661508
0.00661622
0.00661434
0.00661255
0.00661586
0.00661438
0.00661586
0.00661305
0.00661333
0.00661383
0.00661381
0.00661412
0.00661401
0.00661402
0.00661485
0.00661459
0.00661484
0.00661317
0.00661307
0.00661426
0.00661389
0.00661443
0.00661414
0.00661335
0.00661521
0.00661454
0.00661525
0.00661378
0.00661286
0.00661495
0.00661416
0.006615
0.00661306
0.0066133
0.0066137
0.00661374
0.00661396
0.00661359
0.00661371
0.00661423
0.00661416
0.00661435
0.00661318
0.00661306
0.00661397
0.00661377
0.00661415
0.00661365
0.00661325
0.00661447
0.00661413
0.00661458
0.00661344
0.006613
0.00661435
0.00661395
0.00661446
0.00661308
0.00661326
0.00661357
0.00661363
0.00661379
0.00661333
0.00661344
0.00661381
0.00661382
0.00661396
0.00661315
0.00661308
0.00661375
0.00661365
0.00661391
0.00661336
0.00661319
0.006614
0.00661384
0.00661412
0.00661323
0.00661307
0.00661395
0.00661374
0.00661407
0.00661307
0.00661322
0.00661344
0.00661352
0.00661361
0.00661317
0.00661328
0.00661354
0.00661358
0.00661368
0.0066131
0.0066131
0.00661356
0.00661352
0.00661371
0.00661319
0.00661314
0.00661369
0.00661361
0.0066138
0.00661312
0.00661308
0.00661367
0.00661357
0.00661379
0.00661306
0.00661317
0.00661333
0.00661339
0.00661345
0.00661309
0.00661318
0.00661337
0.00661341
0.00661349
0.00661307
0.00661311
0.0066134
0.00661341
0.00661352
0.0066131
0.0066131
0.00661347
0.00661344
0.00661357
0.00661306
0.00661307
0.00661347
0.00661343
0.00661358
0.00661304
0.00661313
0.00661324
0.00661329
0.00661333
0.00661305
0.00661312
0.00661326
0.0066133
0.00661335
0.00661305
0.0066131
0.00661328
0.0066133
0.00661338
0.00661305
0.00661308
0.00661332
0.00661332
0.00661341
0.00661303
0.00661306
0.00661333
0.00661332
0.00661342
0.00661302
0.00661309
0.00661317
0.00661321
0.00661324
0.00661303
0.00661309
0.00661318
0.00661321
0.00661325
0.00661303
0.00661308
0.00661319
0.00661322
0.00661327
0.00661303
0.00661306
0.00661322
0.00661323
0.00661329
0.00661301
0.00661305
0.00661323
0.00661323
0.0066133
0.00661301
0.00661306
0.00661312
0.00661315
0.00661317
0.00661301
0.00661306
0.00661312
0.00661315
0.00661318
0.00661301
0.00661305
0.00661313
0.00661316
0.00661319
0.00661301
0.00661305
0.00661314
0.00661316
0.0066132
0.006613
0.00661304
0.00661315
0.00661317
0.00661321
0.006613
0.00661304
0.00661308
0.0066131
0.00661312
0.006613
0.00661304
0.00661308
0.0066131
0.00661312
0.006613
0.00661304
0.00661308
0.00661311
0.00661313
0.006613
0.00661303
0.00661309
0.00661311
0.00661313
0.006613
0.00661303
0.0066131
0.00661311
0.00661314
0.00661299
0.00661302
0.00661305
0.00661307
0.00661308
0.00661299
0.00661302
0.00661305
0.00661307
0.00661308
0.00661299
0.00661302
0.00661305
0.00661307
0.00661308
0.00661299
0.00661302
0.00661305
0.00661307
0.00661309
0.00661299
0.00661302
0.00661306
0.00661307
0.00661309
0.00661299
0.00661301
0.00661303
0.00661304
0.00661305
0.00661299
0.00661301
0.00661303
0.00661304
0.00661305
0.00661299
0.00661301
0.00661303
0.00661304
0.00661305
0.00661298
0.00661301
0.00661303
0.00661304
0.00661305
0.00661298
0.00661301
0.00661303
0.00661304
0.00661305
0.00661298
0.006613
0.00661301
0.00661302
0.00661303
0.00661298
0.006613
0.00661301
0.00661302
0.00661303
0.00661298
0.006613
0.00661301
0.00661302
0.00661303
0.00661298
0.006613
0.00661301
0.00661302
0.00661303
0.00661298
0.006613
0.00661301
0.00661302
0.00661303
0.00661298
0.00661299
0.006613
0.00661301
0.00661301
0.00661298
0.00661299
0.006613
0.00661301
0.00661301
0.00661298
0.00661299
0.006613
0.00661301
0.00661301
0.00661298
0.00661299
0.006613
0.00661301
0.00661301
0.00661298
0.00661299
0.006613
0.00661301
0.00661301
0.00661297
0.00661298
0.00661299
0.006613
0.006613
0.00661297
0.00661298
0.00661299
0.006613
0.006613
0.00661297
0.00661298
0.00661299
0.006613
0.006613
0.00661297
0.00661298
0.00661299
0.006613
0.006613
0.00661297
0.00661298
0.00661299
0.006613
0.006613
0.00661297
0.00661298
0.00661298
0.00661299
0.00661299
0.00661297
0.00661298
0.00661298
0.00661299
0.00661299
0.00661297
0.00661298
0.00661298
0.00661299
0.00661299
0.00661297
0.00661298
0.00661298
0.00661299
0.00661299
0.00661297
0.00661298
0.00661298
0.00661299
0.00661299
0.00661297
0.00661297
0.00661298
0.00661298
0.00661298
0.00661297
0.00661297
0.00661298
0.00661298
0.00661298
0.00661297
0.00661297
0.00661298
0.00661298
0.00661298
0.00661297
0.00661297
0.00661298
0.00661298
0.00661298
0.00661297
0.00661297
0.00661298
0.00661298
0.00661298
0.00661297
0.00661297
0.00661297
0.00661298
0.00661298
0.00661297
0.00661297
0.00661297
0.00661298
0.00661298
0.00661297
0.00661297
0.00661297
0.00661298
0.00661298
0.00661297
0.00661297
0.00661297
0.00661298
0.00661298
0.00661297
0.00661297
0.00661297
0.00661298
0.00661298
0.00661297
0.00661297
0.00661297
0.00661297
0.00661297
0.00661297
0.00661297
0.00661297
0.00661297
0.00661297
0.00661297
0.00661297
0.00661297
0.00661297
0.00661297
0.00661297
0.00661297
0.00661297
0.00661297
0.00661297
0.00661297
0.00661297
0.00661297
0.00661297
0.00661297
0.00661296
0.00661297
0.00661297
0.00661297
0.00661297
0.00661296
0.00661297
0.00661297
0.00661297
0.00661297
0.00661296
0.00661297
0.00661297
0.00661297
0.00661297
0.00661296
0.00661297
0.00661297
0.00661297
0.00661297
0.00661296
0.00661297
0.00661297
0.00661297
0.00661297
0.00661296
0.00661296
0.00661297
0.00661297
0.00661297
0.00661296
0.00661296
0.00661297
0.00661297
0.00661297
0.00661296
0.00661296
0.00661297
0.00661297
0.00661297
0.00661296
0.00661296
0.00661297
0.00661297
0.00661297
0.00661296
0.00661296
0.00661297
0.00661297
0.00661297
0.00661296
0.00661296
0.00661296
0.00661296
0.00661296
0.00661296
0.00661296
0.00661296
0.00661296
0.00661296
0.00661296
0.00661296
0.00661296
0.00661296
0.00661296
0.00661296
0.00661296
0.00661296
0.00661296
0.00661296
0.00661296
0.00661296
0.00661296
0.00661296
0.00661297
0.00661296
0.00661296
0.00661296
0.00661296
0.00661296
0.00661296
0.00661296
0.00661296
0.00661296
0.00661296
0.00661296
0.00661296
0.00661296
0.00661296
0.00661296
0.00661296
0.00661296
0.00661296
0.00661296
0.00661296
0.00661296
0.00661296
0.00661296
0.00661296
0.00661296
0.00661296
0.00661296
0.00661296
0.00661296
0.00661296
0.00661296
0.00661296
0.00661296
0.00661296
0.00661296
0.00661296
0.00661296
0.00661296
0.00661296
0.00661296
0.00661296
0.00661296
0.00661296
0.00661296
0.00661296
0.00661296
0.00661296
0.00661296
0.00661296
0.00661296
0.00661296
0.00661296
0.00661296
0.00661296
0.00661296
0.00661296
0.00661296
0.00661296
0.00661296
0.00661296
0.00661296
0.00661296
0.00661296
0.00661296
0.00661296
0.00661296
0.00661296
0.00661296
0.00661296
0.00661296
0.00661296
0.00661296
0.00661296
0.00661296
0.00661296
0.00661296
0.00661296
0.00661296
0.00661296
0.00661296
0.00661296
0.00661296
0.00661296
0.00661296
0.00661296
0.00661296
0.00661296
0.00661296
0.00661296
0.00661296
0.00661296
0.00661296
0.00661296
0.00661296
0.00661296
0.00661296
0.00661296
0.00661296
0.00661296
0.00661296
0.00661296
0.00661296
0.00661296
0.00661296
0.00661296
0.00661296
0.00661296
0.00661296
0.00661296
0.00661296
0.00661296
0.00661296
0.00661296
0.00661296
0.00661296
0.00661296
0.00661296
0.00661296
0.00661296
0.00661296
0.00661296
0.00661296
0.00661296
0.00661296
0.00661296
0.00661296
0.00661296
0.00661296
0.00661296
0.00661296
0.00661296
0.00661296
0.00661296
0.00661296
0.00661296
0.00661296
0.00661296
0.00661296
0.00661296
0.00661296
0.00661296
0.00661296
0.00661296
0.00661296
0.00661296
0.00661296
0.00661296
0.00661296
0.00661296
0.00661296
0.00661296
0.00661296
0.00661296
0.00661296
0.00661296
0.00661296
0.00661296
0.00661296
0.00661296
0.00661296
0.00661296
0.00661296
0.00661296
0.00661296
0.00661296
0.00661296
0.00661296
0.00661296
0.00661296
0.00661296
0.00661296
0.00661296
0.00661296
0.00661296
0.00661296
0.00661296
0.00661296
0.00661296
0.00661296
0.00661296
0.00661296
0.00661296
0.00661296
0.00661296
0.00661296
0.00661296
0.00661296
0.00661296
0.00661296
0.00661296
0.00661296
0.00661296
0.00661296
0.00661296
0.00661296
0.00661296
0.00661296
0.00661296
0.00661296
0.00661296
0.00661296
0.00661296
0.00661296
0.00661296
0.00661296
0.00661296
0.00661296
0.00661296
0.00661296
0.00661296
0.00661296
0.00661296
0.00661296
0.00661296
0.00661296
0.00661296
0.00661296
0.00661296
0.00661296
0.00661296
0.00661296
0.00661296
0.00661296
0.00661296
0.00661296
0.00661296
0.00661296
0.00661296
0.00661296
0.00661296
0.00661296
0.00661296
0.00661296
0.00661296
0.00661296
0.00661296
0.00661296
0.00661296
0.00661296
0.00661296
0.00661296
0.00661296
0.00661296
0.00661296
0.00661296
0.00661296
0.00661296
0.00661296
0.00661296
0.00661296
0.00661296
0.00661296
0.00661296
0.00661296
0.00661296
0.00661296
0.00661296
0.00661296
0.00661296
0.00661296
0.00661296
0.00661296
0.00661296
0.00661296
0.00661296
0.00661296
0.00661296
0.00661296
0.00661296
0.00661296
0.00661296
0.00661296
0.00661296
0.00661296
0.00661296
0.00661296
0.00661296
0.00661296
0.00661296
0.00661296
0.00661296
0.00661296
0.00661296
0.00661296
0.00661296
0.00661296
0.00661296
0.00661296
0.00661296
0.00661296
0.00661296
0.00661296
0.00661296
0.00661296
0.00661296
0.00661296
0.00661296
0.00661296
0.00661296
0.00661296
0.00661296
0.00661296
0.00661296
0.00661296
0.00661296
0.00661296
0.00661296
0.00661296
0.00661296
0.00661296
0.00661296
0.00661296
0.00661296
0.00661296
0.00661296
0.00661296
0.00661296
0.00661296
0.00661296
0.00661296
0.00661296
0.00661296
0.00661296
0.00661296
0.00661296
)
;

boundaryField
{
    inlet
    {
        type            zeroGradient;
    }
    outlet
    {
        type            fixedValue;
        value           uniform 0;
    }
    repeat_boundary
    {
        type            zeroGradient;
    }
    procBoundary3to1
    {
        type            processor;
        value           nonuniform List<scalar> 
450
(
7.77587e-11
9.16627e-11
1.59546e-10
2.367e-10
2.89111e-10
3.54177e-10
4.07656e-10
5.53319e-10
7.15742e-10
7.97543e-10
7.33938e-10
8.51672e-10
1.00388e-09
1.13447e-09
1.17267e-09
1.04294e-09
1.25745e-09
1.39476e-09
1.46128e-09
1.46291e-09
1.16883e-09
1.50819e-09
1.68284e-09
1.7572e-09
1.78591e-09
1.33479e-09
1.70823e-09
1.95694e-09
2.11453e-09
2.21132e-09
1.78242e-09
2.03279e-09
2.3085e-09
2.536e-09
2.67072e-09
2.39098e-09
2.49408e-09
2.71803e-09
2.9297e-09
3.03475e-09
2.92843e-09
2.97877e-09
3.11428e-09
3.23679e-09
3.27134e-09
3.41159e-09
3.4175e-09
3.46244e-09
3.48152e-09
3.45447e-09
3.93518e-09
3.78192e-09
3.73394e-09
3.68191e-09
3.63319e-09
4.30103e-09
3.97205e-09
3.86102e-09
3.79703e-09
3.77048e-09
4.14908e-09
3.86362e-09
3.79421e-09
3.78362e-09
3.79862e-09
3.49577e-09
3.50106e-09
3.5798e-09
3.6534e-09
3.69309e-09
2.8469e-09
3.14136e-09
3.36309e-09
3.50052e-09
3.54023e-09
2.66891e-09
3.07003e-09
3.34534e-09
3.51072e-09
3.5499e-09
3.02309e-09
3.42863e-09
3.70355e-09
3.87953e-09
3.9365e-09
3.77668e-09
4.21582e-09
4.51412e-09
4.71425e-09
4.81612e-09
4.86098e-09
5.42765e-09
5.83899e-09
6.13402e-09
6.32368e-09
6.38439e-09
7.25491e-09
7.939e-09
8.46031e-09
8.78102e-09
8.83758e-09
1.01892e-08
1.13049e-08
1.21493e-08
1.25981e-08
1.29848e-08
1.48769e-08
1.64638e-08
1.75991e-08
1.81376e-08
1.93849e-08
2.18968e-08
2.39523e-08
2.53447e-08
2.6017e-08
2.85854e-08
3.19258e-08
3.46068e-08
3.6441e-08
3.74147e-08
4.17732e-08
4.6176e-08
4.97756e-08
5.23623e-08
5.37668e-08
6.07181e-08
6.65073e-08
7.12977e-08
7.47795e-08
7.65955e-08
8.79188e-08
9.55552e-08
1.01735e-07
1.06029e-07
1.08158e-07
1.27436e-07
1.37411e-07
1.45081e-07
1.50022e-07
1.52362e-07
1.85309e-07
1.98378e-07
2.07647e-07
2.1304e-07
2.15457e-07
2.70973e-07
2.88279e-07
2.99401e-07
3.04801e-07
3.06787e-07
4.00928e-07
4.23922e-07
4.37249e-07
4.41411e-07
4.41353e-07
6.04918e-07
6.37001e-07
6.53128e-07
6.53047e-07
6.4536e-07
9.36571e-07
9.89056e-07
1.00641e-06
9.97428e-07
9.61931e-07
1.48043e-06
1.58505e-06
1.59018e-06
1.57123e-06
1.45779e-06
2.34086e-06
2.5884e-06
2.53772e-06
2.52029e-06
2.21042e-06
3.59524e-06
4.14616e-06
3.8756e-06
4.07446e-06
3.19658e-06
8.55821e-06
1.04496e-05
1.12618e-05
1.01674e-05
8.71073e-06
3.97881e-06
8.24171e-06
8.30519e-06
8.46459e-06
3.11205e-06
2.50996e-05
3.98885e-05
5.29921e-05
3.69619e-05
2.33031e-05
-5.23684e-06
1.17679e-05
8.40361e-05
3.61617e-05
3.62666e-06
2.38607e-06
8.22763e-05
0.000391564
-1.30029e-05
-1.30392e-05
0.000707344
0.000543687
0.000477485