FoamFile
{version 2.0; format ascii;class Cloud<passiveParticle>; location 0;object  positions;}
42
(
( -0.000477731 4.20193e-05 9.98643e-05 ) 0 
( -0.000332562 0.000179473 9.98501e-05 ) 0 
( -0.000323903 0.000425882 9.98251e-05 ) 0 
( -0.000494887 0.000322236 9.97928e-05 ) 0 
( -0.000102328 9.36835e-05 9.98809e-05 ) 0 
( -0.000170207 0.000296582 9.9903e-05 ) 0 
( -0.000485722 0.000184605 0.000244356 ) 0 
( -0.000324805 0.000302581 0.000257061 ) 0 
( -0.0002187 0.000133095 0.000257524 ) 0 
( -0.000174139 0.000433468 0.000246054 ) 0 
( -6.8961e-05 0.000265059 0.000269353 ) 0 
( -0.000380744 1.69647e-05 0.000272838 ) 0 
( -7.44475e-07 0.000432141 0.000355324 ) 0 
( -0.000353011 0.000167423 0.000401552 ) 0 
( -8.19153e-05 0.000114584 0.000402142 ) 0 
( -0.000409942 1.76788e-05 0.000520998 ) 0 
( -0.000363368 0.000415934 0.00041707 ) 0 
( -0.000202042 0.000297834 0.00041478 ) 0 
( -0.000148869 2.26368e-05 0.000580392 ) 0 
( -0.000145446 0.000222294 0.000591038 ) 0 
( -0.000403532 0.000280434 0.000558516 ) 0 
( -0.000225876 0.000407156 0.00058038 ) 0 
( -2.144e-05 0.00028923 0.000732908 ) 0 
( -0.000305834 0.000118707 0.000658556 ) 0 
( -0.000496734 0.000340568 0.000724837 ) 0 
( -0.000156685 0.000461 0.000759994 ) 0 
( -0.000321104 3.87635e-06 0.000821515 ) 0 
( -0.000351631 0.000478029 0.000718691 ) 0 
( -0.000269697 0.000297029 0.000741365 ) 0 
( -0.000441794 0.000162915 0.000798325 ) 0 
( -0.00011271 0.000112732 0.00075517 ) 0 
( -0.000330862 0.000265753 0.000929143 ) 0 
( -0.000139709 0.000312046 0.000892537 ) 0 
( -0.000190039 0.000124114 0.000939177 ) 0 
( -0.000422947 0.000441148 0.000901737 ) 0 
( -0.000352925 8.461e-05 0.00104819 ) 0 
( -0.00024274 0.000454931 0.000987208 ) 0 
( -1.38614e-05 0.000207655 0.00108331 ) 0 
( -0.000187134 0.000129417 0.0011506 ) 0 
( -0.000407703 0.000452423 0.00110078 ) 0 
( -0.000169876 0.000326582 0.0011221 ) 0 
( -0.000358522 0.000262483 0.00113935 ) 0 
)
