FoamFile
{version 2.0; format ascii;class vectorField; location 0;object  v;}
42
(
( 4.16111e-05 -2.14151e-05 8.11468e-05 )  
( -9.33131e-06 7.94401e-06 0.000136903 )  
( 3.92201e-05 3.96401e-05 0.000132175 )  
( -1.92998e-05 5.08637e-05 0.000145166 )  
( -3.22738e-06 2.05691e-05 7.17712e-05 )  
( -2.15409e-05 1.99859e-05 9.2432e-05 )  
( 1.38838e-05 -2.39705e-05 0.000208012 )  
( -6.99479e-06 2.31849e-05 0.000304295 )  
( -4.90594e-08 1.91216e-05 0.000203366 )  
( 3.26241e-05 -7.30179e-06 0.000338404 )  
( 2.6725e-06 -1.10385e-05 0.000225852 )  
( 4.34306e-05 -1.44554e-05 0.000186023 )  
( 4.68871e-05 -2.42137e-05 0.000243412 )  
( 7.70834e-06 -5.38429e-05 0.00032621 )  
( 3.32756e-05 -1.62766e-05 0.000219034 )  
( 5.75924e-05 1.15126e-05 0.000492216 )  
( 3.24274e-05 -2.92998e-05 0.000480112 )  
( 6.13622e-06 -9.34168e-05 0.000436758 )  
( -3.42651e-05 3.96119e-05 0.000550024 )  
( 4.92104e-05 -4.66594e-05 0.000585806 )  
( 0.000266738 -5.45033e-05 0.00055145 )  
( 3.70274e-05 -0.000110382 0.000675719 )  
( 9.74911e-06 0.000144593 0.000581796 )  
( 5.27947e-06 1.13699e-06 0.000751307 )  
( 0.000286378 -4.07865e-05 0.000715819 )  
( -3.19015e-05 2.69173e-05 0.000816312 )  
( 6.30693e-05 8.51683e-06 0.00067289 )  
( 2.13998e-05 3.6958e-05 0.000740071 )  
( -1.3866e-05 3.13492e-05 0.000984733 )  
( 1.79922e-05 -9.53233e-05 0.00077013 )  
( 0.000102796 8.22547e-05 0.000695607 )  
( -0.000250688 6.73227e-05 0.0011185 )  
( 0.000111528 0.000163644 0.000920221 )  
( -0.000110757 1.28907e-05 0.000677477 )  
( -7.3212e-05 8.80703e-05 0.000813268 )  
( -0.000139389 -3.86877e-06 0.000502847 )  
( -9.24707e-05 0.000282655 0.000782517 )  
( -0.000162672 -8.03421e-05 0.000443857 )  
( -4.50115e-05 0.000122233 0.000131191 )  
( 9.89053e-05 2.13451e-05 0.000768357 )  
( -3.31226e-05 1.32468e-05 0.000268096 )  
( -1.13795e-05 -3.2132e-05 0.000383532 )  
)
