# vtk DataFile Version 4.0
Generated by LIGGGHTS
ASCII
DATASET POLYDATA
POINTS 679 float
-0.00437606 -0.00438143 0.000498498 -0.00342016 -0.00467373 0.000498309 -0.00243787 -0.00494917 0.000499122 
-0.00160858 -0.00419986 0.000498359 -0.000489772 -0.00498413 0.000499032 0.000296684 -0.00436735 0.000498713 
0.00138377 -0.00456504 0.000498686 0.00239953 -0.00462674 0.000498087 0.00371816 -0.00442205 0.000497214 
0.00466414 -0.00409834 0.000499397 -0.00460714 -0.00340691 0.000498683 -0.0036405 -0.00369746 0.000498205 
-0.00268252 -0.0039803 0.000498675 -0.00197387 -0.00326984 0.000499433 -0.000996087 -0.00306489 0.000498564 
-0.000630808 -0.00399497 0.000499193 2.98874e-05 -0.00323745 0.000499216 0.000955074 -0.00361557 0.000499889 
0.00194706 -0.00373544 0.000499191 0.00294484 -0.0037877 0.000499084 0.00443181 -0.00312652 0.000498732 
-0.0048514 -0.00243045 0.000499191 -0.00389158 -0.00270926 0.000498611 -0.00293325 -0.00299167 0.000499582 
-0.00272843 -0.00200233 0.000499333 -0.00177278 -0.00229077 0.000498133 -0.000345302 -0.00230749 0.000498865 
0.000653638 -0.00231337 0.000499296 0.00150845 -0.00280129 0.000672522 0.00248803 -0.00289521 0.000498801 
0.00348379 -0.00280989 0.000499597 0.00418851 -0.00210002 0.000499472 -0.00464866 -0.00145172 0.000498658 
-0.00368943 -0.00173029 0.000499573 -0.00200383 -0.00130676 0.000497867 -0.0029651 -0.00103131 0.000498904 
-0.00104642 -0.00159564 0.000498857 1.62825e-05 -0.00137641 0.000499409 0.00101502 -0.00132811 0.00049886 
0.00184988 -0.00187717 0.000499305 0.00284587 -0.00196217 0.000499418 0.00242064 -0.00105606 0.000498903 
0.0034172 -0.00114187 0.000498478 0.0044151 -0.00110402 0.000498879 -0.00392668 -0.000759082 0.000498258 
-0.00320897 -6.2501e-05 0.000498547 -0.00223581 -0.000334548 0.000498893 -0.00126323 -0.000619465 0.000499675 
0.000356118 -0.000434094 0.00049948 0.00153024 -0.000471315 0.00049929 0.00299742 -0.000235473 0.000499228 
0.00494563 -0.000256648 0.000499084 -0.00417111 0.000209756 0.00049825 -0.00345413 0.000906056 0.000498485 
-0.00248884 0.000631975 0.000498738 -0.0015053 0.000353488 0.000499708 -0.000534781 6.6332e-05 0.000499448 
0.000210424 0.000733166 0.000499056 0.00117181 0.000463502 0.000498987 0.00215828 0.000305857 0.000499746 
0.00293555 0.000934404 0.000499273 0.00382257 0.000326557 0.000497943 0.00473647 0.000728929 0.000498916 
-0.00440438 0.00112901 0.000813444 -0.00273316 0.00173411 0.000498555 -0.00171927 0.00135605 0.000498332 
-0.000766145 0.00103952 0.000498721 -2.13442e-05 0.00170569 0.000497745 0.000941626 0.00143623 0.000499623 
0.00193124 0.00127875 0.00049926 0.0027142 0.00190835 0.00049835 0.00386262 0.00132676 0.000499638 
0.00478924 0.0017303 0.000499627 -0.00424172 0.00206205 0.000498953 -0.00350923 0.00274122 0.000499663 
-0.00252127 0.0028891 0.00049719 -0.00152316 0.00285052 0.000499136 -0.000970634 0.00201788 0.000499324 
0.000693833 0.00240437 0.000499478 0.00168344 0.00224652 0.000499039 0.00246006 0.00287517 0.000499349 
0.00349192 0.00253619 0.000498639 0.00448024 0.00268234 0.000498166 -0.00457375 0.00300424 0.000498712 
-0.00487705 0.00395656 0.000498297 -0.00384205 0.00368405 0.000499711 -0.00230494 0.00389398 0.000498044 
-0.00130589 0.00382539 0.000498917 -0.000538518 0.00301991 0.000499285 -0.000321164 0.00399472 0.000498278 
0.000464673 0.00337719 0.00049831 0.00145117 0.00321851 0.000499528 0.00222457 0.00385114 0.000499307 
0.00318175 0.00356617 0.000499859 0.0041778 0.0036339 0.000498949 -0.00414594 0.00463862 0.000499657 
-0.00315477 0.00438266 0.000691968 -0.00146828 0.00481053 0.000498299 0.000438227 0.00464341 0.000499788 
0.00141518 0.00443641 0.000499091 0.00295292 0.00453967 0.000499705 0.00395079 0.00460696 0.000498961 
0.00489665 0.0049296 0.000498619 -0.00455067 -0.00493337 0.00131885 -0.00381374 -0.00424887 0.0013125 
-0.00288109 -0.00463217 0.00133787 -0.00203941 -0.00485378 0.00182866 -0.00121669 -0.00464948 0.00129882 
5.11436e-05 -0.00486413 0.00133042 0.00198974 -0.00483231 0.00138468 0.00308614 -0.00469458 0.00122001 
0.00345047 -0.00405506 0.00189424 0.00433549 -0.00469129 0.00123364 -0.00477183 -0.00395925 0.00131416 
-0.00403739 -0.00327241 0.00130977 -0.00308112 -0.0035671 0.00131671 -0.00212352 -0.00398117 0.00132617 
-0.00145807 -0.00323594 0.00136665 -0.000551168 -0.00393055 0.00149347 0.000444114 -0.00394745 0.00139268 
0.00143941 -0.00399866 0.00131906 0.00188252 -0.0031531 0.00161521 0.00243767 -0.00393986 0.00134583 
0.00299073 -0.00301955 0.00135277 0.0037504 -0.00359692 0.00105777 0.00441688 -0.00363598 0.00179985 
-0.00499308 -0.00298441 0.00131849 -0.00424732 -0.00215296 0.00124801 -0.00328 -0.00240324 0.00122968 
-0.00232947 -0.00271204 0.00124851 -0.0010611 -0.00233559 0.0011954 -0.000311748 -0.00296491 0.00139767 
0.000688468 -0.00299088 0.0012335 0.00122992 -0.00203699 0.00126718 0.0022959 -0.00230503 0.00128466 
0.00405626 -0.00267939 0.00130884 -0.00386078 -0.00123905 0.00137168 -0.00287491 -0.00149225 0.00138059 
-0.00192597 -0.00180434 0.00135928 -0.0010304 -0.00137623 0.00147287 0.000155191 -0.00198527 0.00130172 
0.000529214 -0.00105903 0.00132886 0.00171252 -0.0011651 0.0011955 0.00266461 -0.00138427 0.00141052 
0.00353656 -0.00183238 0.00120959 0.00477477 -0.00195257 0.00129528 0.00422438 -0.00113835 0.00147904 
-0.00484113 -0.000851939 0.00127286 -0.00377066 -0.000203881 0.0013133 -0.00278861 -0.000482141 0.00131837 
-0.00181437 -0.000771817 0.00131962 -0.00111564 -5.83163e-05 0.00132402 -0.000380082 -0.000701884 0.00111998 
0.000952723 -0.000157444 0.00125215 0.00231806 -0.000370322 0.00121873 0.00338264 -0.000609963 0.00134316 
0.00427634 -0.000170485 0.00123598 -0.00479041 0.000314444 0.00127611 -0.00395202 0.000769053 0.00162635 
-0.00304534 0.000485387 0.0013165 -0.00207524 0.000221791 0.00131282 -0.00133552 0.000915489 0.00130984 
-0.000359806 0.000623353 0.00131067 0.000487968 0.000497498 0.00184654 0.00172283 0.000213022 0.00176971 
0.00233244 0.000861143 0.00131389 0.00320227 0.000369983 0.00127903 0.00409935 0.000813937 0.00132396 
-0.0041781 0.00175742 0.00155666 -0.00325781 0.00146223 0.00130328 -0.00229405 0.00119689 0.00129791 
-0.00162676 0.00170758 0.00184347 -0.00058171 0.00159793 0.00131866 0.000393104 0.00134669 0.00133116 
0.00134285 0.00101689 0.00131336 0.00212679 0.00183916 0.00130327 0.0032346 0.00151398 0.00125683 
0.00488053 0.00142548 0.00144736 -0.00488553 0.00236539 0.00120052 -0.00293745 0.00240769 0.00126527 
-0.00199986 0.00215349 0.00103213 -0.00111481 0.00245718 0.00138524 -5.482e-05 0.0024504 0.00116174 
0.000796419 0.00294404 0.00133496 0.001142 0.00200691 0.00130381 0.0018443 0.00279777 0.00131691 
0.00290072 0.0024716 0.00130124 0.0040701 0.00205303 0.00115539 0.00448379 0.00268908 0.0019046 
-0.00399041 0.00308342 0.00130638 -0.00307319 0.00346497 0.00109982 -0.00359178 0.0037888 0.00189045 
-0.0020423 0.00331095 0.00126345 -0.0010627 0.00345542 0.00139432 -6.7073e-05 0.00350803 0.00133374 
0.000834541 0.00394354 0.00123355 0.00261848 0.00342974 0.00131552 0.00383088 0.00308603 0.00126044 
0.0048086 0.00333232 0.00121259 -0.00438005 0.00408293 0.00135376 -0.00362958 0.00472613 0.00150093 
-0.00274725 0.00426816 0.00159895 -0.00180209 0.00428011 0.00127608 -0.000815772 0.00443611 0.00124408 
-7.41652e-05 0.00432786 0.00190515 0.00102627 0.00492335 0.00128019 0.00179636 0.004185 0.00138765 
0.00276536 0.00440116 0.00149555 0.00368939 0.00407412 0.00130225 0.00464862 0.0043586 0.00128113 
-0.00416931 -0.00459566 0.00217774 -0.00493227 -0.00403073 0.00292919 -0.00347604 -0.00436498 0.00285619 
-0.00278466 -0.00408642 0.002169 -0.00147336 -0.00470033 0.0027169 -0.000604033 -0.00476319 0.00207846 
-0.00068989 -0.00400109 0.00271896 0.000533613 -0.00407448 0.00287838 0.000253112 -0.00497399 0.00254455 
0.000992857 -0.00448393 0.00208408 0.00192568 -0.00413074 0.00218182 0.00153327 -0.00463341 0.00295036 
0.00268422 -0.00477974 0.00213033 0.00260084 -0.00416965 0.00291739 0.00339774 -0.00477132 0.00285252 
0.00411602 -0.00411045 0.00263688 0.00484373 -0.00449748 0.00207046 -0.00467286 -0.00344374 0.00216418 
-0.00370853 -0.00370613 0.00214503 -0.00217698 -0.00330211 0.0020571 -0.00140646 -0.00398746 0.00202166 
-0.00184954 -0.0037926 0.00289516 -0.000890939 -0.00314895 0.00219151 2.99827e-05 -0.00353688 0.00220397 
0.0010192 -0.00348503 0.00206597 0.00181888 -0.00323494 0.00261176 0.00269421 -0.00347422 0.00219257 
0.00363517 -0.00309784 0.0021122 0.00447963 -0.00314706 0.00266878 -0.00406535 -0.00265425 0.00209376 
-0.00429868 -0.00216312 0.00293433 -0.00310109 -0.00291619 0.00207505 -0.00253105 -0.0020961 0.00209906 
-0.00248523 -0.00278077 0.00285142 -0.00161163 -0.00247887 0.0020248 -0.00108839 -0.00232995 0.00286331 
-0.00057393 -0.0020795 0.00202723 -0.000238986 -0.00285676 0.002889 0.000750297 -0.00299315 0.0028925 
0.000300543 -0.0025827 0.00208933 0.00129754 -0.00252791 0.00213484 0.00265018 -0.00267132 0.00278619 
0.00303208 -0.00223642 0.00197175 0.00363735 -0.00255475 0.00295066 0.00401379 -0.00211353 0.00213045 
0.00495842 -0.00243735 0.00215335 -0.00447299 -0.00162196 0.00206266 -0.00389626 -0.00125473 0.00278893 
-0.00349479 -0.00183561 0.00208478 -0.00278253 -0.00139555 0.00276782 -0.00164601 -0.00148401 0.00226285 
-0.000207215 -0.00114686 0.00199916 -0.000794457 -0.0013788 0.00277446 5.35148e-05 -0.00190779 0.00278357 
0.000749384 -0.00168988 0.00207236 0.000653122 -0.00111724 0.00288669 0.0018892 -0.00173458 0.00199758 
0.00164655 -0.00120239 0.00280834 0.00264921 -0.00156765 0.00262472 0.00342582 -0.00131014 0.00205355 
0.00461663 -0.00135531 0.00237752 -0.00426772 -0.000643404 0.00206197 -0.00475338 -0.000670446 0.00293397 
-0.00329182 -0.000853425 0.00209895 -0.00230369 -0.000737267 0.00218864 -0.00268953 -8.25341e-05 0.00283324 
-0.00111065 -0.000645512 0.00214743 -0.0010135 -1.7376e-05 0.00291648 -0.000267514 -0.000149524 0.00194472 
-0.00019149 -0.000584494 0.00284115 0.000683219 -0.000174767 0.00255821 0.00123207 -0.000780432 0.00198261 
[...]
POINT_DATA 679
FIELD FieldData 7
id 1 679 int
17 57 74 16 56 69 113 31 48 
91 108 72 7 89 18 133 107 70 
28 51 102 36 80 12 45 95 19 
104 97 22 14 29 88 60 78 15 
148 61 1 26 65 103 68 10 27 
94 110 105 62 96 82 46 43 101 
37 90 59 42 55 4 114 2 77 
93 54 21 40 25 53 23 35 58 
33 92 109 8 20 112 13 6 5 
47 52 9 38 67 32 3 34 50 
39 44 85 41 79 63 71 24 11 
30 81 87 49 144 164 146 176 149 
222 118 168 278 125 137 124 99 194 
218 190 116 162 197 153 155 206 173 
179 73 115 121 157 161 139 195 136 
231 170 64 128 181 76 202 214 86 
123 98 159 156 117 138 236 209 169 
187 75 147 160 171 211 127 165 120 
212 257 225 177 142 129 119 151 126 
175 207 174 145 66 140 208 84 152 
134 130 131 141 172 100 200 158 205 
196 122 277 106 154 143 183 166 83 
135 215 221 249 111 150 217 167 192 
216 203 132 220 343 371 229 331 319 
340 342 301 260 337 385 291 293 377 
285 334 248 242 219 188 307 320 289 
273 330 292 270 327 224 350 163 193 
276 199 345 254 394 329 275 245 305 
227 443 267 253 204 299 239 325 336 
233 283 240 258 338 256 310 316 266 
304 281 357 259 314 303 268 323 271 
308 288 263 302 210 344 296 243 261 
213 272 252 235 381 295 191 317 282 
186 361 185 393 389 287 230 198 348 
251 250 234 322 353 332 244 264 226 
321 324 379 265 237 246 294 438 279 
184 189 286 201 333 247 335 255 241 
228 392 313 383 232 387 280 312 262 
238 311 318 178 315 269 355 180 349 
326 290 182 306 369 274 328 223 297 
373 352 396 452 540 423 408 500 431 
446 449 418 436 437 356 366 386 384 
354 439 390 450 370 486 445 488 300 
397 422 347 309 429 380 485 415 374 
508 416 413 419 447 378 417 441 467 
432 407 364 475 498 298 368 428 391 
405 409 388 398 375 400 359 284 451 
382 339 425 455 362 489 341 424 440 
459 460 411 484 442 365 367 469 426 
399 509 358 404 435 454 410 473 414 
490 402 497 444 506 468 420 372 480 
401 395 448 346 562 430 403 456 427 
433 363 412 493 499 360 472 351 507 
376 434 406 491 560 563 524 528 466 
558 552 597 548 532 529 613 541 479 
503 561 482 536 546 530 481 477 566 
494 461 537 471 554 556 496 522 620 
457 513 555 551 518 557 487 515 476 
535 511 495 547 504 550 531 492 565 
483 592 533 465 596 579 502 542 464 
543 462 534 474 621 478 512 538 463 
519 458 505 470 525 453 545 526 527 
553 609 549 517 521 523 501 510 421 
514 520 544 539 559 610 581 591 604 
616 605 589 623 598 583 601 671 590 
607 575 577 567 618 585 574 593 606 
584 588 586 615 611 599 582 570 516 
564 568 569 622 594 576 600 637 573 
614 587 603 602 608 572 578 571 612 
617 619 580 595 675 624 657 652 677 
658 643 672 653 651 647 629 635 634 
656 648 630 655 625 649 627 639 660 
641 664 659 632 669 642 646 673 650 
638 679 668 663 633 640 654 667 674 
645 678 628 661 665 662 644 676 626 
670 666 636 631 
type 1 679 int
1 1 1 1 1 1 1 1 1 
1 1 1 1 1 1 1 1 1 
1 1 1 1 1 1 1 1 1 
1 1 1 1 1 1 1 1 1 
1 1 1 1 1 1 1 1 1 
1 1 1 1 1 1 1 1 1 
1 1 1 1 1 1 1 1 1 
1 1 1 1 1 1 1 1 1 
1 1 1 1 1 1 1 1 1 
1 1 1 1 1 1 1 1 1 
1 1 1 1 1 1 1 1 1 
1 1 1 1 1 1 1 1 1 
1 1 1 1 1 1 1 1 1 
1 1 1 1 1 1 1 1 1 
1 1 1 1 1 1 1 1 1 
1 1 1 1 1 1 1 1 1 
1 1 1 1 1 1 1 1 1 
1 1 1 1 1 1 1 1 1 
1 1 1 1 1 1 1 1 1 
1 1 1 1 1 1 1 1 1 
1 1 1 1 1 1 1 1 1 
1 1 1 1 1 1 1 1 1 
1 1 1 1 1 1 1 1 1 
1 1 1 1 1 1 1 1 1 
1 1 1 1 1 1 1 1 1 
1 1 1 1 1 1 1 1 1 
1 1 1 1 1 1 1 1 1 
1 1 1 1 1 1 1 1 1 
1 1 1 1 1 1 1 1 1 
1 1 1 1 1 1 1 1 1 
1 1 1 1 1 1 1 1 1 
1 1 1 1 1 1 1 1 1 
1 1 1 1 1 1 1 1 1 
1 1 1 1 1 1 1 1 1 
1 1 1 1 1 1 1 1 1 
1 1 1 1 1 1 1 1 1 
1 1 1 1 1 1 1 1 1 
1 1 1 1 1 1 1 1 1 
1 1 1 1 1 1 1 1 1 
1 1 1 1 1 1 1 1 1 
1 1 1 1 1 1 1 1 1 
1 1 1 1 1 1 1 1 1 
1 1 1 1 1 1 1 1 1 
1 1 1 1 1 1 1 1 1 
1 1 1 1 1 1 1 1 1 
1 1 1 1 1 1 1 1 1 
1 1 1 1 1 1 1 1 1 
1 1 1 1 1 1 1 1 1 
1 1 1 1 1 1 1 1 1 
1 1 1 1 1 1 1 1 1 
1 1 1 1 1 1 1 1 1 
1 1 1 1 1 1 1 1 1 
1 1 1 1 1 1 1 1 1 
1 1 1 1 1 1 1 1 1 
1 1 1 1 1 1 1 1 1 
1 1 1 1 1 1 1 1 1 
1 1 1 1 1 1 1 1 1 
1 1 1 1 1 1 1 1 1 
1 1 1 1 1 1 1 1 1 
1 1 1 1 1 1 1 1 1 
1 1 1 1 1 1 1 1 1 
1 1 1 1 1 1 1 1 1 
1 1 1 1 1 1 1 1 1 
1 1 1 1 1 1 1 1 1 
1 1 1 1 1 1 1 1 1 
1 1 1 1 1 1 1 1 1 
1 1 1 1 1 1 1 1 1 
1 1 1 1 1 1 1 1 1 
1 1 1 1 1 1 1 1 1 
1 1 1 1 1 1 1 1 1 
1 1 1 1 1 1 1 1 1 
1 1 1 1 1 1 1 1 1 
1 1 1 1 1 1 1 1 1 
1 1 1 1 1 1 1 1 1 
1 1 1 1 1 1 1 1 1 
1 1 1 1 
i 3 679 int
0 0 0 0 1 0 0 0 0 
0 0 0 0 0 0 0 0 0 
0 0 0 0 0 0 -1 0 0 
0 0 0 1 0 0 0 1 0 
0 0 0 0 0 0 0 0 0 
0 0 0 0 0 0 0 1 0 
0 0 0 0 0 0 -1 0 0 
1 1 0 1 1 0 0 0 0 
0 0 0 0 0 0 0 0 0 
0 0 0 0 0 0 0 0 0 
0 0 0 0 0 0 0 0 0 
0 0 0 0 0 0 0 0 0 
0 0 0 0 0 0 0 0 0 
0 0 0 0 0 0 0 0 0 
0 0 0 0 0 0 0 0 0 
0 0 0 0 0 0 0 0 0 
0 0 0 0 0 0 0 0 0 
0 0 0 1 0 0 0 0 0 
0 0 0 0 0 0 0 0 0 
0 0 0 0 0 0 0 0 0 
0 0 0 0 0 0 0 0 0 
0 0 0 0 0 0 0 0 0 
0 0 0 0 0 0 0 0 0 
0 0 0 0 0 0 0 0 0 
-1 0 0 0 0 0 1 -1 0 
0 0 0 1 -1 0 0 0 0 
0 0 0 0 0 0 0 0 0 
0 0 0 -1 0 0 0 0 0 
1 0 0 1 0 0 0 0 0 
0 -1 0 0 0 0 0 -1 0 
0 0 0 0 0 0 0 0 0 
0 0 0 0 0 0 1 -1 0 
0 0 0 0 -1 0 0 -1 0 
0 0 0 0 0 0 -1 -1 0 
-1 -1 0 0 1 0 1 0 0 
0 0 0 0 0 0 0 0 0 
0 1 0 0 1 0 -1 0 0 
0 0 0 0 0 0 1 0 0 
0 0 0 0 1 0 0 0 0 
0 0 0 0 0 0 0 1 0 
0 0 0 0 0 0 0 0 0 
0 0 0 0 0 0 0 0 0 
1 0 0 0 -1 0 0 0 0 
0 0 0 0 0 0 0 0 0 
0 1 0 0 0 0 0 0 0 
0 0 0 0 0 0 0 0 0 
0 0 0 0 0 0 0 1 0 
0 0 0 0 1 0 0 0 0 
0 0 0 -1 0 0 0 0 0 
0 0 0 0 0 0 0 0 0 
0 0 0 0 0 0 0 0 0 
0 0 0 0 0 0 0 0 0 
0 0 0 0 0 0 1 0 0 
0 0 0 0 0 0 0 0 0 
0 0 0 0 0 0 0 0 0 
0 0 0 0 0 0 0 0 0 
0 0 0 0 0 0 0 0 0 
0 0 0 0 0 0 0 0 0 
0 0 0 0 -1 0 -1 0 0 
-1 0 0 1 -1 0 0 0 0 
0 0 0 0 0 0 0 0 0 
0 0 0 0 0 0 0 -1 0 
0 0 0 0 0 0 0 0 0 
0 0 0 0 0 0 0 0 0 
-1 0 0 0 0 0 0 0 0 
0 0 0 0 0 0 0 0 0 
0 0 0 1 0 0 0 0 0 
0 0 0 0 0 0 0 0 0 
0 0 0 0 0 0 0 0 0 
0 0 0 0 -1 0 0 0 0 
0 0 0 0 0 0 0 0 0 
0 0 0 0 0 0 0 0 0 
0 0 0 0 0 0 0 0 0 
0 1 0 0 0 0 0 0 0 
0 1 0 0 0 0 0 1 0 
-1 0 0 0 1 0 1 0 0 
0 0 0 0 1 0 0 1 0 
0 0 0 0 0 0 0 0 0 
0 0 0 0 0 0 0 0 0 
0 0 0 0 0 0 0 0 0 
0 0 0 0 0 0 0 0 0 
0 0 0 0 0 0 0 0 0 
0 0 0 0 0 0 0 0 0 
0 0 0 0 0 0 0 0 0 
0 0 0 0 0 0 0 0 0 
-1 0 0 1 0 0 0 0 0 
0 0 0 0 0 0 0 0 0 
0 0 0 0 0 0 0 0 0 
0 0 0 0 0 0 0 0 0 
0 0 0 0 0 0 0 0 0 
-1 0 0 0 0 0 0 0 0 
0 0 0 0 0 0 0 0 0 
0 0 0 0 0 0 0 0 0 
0 0 0 0 0 0 0 0 0 
0 0 0 0 0 0 0 0 0 
0 0 0 0 0 0 0 0 0 
0 0 0 0 0 0 0 0 0 
0 0 0 0 0 0 0 0 0 
0 0 0 0 0 0 0 0 0 
0 0 0 0 0 0 -1 0 0 
-1 0 0 -1 0 0 0 0 0 
0 0 0 0 0 0 0 0 0 
0 0 0 0 0 0 0 0 0 
0 0 0 0 0 0 0 0 0 
0 0 0 0 0 0 0 0 0 
0 0 0 0 0 0 0 0 0 
1 0 0 0 0 0 0 0 0 
0 0 0 0 0 0 0 0 0 
0 0 0 0 0 0 0 0 0 
0 0 0 0 0 0 0 0 0 
0 0 0 0 0 0 0 0 0 
1 0 0 1 0 0 0 0 0 
0 0 0 0 0 0 0 0 0 
0 0 0 0 0 0 0 -1 0 
0 0 0 0 0 0 0 0 0 
0 0 0 -1 -1 0 0 0 0 
-1 0 0 1 0 0 0 0 0 
0 0 0 0 0 0 0 0 0 
0 0 0 0 0 0 0 -1 0 
0 0 0 -1 0 0 0 0 0 
-1 0 0 1 1 0 0 0 0 
1 1 0 0 0 0 0 0 0 
0 1 0 0 0 0 0 0 0 
0 1 0 0 0 0 0 0 0 
1 0 0 0 0 0 1 0 0 
0 0 0 1 0 0 0 0 0 
0 0 0 0 0 0 0 0 0 
0 0 0 0 0 0 -1 1 0 
-1 0 0 0 0 0 0 1 0 
0 0 0 0 0 0 0 0 0 
0 0 0 0 0 0 0 0 0 
0 0 0 0 0 0 0 0 0 
0 0 0 0 0 0 0 0 0 
0 0 0 0 0 0 0 0 0 
0 0 0 0 0 0 0 0 0 
0 0 0 0 0 0 0 0 0 
0 0 0 0 0 0 0 0 0 
0 0 0 0 0 0 0 0 0 
0 0 0 0 0 0 0 0 0 
-1 0 0 -1 0 0 0 0 0 
0 0 0 1 0 0 0 0 0 
0 0 0 0 0 0 0 0 0 
0 0 0 0 0 0 0 0 0 
0 0 0 0 0 0 0 0 0 
0 0 0 0 0 0 0 0 0 
0 0 0 0 0 0 0 0 0 
0 0 0 0 0 0 0 0 0 
0 0 0 0 0 0 0 0 0 
0 0 0 0 0 0 0 0 0 
0 0 0 0 0 0 0 0 0 
0 0 0 0 0 0 1 0 0 
0 0 0 1 0 0 0 0 0 
0 0 0 0 0 0 0 0 0 
0 0 0 0 0 0 0 0 0 
0 0 0 0 0 0 0 0 0 
0 0 0 0 -1 0 0 0 0 
0 0 0 0 0 0 0 -1 0 
0 -1 0 0 0 0 0 0 0 
0 0 0 0 0 0 0 0 0 
0 -1 0 0 0 0 0 0 0 
0 0 0 0 0 0 0 0 0 
0 0 0 0 0 0 0 0 0 
0 0 0 0 0 0 0 0 0 
0 0 0 0 0 0 0 0 0 
0 0 0 0 0 0 0 0 0 
0 0 0 0 0 0 0 0 0 
0 0 0 0 0 0 0 0 0 
0 0 0 0 0 0 0 0 0 
0 0 0 0 0 0 0 0 0 
0 0 0 0 0 0 0 0 0 
0 0 0 0 0 0 0 0 0 
0 0 0 0 0 0 0 0 0 
0 0 0 0 0 0 0 0 0 
0 0 0 0 0 0 0 0 0 
0 0 0 0 0 0 0 0 0 
0 0 0 0 0 0 0 0 0 
0 0 0 0 0 0 0 0 0 
0 0 0 0 0 0 0 0 0 
0 0 0 0 0 0 0 0 0 
1 0 0 0 0 0 0 0 0 
0 0 0 0 0 0 0 0 0 
0 0 0 0 0 0 0 0 0 
0 0 0 1 0 0 0 0 0 
0 0 0 0 0 0 0 0 0 
0 0 0 0 0 0 0 0 0 
0 0 0 0 0 0 0 0 0 
1 -1 0 0 0 0 0 0 0 
0 0 0 0 0 0 0 0 0 
0 -1 0 0 0 0 0 0 0 
0 0 0 0 -1 0 0 0 0 
0 0 0 0 0 0 0 0 0 
0 0 0 0 0 0 0 0 0 
0 0 0 0 -1 0 0 -1 0 
0 0 0 0 0 0 0 0 0 
0 0 0 0 0 0 0 0 0 
0 0 0 0 0 0 0 0 0 
0 0 0 0 0 0 0 0 0 
0 0 0 0 0 0 0 0 0 
0 0 0 0 0 0 0 0 0 
0 0 0 0 0 0 0 0 0 
0 0 0 0 0 0 0 -1 0 
0 0 0 0 0 0 0 0 0 
0 0 0 0 0 0 0 0 0 
0 0 0 0 0 0 0 0 0 
0 0 0 0 0 0 0 0 0 
0 0 0 0 0 0 0 0 0 
0 0 0 0 0 0 0 0 0 
0 0 0 0 0 0 0 0 0 
0 0 0 0 0 0 0 0 0 
0 0 0 0 0 0 0 0 0 
0 0 0 0 0 0 0 0 0 
0 0 0 0 0 0 0 0 0 
0 0 0 0 0 0 0 0 0 
0 0 0 0 0 0 0 0 0 
0 0 0 0 0 0 0 0 0 
0 0 0 0 0 0 0 0 0 
0 0 0 0 0 0 0 0 0 
0 0 0 0 0 0 0 0 0 
0 0 0 0 0 0 0 0 0 
0 0 0 0 0 0 0 0 0 
0 0 0 0 0 0 0 0 0 
0 0 0 0 0 0 0 0 0 
0 0 0 0 0 0 0 0 0 
0 0 0 0 0 0 0 0 0 
0 0 0 0 0 0 0 0 0 
0 0 0 0 0 0 0 0 0 
0 0 0 
v 3 679 double
0.00105612 0.00276976 -0.00341659 0.000374079 0.000182084 -0.001164 -0.000842008 0.000402119 0.000177017 
-0.000161095 0.000320247 0.000760871 -4.23346e-05 3.35633e-05 0.000980485 0.000243106 -0.000190158 0.000853988 
-9.07988e-05 0.000261487 0.000938805 -0.000148075 0.000888746 0.000194797 -5.56613e-05 -0.000660641 -0.00093021 
0.00016545 -0.000136369 0.000322668 -0.000346606 -0.000415547 -0.00105414 0.000537882 0.00245065 -0.000464145 
0.000207307 0.000800434 0.000316705 8.06403e-05 0.000184532 0.000819243 -0.000426639 0.000429922 0.000516482 
0.00051055 -3.59551e-05 0.00100748 -0.000152465 -0.00148772 0.00093466 -0.000381002 -0.000672741 0.000589938 
-0.000271848 -0.000315683 0.000706266 0.000558442 -0.000897051 -0.000810282 0.000111216 0.000174699 0.00195297 
-0.00160444 0.00370244 0.00094092 -0.00126812 0.000671537 -0.00360944 -0.000222711 0.000312337 -0.000431522 
-0.000747923 0.000356261 0.000455849 -9.06522e-06 0.000437994 0.000630763 0.000588047 -0.000625811 0.000627216 
0.000316225 -0.0015548 0.00156837 -0.000281415 -0.000735601 0.000210511 -0.000665709 -0.000426137 0.000669024 
-0.000530515 -0.00119455 0.00168373 0.000471898 -0.00223202 0.000438793 -0.00195572 0.0014164 -0.00197717 
-0.000846113 -9.65127e-05 -2.57984e-05 -0.00126884 -0.000750992 -0.000789484 0.000375882 0.000332412 4.39139e-05 
0.000491763 -0.000324192 -0.000492783 0.00174561 -0.0005144 0.000437274 0.000348311 -0.00224554 0.00117506 
0.000549031 -0.000963962 0.00120246 0.000559545 -0.0012855 0.00103173 0.000574418 -0.000980238 0.00122649 
-5.82581e-05 -0.00177282 0.000739126 -0.00139986 0.00127373 -0.000716758 -0.000775691 -0.00171831 -0.00167367 
-0.00016229 0.000493527 -0.00440755 -0.00173827 -0.00168665 -0.00141861 -0.00161453 0.000388371 -0.00143614 
0.00104073 -0.00153584 0.000142881 -0.000354294 -0.00127904 0.00111284 -0.000538032 -0.00126322 0.000224369 
-0.00137406 0.000900044 -5.35613e-05 -0.00120324 -0.000880293 -0.00258247 -0.000532081 -0.000929529 -0.00483825 
0.00295865 -0.00152892 -0.00502494 -0.000667682 -0.000595411 -0.000173774 0.00138987 -7.47851e-05 -6.06185e-05 
0.00130381 0.000196799 -1.38578e-06 0.000467331 -0.000676586 9.8746e-05 -8.71632e-05 -0.00137719 0.000398329 
-0.000689744 -1.29576e-05 0.000187967 -0.0011947 -0.000715408 -0.000813168 -0.000698617 -0.000551506 -0.000773307 
0.000496212 0.00224168 -0.0113901 -0.000565955 -0.00194909 -0.00403184 0.00487421 -0.0037251 -0.00403653 
0.00136717 0.000106567 -0.00024776 9.68986e-05 -0.000628926 0.000616348 0.000837313 -0.000423441 0.000353371 
-0.00138176 -0.000760865 -0.000201282 -0.0016728 -0.000320641 -0.000269128 -0.00159304 -7.44558e-05 -0.0018314 
-0.000708305 -0.00063435 -0.000566344 -0.00353492 0.00171202 -0.00374066 0.000512383 -0.00057216 0.000260908 
0.00207632 0.00237625 -0.00275317 0.000234121 0.000381288 -0.00128884 0.000457446 -0.000157114 0.000248912 
0.000670062 -3.16188e-05 0.000332081 -0.00116908 -0.000738208 -0.000244844 -0.000256393 -0.000770964 -1.37912e-05 
-0.00144457 -0.000572637 -0.000895791 -0.00116386 0.000316846 -0.000694918 -0.000796422 -0.000207388 -0.000831241 
-0.000970687 0.000355774 -0.000929944 -0.000345949 -0.000724764 -0.000784557 -0.000844228 0.00373507 -0.000104861 
6.66025e-05 -2.78306e-05 0.000103211 -7.29273e-05 -0.00084086 0.000151134 9.10507e-05 -0.000292215 0.00103834 
0.000292721 0.000151458 0.000242886 -4.56886e-05 -1.38243e-05 -0.000394556 -3.5417e-05 -0.00100369 -0.000607844 
-0.000205072 -0.000589534 -0.000178744 -0.000886405 0.000273619 -0.000790049 -0.000130858 -1.91947e-05 5.47374e-05 
-0.00222675 0.000142049 -0.00175393 -0.000782703 -0.000184353 0.000750181 0.000292928 -4.88806e-05 0.00100567 
0.000262287 -0.000538759 0.000581903 0.000507365 -0.000821205 -2.36222e-05 -0.00215229 0.000912365 -0.00244051 
-0.000657538 0.00030448 -0.000827233 -0.00278978 -0.00160682 -0.0015035 -0.00374466 0.000684064 -0.00137519 
-0.00101401 -0.000606623 -0.00213538 -0.0024248 -1.88527e-06 0.000897711 -0.00125743 -0.000381152 0.00140023 
0.000392494 -0.000454521 0.00173576 0.000535026 0.00111185 0.00167623 -0.00140368 -0.00070736 -0.0012042 
-0.00118332 -0.0023172 0.00295457 -0.00417862 -0.000174835 -0.000739443 -0.00172182 -0.000328054 -0.000131496 
-0.000242012 0.00568506 -0.00599407 0.00150466 0.00016208 0.00039599 0.000500921 0.000133352 0.0012695 
0.00155687 -0.000364153 0.00151887 -0.0010445 -0.000187205 0.00226759 0.000958797 -9.82688e-05 0.00158831 
0.000272646 -0.000186872 0.00240531 -0.0021169 -0.0016695 -7.70581e-05 0.00138977 0.000370966 -0.000230586 
-0.00123289 -0.0019476 0.001853 -0.00135449 -0.000608159 0.00154245 -0.00207669 5.20689e-05 0.00323148 
-0.00302275 -0.0006993 -0.00183275 -0.00236305 -0.0021227 -0.00546089 -0.000532218 -0.000931236 0.00102182 
0.000108981 0.000157937 0.00186583 0.00114078 0.000167488 0.000704876 0.00088624 -0.000129584 0.00165155 
-0.00259292 -0.00327709 0.00190186 0.000624938 -0.00289912 0.00326874 -0.000523694 -0.000997234 0.00238296 
-0.00311062 -0.00241225 0.00497536 0.00240036 -0.00686859 -0.00164704 0.00208533 0.000216256 0.00190141 
0.0013618 -0.00324827 -0.00160891 -0.00602322 0.000566353 -0.00332402 0.000120591 -0.00111652 0.00298939 
-7.14603e-05 -0.00127883 0.00187203 0.000427465 -0.00180355 0.00235777 -0.00120435 -0.00105544 0.00265752 
-0.00142355 -0.00214004 0.0038071 0.000369329 0.000525711 -0.000399858 -0.00114749 -0.000939276 0.000651567 
0.000225282 -0.00495792 -0.00316029 -0.00483982 -0.000101509 -0.00515684 -0.00214735 -0.00083797 -0.00157001 
0.00330144 -0.00144155 -0.00553007 0.0025518 -8.41423e-05 -0.0013779 0.00178048 -0.000470049 0.000623587 
-0.000839185 -0.00135616 0.00185225 -0.00122903 -0.00024116 0.00101548 -0.00210168 -0.00257612 0.000375466 
-0.00103726 0.00230451 0.00138345 0.00134035 0.00130219 -0.00071201 0.00149873 -0.00106022 -0.0121259 
3.49144e-05 -0.0016119 -0.00856206 0.000145877 -0.000856699 -0.00269584 0.000827963 -0.000687627 0.000209469 
0.000510871 0.00224267 -0.00123523 -0.0021798 -0.000881132 0.00182249 -0.00152099 7.63708e-05 0.00180429 
-0.00210758 -0.000584465 0.000319402 -0.00293593 -0.00239959 -0.000460369 -0.00936155 0.00117122 -0.00267957 
-9.94663e-05 0.000759498 -0.00715285 -0.000838253 -0.000223665 -0.00972398 0.00125997 0.00130621 -0.0138966 
0.00267478 0.00320093 -0.00593722 0.000562118 0.000656592 0.001578 -0.00120378 -0.00059539 0.00181581 
-0.000773828 -0.000397133 0.00142786 -0.00226173 -0.000382796 -7.14192e-05 -0.00178268 0.000588574 0.000984828 
-0.00228403 -0.0036816 -0.00224417 -0.0017984 -0.00110302 -0.00269359 -0.00183059 0.0055473 -0.00546261 
-0.00211277 0.000247652 -0.00393672 -0.00131204 0.000254871 0.00119448 0.000366348 0.000177143 0.000257072 
-4.71172e-05 -0.000153589 -0.000492732 -0.00172348 -1.67225e-05 0.000401047 -0.0018967 -0.000544064 -0.00122781 
-0.00225676 -0.000878696 -0.000630308 -0.00187753 0.00094762 7.93092e-05 -0.00102122 0.000491237 -0.0024751 
-0.00282331 -0.000140622 -0.00500351 0.000787909 6.38003e-07 -0.00189203 -0.00499737 -0.00778633 -0.0100566 
0.00115263 0.00382748 -0.00275568 -0.000455667 0.000936113 -0.000278665 -0.00039399 -0.000231877 0.000174077 
0.00238405 -0.000421693 0.000781398 -0.00367848 -0.00107069 -0.000588241 -6.0866e-05 0.00223205 -0.00469278 
-5.54538e-05 2.5519e-05 -0.00157548 -0.00304675 -0.00117245 -0.00185971 -0.00230165 -0.000978234 -0.00166201 
-0.00248875 0.000981652 0.00159659 -0.00114965 0.00143265 0.00240847 -0.000506104 0.000864403 0.00172451 
0.00133683 -0.000876887 0.000802848 0.000604789 -0.000457278 0.000655394 -0.00236447 -0.000749442 0.00275906 
-0.00311151 -0.000968957 -0.00137232 -0.00279598 0.00152922 -0.00806549 0.000429916 0.000794455 -0.00091919 
-0.00452481 -0.00469554 -0.0026209 -0.00111468 0.000956036 0.000345552 -0.00174838 0.00655568 -0.00211129 
-0.0026823 0.00910185 -0.0113679 0.0023263 0.000696542 0.000673925 -0.0010272 0.00212059 0.00155302 
-0.0018095 0.00355396 -0.00131247 -0.00116826 0.000412161 0.0036511 -0.000248762 0.000620795 0.000592433 
-0.000323387 -0.00133169 0.000304066 0.00378656 0.00123919 0.00225719 0.000424849 0.00166549 0.00359385 
0.00176551 0.00250323 0.0011777 0.00309491 -0.00295296 0.00332509 0.000696383 -0.00107868 0.00734379 
-0.00281584 0.00268039 0.00525533 -0.00664003 -0.00228923 -0.000376477 -0.00316652 0.000607892 0.000690062 
-0.00133459 0.00651994 -0.00583029 1.42198e-05 0.00362848 -0.00144835 0.00284354 -0.000577856 0.00115535 
0.00221662 0.000864142 -3.49078e-05 0.00348155 -0.00142251 0.0016917 0.00143345 -0.000898422 0.00188197 
-0.00154671 -0.00204364 0.00537037 -0.00198505 -0.00176688 0.00616738 -0.00209902 -0.00207636 0.00341596 
-0.00332396 -0.00163699 0.00432372 -0.00279705 -0.000216806 0.00648116 0.00246738 -0.00634364 -0.00714072 
0.000170113 0.00274022 -0.00217491 0.00368924 0.00110819 -0.00178109 0.0039367 -0.00253582 -0.00134276 
0.00187251 0.00012124 0.000719323 0.00380921 -0.00238625 0.00129696 0.00108621 0.00152058 0.00338607 
-0.00340886 -0.00211329 0.00612852 -0.00175499 -0.00359608 0.00758507 0.000225783 -0.00331646 0.00831918 
0.00107529 -0.000132708 0.00324828 0.000218752 -0.000793591 0.00575128 -0.000105614 -0.0016988 0.00502353 
-0.00355252 -0.00207504 0.00292687 0.0016818 -0.00145769 0.00401524 -0.00108305 -0.00103663 0.00669053 
-0.00225381 -0.00525137 0.00154064 0.000427317 -0.00947092 0.000442971 0.00452594 -0.0104837 0.00382721 
0.00476506 -0.0109319 -0.00485904 0.00206749 -0.0047253 -0.00289472 0.00674398 -0.0076643 -0.00310775 
-0.00543896 -0.00319634 -0.00174734 0.000319864 0.000640537 0.00439711 -0.0033598 -0.00427499 0.00928957 
-0.000853618 0.000601999 0.00341636 -0.000279875 -0.00273621 0.00210823 0.000717572 -0.00107741 0.0032891 
-0.00518257 -0.00070501 0.000560732 -0.000635927 0.00130112 0.00572101 -0.00175378 -7.87878e-05 0.0038429 
0.00340953 0.000938265 0.0024567 -0.00193698 -0.0070027 -0.00566127 -0.00212863 -0.00543567 -0.00617118 
0.000470339 -0.011798 -0.00661595 0.00658287 -0.0107196 -0.0115571 0.0104191 -0.000787038 -0.00703546 
0.0074783 -0.00457911 -0.0023544 0.00716566 -0.00751582 0.000772782 -0.000381326 0.00164279 -0.00107375 
0.000553464 0.00166335 -0.000101935 -0.00262586 -0.00401942 0.000492205 -0.00147928 -0.00241208 0.00228381 
-0.00333349 -0.000325568 0.00249752 -0.00215074 0.000387418 0.00340715 -0.0001731 0.00196287 0.00540147 
-0.000623229 -0.00114916 -0.00075358 -0.000762635 0.00140083 0.000821856 -0.00334271 -0.00462482 -0.013878 
0.00367715 -0.00227273 -0.00579157 0.00463534 0.0016285 -0.0111597 0.00333912 -0.00561437 -0.00588356 
0.00477357 -0.00480488 -1.56274e-05 -0.00145867 0.00165065 -0.000298071 -0.00265682 0.000592112 0.000839316 
-0.00310946 0.000454027 0.00141377 -0.00159786 0.00154836 0.000273275 -0.0100674 -0.000844031 -0.001108 
-0.00437064 -0.000795187 -0.000469132 -0.00285149 0.00131083 0.000728118 -0.010963 0.00307131 -0.00394196 
-0.00400108 0.00148006 -0.00454352 -0.00448454 0.00315975 0.000651401 0.000292957 -0.000221212 -0.00654409 
2.98662e-05 -0.00210905 -0.00632412 0.00331122 0.0154229 -0.0262605 0.00355916 0.019337 -0.00911867 
-0.0070405 -0.00331818 -0.00940468 -8.2586e-05 -0.000588229 0.0027871 0.00297524 0.000194624 -0.00420356 
-0.00190994 -0.000884516 0.0013234 -0.00135274 -0.000164379 0.00195236 -0.00232569 0.0021632 0.000732204 
-0.00149487 0.00189646 0.00138111 -0.000849743 -0.000167374 -0.00117839 -0.00680252 0.00167015 -0.000532241 