# vtk DataFile Version 4.0
Generated by LIGGGHTS
ASCII
DATASET POLYDATA
POINTS 1011 float
-0.00437897 -0.00438539 0.000499155 -0.00342184 -0.00467326 0.000498687 -0.00244286 -0.00494653 0.000499257 
-0.00161941 -0.00420557 0.000498562 -0.000496311 -0.00499138 0.000498799 -0.000641003 -0.00400206 0.000499447 
0.000287926 -0.00436972 0.000498777 0.00139292 -0.00456853 0.000498462 0.00240365 -0.00462032 0.000497778 
0.00371694 -0.00441736 0.000497796 0.00466408 -0.00409666 0.000499561 -0.00460563 -0.00341206 0.000498267 
-0.0036417 -0.00369814 0.000498535 -0.00268216 -0.00397657 0.000498984 -0.00197358 -0.00327154 0.000499297 
-0.000995919 -0.0030679 0.000498661 3.01984e-05 -0.00324498 0.000499189 0.000954338 -0.00362503 0.000499555 
0.00194778 -0.00373139 0.000498307 0.00294607 -0.00378042 0.000498584 0.00443312 -0.00312451 0.000499193 
-0.00485016 -0.00242919 0.000498514 -0.00389154 -0.00271238 0.000498869 -0.00293297 -0.00299364 0.000499515 
-0.00273172 -0.00200811 0.00049944 -0.00177439 -0.00229231 0.000498527 -0.000343736 -0.00231242 0.000498928 
0.000654493 -0.0023058 0.000498513 0.00150482 -0.0028055 0.00065593 0.00248738 -0.00289059 0.000498621 
0.00348351 -0.00280865 0.000499204 0.00418341 -0.00209486 0.000499064 -0.0046497 -0.00145042 0.00049921 
-0.00369154 -0.00173218 0.000499917 -0.00200227 -0.00130993 0.000497437 -0.00296386 -0.00103387 0.000498877 
-0.00104606 -0.00160124 0.000499336 2.01531e-05 -0.0013826 0.000499081 0.00101773 -0.00132773 0.000498507 
0.00185177 -0.00187707 0.000498777 0.00284847 -0.00195931 0.00049944 0.00242154 -0.00105577 0.00049831 
0.00341784 -0.0011383 0.000498527 0.00441588 -0.00109735 0.000499389 -0.00392645 -0.000760459 0.000498054 
-0.00319453 -6.17816e-05 0.000498744 -0.00223428 -0.000338495 0.000498645 -0.00125593 -0.000623534 0.000499627 
0.000359966 -0.000442565 0.000499017 0.00153592 -0.000473036 0.000498416 0.00299893 -0.00023171 0.000497907 
0.00494751 -0.000250911 0.000498762 -0.00416543 0.000208559 0.000498661 -0.00344921 0.000904632 0.000498914 
-0.00247396 0.000632191 0.000499195 -0.00149883 0.000346548 0.000499643 -0.000527009 6.09623e-05 0.000499531 
0.000210975 0.000735661 0.000499128 0.00117086 0.000457519 0.00049874 0.00215892 0.000308132 0.000499479 
0.00293807 0.000934916 0.000498657 0.00382536 0.000328091 0.000498399 0.00473949 0.000730157 0.000499186 
-0.00439899 0.00112763 0.000810825 -0.00271347 0.00171357 0.000498729 -0.001722 0.00134358 0.000499121 
-0.00076035 0.00103305 0.00049833 -2.35939e-05 0.00170739 0.00049779 0.000937902 0.00143516 0.000498835 
0.00192483 0.00127886 0.000499218 0.00271092 0.00190718 0.000498091 0.00386279 0.00133612 0.000499698 
0.00478496 0.00172985 0.000499699 -0.00424194 0.00206328 0.000499526 -0.00350521 0.00273789 0.000499676 
-0.00251727 0.00288583 0.000497195 -0.00151967 0.00284625 0.00049897 -0.000975727 0.00200882 0.000499159 
0.000693197 0.00240397 0.000499342 0.00168101 0.00224742 0.000498924 0.00245745 0.00287586 0.000499009 
0.00348779 0.0025366 0.000498138 0.00447541 0.00268633 0.000498282 -0.00457671 0.00300419 0.000498353 
-0.00487876 0.00395774 0.000497749 -0.00384128 0.00367989 0.000499526 -0.00230737 0.00389644 0.000498426 
-0.00130885 0.00382176 0.000499234 -0.000536187 0.00302017 0.000498636 -0.000325207 0.0039964 0.000498277 
0.000456271 0.00337419 0.000497765 0.00144357 0.00321852 0.000499635 0.00222058 0.00384721 0.000499171 
0.00317909 0.00356745 0.000499936 0.00417493 0.00363846 0.000498832 -0.00414394 0.00463554 0.00049975 
-0.00315823 0.00438281 0.00069097 -0.0014752 0.00480569 0.000498247 0.000435886 0.00464261 0.000499565 
0.00141211 0.00443263 0.000498715 0.00294679 0.00454013 0.000499689 0.00394527 0.00461059 0.000499372 
0.00489232 0.0049304 0.000498269 -0.00455059 -0.00493504 0.0013162 -0.00381574 -0.00424962 0.00131308 
-0.00288363 -0.00463236 0.00133927 -0.00203937 -0.00483873 0.00183288 -0.00121708 -0.00465294 0.00129555 
4.45665e-05 -0.00486935 0.00132976 0.00198353 -0.00483134 0.00137794 0.00308779 -0.00469675 0.00122084 
0.00345975 -0.00405901 0.00189334 0.00433461 -0.00468954 0.00123399 -0.0047733 -0.00396185 0.00131494 
-0.00404021 -0.00327551 0.00131067 -0.00308413 -0.00356861 0.0013181 -0.00212676 -0.00398001 0.00132927 
-0.00145683 -0.00323962 0.00136722 -0.000551911 -0.00393449 0.00149291 0.000442537 -0.00395376 0.00139321 
0.00143733 -0.00399613 0.00131467 0.00188369 -0.00315031 0.0016028 0.00243747 -0.00394185 0.00134295 
0.0029949 -0.00300839 0.00135015 0.00375076 -0.00359245 0.00105887 0.00441123 -0.00365666 0.00180476 
-0.00499644 -0.0029877 0.00131356 -0.00424513 -0.00214491 0.00124083 -0.00328168 -0.00240896 0.0012317 
-0.0023297 -0.0027119 0.00124618 -0.0010605 -0.00233904 0.00119454 -0.000312326 -0.00296925 0.00139631 
0.000673139 -0.00299468 0.00122278 0.00123223 -0.00203591 0.00126625 0.00229659 -0.00229693 0.00128828 
0.00405549 -0.002674 0.00130736 -0.00385278 -0.00123544 0.00137195 -0.00286994 -0.00149025 0.00138219 
-0.00192274 -0.00180653 0.00135873 -0.0010262 -0.00138044 0.00147375 0.00015275 -0.00198898 0.00130359 
0.000531848 -0.00106483 0.00132992 0.0017145 -0.0011644 0.00119589 0.00266608 -0.00137718 0.00141151 
0.00353684 -0.00182618 0.00121206 0.00477826 -0.0019397 0.00128657 0.00422745 -0.00112924 0.00147998 
-0.00483734 -0.000845544 0.00127213 -0.00375746 -0.000204942 0.00131169 -0.00279072 -0.000484028 0.00131593 
-0.00180835 -0.000776746 0.00131872 -0.00110903 -6.42253e-05 0.00132841 -0.00037661 -0.000708464 0.00111954 
0.000956136 -0.000164122 0.00125076 0.00232275 -0.000370479 0.00121796 0.00339144 -0.000599603 0.00133962 
0.00428379 -0.000161365 0.00123955 -0.00478456 0.000318255 0.0012759 -0.00394285 0.000759053 0.00162006 
-0.00302973 0.000486814 0.00131707 -0.00206787 0.000215274 0.00131256 -0.00132991 0.000908688 0.00130906 
-0.000357088 0.000618073 0.0013123 0.000486755 0.000496831 0.00183375 0.00172525 0.000212314 0.00176467 
0.00233489 0.000863967 0.0013114 0.00320977 0.000380916 0.00128354 0.00410766 0.000818395 0.00132107 
-0.00416801 0.00177 0.00154002 -0.00324929 0.00146118 0.00130294 -0.00228865 0.00118938 0.00130769 
-0.00161903 0.00169856 0.00184635 -0.000582896 0.00159207 0.00131847 0.000393303 0.00135464 0.00133265 
0.0013449 0.00101556 0.00130865 0.00212197 0.00184063 0.00130148 0.00323322 0.00151688 0.00125597 
0.00489177 0.00142429 0.00144979 -0.00489147 0.0023674 0.00120056 -0.00292355 0.00240474 0.00127171 
-0.00198862 0.00214524 0.00103325 -0.00110803 0.00247441 0.00137375 -6.55204e-05 0.00244722 0.00116661 
0.000780313 0.00294949 0.00134197 0.001139 0.0020174 0.00130601 0.00184138 0.00279949 0.0013155 
0.00289711 0.00247116 0.00130015 0.0040652 0.00206327 0.00116163 0.00448756 0.00269506 0.00191169 
-0.00399048 0.00307825 0.00130476 -0.00306338 0.00347239 0.00109247 -0.00358678 0.00378766 0.00188232 
-0.00204221 0.00331301 0.00126337 -0.00106684 0.00347282 0.00140367 -7.18097e-05 0.00350994 0.00133316 
0.000829613 0.00394311 0.00122938 0.00261727 0.00342941 0.00131526 0.00383721 0.00308165 0.00125902 
0.00480577 0.00333238 0.00121074 -0.00437957 0.00408125 0.00135205 -0.00363046 0.00472421 0.0015029 
-0.00275013 0.00426539 0.0016144 -0.00180801 0.00428396 0.00128259 -0.000820137 0.00443166 0.00124754 
-7.91067e-05 0.00432554 0.00190941 0.00102023 0.00492391 0.00127508 0.00178487 0.00418773 0.00139267 
0.00275493 0.0044026 0.00149624 0.00367344 0.00406678 0.00129187 0.0046307 0.00435509 0.00127298 
-0.00415327 -0.00461091 0.00218076 -0.00492013 -0.00404354 0.00291868 -0.00347413 -0.00435698 0.00287277 
-0.00278968 -0.00407576 0.00216358 -0.00147372 -0.00469487 0.0027267 -0.000606147 -0.00475489 0.00207887 
0.00054065 -0.00408016 0.0028764 0.000251258 -0.00497514 0.00254117 0.000989408 -0.00448397 0.00207949 
0.00192173 -0.00413631 0.00217589 0.00268264 -0.00478194 0.0021299 0.00258542 -0.00417487 0.00292132 
0.00338389 -0.00477145 0.00284417 0.00412611 -0.00413576 0.00263441 0.0048595 -0.00451197 0.00206458 
-0.00468153 -0.00343786 0.00216074 -0.00371962 -0.00371171 0.00214965 -0.00218529 -0.00328948 0.00204864 
-0.00139936 -0.00399216 0.00202088 -0.00186328 -0.00375532 0.00287257 -0.000691033 -0.00399874 0.00272566 
-0.000887617 -0.00315155 0.00219325 3.02271e-05 -0.00354472 0.00220545 0.000758775 -0.00300313 0.00289853 
0.00101759 -0.00348495 0.00206285 0.00182654 -0.00323605 0.00259778 0.00270384 -0.00347397 0.00218435 
0.00363793 -0.00310033 0.00210841 0.00447209 -0.00313731 0.00265623 -0.00407426 -0.00264848 0.00208719 
-0.0043607 -0.00213337 0.0028934 -0.00311322 -0.00292047 0.00207834 -0.0025309 -0.00210882 0.00209153 
-0.00249342 -0.00277998 0.00285029 -0.00160456 -0.00247739 0.00202567 -0.00108247 -0.00232611 0.00286354 
-0.000582095 -0.00208055 0.00203233 -0.000230808 -0.00286297 0.00288864 0.000303691 -0.00259192 0.0020862 
0.00129932 -0.00252868 0.00213157 0.00263763 -0.00267215 0.00277741 0.00302353 -0.00222536 0.00197097 
0.00363982 -0.00255713 0.0029462 0.00400522 -0.00210935 0.00213047 0.00495221 -0.00242979 0.00213964 
-0.00448308 -0.0016103 0.00205045 -0.00390273 -0.00125179 0.00278035 -0.00349245 -0.00183689 0.00208189 
-0.00277626 -0.00140686 0.00275897 -0.00163875 -0.00148795 0.00226128 -0.000206157 -0.00115348 0.00199851 
-0.000791901 -0.00137484 0.00277837 6.03434e-05 -0.00191365 0.00277874 0.000747655 -0.00169712 0.00207183 
0.000653778 -0.00111687 0.00287933 0.00188463 -0.00173007 0.00200154 0.00164658 -0.00119507 0.00281215 
0.00265053 -0.00156322 0.00262096 0.00342687 -0.00129791 0.00205234 0.00460901 -0.00135154 0.00237647 
-0.00426011 -0.000635712 0.00205985 -0.00475132 -0.000713241 0.00292581 -0.00328622 -0.000854018 0.00210114 
-0.00229784 -0.000740573 0.00218791 -0.00275476 -0.000179788 0.00287687 -0.00110367 -0.000651254 0.00215199 
-0.00101475 -2.53855e-05 0.00292651 -0.000264581 -0.000152007 0.00194186 -0.000188521 -0.000582518 0.00283988 
0.000677126 -0.000175132 0.00254706 0.00123287 -0.00078834 0.00198624 0.00166814 -0.000205424 0.00267086 
[...]
POINT_DATA 1011
FIELD FieldData 7
id 1 1011 int
17 57 74 16 56 133 69 113 31 
48 91 108 72 7 89 18 107 70 
28 51 102 36 80 12 45 95 19 
104 97 22 14 29 88 60 78 15 
148 61 1 26 65 103 68 10 27 
94 110 105 62 96 82 46 43 101 
37 90 59 42 55 4 114 2 77 
93 54 21 40 25 53 23 35 58 
33 92 109 8 20 112 13 6 5 
47 52 9 38 67 32 3 34 50 
39 44 85 41 79 63 71 24 11 
30 81 87 49 144 164 146 176 149 
222 118 168 278 125 137 124 99 194 
218 190 116 162 197 153 155 206 173 
179 73 115 121 157 161 139 195 136 
231 170 64 128 181 76 202 214 86 
123 98 159 156 117 138 236 209 169 
187 75 147 160 171 211 127 165 120 
212 257 225 177 142 129 119 151 126 
175 207 174 145 66 140 208 84 152 
134 130 131 141 172 100 200 158 205 
196 122 277 106 154 143 183 166 83 
135 215 221 249 111 150 217 167 192 
216 203 132 220 343 371 229 331 319 
342 301 260 337 291 293 377 285 334 
248 242 219 188 307 340 320 289 329 
273 330 292 270 327 224 350 163 193 
276 199 345 254 394 275 245 305 227 
443 267 253 204 299 239 325 336 233 
283 240 258 338 256 310 316 266 304 
281 357 259 314 303 268 323 271 308 
288 263 302 210 344 296 243 261 213 
284 272 252 235 381 295 191 317 282 
186 361 185 393 389 287 230 198 348 
251 250 234 322 353 332 244 264 226 
321 324 379 265 392 237 246 294 438 
279 184 189 286 201 333 247 335 255 
241 228 313 383 232 387 280 312 262 
238 311 318 178 315 269 355 180 349 
326 290 182 306 369 274 328 223 297 
373 352 396 452 540 423 408 500 385 
431 446 449 418 436 437 356 366 386 
384 354 439 390 450 370 486 445 488 
300 397 422 347 309 429 380 432 485 
415 374 508 416 413 419 447 378 417 
441 467 407 364 475 375 498 298 368 
428 391 557 405 409 388 398 400 359 
451 382 339 425 455 362 489 341 424 
440 459 460 411 484 442 365 367 469 
426 399 509 358 463 404 435 454 410 
473 414 490 402 497 444 506 468 420 
372 480 401 395 448 346 562 430 403 
456 427 433 363 412 493 499 360 351 
507 376 434 406 491 578 560 563 524 
528 466 558 552 597 548 532 529 613 
541 479 503 601 561 482 546 536 623 
530 610 481 477 577 566 494 461 537 
471 616 554 587 571 556 496 522 620 
590 567 457 535 513 622 555 551 518 
585 487 476 511 495 547 591 504 550 
531 492 574 565 483 592 533 581 465 
596 579 502 542 464 519 543 462 470 
545 474 621 478 512 538 458 606 505 
619 580 453 526 615 527 553 609 549 
517 559 525 523 569 510 421 514 520 
544 539 521 501 472 534 515 604 600 
608 643 711 572 653 713 664 614 652 
637 658 598 700 672 651 583 712 632 
694 724 647 660 642 573 650 638 607 
709 575 716 731 646 669 692 714 726 
707 629 668 635 667 576 626 633 640 
654 673 603 688 679 703 594 618 663 
687 593 634 730 678 718 617 612 657 
697 645 729 691 715 683 648 624 662 
676 602 630 719 674 661 695 564 686 
665 644 704 568 586 584 666 611 725 
689 727 655 685 588 708 698 699 684 
693 582 706 627 639 631 599 670 705 
625 675 656 649 605 636 570 732 589 
516 671 762 595 659 677 710 641 899 
797 767 776 720 799 744 813 842 696 
806 840 780 773 747 765 752 836 792 
804 778 789 741 701 851 733 763 728 
828 786 761 817 764 772 883 793 740 
795 816 760 742 846 682 750 805 737 
860 751 838 680 790 830 820 736 815 
823 768 771 690 802 807 896 835 628 
781 811 723 787 779 829 753 784 832 
770 844 812 821 759 893 774 722 766 
782 826 739 785 822 721 839 681 800 
843 819 757 756 788 856 777 791 746 
748 878 837 845 809 717 743 755 754 
734 738 847 825 775 745 794 769 702 
783 735 803 749 865 758 869 824 872 
895 923 834 945 880 863 864 831 903 
935 862 890 932 852 913 841 931 919 
917 888 912 877 953 898 833 884 902 
801 881 848 874 861 921 885 894 873 
949 866 858 827 933 849 908 853 909 
918 796 854 925 926 818 886 944 867 
808 814 882 870 875 850 887 948 900 
876 941 879 897 939 855 938 937 940 
859 857 936 892 934 889 947 798 956 
810 871 891 868 946 928 942 920 955 
952 907 904 914 950 901 929 910 922 
916 911 924 927 915 905 954 951 930 
943 906 997 981 990 972 973 994 964 
971 1011 965 983 996 979 1009 967 976 
987 963 1006 960 975 962 958 961 980 
984 1004 999 998 985 966 957 1000 992 
1003 986 1002 969 988 1005 1010 959 1008 
978 974 993 977 989 968 1007 982 1001 
991 995 970 
type 1 1011 int
1 1 1 1 1 1 1 1 1 
1 1 1 1 1 1 1 1 1 
1 1 1 1 1 1 1 1 1 
1 1 1 1 1 1 1 1 1 
1 1 1 1 1 1 1 1 1 
1 1 1 1 1 1 1 1 1 
1 1 1 1 1 1 1 1 1 
1 1 1 1 1 1 1 1 1 
1 1 1 1 1 1 1 1 1 
1 1 1 1 1 1 1 1 1 
1 1 1 1 1 1 1 1 1 
1 1 1 1 1 1 1 1 1 
1 1 1 1 1 1 1 1 1 
1 1 1 1 1 1 1 1 1 
1 1 1 1 1 1 1 1 1 
1 1 1 1 1 1 1 1 1 
1 1 1 1 1 1 1 1 1 
1 1 1 1 1 1 1 1 1 
1 1 1 1 1 1 1 1 1 
1 1 1 1 1 1 1 1 1 
1 1 1 1 1 1 1 1 1 
1 1 1 1 1 1 1 1 1 
1 1 1 1 1 1 1 1 1 
1 1 1 1 1 1 1 1 1 
1 1 1 1 1 1 1 1 1 
1 1 1 1 1 1 1 1 1 
1 1 1 1 1 1 1 1 1 
1 1 1 1 1 1 1 1 1 
1 1 1 1 1 1 1 1 1 
1 1 1 1 1 1 1 1 1 
1 1 1 1 1 1 1 1 1 
1 1 1 1 1 1 1 1 1 
1 1 1 1 1 1 1 1 1 
1 1 1 1 1 1 1 1 1 
1 1 1 1 1 1 1 1 1 
1 1 1 1 1 1 1 1 1 
1 1 1 1 1 1 1 1 1 
1 1 1 1 1 1 1 1 1 
1 1 1 1 1 1 1 1 1 
1 1 1 1 1 1 1 1 1 
1 1 1 1 1 1 1 1 1 
1 1 1 1 1 1 1 1 1 
1 1 1 1 1 1 1 1 1 
1 1 1 1 1 1 1 1 1 
1 1 1 1 1 1 1 1 1 
1 1 1 1 1 1 1 1 1 
1 1 1 1 1 1 1 1 1 
1 1 1 1 1 1 1 1 1 
1 1 1 1 1 1 1 1 1 
1 1 1 1 1 1 1 1 1 
1 1 1 1 1 1 1 1 1 
1 1 1 1 1 1 1 1 1 
1 1 1 1 1 1 1 1 1 
1 1 1 1 1 1 1 1 1 
1 1 1 1 1 1 1 1 1 
1 1 1 1 1 1 1 1 1 
1 1 1 1 1 1 1 1 1 
1 1 1 1 1 1 1 1 1 
1 1 1 1 1 1 1 1 1 
1 1 1 1 1 1 1 1 1 
1 1 1 1 1 1 1 1 1 
1 1 1 1 1 1 1 1 1 
1 1 1 1 1 1 1 1 1 
1 1 1 1 1 1 1 1 1 
1 1 1 1 1 1 1 1 1 
1 1 1 1 1 1 1 1 1 
1 1 1 1 1 1 1 1 1 
1 1 1 1 1 1 1 1 1 
1 1 1 1 1 1 1 1 1 
1 1 1 1 1 1 1 1 1 
1 1 1 1 1 1 1 1 1 
1 1 1 1 1 1 1 1 1 
1 1 1 1 1 1 1 1 1 
1 1 1 1 1 1 1 1 1 
1 1 1 1 1 1 1 1 1 
1 1 1 1 1 1 1 1 1 
1 1 1 1 1 1 1 1 1 
1 1 1 1 1 1 1 1 1 
1 1 1 1 1 1 1 1 1 
1 1 1 1 1 1 1 1 1 
1 1 1 1 1 1 1 1 1 
1 1 1 1 1 1 1 1 1 
1 1 1 1 1 1 1 1 1 
1 1 1 1 1 1 1 1 1 
1 1 1 1 1 1 1 1 1 
1 1 1 1 1 1 1 1 1 
1 1 1 1 1 1 1 1 1 
1 1 1 1 1 1 1 1 1 
1 1 1 1 1 1 1 1 1 
1 1 1 1 1 1 1 1 1 
1 1 1 1 1 1 1 1 1 
1 1 1 1 1 1 1 1 1 
1 1 1 1 1 1 1 1 1 
1 1 1 1 1 1 1 1 1 
1 1 1 1 1 1 1 1 1 
1 1 1 1 1 1 1 1 1 
1 1 1 1 1 1 1 1 1 
1 1 1 1 1 1 1 1 1 
1 1 1 1 1 1 1 1 1 
1 1 1 1 1 1 1 1 1 
1 1 1 1 1 1 1 1 1 
1 1 1 1 1 1 1 1 1 
1 1 1 1 1 1 1 1 1 
1 1 1 1 1 1 1 1 1 
1 1 1 1 1 1 1 1 1 
1 1 1 1 1 1 1 1 1 
1 1 1 1 1 1 1 1 1 
1 1 1 1 1 1 1 1 1 
1 1 1 1 1 1 1 1 1 
1 1 1 1 1 1 1 1 1 
1 1 1 1 1 1 1 1 1 
1 1 1 1 1 1 1 1 1 
1 1 1 
i 3 1011 int
0 0 0 0 1 0 0 0 0 
0 0 0 0 0 0 0 0 0 
0 0 0 0 0 0 0 0 0 
-1 0 0 0 0 0 1 0 0 
0 1 0 0 0 0 0 0 0 
0 0 0 0 0 0 0 1 0 
0 0 0 0 0 0 -1 0 0 
1 1 0 1 1 0 0 0 0 
0 0 0 0 0 0 0 0 0 
0 0 0 0 0 0 0 0 0 
0 0 0 0 0 0 0 0 0 
0 0 0 0 0 0 0 0 0 
0 0 0 0 0 0 0 0 0 
0 0 0 0 0 0 0 0 0 
0 0 0 0 0 0 0 0 0 
0 0 0 0 0 0 0 0 0 
0 0 0 0 0 0 0 0 0 
0 0 0 1 0 0 0 0 0 
0 0 0 0 0 0 0 0 0 
0 0 0 0 0 0 0 0 0 
0 0 0 0 0 0 0 0 0 
0 0 0 0 0 0 0 0 0 
0 0 0 0 0 0 0 0 0 
0 0 0 0 0 0 0 0 0 
-1 0 0 0 0 0 1 -1 0 
0 0 0 1 -1 0 0 0 0 
0 0 0 0 0 0 0 0 0 
0 0 0 -1 0 0 0 0 0 
1 0 0 1 0 0 0 0 0 
0 -1 0 0 0 0 0 -1 0 
0 0 0 0 0 0 0 0 0 
0 0 0 0 0 0 1 -1 0 
0 0 0 0 -1 0 0 -1 0 
0 0 0 0 0 0 -1 -1 0 
-1 -1 0 0 1 0 1 0 0 
0 0 0 0 0 0 0 0 0 
0 1 0 0 1 0 -1 0 0 
0 0 0 0 0 0 1 0 0 
0 0 0 0 1 0 0 0 0 
0 0 0 0 0 0 0 1 0 
0 0 0 0 0 0 0 0 0 
0 0 0 0 0 0 0 0 0 
1 0 0 0 -1 0 0 0 0 
0 0 0 0 0 0 0 0 0 
0 1 0 0 0 0 0 0 0 
0 0 0 0 0 0 0 0 0 
0 0 0 0 0 0 0 1 0 
0 0 0 0 1 0 0 0 0 
0 0 0 -1 0 0 0 0 0 
0 0 0 0 0 0 0 0 0 
0 0 0 0 0 0 0 0 0 
0 0 0 0 0 0 0 0 0 
0 0 0 0 0 0 1 0 0 
0 0 0 0 0 0 0 0 0 
0 0 0 0 0 0 0 0 0 
0 0 0 0 0 0 0 0 0 
0 0 0 0 0 0 0 0 0 
0 0 0 0 0 0 0 0 0 
0 0 0 0 -1 0 -1 0 0 
-1 0 0 1 -1 0 0 0 0 
0 0 0 0 0 0 0 0 0 
0 0 0 0 0 0 0 -1 0 
0 0 0 0 0 0 0 0 0 
0 0 0 0 0 0 0 0 0 
-1 0 0 0 0 0 0 0 0 
0 0 0 0 0 0 0 0 0 
0 0 0 1 0 0 0 0 0 
0 0 0 0 0 0 0 0 0 
0 0 0 0 0 0 0 0 0 
0 0 0 0 -1 0 0 0 0 
0 0 0 0 0 0 0 0 0 
0 0 0 0 0 0 0 0 0 
0 0 0 0 0 0 0 1 0 
0 0 0 0 1 0 0 0 0 
0 1 0 -1 0 0 0 1 0 
1 0 0 0 0 0 0 1 0 
0 1 0 0 0 0 0 0 0 
0 0 0 0 0 0 0 0 0 
0 0 0 0 0 0 0 0 0 
0 0 0 0 0 0 0 0 0 
0 0 0 0 0 0 0 0 0 
0 0 0 0 0 0 0 0 0 
0 0 0 0 0 0 0 0 0 
0 0 0 0 0 0 0 0 0 
0 0 0 0 0 0 -1 0 0 
1 0 0 0 0 0 0 0 0 
0 0 0 0 0 0 0 0 0 
0 0 0 0 0 0 0 0 0 
0 0 0 0 0 0 0 0 0 
0 0 0 0 0 0 -1 0 0 
0 0 0 0 0 0 0 0 0 
0 0 0 0 0 0 0 0 0 
0 0 0 0 0 0 0 0 0 
0 0 0 0 0 0 0 0 0 
0 0 0 0 0 0 0 0 0 
0 0 0 0 0 0 0 0 0 
1 0 0 0 0 0 0 0 0 
0 0 0 0 0 0 0 0 0 
0 0 0 0 0 0 0 0 0 
0 0 0 0 0 0 -1 0 0 
-1 0 0 -1 0 0 0 0 0 
0 0 0 0 0 0 0 0 0 
0 0 0 0 0 0 0 0 0 
0 0 0 0 0 0 0 0 0 
0 0 0 0 0 0 0 0 0 
0 0 0 0 0 0 0 0 0 
1 0 0 1 0 0 0 0 0 
0 0 0 0 0 0 0 0 0 
0 0 0 0 0 0 0 0 0 
0 0 0 0 0 0 0 0 0 
0 0 0 0 0 0 0 0 0 
0 0 0 1 0 0 0 0 0 
0 0 0 0 0 0 0 0 0 
0 0 0 0 0 0 0 -1 0 
0 0 0 0 0 0 0 0 0 
0 0 0 -1 -1 0 0 0 0 
-1 0 0 1 0 0 0 0 0 
0 0 0 0 0 0 0 0 0 
0 0 0 0 0 0 0 -1 0 
0 0 0 -1 0 0 0 0 0 
-1 0 0 1 1 0 0 0 0 
1 1 0 0 0 0 0 0 0 
0 1 0 0 0 0 0 0 0 
0 0 0 0 1 0 0 0 0 
0 0 0 1 0 0 0 0 0 
1 0 0 0 0 0 1 0 0 
0 0 0 0 0 0 0 0 0 
0 0 0 0 0 0 0 0 0 
-1 1 0 -1 0 0 0 0 0 
0 1 0 0 0 0 0 0 0 
0 0 0 0 0 0 0 0 0 
0 0 0 0 0 0 0 0 0 
0 0 0 0 0 0 0 0 0 
0 0 0 0 0 0 0 0 0 
0 0 0 0 0 0 0 0 0 
0 0 0 0 0 0 0 0 0 
0 0 0 0 0 0 -1 0 0 
0 0 0 0 0 0 0 0 0 
0 0 0 0 0 0 0 0 0 
0 0 0 0 0 0 0 0 0 
-1 0 0 0 0 0 0 0 0 
0 0 0 0 0 0 0 0 0 
0 0 0 0 0 0 0 0 0 
0 0 0 0 0 0 0 0 0 
0 0 0 0 0 0 0 0 0 
0 0 0 0 0 0 0 0 0 
0 0 0 0 0 0 0 0 0 
0 0 0 0 0 0 0 0 0 
0 0 0 0 0 0 0 0 0 
0 0 0 0 0 0 0 0 0 
0 0 0 0 0 0 0 0 0 
0 0 0 1 0 0 0 0 0 
1 0 0 0 0 0 0 0 0 
0 0 0 0 0 0 0 0 0 
0 0 0 0 0 0 0 0 0 
0 0 0 0 0 0 0 0 0 
0 -1 0 0 0 0 0 0 0 
0 0 0 0 -1 0 0 -1 0 
0 0 0 0 0 0 0 0 0 
0 0 0 0 -1 0 0 0 0 
0 0 0 0 0 0 1 0 0 
0 0 0 0 0 0 0 0 0 
0 0 0 0 0 0 0 0 0 
0 0 0 0 0 0 0 0 0 
0 0 0 0 0 0 0 0 0 
0 0 0 0 0 0 0 0 0 
0 0 0 0 0 0 0 0 0 
0 0 0 0 0 0 0 0 0 
0 0 0 -1 0 0 0 0 0 
0 0 0 0 0 0 0 0 0 
0 0 0 0 0 0 0 0 0 
0 0 0 0 0 0 0 0 0 
0 0 0 0 0 0 0 0 0 
0 0 0 0 0 0 0 0 0 
0 0 0 0 0 0 0 0 0 
0 0 0 0 0 0 0 0 0 
0 0 0 0 0 0 0 0 0 
0 0 0 0 0 0 0 0 0 
0 0 0 0 0 0 0 0 0 
0 0 0 0 0 0 0 0 0 
0 0 0 0 0 0 0 0 0 
0 0 0 0 0 0 0 0 0 
0 0 0 0 0 0 0 0 0 
0 0 0 0 0 0 1 0 0 
0 0 0 0 0 0 0 0 0 
0 0 0 0 0 0 0 0 0 
0 0 0 0 0 0 0 0 0 
0 0 0 0 0 0 1 0 0 
0 0 0 0 0 0 0 0 0 
0 0 0 0 0 0 0 0 0 
0 0 0 0 0 0 0 0 0 
1 -1 0 0 0 0 0 0 0 
0 0 0 0 0 0 0 0 0 
0 0 0 0 0 0 0 0 0 
0 0 0 0 0 0 0 -1 0 
0 0 0 0 0 0 0 0 0 
0 -1 0 0 0 0 0 0 0 
0 0 0 0 0 0 0 0 0 
0 1 0 0 0 0 0 0 0 
0 0 0 0 0 0 0 0 0 
0 0 0 0 0 0 0 0 0 
0 1 0 0 0 0 0 0 0 
0 0 0 0 0 0 0 0 0 
0 0 0 0 1 0 0 0 0 
0 0 0 0 0 0 0 0 0 
0 1 0 0 0 0 0 0 0 
0 0 0 0 0 0 0 0 0 
0 0 0 0 0 0 0 0 0 
0 0 0 0 0 0 0 0 0 
0 0 0 -1 0 0 0 0 0 
0 0 0 0 0 0 0 0 0 
0 0 0 0 0 0 0 0 0 
0 0 0 0 0 0 0 0 0 
-1 0 0 0 0 0 0 0 0 
0 0 0 0 0 0 0 0 0 
0 0 0 0 0 0 0 0 0 
0 0 0 0 0 0 0 0 0 
0 0 0 0 0 0 -1 0 0 
0 0 0 0 0 0 0 0 0 
0 0 0 0 0 0 0 0 0 
0 0 0 0 0 0 0 0 0 
0 0 0 0 0 0 0 0 0 
0 0 0 0 0 0 0 0 0 
0 0 0 0 0 0 0 0 0 
0 0 0 0 0 0 0 0 0 
0 0 0 0 0 0 0 0 0 
0 0 0 0 0 0 0 0 0 
0 0 0 0 0 0 0 0 0 
0 0 0 0 0 0 0 0 0 
0 0 0 0 0 0 0 0 0 
0 0 0 1 0 0 0 0 0 
1 0 0 0 0 0 0 0 0 
0 0 0 0 0 0 0 0 0 
0 0 0 0 0 0 -1 0 0 
0 0 0 0 0 0 0 0 0 
0 0 0 0 -1 0 0 0 0 
0 0 0 0 0 0 0 -1 0 
0 -1 0 0 0 0 0 0 0 
0 0 0 0 -1 0 0 -1 0 
1 0 0 0 0 0 0 0 0 
0 0 0 0 1 0 0 0 0 
0 0 0 0 0 0 0 0 0 
0 0 0 0 0 0 0 0 0 
0 1 0 0 0 0 0 0 0 
0 0 0 0 0 0 0 0 0 
0 0 0 0 0 0 0 0 0 
0 0 0 0 0 0 0 0 0 
0 0 0 0 0 0 0 0 0 
0 0 0 0 0 0 0 0 0 
0 0 0 0 0 0 0 0 0 
0 0 0 0 0 0 0 0 0 
0 0 0 0 0 0 0 0 0 
0 0 0 0 0 0 0 0 0 
0 0 0 0 0 0 0 0 0 
0 0 0 0 0 0 0 0 0 
0 0 0 0 0 0 0 0 0 
0 0 0 0 0 0 0 0 0 
0 0 0 0 0 0 0 0 0 
0 0 0 0 0 0 0 0 0 
0 0 0 0 0 0 0 0 0 
0 0 0 0 0 0 0 0 0 
0 0 0 0 0 0 0 0 0 
0 0 0 0 0 0 0 0 0 
0 0 0 0 0 0 0 0 0 
0 0 0 0 0 0 0 0 0 
1 0 0 0 0 0 0 0 0 
0 0 0 0 0 0 0 0 0 
0 0 0 0 0 0 0 0 0 
0 0 0 0 0 0 0 0 0 
0 0 0 0 0 0 0 0 0 
0 0 0 0 0 0 0 0 0 
0 0 0 0 0 0 0 0 0 
0 0 0 0 0 0 0 0 0 
0 0 0 0 0 0 1 0 0 
0 0 0 0 0 0 0 0 0 
0 0 0 0 0 0 0 0 0 
0 0 0 0 0 0 0 0 0 
0 0 0 0 0 0 0 0 0 
0 0 0 0 0 0 0 0 0 
0 -1 0 0 0 0 0 0 0 
0 0 0 0 0 0 0 0 0 
0 0 0 0 0 0 0 0 0 
0 0 0 0 0 0 0 0 0 
0 0 0 0 0 0 0 0 0 
0 0 0 0 1 0 0 0 0 
0 0 0 0 0 0 0 0 0 
0 0 0 0 0 0 0 0 0 
0 0 0 0 0 0 0 0 0 
0 0 0 0 0 0 0 0 0 
0 0 0 0 0 0 0 0 0 
0 0 0 0 0 0 0 0 0 
0 0 0 0 0 0 0 0 0 
0 0 0 0 0 0 0 0 0 
0 0 0 0 0 0 0 0 0 
0 0 0 0 0 0 0 0 0 
0 0 0 0 0 0 0 0 0 
0 0 0 0 0 0 0 0 0 
0 0 0 0 0 0 0 0 0 
0 0 0 0 0 0 0 0 0 
0 0 0 -1 0 0 0 0 0 
0 0 0 0 0 0 0 0 0 
0 0 0 0 0 0 0 0 0 
0 0 0 0 0 0 0 0 0 
0 0 0 0 0 0 0 0 0 
0 0 0 0 0 0 0 0 0 
0 0 0 0 0 0 0 0 0 
0 0 0 0 0 0 0 0 0 
0 0 0 0 0 0 0 -1 0 
0 0 0 0 0 0 0 0 0 
0 0 0 0 0 0 0 0 0 
0 -1 0 1 0 0 0 0 0 
0 0 0 0 0 0 0 0 0 
0 0 0 0 0 0 0 0 0 
0 0 0 0 0 0 0 0 0 
0 0 0 0 0 0 0 0 0 
0 0 0 0 0 0 0 -1 0 
0 0 0 0 0 0 0 0 0 
0 0 0 0 0 0 0 0 0 
0 0 0 0 0 0 0 0 0 
0 0 0 0 0 0 0 0 0 
0 0 0 0 0 0 0 0 0 
0 0 0 0 0 0 0 0 0 
0 0 0 0 0 0 0 0 0 
0 0 0 0 0 0 0 0 0 
0 0 0 0 0 0 0 0 0 
0 0 0 0 0 0 0 0 0 
0 0 0 0 0 0 0 0 0 
0 0 0 0 0 0 0 0 0 
0 0 0 0 0 0 0 0 0 
0 0 0 0 0 0 0 0 0 
0 0 0 0 0 0 0 0 0 
0 0 0 0 0 0 0 0 0 
0 0 0 0 0 0 0 0 0 
0 0 0 0 0 0 0 0 0 
0 0 0 0 0 0 0 0 0 
0 0 0 0 0 0 0 0 0 
0 0 0 0 0 0 0 0 0 

v 3 1011 double
0.00012065 -0.000124025 6.25345e-05 0.000121541 -0.000121963 8.64912e-06 0.000204228 9.74127e-05 6.78315e-05 
0.000111219 -9.72269e-05 1.43293e-05 3.06319e-05 -6.03165e-05 8.25951e-07 5.32858e-05 -7.83916e-05 -7.93586e-05 
-3.39853e-05 -8.95589e-05 -7.37541e-05 2.99874e-05 -0.000102317 -9.14954e-06 -9.42014e-05 -0.000330496 0.000218357 
5.67644e-06 -0.000222021 7.9197e-05 4.36242e-05 -9.54621e-05 4.81114e-05 0.00012578 -9.63305e-05 6.7871e-05 
9.52629e-05 -8.07173e-05 1.03203e-05 0.000107995 -6.30475e-06 -4.56109e-06 8.46549e-05 -0.000157407 4.67615e-05 
0.00011309 -0.000143638 1.65837e-05 -2.76877e-05 -8.7671e-05 -1.71204e-05 -2.27941e-05 -0.000148663 0.000126042 
4.86415e-07 -0.000154025 0.00011025 -1.08359e-05 -0.000367287 5.56157e-05 9.25118e-05 -0.000176051 -5.02145e-05 
0.000128282 -9.77144e-05 -2.71957e-05 0.000105819 -0.000115813 -1.71154e-05 9.809e-05 -0.000141142 4.81292e-05 
8.62432e-05 -0.000272698 0.000107971 0.000198099 -0.000105271 -2.93076e-05 0.000174639 -0.000153935 -4.88742e-05 
0.000269343 -0.000331616 -0.000328576 0.000179937 -0.000252074 -6.18752e-05 0.000230447 -0.000250759 -2.39171e-05 
9.89997e-05 -0.00020753 -6.96741e-05 9.02547e-05 -0.000168296 -4.25978e-05 0.00010201 -4.25422e-06 -0.00012252 
7.12594e-05 -0.000231899 -1.2748e-05 0.000207279 -0.000147334 6.31312e-05 0.000347817 -1.50453e-05 -1.3259e-05 
0.000110536 -0.000174028 5.17833e-05 9.0012e-05 -9.14877e-05 -0.000140339 6.06914e-05 1.02536e-05 -0.000226744 
0.000181516 -6.13163e-05 -0.000207533 4.91423e-05 -9.94919e-05 -6.02656e-06 7.73865e-05 -6.95627e-05 4.29556e-05 
0.000127248 -8.76625e-05 -5.72603e-05 0.000130882 4.08377e-06 -0.000111165 0.000284228 -0.000121398 -7.22288e-05 
7.11467e-05 9.86196e-06 4.36385e-05 0.000113937 -3.49925e-05 6.24366e-05 0.000156347 -5.80958e-05 -6.42594e-06 
-0.000219674 3.00359e-05 -5.90182e-05 -6.09063e-05 -5.93139e-05 -9.48771e-05 9.16506e-05 -3.33044e-05 3.58211e-05 
0.000100239 6.53426e-06 -6.58571e-05 0.000134681 -5.63358e-05 1.43401e-05 0.000101051 7.79325e-05 -8.55529e-05 
0.000174314 1.06517e-05 -4.74629e-05 0.00015623 6.54784e-05 -7.16029e-06 9.45469e-05 -9.14341e-05 -5.01899e-05 
9.40078e-05 -8.09853e-06 -9.44092e-05 -4.15896e-05 1.0247e-05 -0.000110875 -9.08568e-05 -4.1e-05 8.50267e-05 
3.97513e-05 4.89555e-05 1.98763e-05 9.92471e-05 -6.29478e-06 2.49352e-05 0.000113309 -9.74143e-05 7.77535e-05 
0.00012821 -5.70774e-05 7.78688e-06 0.000129438 -4.14461e-05 -2.72681e-05 0.000231255 -3.63986e-05 -1.78733e-06 
0.000172418 1.88939e-05 -1.73745e-05 9.61175e-06 6.46743e-05 6.44079e-05 -3.08217e-05 4.76764e-05 6.94476e-05 
-6.45546e-05 7.17625e-05 0.000104525 -0.000170535 9.88387e-05 3.63405e-05 1.66249e-05 1.97957e-05 -2.75454e-07 
0.000430878 -7.58168e-05 -1.32376e-15 -6.66016e-05 -6.26608e-05 -3.66681e-05 4.23597e-05 -0.00018877 9.394e-05 
0.000120266 -0.000193935 1.55937e-05 2.01141e-05 -4.65128e-05 -3.39689e-06 1.15409e-05 -9.60421e-05 -4.00917e-05 
8.44919e-05 6.16904e-05 0.000172207 -0.000163584 0.000152867 0.0001649 -0.000122708 0.000183641 9.78378e-05 
-0.000197672 0.000293627 4.57421e-05 -0.000120504 9.86772e-05 -5.27218e-05 -8.01745e-06 -5.4401e-06 5.24306e-05 
5.34806e-05 -7.40399e-05 0.000111041 0.000540449 -0.000352964 4.45356e-05 0.000453803 -0.000131405 -4.10735e-05 
0.000129568 -5.30458e-05 5.46913e-05 -0.000178037 -2.7831e-05 0.000225262 9.17561e-05 -4.92995e-05 6.1124e-05 
0.00012231 0.000109705 0.000223129 1.3223e-05 0.000161324 7.58064e-05 9.96488e-06 0.000121528 8.45449e-05 
-2.80524e-05 0.000132911 0.000104241 -5.89936e-06 6.73252e-05 1.67334e-05 0.00026038 -0.000330921 6.75079e-05 
0.000624496 -0.000190487 8.51939e-05 0.000185605 -4.07667e-05 2.53314e-05 4.94748e-05 -0.000115216 2.41712e-05 
2.32994e-05 3.42271e-05 0.000111391 -9.75402e-05 -0.000539648 -4.81416e-05 -4.75179e-05 -2.62224e-05 -2.29831e-05 
6.86844e-05 -9.10604e-05 0.000159722 0.000527868 -6.61315e-05 -4.61536e-05 0.000471555 -0.000316681 9.04017e-05 
0.000214721 -0.000124688 3.69874e-05 0.000153505 -0.000290515 -0.000197661 0.000130719 -0.000140726 0.000109078 
3.1159e-05 0.000223508 5.35394e-05 -0.000121255 -0.000335058 0.000650599 -2.9418e-05 -0.000269802 0.000317959 
0.000325017 -8.68167e-05 -1.87421e-05 0.00010448 -9.36904e-05 0.00026669 0.000452131 -0.000180992 5.8614e-05 
0.000271686 -0.000232819 6.78768e-06 0.000183484 -0.000200146 7.44473e-05 0.00028014 -0.00014428 9.88561e-05 
0.000351467 -0.00018766 8.48435e-05 -4.14154e-06 -0.000337553 1.76723e-05 -6.44485e-05 -0.000647657 5.24242e-05 
-4.31566e-05 -0.0004627 0.000101585 0.000291568 -0.000377299 -0.000454335 -7.56604e-05 -0.000517439 -2.15692e-06 
0.000408567 -0.000344619 -0.000263272 0.000238331 -0.00037865 -6.39115e-06 0.000424216 -0.000209817 -3.17392e-05 
0.000229863 -0.000168746 8.3441e-06 0.000267015 -0.00018357 -0.00012164 0.000179742 -0.000324867 7.24549e-05 
0.000235034 -0.00028956 0.000171837 0.000134084 -0.000232109 1.33805e-05 -4.85973e-05 -0.000459946 -0.000100905 
-0.000107613 0.000259822 -7.65189e-05 0.000372593 -0.000614879 -0.000559171 0.000477514 -0.000399169 -0.000492408 
0.000212544 -0.000197185 -0.000151009 0.000470917 -0.000169637 -0.000223574 0.000511768 -0.00031644 -0.000192654 
0.000320648 -0.000404727 2.02846e-05 0.000189357 -0.000391943 0.000121545 0.000143184 -0.000430574 -0.000445661 
0.000127524 -0.000259911 -0.000517604 2.74746e-06 -0.000307378 -0.000158239 0.000158295 -0.000197626 -4.02262e-05 
0.00017861 -0.000162365 -0.000136496 0.000256883 -9.77442e-05 -0.000115456 0.000299142 -5.92244e-05 -0.000169279 
0.000268992 -0.000107364 -0.000337053 6.75313e-05 0.000174916 8.60854e-05 0.0001929 0.000116582 4.54246e-05 
0.000249595 -0.000142502 -2.46693e-05 0.000177624 -0.00012354 -0.00015546 -7.10325e-05 -0.000360252 -0.000194102 
-5.0278e-05 -7.36347e-05 -0.000161457 0.000232789 -1.14567e-05 9.0998e-05 0.000269851 -6.33419e-05 -8.16583e-05 
0.000227639 3.2781e-05 1.70318e-05 0.000407895 -0.000424089 -1.02955e-05 6.27968e-05 0.000112129 0.000209306 
0.000201893 6.23002e-05 -6.36157e-05 0.00032623 8.65653e-05 -4.32613e-05 0.000400899 -9.20174e-05 -2.35359e-05 
0.000274906 -0.000143007 -0.000197844 -0.000163362 -0.000215653 1.63332e-05 -0.000197713 -0.000174555 -0.000254298 
0.000161508 6.72587e-05 3.32025e-05 0.000152263 -2.10838e-05 -4.16086e-05 0.000284553 4.58426e-05 -0.000106207 
0.000167714 0.000190527 -0.000233228 0.000165692 2.17379e-05 -9.05405e-05 0.000307956 1.32822e-05 -5.69366e-05 
0.000295217 -0.000176617 0.00022792 -3.29086e-05 -0.000188233 -2.45226e-05 -0.000100183 8.42072e-06 0.000179478 
-0.000124807 -0.000109151 -9.93974e-05 -0.000202941 0.000133598 7.01516e-05 -0.00011788 -0.000187504 0.000245654 
0.000161951 9.68278e-05 -0.000221875 -4.79677e-05 7.98515e-05 -0.000250756 0.000306112 -0.000179066 -2.76367e-05 
0.000221124 -0.000226338 4.96007e-05 0.000389672 -0.000480128 -9.4284e-05 4.8141e-05 6.13911e-06 0.000314011 
-0.000187233 0.000125022 0.000535632 -0.000155839 1.21458e-05 0.000329743 -0.000532173 0.000219993 0.000492908 
-0.000285159 0.000347405 1.08035e-05 -0.000105527 0.00029549 5.32198e-06 -0.000128194 -0.000337807 3.61732e-05 
0.000345999 0.000241482 8.32485e-05 0.000305318 -0.000245756 0.000248502 0.000431836 -2.55739e-05 0.000152394 