# vtk DataFile Version 4.0
Generated by LIGGGHTS
ASCII
DATASET POLYDATA
POINTS 509 float
-0.00436788 -0.0043832 0.000499224 -0.00341057 -0.00467025 0.000498817 -0.00244514 -0.00494501 0.000499548 
-0.00159579 -0.00417423 0.000499225 -0.000489754 -0.00497433 0.000499566 0.000294758 -0.00435541 0.000499435 
0.0013606 -0.00456477 0.000498601 0.00237309 -0.00464535 0.000498884 0.00372346 -0.00442213 0.000498454 
0.00467185 -0.00410472 0.000499524 -0.00460741 -0.00341226 0.000499048 -0.00363794 -0.00369713 0.000499078 
-0.00267411 -0.00397253 0.000498747 -0.00197664 -0.00325069 0.000499438 -0.000620915 -0.00395366 0.000498942 
-0.00100178 -0.00302869 0.000499791 3.38217e-05 -0.00319619 0.000499232 0.000947671 -0.00359906 0.000499663 
0.0019354 -0.00374731 0.000500048 0.00293592 -0.00380646 0.000499334 0.00442358 -0.00313665 0.000498974 
-0.00486658 -0.00243296 0.000499612 -0.00390003 -0.00270621 0.000498852 -0.00293947 -0.00298313 0.00049931 
-0.00176433 -0.00227293 0.000499033 -0.000347722 -0.00227312 0.000499287 0.000651269 -0.00231485 0.000499487 
0.00150778 -0.0027937 0.000690067 0.00248158 -0.00291114 0.00049885 0.00347643 -0.00281663 0.000499727 
0.0041797 -0.00210663 0.000499462 -0.00464774 -0.00145733 0.000499733 -0.00368652 -0.00172959 0.000500379 
-0.00271937 -0.00197982 0.000499102 -0.00201102 -0.00127503 0.000498158 -0.00297737 -0.00101187 0.000499227 
-0.00105301 -0.00156223 0.000499714 -8.54713e-06 -0.00133386 0.000499063 0.000991574 -0.00132322 0.000499288 
0.0018296 -0.0018669 0.000499127 0.00282388 -0.00197232 0.000499868 0.00241697 -0.00105791 0.000499216 
0.00341098 -0.00116384 0.000499543 0.00440919 -0.00112795 0.000499105 -0.0039419 -0.000749765 0.000499145 
-0.00321982 -4.11443e-05 0.000498738 -0.00225506 -0.000305485 0.00049934 -0.00128343 -0.0005898 0.000498919 
0.00038136 -0.000401992 0.000499699 0.00153906 -0.000477892 0.00049905 0.0030065 -0.000250664 0.000498992 
0.00495185 -0.000286724 0.000499336 -0.00418547 0.000220116 0.000499672 -0.00348195 0.000933101 0.000499071 
-0.00250059 0.000663644 0.000499065 -0.00153123 0.000384 0.000499763 -0.000554094 9.35138e-05 0.000498746 
0.000221626 0.000724198 0.000499512 0.00118478 0.000456548 0.000498715 0.00217112 0.000296636 0.000499803 
0.00295203 0.000923642 0.000499143 0.00384736 0.000288628 0.00049849 0.00473964 0.000737112 0.000498707 
-0.0044101 0.00113312 0.000839943 -0.00273591 0.00177874 0.000499706 -0.00170205 0.00142408 0.000499303 
-0.000767032 0.00106946 0.000499352 7.07461e-06 0.00170156 0.000498474 0.000969411 0.00143289 0.000499491 
0.00196006 0.00127301 0.000498855 0.00273896 0.00189999 0.000499358 0.00388226 0.00132525 0.000498542 
0.00481452 0.00173368 0.000499244 -0.00423423 0.00205402 0.000498474 -0.00455405 0.00300059 0.000499024 
-0.00350326 0.00273546 0.000499962 -0.00251386 0.00287613 0.000499376 -0.00151474 0.00286419 0.000499621 
-0.000927176 0.00205602 0.000498724 0.000719585 0.00240252 0.00049928 0.00170592 0.0022395 0.000499432 
0.00247186 0.00288118 0.000499198 0.00351049 0.00253595 0.00049849 0.00449871 0.00268273 0.000499135 
-0.00486538 0.00395117 0.000498759 -0.00382405 0.0036826 0.00049947 -0.00232794 0.00388035 0.000498368 
-0.00132468 0.00384534 0.000499556 -0.000533269 0.00305264 0.000499614 0.000484634 0.00337497 0.000499404 
0.00147095 0.00321433 0.000499578 0.00223279 0.00386255 0.000499568 0.00319053 0.00357538 0.000498682 
0.0041877 0.00363265 0.000499131 -0.00413194 0.0046339 0.000499684 -0.00315631 0.00439053 0.000725494 
-0.00147051 0.00483393 0.000499606 -0.000342146 0.00403363 0.000498947 0.000439903 0.00465573 0.000500667 
0.00141472 0.00443684 0.000499173 0.00296461 0.00454916 0.000499515 0.00396278 0.00460712 0.000499079 
0.0049103 0.00492514 0.000499128 -0.0045297 -0.0049417 0.00131604 -0.00380721 -0.00424895 0.0013158 
-0.00287428 -0.0046131 0.00133932 -0.00205238 -0.00484129 0.00186008 -0.00124173 -0.00463109 0.00131439 
3.58321e-05 -0.00482872 0.00134094 0.00196674 -0.00481735 0.00139516 0.00307206 -0.00467349 0.00121237 
0.0043391 -0.00470003 0.00123446 -0.0047676 -0.00396968 0.00131636 -0.00402001 -0.00326702 0.00131651 
-0.00306425 -0.00355842 0.0013197 -0.00211556 -0.00396193 0.00132688 -0.00144762 -0.00321963 0.0013737 
-0.000582145 -0.0038903 0.00149523 0.000412868 -0.00390377 0.00138467 0.0014063 -0.00398802 0.0013134 
0.00185326 -0.00314591 0.00161307 0.0024303 -0.00391962 0.00135371 0.00298823 -0.00301124 0.00135401 
0.00374291 -0.00359928 0.00106569 0.0043989 -0.0037227 0.00180908 -0.00498086 -0.00299301 0.00132535 
-0.00425598 -0.00212059 0.00122682 -0.00328967 -0.00237531 0.00121797 -0.0023327 -0.00266422 0.00122553 
-0.0010569 -0.00228051 0.00120402 -0.000322435 -0.00293069 0.0013941 0.000706053 -0.00295532 0.00126522 
0.00121754 -0.00203117 0.00127286 0.00228149 -0.00230995 0.00127175 0.0040678 -0.00268756 0.00131778 
-0.00386895 -0.00121228 0.00138185 -0.00289962 -0.00146638 0.00138628 -0.0019407 -0.00175723 0.00136936 
-0.00104902 -0.00131762 0.00147183 0.000165262 -0.00196962 0.001302 0.000522868 -0.00103682 0.00133379 
0.00170658 -0.00116177 0.00120752 0.0026578 -0.00139429 0.00140909 0.00352021 -0.0018589 0.00120901 
0.00476264 -0.00194511 0.00129488 0.00417961 -0.00115246 0.00147114 -0.00487602 -0.000882038 0.00128685 
-0.00377748 -0.000194009 0.00131372 -0.00281232 -0.000459203 0.00131533 -0.00184712 -0.000721169 0.00131285 
-0.00113001 -2.54253e-05 0.00132012 -0.00037932 -0.000657715 0.00113318 0.000983635 -0.000153046 0.00126421 
0.0023299 -0.000374987 0.00122345 0.00332317 -0.000648001 0.00136037 0.00430137 -0.000185096 0.00125165 
-0.0048149 0.000295842 0.00127728 -0.0039911 0.000726943 0.00164913 -0.00306814 0.000521144 0.00131036 
-0.00209836 0.000250507 0.00131501 -0.00134716 0.00094944 0.00130384 -0.000352358 0.000640993 0.00131354 
0.000477291 0.000479309 0.0018492 0.00175271 0.000216927 0.00178456 0.00235935 0.000858458 0.00131584 
0.00321743 0.000348018 0.00127115 0.00410685 0.000800139 0.00131748 -0.00419577 0.00174262 0.00160312 
-0.00327639 0.00149848 0.00129709 -0.00230173 0.00124867 0.00128465 -0.00163361 0.00172349 0.00186611 
-0.000563725 0.00161845 0.00131928 0.000417019 0.00133137 0.00133082 0.00136613 0.00100751 0.00131169 
0.00214731 0.0018353 0.00130291 0.00325711 0.0015019 0.00125818 0.00486398 0.00143714 0.00145722 
-0.00486795 0.00236639 0.0012048 -0.00294973 0.00245456 0.00129387 -0.00201424 0.00219726 0.00105191 
-0.00110977 0.0024666 0.00139194 -5.30412e-05 0.00246011 0.00114539 0.000809168 0.0029359 0.00133978 
0.00116163 0.0019987 0.0013043 0.00186154 0.00279254 0.00131715 0.00291573 0.00247412 0.00129806 
0.00408722 0.00205098 0.00115465 0.00444101 0.00265942 0.00186466 -0.00396951 0.00310555 0.00130328 
-0.00305173 0.00346896 0.00109784 -0.00356451 0.00380164 0.00192593 -0.00205741 0.00331493 0.00127499 
-0.00107361 0.00346586 0.00138974 -7.77258e-05 0.00351836 0.00131332 0.000879314 0.00392831 0.00123265 
0.00143252 0.0034599 0.00192453 0.00263571 0.00343311 0.00131636 0.00378574 0.00311664 0.00126398 
0.00481604 0.00331471 0.00120882 -0.00431408 0.00406861 0.00132261 -0.00360935 0.00474167 0.00154452 
-0.00273162 0.0042693 0.00162371 -0.00179787 0.00428029 0.00126628 -0.000815934 0.00446605 0.00126489 
-4.2019e-05 0.00433702 0.00188645 0.00100743 0.00492225 0.00127925 0.00183805 0.00418434 0.00136816 
0.00280186 0.00441031 0.0015059 0.00374121 0.00411306 0.00133867 0.00368509 -0.00498189 0.00194042 
0.00470672 0.00436814 0.00130291 -0.00411662 -0.0046498 0.00217822 -0.00345632 -0.00436302 0.00287284 
-0.00280415 -0.00406441 0.00217118 -0.00158171 -0.0046739 0.0027261 -0.000609483 -0.00468665 0.00209879 
0.000942519 -0.00449646 0.00208956 0.000514431 -0.00407694 0.0028895 0.000218054 -0.00498581 0.0025749 
0.00189346 -0.0040788 0.00218174 0.00265395 -0.00472465 0.00211863 0.0025826 -0.00411055 0.00290568 
0.00335694 -0.00403821 0.00192871 0.00495681 -0.00399641 0.00299646 0.00408597 -0.00428279 0.00257501 
0.00489339 -0.00457671 0.0020567 -0.00472465 -0.00345043 0.00220523 -0.0037468 -0.00372145 0.00216319 
-0.00379609 -0.00311581 0.00295699 -0.00223576 -0.00325524 0.00202544 -0.00141607 -0.00396587 0.00204047 
-0.00174116 -0.00348909 0.00286215 -0.000723562 -0.00394351 0.00276216 -0.000902709 -0.00312386 0.00220648 
1.12096e-05 -0.00352886 0.00221984 0.00100414 -0.00349884 0.00208691 0.00177591 -0.00320804 0.00265944 
0.00265125 -0.0033918 0.00221432 0.00362814 -0.00309481 0.00211734 0.00443598 -0.00316039 0.00270254 
-0.00414861 -0.00263683 0.00208125 -0.00447271 -0.0021044 0.00286843 -0.00318443 -0.00290024 0.00206194 
-0.00256169 -0.00211794 0.00206505 -0.002604 -0.00272816 0.00285698 -0.00162567 -0.00246366 0.00200502 
-0.00114911 -0.00239163 0.00288093 -0.000669512 -0.00201577 0.00208662 -0.000257631 -0.00284269 0.00291671 
0.000735637 -0.00296044 0.00288936 0.000258525 -0.00255003 0.0021124 0.00125715 -0.00253307 0.00213666 
0.00297522 -0.00223712 0.00198666 0.00259311 -0.00260896 0.00283222 0.00392723 -0.00215184 0.00227758 
0.00487226 -0.00244967 0.00215104 -0.00454449 -0.00157849 0.00202122 -0.00394152 -0.00125157 0.00275091 
-0.00352614 -0.00185488 0.00206664 -0.0028261 -0.00142471 0.00273539 -0.00166022 -0.00150209 0.0022932 
-0.0002163 -0.00112652 0.00200091 -0.000845123 -0.00136985 0.00285506 3.78889e-05 -0.00182903 0.00277042 
0.000737754 -0.00167342 0.00207401 0.000662866 -0.00108257 0.00299892 0.00186864 -0.00175621 0.00199408 
0.00164297 -0.0011973 0.00283739 0.00260337 -0.00159012 0.00265128 0.00338919 -0.00133152 0.00208761 
0.00454355 -0.00137116 0.0023758 -0.004289 -0.000611829 0.00206428 -0.00480975 -0.000790242 0.00292972 
-0.00331156 -0.000814791 0.00210979 -0.00380969 -0.000287327 0.00297263 -0.00231857 -0.000745396 0.00219271 
-0.00112243 -0.000650632 0.00221334 -0.000303393 -0.000130217 0.00197751 -0.00021258 -0.00059591 0.00285714 
0.000659696 -0.000172124 0.00258543 0.00122329 -0.000787107 0.00200119 0.00165607 -0.000188159 0.00269322 
[...]
POINT_DATA 509
FIELD FieldData 7
id 1 509 int
17 57 74 16 56 69 113 31 48 
91 108 72 7 89 133 18 107 70 
28 51 102 36 80 12 95 19 104 
97 22 14 29 88 60 45 78 15 
148 61 1 26 65 103 68 10 27 
94 110 105 62 96 82 46 43 101 
37 90 59 42 55 4 114 2 77 
93 54 21 40 25 53 23 35 58 
33 92 9 109 8 20 112 13 6 
5 47 52 38 67 32 3 34 39 
44 85 41 79 63 71 24 50 11 
30 81 87 49 144 164 146 176 149 
222 118 168 125 137 124 99 194 218 
190 116 162 197 153 155 206 173 179 
73 115 121 157 161 139 195 136 231 
170 64 128 181 76 202 214 86 123 
98 159 156 117 138 236 209 169 187 
75 147 160 171 211 127 165 120 212 
257 225 177 142 129 119 151 126 175 
207 174 145 66 140 208 84 152 134 
130 131 141 172 100 200 158 205 196 
122 277 106 154 143 183 238 166 83 
135 215 221 249 111 150 217 167 192 
216 203 223 132 220 371 229 331 319 
260 342 301 337 291 293 278 343 285 
334 248 242 356 219 188 307 340 320 
289 273 330 292 270 327 224 350 163 
193 276 199 345 254 394 329 275 245 
227 305 267 253 204 299 239 325 336 
233 283 240 258 338 256 310 316 266 
304 281 357 259 298 314 268 271 308 
288 263 302 210 344 296 243 261 213 
303 272 252 235 381 295 191 317 282 
186 361 185 389 393 287 230 198 348 
251 250 234 332 244 264 226 321 324 
265 379 237 246 294 279 184 189 286 
201 333 247 255 228 313 383 232 387 
280 312 262 311 318 178 315 241 269 
355 180 349 326 290 182 306 369 274 
328 297 373 352 452 396 385 377 418 
436 366 386 384 354 390 431 370 437 
300 347 309 443 374 413 378 417 441 
380 364 375 368 428 391 409 388 398 
284 382 339 323 362 341 424 359 438 
322 353 365 367 399 392 358 372 410 
335 414 403 444 433 420 363 395 448 
346 430 402 412 408 360 351 376 406 
423 422 429 416 419 415 400 425 426 
440 442 404 401 427 407 435 434 451 
446 405 449 439 507 480 468 486 458 
497 453 470 447 421 445 432 411 397 
450 506 500 498 505 456 501 503 477 
488 494 467 474 475 476 489 478 464 
455 509 469 490 499 454 473 472 485 
479 493 466 482 491 483 471 457 508 
481 487 461 496 495 459 492 465 504 
460 462 484 502 463 
type 1 509 int
1 1 1 1 1 1 1 1 1 
1 1 1 1 1 1 1 1 1 
1 1 1 1 1 1 1 1 1 
1 1 1 1 1 1 1 1 1 
1 1 1 1 1 1 1 1 1 
1 1 1 1 1 1 1 1 1 
1 1 1 1 1 1 1 1 1 
1 1 1 1 1 1 1 1 1 
1 1 1 1 1 1 1 1 1 
1 1 1 1 1 1 1 1 1 
1 1 1 1 1 1 1 1 1 
1 1 1 1 1 1 1 1 1 
1 1 1 1 1 1 1 1 1 
1 1 1 1 1 1 1 1 1 
1 1 1 1 1 1 1 1 1 
1 1 1 1 1 1 1 1 1 
1 1 1 1 1 1 1 1 1 
1 1 1 1 1 1 1 1 1 
1 1 1 1 1 1 1 1 1 
1 1 1 1 1 1 1 1 1 
1 1 1 1 1 1 1 1 1 
1 1 1 1 1 1 1 1 1 
1 1 1 1 1 1 1 1 1 
1 1 1 1 1 1 1 1 1 
1 1 1 1 1 1 1 1 1 
1 1 1 1 1 1 1 1 1 
1 1 1 1 1 1 1 1 1 
1 1 1 1 1 1 1 1 1 
1 1 1 1 1 1 1 1 1 
1 1 1 1 1 1 1 1 1 
1 1 1 1 1 1 1 1 1 
1 1 1 1 1 1 1 1 1 
1 1 1 1 1 1 1 1 1 
1 1 1 1 1 1 1 1 1 
1 1 1 1 1 1 1 1 1 
1 1 1 1 1 1 1 1 1 
1 1 1 1 1 1 1 1 1 
1 1 1 1 1 1 1 1 1 
1 1 1 1 1 1 1 1 1 
1 1 1 1 1 1 1 1 1 
1 1 1 1 1 1 1 1 1 
1 1 1 1 1 1 1 1 1 
1 1 1 1 1 1 1 1 1 
1 1 1 1 1 1 1 1 1 
1 1 1 1 1 1 1 1 1 
1 1 1 1 1 1 1 1 1 
1 1 1 1 1 1 1 1 1 
1 1 1 1 1 1 1 1 1 
1 1 1 1 1 1 1 1 1 
1 1 1 1 1 1 1 1 1 
1 1 1 1 1 1 1 1 1 
1 1 1 1 1 1 1 1 1 
1 1 1 1 1 1 1 1 1 
1 1 1 1 1 1 1 1 1 
1 1 1 1 1 1 1 1 1 
1 1 1 1 1 1 1 1 1 
1 1 1 1 1 
i 3 509 int
0 0 0 0 1 0 0 0 0 
0 0 0 0 0 0 0 0 0 
0 0 0 0 0 0 -1 0 0 
0 0 0 1 0 0 0 1 0 
0 0 0 0 0 0 0 0 0 
0 0 0 0 0 0 0 1 0 
0 0 0 0 0 0 -1 0 0 
1 1 0 1 1 0 0 0 0 
0 0 0 0 0 0 0 0 0 
0 0 0 0 0 0 0 0 0 
0 0 0 0 0 0 0 0 0 
0 0 0 0 0 0 0 0 0 
0 0 0 0 0 0 0 0 0 
0 0 0 0 0 0 0 0 0 
0 0 0 0 0 0 0 0 0 
0 0 0 0 0 0 0 0 0 
0 0 0 0 0 0 0 0 0 
0 0 0 1 0 0 0 0 0 
0 0 0 0 0 0 0 0 0 
0 0 0 0 0 0 0 0 0 
0 0 0 0 0 0 0 0 0 
0 0 0 0 0 0 0 0 0 
0 0 0 0 0 0 0 0 0 
0 0 0 0 0 0 0 0 0 
-1 0 0 0 0 0 0 0 0 
1 -1 0 0 0 0 1 -1 0 
0 0 0 0 0 0 0 0 0 
0 0 0 0 0 0 -1 0 0 
1 0 0 1 0 0 0 0 0 
0 -1 0 0 0 0 0 0 0 
0 0 0 0 0 0 0 0 0 
0 0 0 1 -1 0 0 0 0 
0 -1 0 0 -1 0 0 -1 0 
0 0 0 0 0 0 -1 -1 0 
-1 -1 0 0 1 0 1 0 0 
0 0 0 0 0 0 0 0 0 
0 1 0 0 1 0 -1 0 0 
0 0 0 1 0 0 0 0 0 
0 1 0 0 0 0 0 0 0 
0 0 0 0 1 0 0 0 0 
0 0 0 0 0 0 0 0 0 
0 0 0 0 0 0 1 0 0 
0 -1 0 0 0 0 0 0 0 
0 0 0 0 0 0 0 1 0 
0 0 0 0 0 0 0 0 0 
0 0 0 0 0 0 0 0 0 
0 0 0 0 1 0 0 0 0 
0 1 0 0 0 0 0 0 0 
-1 0 0 0 0 0 0 0 0 
0 0 0 0 0 0 0 0 0 
0 0 0 0 0 0 0 0 0 
0 0 0 0 0 0 0 0 0 
0 0 0 1 0 0 0 0 0 
0 0 0 0 0 0 0 0 0 
0 0 0 0 0 0 0 0 0 
0 0 0 0 0 0 0 0 0 
0 0 0 0 0 0 0 0 0 
0 0 0 0 0 0 0 0 0 
0 -1 0 -1 0 0 -1 0 0 
1 -1 0 0 0 0 0 0 0 
0 0 0 0 0 0 0 0 0 
0 0 0 0 -1 0 0 0 0 
0 0 0 0 0 0 0 0 0 
0 0 0 0 0 0 -1 0 0 
0 0 0 0 0 0 0 0 0 
0 0 0 0 0 0 0 0 0 
0 0 0 1 0 0 0 0 0 
0 0 0 0 0 0 0 0 0 
0 0 0 0 0 0 0 0 0 
0 0 0 0 -1 0 -1 1 0 
0 0 0 0 0 0 0 0 0 
0 0 0 0 0 0 0 0 0 
0 1 0 0 0 0 0 0 0 
0 0 0 0 1 0 0 0 0 
0 0 0 -1 0 0 -1 0 0 
0 1 0 1 0 0 0 0 0 
1 0 0 0 1 0 0 1 0 
0 0 0 0 0 0 0 0 0 
0 0 0 0 0 0 0 0 0 
0 0 0 0 0 0 0 0 0 
0 0 0 0 0 0 0 0 0 
0 0 0 0 0 0 0 0 0 
0 0 0 0 0 0 0 0 0 
0 0 0 0 0 0 0 0 0 
0 0 0 0 0 0 0 0 0 
-1 0 0 1 0 0 0 0 0 
0 0 0 0 0 0 0 0 0 
0 0 0 0 0 0 0 0 0 
0 0 0 0 0 0 0 0 0 
0 0 0 0 0 0 0 0 0 
-1 0 0 0 0 0 0 0 0 
0 0 0 0 0 0 0 0 0 
0 0 0 0 0 0 0 0 0 
0 0 0 0 0 0 0 0 0 
0 0 0 0 0 0 0 0 0 
0 0 0 0 0 0 0 0 0 
0 0 0 0 0 0 0 0 0 
0 0 0 0 0 0 0 0 0 
0 0 0 0 0 0 0 0 0 
0 0 0 0 0 0 -1 0 0 
-1 0 0 -1 0 0 0 0 0 
0 0 0 0 0 0 0 0 0 
0 0 0 0 0 0 0 0 0 
0 0 0 0 0 0 0 0 0 
0 0 0 0 0 0 0 0 0 
1 0 0 0 0 0 0 0 0 
0 0 0 0 0 0 0 0 0 
0 0 0 0 0 0 0 0 0 
0 0 0 0 0 0 0 0 0 
0 0 0 1 0 0 0 0 0 
0 0 0 0 0 0 0 0 0 
0 0 0 0 0 0 0 -1 0 
0 0 0 0 0 0 0 0 0 
-1 -1 0 0 0 0 0 0 0 
-1 0 0 1 0 0 0 0 0 
0 0 0 0 0 0 0 0 0 
0 0 0 0 0 0 0 -1 0 
0 0 0 0 0 0 -1 0 0 
1 1 0 1 1 0 0 0 0 
0 0 0 0 1 0 0 0 0 
1 0 0 0 0 0 1 0 0 
0 0 0 0 0 0 0 0 0 
0 0 0 0 0 0 0 0 0 
0 1 0 0 0 0 0 0 0 
0 0 0 0 0 0 0 0 0 
0 0 0 0 0 0 0 0 0 
0 0 0 0 0 0 -1 0 0 
0 0 0 0 0 0 0 0 0 
0 0 0 0 0 0 -1 0 0 
1 0 0 0 0 0 0 0 0 
0 0 0 0 0 0 0 0 0 
0 0 0 0 0 0 0 0 0 
0 0 0 0 0 0 0 0 0 
0 0 0 0 0 0 1 0 0 
0 0 0 0 0 0 0 0 0 
0 0 0 0 0 0 1 0 0 
0 0 0 0 0 0 0 0 0 
0 0 0 0 0 0 0 0 0 
0 0 0 0 0 0 0 0 0 
0 -1 0 0 0 0 0 0 0 
0 0 0 0 -1 0 0 0 0 
0 0 0 0 0 0 0 0 0 
0 0 0 0 0 0 0 0 0 
0 0 0 0 0 0 0 0 0 
0 0 0 0 0 0 0 0 0 
0 0 0 0 0 0 0 0 0 
0 0 0 0 0 0 0 0 0 
0 0 0 0 0 0 0 0 0 
0 0 0 0 0 0 0 0 0 
0 0 0 0 0 0 0 0 0 
0 0 0 0 0 0 0 0 0 
0 0 0 0 0 0 0 0 0 
0 0 0 0 0 0 0 0 0 
0 0 0 0 0 0 0 0 0 
0 0 0 0 0 0 0 0 0 
0 0 0 0 0 0 0 0 0 
0 0 0 0 0 0 0 0 0 
0 0 0 0 0 0 0 0 0 
0 0 0 0 0 0 0 0 0 
0 0 0 0 0 0 0 0 0 
0 0 0 0 0 0 0 0 0 
0 0 0 0 0 0 0 0 0 
0 0 0 0 0 0 0 0 0 
0 0 0 0 0 0 0 0 0 
0 0 0 0 0 0 0 0 0 
0 0 0 0 0 0 0 0 0 
0 0 0 0 0 0 0 0 0 
0 0 0 0 0 0 0 0 0 
0 0 0 0 0 0 0 0 0 
0 0 0 0 0 0 
v 3 509 double
0.000230914 -0.00140304 0.00133764 0.000430403 1.99463e-05 0.000659632 0.000523479 0.000244142 -4.08132e-05 
0.00152034 -0.000673309 -0.000747828 0.00125676 -0.00217875 -0.000156659 -0.000278344 -0.000341968 0.00030842 
-0.00119014 -0.000131725 0.00103909 -0.000362672 -0.00122268 0.000699618 -0.000632542 -0.00122936 -0.000876631 
-0.000652255 0.000128278 0.000265326 0.000304131 -0.000161429 0.000829689 -0.00223282 -0.0011746 -0.000279786 
-0.00180246 -0.000745852 -0.000705114 -0.000478105 -0.00275118 0.000227154 0.00264888 0.000703899 0.000923377 
-0.000923669 -0.000900117 -0.000837571 -0.00163575 -0.00257775 3.85468e-06 -0.000738952 -0.00126031 0.000500604 
-0.000629202 -0.000255105 0.00118121 0.00469966 0.00429227 -0.000624366 0.000827096 0.000528608 5.66745e-05 
0.000518511 -0.000665848 -0.000310602 -0.000577448 0.000292332 -5.11671e-05 -0.000717395 -0.00175843 -0.000295243 
0.0020392 -0.000812908 -0.000810354 0.000256379 -0.00122341 -0.000341399 -0.00204567 -0.00178536 -0.000369839 
-0.00135147 -0.000164492 -0.000323174 -0.000771474 -0.00047664 8.5036e-05 0.000313417 -0.00147436 0.000234063 
-0.00163002 0.00146891 0.000365348 -0.00054188 0.000641109 0.000761851 -0.000128625 -0.00043674 0.00067898 
0.000348161 -0.00108563 0.000790541 0.000882833 -0.00128413 0.000773644 -0.000219064 -0.00104765 -0.000330807 
0.00354417 4.75053e-06 0.000162988 -0.000451766 -0.00142885 -1.15559e-05 -0.00157382 -0.000680491 0.000238487 
-0.00193112 0.000473726 0.000580746 -0.00126481 -0.000517024 -0.000177668 -0.00075055 0.000122659 0.00022949 
-0.00180063 -0.000107907 -5.48945e-05 -0.00134527 -0.000164929 0.00133069 -0.000763109 0.000990184 -0.000429895 
-0.000551048 -0.000693376 0.00144448 0.000797009 -0.000981838 0.000346387 0.000399351 -2.10793e-05 0.000169316 
-0.000166051 0.00129801 -7.80777e-11 0.00168038 0.00125971 0.000103693 -0.000715156 0.000544465 -0.000614323 
0.000150437 -0.000397083 -0.000360118 0.000863719 0.00255886 -0.00035293 0.000922872 0.00285746 0.000843809 
0.00106814 -1.13973e-05 0.000134347 0.00152374 -0.000162117 -8.65322e-06 0.00126945 -0.000812287 0.000902932 
0.000502835 0.000282708 0.000174723 -0.000432879 -5.10223e-05 -0.000921135 -0.000807206 0.000203708 -0.000557096 
-0.00153892 -0.000161142 9.72186e-05 -0.00137109 0.000229102 -3.44591e-05 -0.00121197 -0.000521557 0.00247738 
0.00108252 0.00084396 0.0024619 0.000596037 0.00243981 -0.000114242 -0.000371882 -0.00141721 0.00291253 
0.00160713 0.000570325 0.0018385 0.00055379 0.00141279 0.000248327 -6.42799e-05 2.62545e-05 -0.000211911 
-0.00013895 0.000451089 0.000582574 -0.000198933 -0.000413099 0.00116308 -0.000946088 6.72774e-05 -0.000340795 
-0.000158345 0.00103131 0.000808141 -0.000556891 0.00150279 0.00142334 -0.00112122 0.00211775 0.000211874 
-7.43306e-05 0.000206094 0.000360841 0.00020246 0.000429703 -0.000347489 0.000551215 -0.00075408 -0.000409329 
-8.30615e-05 -0.000665206 -0.00138874 -0.00038596 0.00171717 -0.000105722 -3.79712e-05 0.000553292 2.29156e-05 
0.000845779 -0.00174138 -3.57988e-05 -5.0778e-05 -0.000205008 0.00102201 -1.33458e-05 0.000897103 0.000188818 
-7.49652e-07 0.000143256 -0.000444373 -0.00142639 0.00196356 -0.000351833 0.000647039 0.00149874 0.00207741 
-0.000918696 -0.000447639 0.000534034 0.000894661 0.000815246 -0.000212666 -0.00107417 0.00110598 0.000225038 
-0.000507939 0.000910331 0.000759506 0.00179494 1.01091e-05 0.000112657 0.000517442 -0.00171235 0.000694897 
-0.000659948 0.000919786 -0.000793939 -0.00228544 8.80232e-05 -0.000125041 -2.12845e-06 0.000125784 -2.81637e-05 
0.00049655 -0.000445596 0.000486309 0.000333541 0.000229771 0.000416797 4.68872e-05 -0.000676768 0.00077196 
0.000892889 0.000392741 0.000779943 -0.000896526 -0.0020028 -2.4291e-06 0.000176284 -0.000643271 -0.000638158 
0.000213287 0.000171715 -0.000816035 0.000137249 0.00326188 -0.000640945 0.00154852 0.00114219 0.00191065 
0.0012705 -0.00314326 0.0014898 0.00295072 -0.00293542 0.000233675 0.00182654 0.00307366 0.00032294 
-0.00210413 0.000872327 0.000124854 0.000663835 0.00209966 0.000675409 0.000857063 0.000805147 9.18136e-05 
-0.0034153 -0.00554724 -0.00280115 0.00106316 -0.000297462 0.00123332 0.000889745 0.00081752 0.00092116 
-0.000856765 -0.00040126 -0.00214786 0.000277516 -0.00127512 -0.00142407 -0.00144607 -0.000981589 -0.00256481 
0.00585615 0.000756131 0.00146015 -0.00303534 0.00101365 -0.0032357 -0.00220625 -0.000496301 0.00251982 
0.000386693 -0.000594901 0.000884447 0.00522667 0.00104091 0.000255787 0.000296879 0.00135996 -0.000516592 
0.000349256 1.05709e-05 0.000363925 0.000824417 0.00195753 0.00126922 0.0008126 0.000460706 0.00123004 
-0.00203771 -0.00370167 0.00190071 -0.00054537 -0.0011189 -0.000206489 -0.000137213 -0.00230076 -0.00042459 
0.00170178 0.00148003 0.00011242 0.00254088 0.00154052 0.00155929 0.0016591 0.000331606 0.00167368 
-0.00378063 0.000108208 0.000877492 -0.00174747 0.000333792 0.000274783 0.00187512 0.00159811 -0.000711445 
-0.00347156 -0.00151085 -0.00205882 -0.00322643 -0.000873273 -0.000580901 0.000539082 -0.00208273 -2.99537e-05 
-0.0031361 0.00173124 0.00129397 -0.00255268 -0.00320987 0.000187601 -0.00318795 -0.001557 0.000658062 
0.000555784 0.000152091 -0.000344456 -0.00164293 0.000190647 0.00123081 -0.00159528 -0.000344642 -2.23843e-05 
-0.00269504 -0.00168056 0.00188608 0.00131573 0.000255009 0.00423101 -0.00402462 0.00138407 -0.00749596 
-0.0011796 0.00198153 -0.00116093 -0.0013143 -0.00170396 -4.47408e-05 0.000329844 -0.000288923 -9.32001e-05 
0.000552896 -0.00286156 0.000466838 -0.00117549 -0.00239329 0.00121015 -0.00219528 2.91676e-05 -0.00069931 
0.00194932 0.000395498 0.00109453 0.000409457 0.00163568 0.000439142 -0.000458325 0.00182453 -0.000283828 
0.000832355 -0.000254456 -0.000599178 -0.000318056 0.00285076 0.00411862 -0.00261849 0.00223475 0.00248224 
0.00342224 -0.000180851 -0.000355817 0.000984862 -0.0020775 0.00298393 0.000380459 0.000514334 0.000437981 
-0.000497449 0.00186123 0.00115978 -0.000174887 -0.000738574 0.000545412 -0.00187748 2.54915e-05 0.000925081 
-0.00189146 0.000428611 0.000595653 -0.000239462 0.00170463 0.000245748 -0.000584793 -0.000188412 -0.00116668 
0.00244043 0.003955 -0.000984216 0.00192127 0.00248918 -0.0019504 -0.0021799 -0.00141025 0.00282908 
0.00480761 -0.000962328 -0.00580941 0.00135899 0.00204928 0.001939 -0.00206457 -0.00168668 -0.00138859 
0.000367817 0.000770079 0.000910255 -0.00102983 0.000123396 -0.00184425 -0.000113551 0.00124612 -0.00308915 
0.000319282 0.00233093 -0.000386948 -0.00175229 -0.0030134 -0.00361159 -0.00144351 -0.00126635 -0.00365478 
0.00415594 -0.00210545 0.000896632 0.00176808 0.00274371 -0.000856098 0.00529397 0.00170426 -0.000812965 
-2.92643e-05 0.0068423 -0.00172137 0.00304035 0.00203845 4.56921e-05 0.000402238 -0.000561983 0.00276193 
0.00173691 -0.000461763 0.000220625 0.000351612 0.00163846 -0.0013033 0.00167885 0.00224782 -0.00185669 
0.000209764 0.000634549 -0.00052814 -0.00362091 0.00086656 0.00544138 -0.000991056 0.00177468 0.00549877 
-0.00081155 -0.00122282 -0.000171064 0.0013292 0.0023225 0.00149783 0.000811652 0.00400247 -0.00226282 
0.00155755 0.0011039 0.00156889 -0.00097297 -0.0021412 0.00268773 0.00150558 0.000498286 -0.00167145 
-0.00251895 0.00137307 8.87751e-05 -0.00106539 -0.000406575 0.000206261 -0.00077518 -0.00132276 -0.000432459 
-0.00112042 -0.00328509 -0.00465435 -0.00200082 0.0049006 1.36692e-05 0.000633933 0.000560354 0.0012883 
-0.00122346 0.00220459 0.00204499 -0.00163062 0.00157349 0.00182702 0.00250856 0.00198611 0.0014959 
0.00407599 -0.00115598 0.000110849 0.00344552 -0.000886723 -0.00123887 0.00246462 0.000763725 0.00484567 
0.000722592 -0.000337337 -0.00111957 -0.00505436 0.00408701 0.00196469 -0.00333909 8.05506e-05 -0.00451572 
0.00176935 -0.000460339 -0.000389814 0.00418088 0.00176351 -0.00101473 0.00206082 -0.00295347 -0.00450776 
-0.00201644 0.00254855 0.00094713 0.00700107 0.00428012 -0.00616941 -0.00153909 0.00240252 0.00304444 
0.0033864 0.00508313 0.00147236 0.00326989 0.0022335 0.00192325 0.00851852 0.00104265 -0.00317129 
0.000654251 0.00280146 -0.0030742 0.00226033 -0.0116744 0.0139177 -0.00183164 0.0109032 0.0060199 
-0.00486892 0.00184141 -0.00272533 -0.00220807 -0.00139767 0.00854281 0.00228857 0.00180048 0.00224988 
-0.00703418 0.0101403 -0.00269509 -0.00076029 0.000774247 -0.00260708 0.00152835 0.000725921 -0.0021979 
-0.00462544 -0.00026894 -0.00170594 -0.000631485 -0.000627569 -0.00888389 -0.000137534 0.00398244 -0.00730095 
8.29431e-05 0.00547168 -0.00389734 -0.00109012 0.00180961 0.00252638 0.00136343 -0.00194828 -0.000806211 
0.00308471 0.00406444 0.00131527 0.00169321 0.00296067 -0.00129716 0.00591859 -0.00537383 -0.00863302 
0.00137144 -0.000567588 0.00142318 0.00609648 1.08398e-05 -0.00210619 0.00307781 -0.000390962 -0.00212738 
-0.00193321 0.00477689 -0.00402309 0.00926335 -0.00239999 -0.00732653 -0.00257904 0.00265782 -0.00320752 
0.00105764 0.00186667 -0.00621543 0.00218113 0.00149566 3.54904e-05 -0.00174481 -0.00125965 -0.00411273 
0.0028164 0.00418832 0.00494627 0.00267505 0.00241109 0.000734023 0.000532725 0.000489696 0.00330297 
0.000134294 0.00058407 -0.00172147 0.0110707 0.00237923 0.00543201 0.00107669 -0.00105715 -0.000750868 
0.00220301 0.0019337 0.00183484 -0.00322026 0.000366574 4.19237e-05 -0.00400689 -0.0104967 -0.00450706 
-0.00176216 0.00118296 -0.00110196 -0.00403141 0.00175154 -0.000859919 0.00502373 0.00158692 -0.00291705 
-0.00201002 0.000997705 0.00445443 0.00555498 0.00262523 -0.00318602 0.00580303 0.00256562 0.00172322 
0.00733187 0.00143642 0.00151733 -3.43014e-05 0.00400908 0.00359723 -0.000358603 0.000490822 0.00201881 
-0.00531236 0.00525099 -0.00127968 0.00557101 0.00742536 -0.00266922 0.00280185 -0.00110593 -0.00166798 
0.00369422 -0.00187342 0.00519084 -2.4832e-05 0.00127231 -0.0023297 -0.000970554 -0.0052452 -0.0036499 
-0.00201808 -0.0022355 -0.00300307 0.0011692 -0.0208986 -0.0251814 -0.00262697 -0.00456958 -0.00205118 
-0.000697341 0.00427858 0.00388863 0.00112245 0.000480401 0.00133194 0.00496549 0.0026109 0.0041152 
0.00496136 0.00309852 -0.000116606 -0.000696067 0.0070697 -0.00366053 0.0108621 -0.00489227 -0.00133543 
-0.000921005 0.00143891 0.00131913 0.000692331 0.00289659 -0.00116894 0.00138358 0.00249876 -0.000246957 
0.00175121 0.00378163 -0.00162468 -0.00279885 0.000972276 0.0037182 -0.00331 -0.00173344 0.00216631 
-0.00345101 -0.00557459 -0.00215428 -0.000851513 0.00311013 -0.00880859 0.00148546 0.00528765 0.000936043 
-0.00368555 -0.00181367 -0.000926413 0.00210598 0.00575846 -0.00236518 0.000590562 -0.00238059 0.00205246 
-0.00146607 0.0034494 0.00204022 -0.00246421 0.00342867 -0.000788987 -0.00251011 0.000615291 -0.00151349 
-0.000584005 -0.00118569 0.00199044 -0.000674193 0.0026409 0.00261964 -0.00436148 0.00336751 0.00792752 
-0.00393702 0.00474035 0.00500801 -0.021259 -0.00764034 -8.56963e-05 0.00158171 0.00772735 7.00242e-07 
-0.00283586 -0.00522177 0.00542079 0.003178 0.00170803 -0.000829314 0.00041669 -0.00273743 -0.00215914 
-0.00781417 -0.00968687 -0.00345969 -0.00642714 0.00337832 -0.00135843 -0.00393387 -0.000315191 -0.00917037 
0.000918511 -0.00679826 -0.006748 -0.00911863 0.00111774 -0.00142669 0.000455268 0.000182818 0.00316706 
-0.000959393 0.00132469 0.00233226 -0.000780512 0.00353668 0.00183356 -0.0006065 0.00977167 -0.000525269 
0.00250219 0.00169208 -0.00174168 -0.00322476 -0.000248654 0.00293642 -0.00151212 0.000202118 -0.0042499 
-0.00118105 0.00124993 0.00437081 -0.00448501 -0.00432705 0.00136131 0.00646915 -0.00447281 -0.000572955 
0.00262092 0.00122442 0.00106221 -0.00268593 0.00173513 -0.00071537 0.000546565 -0.000863331 -0.00618322 
0.00340905 -0.000416417 0.00139832 -0.00334271 -0.00327182 0.000758406 0.00436336 -0.00036918 0.00832031 
-0.000117156 0.00225115 0.00195159 -0.00894856 0.000210528 -0.00328306 -0.000377556 -0.00590161 -0.00040547 
-0.00533138 0.00515343 0.00648323 -0.0024085 0.00204756 0.00871997 -0.0121502 0.0483178 0.0125061 
0.00139578 -0.00337637 0.00610386 0.0019772 -0.00213579 -0.000477237 0.000870672 0.00286101 -0.00116655 
0.00602661 0.00276023 0.0104872 0.000163005 0.000917052 0.00259057 0.00125939 0.00219353 -0.000749273 
0.00838538 -0.0419223 -0.0475819 0.00368585 -0.00277927 0.000525832 0.00219161 0.00234468 0.00229059 
0.00825618 -0.00145197 -0.00245108 -0.00151059 0.000715651 -0.000851268 -0.00527123 0.00400195 0.00384674 
0.000601178 -0.00244299 -0.00206392 -0.00375935 -0.00373921 -0.00632173 4.48891e-05 -0.00112653 0.000678003 
-0.00347677 -0.00732632 -0.00761921 0.00333203 -0.00152226 -0.00198089 0.00487905 0.000530594 0.00139722 
0.00358797 0.000950758 8.12045e-06 -0.000828628 0.000647062 0.000446865 0.000697727 -0.00602364 0.00291308 
0.0218366 -0.00409712 0.00416765 0.00535384 -0.00785218 -0.00311255 0.00390045 -4.09485e-05 0.000383223 
0.00554595 0.0126353 -0.0166822 0.00896904 -0.00979822 -0.00198421 0.0358838 -0.0317555 0.0237831 
0.00104143 -0.0294351 0.00460971 -0.00142597 0.000618191 -0.000588648 -0.0118855 0.0124629 -0.0114872 
-1.16769e-06 -0.00243528 -0.00555371 0.00603468 0.00408606 -0.00616899 0.00665866 0.00634544 0.00794926 
-0.00725403 -0.0264867 0.0080431 0.00047993 0.0135493 0.00218677 -0.0362241 -0.0274767 -0.02765 
0.0122022 0.000729538 -0.00408156 0.0159777 -0.00194546 -0.00377679 0.00138285 0.00180939 0.00689795 
0.0100153 0.0033038 0.0120541 0.00499391 0.00450433 -0.00319726 0.0245297 0.000349598 0.00917443 
-0.00150367 0.00213626 -0.00739662 -0.00123621 0.00280132 -0.00723621 0.0099453 0.0134869 -0.00420294 
0.000428654 0.00566279 -0.00764929 0.00493583 0.0056532 0.000731828 0.00487355 -0.00335207 0.00784279 