# vtk DataFile Version 4.0
Generated by LIGGGHTS
ASCII
DATASET POLYDATA
POINTS 899 float
-0.00437911 -0.00438553 0.000498809 -0.00342189 -0.00467331 0.000498552 -0.00244265 -0.00494652 0.000499255 
-0.00161919 -0.00420537 0.000498518 -0.000495454 -0.00499119 0.000498845 -0.000640612 -0.00400208 0.000499266 
0.000288503 -0.00436961 0.000498666 0.00139305 -0.00456848 0.000498633 0.00240374 -0.00462019 0.000497841 
0.003717 -0.00441722 0.000497466 0.00466394 -0.00409658 0.000499204 -0.00460537 -0.00341181 0.000498051 
-0.00364169 -0.00369826 0.000498472 -0.00268212 -0.00397655 0.000498969 -0.00197356 -0.00327149 0.000499322 
-0.000995524 -0.00306801 0.000498518 2.9795e-05 -0.00324547 0.000498908 0.000954454 -0.00362473 0.000499467 
0.00194801 -0.00373154 0.000498106 0.00294628 -0.00378097 0.000498241 0.00443321 -0.00312439 0.000498896 
-0.00485003 -0.00242902 0.00049828 -0.00389142 -0.00271224 0.000498764 -0.00293294 -0.00299345 0.00049941 
-0.00273156 -0.00200793 0.000499414 -0.00177413 -0.00229221 0.000498371 -0.000343527 -0.00231232 0.000498918 
0.000654668 -0.00230493 0.00049839 0.00150486 -0.00280493 0.000656051 0.00248745 -0.00289081 0.000498782 
0.00348362 -0.00280882 0.000498988 0.0041833 -0.00209507 0.000498854 -0.0046495 -0.00145036 0.00049901 
-0.00369147 -0.00173246 0.000499805 -0.00200212 -0.0013097 0.000497624 -0.00296296 -0.00103342 0.000498932 
-0.00104595 -0.00160132 0.00049911 2.01058e-05 -0.00138229 0.000499307 0.001018 -0.00132733 0.000498524 
0.00185194 -0.00187685 0.00049863 0.00284842 -0.00195933 0.0004994 0.00242155 -0.00105532 0.000498226 
0.00341773 -0.00113845 0.000498432 0.00441596 -0.00109739 0.000499354 -0.00392598 -0.000760747 0.000497806 
-0.00319465 -6.16625e-05 0.000498369 -0.0022339 -0.000338134 0.00049847 -0.00125639 -0.000623205 0.000499595 
0.000359868 -0.000442363 0.00049895 0.00153591 -0.000472873 0.000498184 0.00299915 -0.000231682 0.000497879 
0.00494749 -0.000250791 0.000498588 -0.00416535 0.000208665 0.000498508 -0.00344884 0.00090476 0.000498539 
-0.00247379 0.000632521 0.000498975 -0.00149997 0.000346605 0.000499675 -0.000527333 6.08364e-05 0.000499412 
0.000211242 0.000735557 0.000499062 0.00117131 0.000458545 0.000498715 0.00215901 0.000308076 0.000499319 
0.00293843 0.000935125 0.000498465 0.00382555 0.000327856 0.000498064 0.00473942 0.000730265 0.000499029 
-0.00439885 0.00112786 0.00080994 -0.00271291 0.00171375 0.000498144 -0.00172173 0.00134358 0.000498876 
-0.000759953 0.00103277 0.000498115 -2.35909e-05 0.00170745 0.000497697 0.000937929 0.00143549 0.00049874 
0.00192494 0.00127892 0.000498889 0.00271101 0.00190751 0.000497702 0.00386362 0.00133698 0.000499699 
0.00478504 0.00172967 0.000499696 -0.00424204 0.00206345 0.00049907 -0.00350526 0.00273863 0.000499487 
-0.00251679 0.00288656 0.000497005 -0.00151936 0.00284648 0.00049883 -0.000975671 0.00200878 0.000499156 
0.000693222 0.00240411 0.000499186 0.00168074 0.00224762 0.00049866 0.00245724 0.00287633 0.000498882 
0.00348778 0.00253701 0.000497878 0.00447553 0.00268648 0.000497809 -0.00457658 0.00300461 0.000497922 
-0.00487849 0.00395775 0.000497599 -0.00384111 0.00368011 0.000499457 -0.0023071 0.00389701 0.000498291 
-0.00130859 0.0038219 0.000499332 -0.000535871 0.00302036 0.000498726 -0.000325036 0.00399665 0.000498286 
0.000456573 0.00337456 0.000497884 0.00144391 0.00321885 0.000499521 0.00222089 0.00384772 0.000498893 
0.00317927 0.00356751 0.000499603 0.00417507 0.00363851 0.000498657 -0.00414359 0.00463515 0.000499749 
-0.00315807 0.00438299 0.000691206 -0.00147489 0.00480598 0.000498173 0.000436142 0.00464263 0.000499452 
0.00141225 0.00443273 0.000498364 0.00294617 0.00453985 0.000499686 0.00394473 0.00461057 0.000499386 
0.00489191 0.00493021 0.000498092 -0.00455064 -0.00493472 0.00131532 -0.00381589 -0.00425065 0.00131303 
-0.00288343 -0.00463243 0.0013392 -0.00203929 -0.00483924 0.00183256 -0.00121706 -0.00465272 0.00129551 
4.54023e-05 -0.00486862 0.00132982 0.001984 -0.00483126 0.00137781 0.00308861 -0.00469626 0.00122042 
0.00346062 -0.00405844 0.00189302 0.00433505 -0.00468862 0.00123386 -0.00477295 -0.00396167 0.0013142 
-0.00403986 -0.00327634 0.00131055 -0.00308374 -0.00357022 0.00131919 -0.00212652 -0.00398034 0.00132908 
-0.00145641 -0.00323996 0.00136671 -0.000551292 -0.00393458 0.0014923 0.000443052 -0.00395327 0.00139266 
0.00143814 -0.00399572 0.00131493 0.00188324 -0.00314924 0.001603 0.00243796 -0.00394074 0.00134248 
0.00299552 -0.00300822 0.0013505 0.00375112 -0.00359234 0.00105851 0.00441218 -0.00365534 0.00180418 
-0.00499606 -0.0029877 0.00131331 -0.00424508 -0.00214493 0.00124047 -0.00328162 -0.00240869 0.00123151 
-0.00232967 -0.00271161 0.0012463 -0.00106018 -0.00233928 0.00119446 -0.00031137 -0.0029693 0.00139594 
0.000672918 -0.00299425 0.0012223 0.00123261 -0.00203531 0.0012663 0.00229703 -0.00229665 0.001288 
0.00405606 -0.00267403 0.00130682 -0.00385172 -0.00123577 0.00137163 -0.00286889 -0.00149005 0.00138215 
-0.00192182 -0.00180627 0.00135874 -0.00102517 -0.00138068 0.00147342 0.000153606 -0.0019887 0.00130317 
0.00053217 -0.00106434 0.00132985 0.00171481 -0.00116376 0.00119628 0.00266654 -0.00137698 0.00141113 
0.00353723 -0.00182628 0.00121202 0.00477816 -0.00193998 0.00128652 0.00422789 -0.00112925 0.00147995 
-0.0048368 -0.000845649 0.00127135 -0.00375706 -0.000204579 0.00131114 -0.00278959 -0.000483284 0.00131604 
-0.00180802 -0.000776602 0.0013193 -0.00110879 -6.39179e-05 0.0013294 -0.000376296 -0.000707866 0.00112004 
0.000956688 -0.000163628 0.00125016 0.00232269 -0.000369842 0.00121774 0.00339168 -0.000599684 0.00133956 
0.00428395 -0.000161368 0.00123946 -0.00478467 0.000318264 0.00127576 -0.00394163 0.000761483 0.0016193 
-0.00302946 0.000487368 0.00131637 -0.00206759 0.000215734 0.00131256 -0.00132917 0.000909098 0.00130888 
-0.000356806 0.000617202 0.00131212 0.000487287 0.000496885 0.00183295 0.00172511 0.00021298 0.00176444 
0.00233502 0.000864438 0.00131105 0.00320999 0.000381114 0.00128311 0.004108 0.000818299 0.00132 
-0.00416701 0.00177103 0.00153808 -0.00324846 0.00146209 0.0013018 -0.00228799 0.00118987 0.00130741 
-0.00161771 0.00169959 0.00184505 -0.000582769 0.00159108 0.0013181 0.000393303 0.00135472 0.00133234 
0.00134477 0.00101645 0.00130883 0.00212206 0.00184134 0.00130042 0.0032335 0.00151729 0.0012557 
0.00489228 0.00142429 0.00144903 -0.00489139 0.00236738 0.00119911 -0.00292288 0.00240573 0.00127074 
-0.00198835 0.00214572 0.00103264 -0.00110798 0.00247531 0.00137311 -6.44372e-05 0.00244752 0.00116642 
0.000781473 0.00294979 0.00134141 0.00113898 0.00201753 0.00130559 0.0018413 0.00280001 0.00131532 
0.0028973 0.00247183 0.00129947 0.00406533 0.00206385 0.00116143 0.0044878 0.00269457 0.00191011 
-0.00399059 0.00307976 0.00130399 -0.00306368 0.00347223 0.00109258 -0.00358683 0.00378757 0.0018826 
-0.0020418 0.00331416 0.00126344 -0.00106647 0.0034737 0.0014041 -7.15955e-05 0.00351116 0.00133371 
0.000831668 0.00394229 0.00122933 0.00261778 0.00343018 0.0013148 0.00383741 0.0030829 0.0012583 
0.00480622 0.00333265 0.00121036 -0.00437937 0.00408162 0.00135194 -0.00363075 0.00472512 0.00150278 
-0.00275071 0.00426578 0.00161389 -0.00180834 0.00428512 0.001283 -0.000820939 0.00443196 0.00124683 
-8.11211e-05 0.00432734 0.00191009 0.00102094 0.00492314 0.00127515 0.00178657 0.00418808 0.00139129 
0.00275615 0.00440328 0.00149569 0.00367517 0.00406814 0.00129351 0.00463245 0.00435531 0.00127354 
-0.00415396 -0.00461077 0.00218183 -0.00491973 -0.00404258 0.00291945 -0.00347145 -0.0043545 0.00287427 
-0.00278861 -0.00407631 0.00216356 -0.00147334 -0.0046938 0.00272683 -0.000605654 -0.00475241 0.00207844 
0.00054568 -0.00407734 0.00287419 0.000252513 -0.00497202 0.00253951 0.000992454 -0.00448248 0.00207743 
0.00192435 -0.00413505 0.00217571 0.00268322 -0.00478283 0.00212919 0.00258923 -0.00417571 0.00291972 
0.00338694 -0.004773 0.00284499 0.00412714 -0.00413536 0.00263366 0.00485908 -0.00450991 0.00206466 
-0.00468005 -0.00343868 0.00216032 -0.00371872 -0.00371274 0.00214889 -0.00218425 -0.00328992 0.00204829 
-0.00139894 -0.00399188 0.00202055 -0.00186077 -0.00376293 0.00287519 -0.000690681 -0.00399649 0.00272562 
-0.000887088 -0.00315139 0.00219327 3.0629e-05 -0.00354439 0.00220463 0.000762592 -0.00300321 0.00289944 
0.00101757 -0.00348385 0.00206199 0.00182803 -0.00323533 0.00259893 0.0027044 -0.00347447 0.00218466 
0.00363944 -0.0030997 0.0021083 0.00447368 -0.00313774 0.00265661 -0.00407365 -0.00264882 0.00208668 
-0.00435861 -0.0021346 0.00289524 -0.00311236 -0.00292095 0.00207874 -0.00253003 -0.00210893 0.00209133 
-0.00249227 -0.00278403 0.00285204 -0.00160412 -0.00247738 0.00202545 -0.00108326 -0.00232874 0.0028642 
-0.000581991 -0.00208091 0.00203232 -0.00022876 -0.002863 0.00288785 0.000304225 -0.00259131 0.00208579 
0.00130042 -0.00252866 0.00213128 0.00263864 -0.00267264 0.00277784 0.00302362 -0.00222504 0.00197101 
0.00364282 -0.0025557 0.00294536 0.00400688 -0.00210884 0.0021292 0.00495342 -0.00242962 0.00213969 
-0.00447998 -0.00161174 0.00205135 -0.00389969 -0.00125323 0.00278052 -0.00349146 -0.00183809 0.00208094 
-0.00277737 -0.00140832 0.00275932 -0.00163608 -0.00148914 0.00226167 -0.000205304 -0.00115227 0.00199901 
-0.000788948 -0.00137843 0.00277918 6.08065e-05 -0.00191316 0.00277817 0.000748 -0.0016966 0.00207182 
0.000654679 -0.00111641 0.00287943 0.00188554 -0.00173002 0.00200145 0.00164761 -0.00119485 0.00281181 
0.0026511 -0.0015628 0.00262105 0.00342722 -0.00129812 0.00205207 0.00461179 -0.00135273 0.00237552 
-0.00425895 -0.000636518 0.00205892 -0.00474675 -0.000712488 0.00292647 -0.0032851 -0.00085421 0.00210069 
-0.00229671 -0.000743471 0.00218928 -0.00275254 -0.00017871 0.00287623 -0.00110305 -0.000651493 0.0021514 
-0.0010148 -2.67858e-05 0.00292643 -0.000263562 -0.000152189 0.0019432 -0.000188953 -0.000583276 0.00284131 
0.000676773 -0.000174539 0.00254743 0.00123267 -0.000788443 0.00198713 0.00166821 -0.000203662 0.00267034 
[...]
POINT_DATA 899
FIELD FieldData 7
id 1 899 int
17 57 74 16 56 133 69 113 31 
48 91 108 72 7 89 18 107 70 
28 51 102 36 80 12 45 95 19 
104 97 22 14 29 88 60 78 15 
148 61 1 26 65 103 68 10 27 
94 110 105 62 96 82 46 43 101 
37 90 59 42 55 4 114 2 77 
93 54 21 40 25 53 23 35 58 
33 92 109 8 20 112 13 6 5 
47 52 9 38 67 32 3 34 50 
39 44 85 41 79 63 71 24 11 
30 81 87 49 144 164 146 176 149 
222 118 168 278 125 137 124 99 194 
218 190 116 162 197 153 155 206 173 
179 73 115 121 157 161 139 195 136 
231 170 64 128 181 76 202 214 86 
123 98 159 156 117 138 236 209 169 
187 75 147 160 171 211 127 165 120 
212 257 225 177 142 129 119 151 126 
175 207 174 145 66 140 208 84 152 
134 130 131 141 172 100 200 158 205 
196 122 277 106 154 143 183 166 83 
135 215 221 249 111 150 217 167 192 
216 203 132 220 343 371 229 331 319 
342 301 260 337 291 293 377 285 334 
248 242 219 188 307 340 320 289 329 
273 330 292 270 327 224 350 163 193 
276 199 345 254 394 275 245 305 227 
443 267 253 204 299 239 325 336 233 
283 240 258 338 256 310 316 266 304 
281 357 259 314 303 268 323 271 308 
288 263 302 210 344 191 296 243 261 
213 284 272 252 235 381 295 317 282 
186 361 185 393 389 287 230 198 348 
251 250 234 322 353 332 244 264 367 
226 321 324 379 265 392 237 246 294 
438 279 184 189 286 201 333 247 335 
255 241 228 313 383 232 387 280 312 
262 238 311 318 178 315 269 355 180 
349 326 290 182 306 369 274 328 223 
297 373 352 396 452 540 423 408 500 
385 431 446 449 418 436 437 356 366 
386 384 354 439 390 450 370 486 445 
488 300 397 422 347 309 429 380 432 
485 415 374 508 416 413 419 447 378 
417 441 467 407 364 475 375 498 298 
368 428 391 557 405 409 388 398 400 
359 451 382 339 425 455 362 489 341 
424 440 459 460 411 484 442 365 469 
426 399 509 358 463 404 435 454 410 
473 414 490 402 497 444 506 468 420 
372 480 401 395 448 346 562 430 403 
456 427 433 363 412 493 499 360 351 
507 376 434 406 491 578 560 563 524 
528 466 558 552 597 548 532 529 613 
541 479 503 601 561 482 546 536 623 
530 610 481 477 577 566 494 461 537 
471 616 554 587 571 556 496 522 620 
590 567 457 535 513 622 555 551 518 
585 574 487 476 511 495 547 591 504 
550 531 492 565 483 592 533 581 465 
596 579 502 542 464 519 543 462 470 
545 474 621 478 512 538 458 606 505 
611 619 580 453 526 615 527 553 609 
549 517 559 525 523 569 510 421 514 
520 600 544 539 521 501 472 534 515 
604 608 643 711 572 653 664 614 589 
652 637 658 598 672 651 583 712 632 
694 724 647 660 642 573 650 638 607 
709 575 716 731 646 669 692 714 726 
707 629 668 667 635 576 626 633 640 
654 673 603 688 679 703 594 715 663 
687 593 634 730 678 718 617 612 602 
657 697 645 729 691 618 648 624 662 
676 630 719 674 661 695 564 686 665 
644 704 568 586 721 584 666 725 689 
727 655 685 588 708 698 699 684 693 
582 706 627 639 631 599 670 705 625 
675 775 656 649 605 636 570 732 516 
671 595 762 659 677 710 641 797 767 
713 776 720 744 813 696 806 780 773 
747 700 765 752 804 778 789 741 701 
733 763 728 786 761 764 772 793 740 
795 816 760 846 682 817 750 805 737 
751 838 680 790 742 736 815 771 768 
690 812 628 781 811 723 787 779 683 
753 784 844 770 759 774 722 814 766 
782 826 739 785 821 681 800 757 756 
788 777 791 746 748 809 717 743 755 
754 734 738 837 825 745 769 702 783 
735 803 749 758 824 799 840 828 841 
836 792 801 823 829 845 819 822 808 
798 794 842 833 796 834 839 832 843 
818 830 820 802 835 827 810 831 807 
872 851 889 883 862 860 861 873 885 
870 857 853 850 876 878 891 847 863 
895 868 899 864 890 877 880 884 888 
852 869 858 898 866 854 874 896 894 
849 848 886 893 881 897 875 887 867 
882 856 892 859 879 855 871 865 
type 1 899 int
1 1 1 1 1 1 1 1 1 
1 1 1 1 1 1 1 1 1 
1 1 1 1 1 1 1 1 1 
1 1 1 1 1 1 1 1 1 
1 1 1 1 1 1 1 1 1 
1 1 1 1 1 1 1 1 1 
1 1 1 1 1 1 1 1 1 
1 1 1 1 1 1 1 1 1 
1 1 1 1 1 1 1 1 1 
1 1 1 1 1 1 1 1 1 
1 1 1 1 1 1 1 1 1 
1 1 1 1 1 1 1 1 1 
1 1 1 1 1 1 1 1 1 
1 1 1 1 1 1 1 1 1 
1 1 1 1 1 1 1 1 1 
1 1 1 1 1 1 1 1 1 
1 1 1 1 1 1 1 1 1 
1 1 1 1 1 1 1 1 1 
1 1 1 1 1 1 1 1 1 
1 1 1 1 1 1 1 1 1 
1 1 1 1 1 1 1 1 1 
1 1 1 1 1 1 1 1 1 
1 1 1 1 1 1 1 1 1 
1 1 1 1 1 1 1 1 1 
1 1 1 1 1 1 1 1 1 
1 1 1 1 1 1 1 1 1 
1 1 1 1 1 1 1 1 1 
1 1 1 1 1 1 1 1 1 
1 1 1 1 1 1 1 1 1 
1 1 1 1 1 1 1 1 1 
1 1 1 1 1 1 1 1 1 
1 1 1 1 1 1 1 1 1 
1 1 1 1 1 1 1 1 1 
1 1 1 1 1 1 1 1 1 
1 1 1 1 1 1 1 1 1 
1 1 1 1 1 1 1 1 1 
1 1 1 1 1 1 1 1 1 
1 1 1 1 1 1 1 1 1 
1 1 1 1 1 1 1 1 1 
1 1 1 1 1 1 1 1 1 
1 1 1 1 1 1 1 1 1 
1 1 1 1 1 1 1 1 1 
1 1 1 1 1 1 1 1 1 
1 1 1 1 1 1 1 1 1 
1 1 1 1 1 1 1 1 1 
1 1 1 1 1 1 1 1 1 
1 1 1 1 1 1 1 1 1 
1 1 1 1 1 1 1 1 1 
1 1 1 1 1 1 1 1 1 
1 1 1 1 1 1 1 1 1 
1 1 1 1 1 1 1 1 1 
1 1 1 1 1 1 1 1 1 
1 1 1 1 1 1 1 1 1 
1 1 1 1 1 1 1 1 1 
1 1 1 1 1 1 1 1 1 
1 1 1 1 1 1 1 1 1 
1 1 1 1 1 1 1 1 1 
1 1 1 1 1 1 1 1 1 
1 1 1 1 1 1 1 1 1 
1 1 1 1 1 1 1 1 1 
1 1 1 1 1 1 1 1 1 
1 1 1 1 1 1 1 1 1 
1 1 1 1 1 1 1 1 1 
1 1 1 1 1 1 1 1 1 
1 1 1 1 1 1 1 1 1 
1 1 1 1 1 1 1 1 1 
1 1 1 1 1 1 1 1 1 
1 1 1 1 1 1 1 1 1 
1 1 1 1 1 1 1 1 1 
1 1 1 1 1 1 1 1 1 
1 1 1 1 1 1 1 1 1 
1 1 1 1 1 1 1 1 1 
1 1 1 1 1 1 1 1 1 
1 1 1 1 1 1 1 1 1 
1 1 1 1 1 1 1 1 1 
1 1 1 1 1 1 1 1 1 
1 1 1 1 1 1 1 1 1 
1 1 1 1 1 1 1 1 1 
1 1 1 1 1 1 1 1 1 
1 1 1 1 1 1 1 1 1 
1 1 1 1 1 1 1 1 1 
1 1 1 1 1 1 1 1 1 
1 1 1 1 1 1 1 1 1 
1 1 1 1 1 1 1 1 1 
1 1 1 1 1 1 1 1 1 
1 1 1 1 1 1 1 1 1 
1 1 1 1 1 1 1 1 1 
1 1 1 1 1 1 1 1 1 
1 1 1 1 1 1 1 1 1 
1 1 1 1 1 1 1 1 1 
1 1 1 1 1 1 1 1 1 
1 1 1 1 1 1 1 1 1 
1 1 1 1 1 1 1 1 1 
1 1 1 1 1 1 1 1 1 
1 1 1 1 1 1 1 1 1 
1 1 1 1 1 1 1 1 1 
1 1 1 1 1 1 1 1 1 
1 1 1 1 1 1 1 1 1 
1 1 1 1 1 1 1 1 1 
1 1 1 1 1 1 1 1 
i 3 899 int
0 0 0 0 1 0 0 0 0 
0 0 0 0 0 0 0 0 0 
0 0 0 0 0 0 0 0 0 
-1 0 0 0 0 0 1 0 0 
0 1 0 0 0 0 0 0 0 
0 0 0 0 0 0 0 1 0 
0 0 0 0 0 0 -1 0 0 
1 1 0 1 1 0 0 0 0 
0 0 0 0 0 0 0 0 0 
0 0 0 0 0 0 0 0 0 
0 0 0 0 0 0 0 0 0 
0 0 0 0 0 0 0 0 0 
0 0 0 0 0 0 0 0 0 
0 0 0 0 0 0 0 0 0 
0 0 0 0 0 0 0 0 0 
0 0 0 0 0 0 0 0 0 
0 0 0 0 0 0 0 0 0 
0 0 0 1 0 0 0 0 0 
0 0 0 0 0 0 0 0 0 
0 0 0 0 0 0 0 0 0 
0 0 0 0 0 0 0 0 0 
0 0 0 0 0 0 0 0 0 
0 0 0 0 0 0 0 0 0 
0 0 0 0 0 0 0 0 0 
-1 0 0 0 0 0 1 -1 0 
0 0 0 1 -1 0 0 0 0 
0 0 0 0 0 0 0 0 0 
0 0 0 -1 0 0 0 0 0 
1 0 0 1 0 0 0 0 0 
0 -1 0 0 0 0 0 -1 0 
0 0 0 0 0 0 0 0 0 
0 0 0 0 0 0 1 -1 0 
0 0 0 0 -1 0 0 -1 0 
0 0 0 0 0 0 -1 -1 0 
-1 -1 0 0 1 0 1 0 0 
0 0 0 0 0 0 0 0 0 
0 1 0 0 1 0 -1 0 0 
0 0 0 0 0 0 1 0 0 
0 0 0 0 1 0 0 0 0 
0 0 0 0 0 0 0 1 0 
0 0 0 0 0 0 0 0 0 
0 0 0 0 0 0 0 0 0 
1 0 0 0 -1 0 0 0 0 
0 0 0 0 0 0 0 0 0 
0 1 0 0 0 0 0 0 0 
0 0 0 0 0 0 0 0 0 
0 0 0 0 0 0 0 1 0 
0 0 0 0 1 0 0 0 0 
0 0 0 -1 0 0 0 0 0 
0 0 0 0 0 0 0 0 0 
0 0 0 0 0 0 0 0 0 
0 0 0 0 0 0 0 0 0 
0 0 0 0 0 0 1 0 0 
0 0 0 0 0 0 0 0 0 
0 0 0 0 0 0 0 0 0 
0 0 0 0 0 0 0 0 0 
0 0 0 0 0 0 0 0 0 
0 0 0 0 0 0 0 0 0 
0 0 0 0 -1 0 -1 0 0 
-1 0 0 1 -1 0 0 0 0 
0 0 0 0 0 0 0 0 0 
0 0 0 0 0 0 0 -1 0 
0 0 0 0 0 0 0 0 0 
0 0 0 0 0 0 0 0 0 
-1 0 0 0 0 0 0 0 0 
0 0 0 0 0 0 0 0 0 
0 0 0 1 0 0 0 0 0 
0 0 0 0 0 0 0 0 0 
0 0 0 0 0 0 0 0 0 
0 0 0 0 -1 0 0 0 0 
0 0 0 0 0 0 0 0 0 
0 0 0 0 0 0 0 0 0 
0 0 0 0 0 0 0 1 0 
0 0 0 0 1 0 0 0 0 
0 1 0 -1 0 0 0 1 0 
1 0 0 0 0 0 0 1 0 
0 1 0 0 0 0 0 0 0 
0 0 0 0 0 0 0 0 0 
0 0 0 0 0 0 0 0 0 
0 0 0 0 0 0 0 0 0 
0 0 0 0 0 0 0 0 0 
0 0 0 0 0 0 0 0 0 
0 0 0 0 0 0 0 0 0 
0 0 0 0 0 0 0 0 0 
0 0 0 0 0 0 -1 0 0 
1 0 0 0 0 0 0 0 0 
0 0 0 0 0 0 0 0 0 
0 0 0 0 0 0 0 0 0 
0 0 0 0 0 0 0 0 0 
0 0 0 0 0 0 -1 0 0 
0 0 0 0 0 0 0 0 0 
0 0 0 0 0 0 0 0 0 
0 0 0 0 0 0 0 0 0 
0 0 0 0 0 0 0 0 0 
0 0 0 0 0 0 0 0 0 
0 0 0 0 0 0 0 0 0 
0 0 0 1 0 0 0 0 0 
0 0 0 0 0 0 0 0 0 
0 0 0 0 0 0 0 0 0 
0 0 0 0 0 0 -1 0 0 
-1 0 0 -1 0 0 0 0 0 
0 0 0 0 0 0 0 0 0 
0 0 0 0 0 0 0 0 0 
0 0 0 0 0 0 0 0 0 
0 0 0 0 0 0 0 0 0 
0 0 0 0 0 0 0 0 0 
0 0 0 1 0 0 1 0 0 
0 0 0 0 0 0 0 0 0 
0 0 0 0 0 0 0 0 0 
0 0 0 0 0 0 0 0 0 
0 0 0 0 0 0 0 0 0 
0 0 0 0 0 0 1 0 0 
0 0 0 0 0 0 0 0 0 
0 0 0 0 0 0 0 0 0 
0 -1 0 0 0 0 0 0 0 
0 0 0 0 0 0 -1 -1 0 
0 0 0 -1 0 0 1 0 0 
0 0 0 0 0 0 0 0 0 
0 0 0 0 0 0 0 0 0 
0 -1 0 0 0 0 -1 0 0 
0 0 0 -1 0 0 1 1 0 
0 0 0 1 1 0 0 0 0 
0 0 0 0 1 0 0 0 0 
0 0 0 0 0 0 0 1 0 
0 0 0 0 0 0 1 0 0 
0 0 0 1 0 0 0 0 0 
1 0 0 0 0 0 0 0 0 
0 0 0 0 0 0 0 0 0 
0 0 0 -1 1 0 -1 0 0 
0 0 0 0 1 0 0 0 0 
0 0 0 0 0 0 0 0 0 
0 0 0 0 0 0 0 0 0 
0 0 0 0 0 0 0 0 0 
0 0 0 0 0 0 0 0 0 
0 0 0 0 0 0 0 0 0 
0 0 0 0 0 0 0 0 0 
0 0 0 0 0 0 0 0 0 
-1 0 0 0 0 0 0 0 0 
0 0 0 0 0 0 0 0 0 
0 0 0 0 0 0 0 0 0 
0 0 0 -1 0 0 0 0 0 
0 0 0 0 0 0 0 0 0 
0 0 0 0 0 0 0 0 0 
0 0 0 0 0 0 0 0 0 
0 0 0 0 0 0 0 0 0 
0 0 0 0 0 0 0 0 0 
0 0 0 0 0 0 0 0 0 
0 0 0 0 0 0 0 0 0 
0 0 0 0 0 0 0 0 0 
0 0 0 0 0 0 0 0 0 
0 0 0 0 0 0 0 0 0 
0 0 0 1 0 0 0 0 0 
1 0 0 0 0 0 0 0 0 
0 0 0 0 0 0 0 0 0 
0 0 0 0 0 0 0 0 0 
0 0 0 0 0 0 0 0 0 
0 -1 0 0 0 0 0 0 0 
0 0 0 0 -1 0 0 -1 0 
0 0 0 0 0 0 0 0 0 
0 0 0 0 -1 0 0 0 0 
0 0 0 0 0 0 1 0 0 
0 0 0 0 0 0 0 0 0 
0 0 0 0 0 0 0 0 0 
0 0 0 0 0 0 0 0 0 
0 0 0 0 0 0 0 0 0 
0 0 0 0 0 0 0 0 0 
0 0 0 0 0 0 0 0 0 
0 0 0 0 0 0 0 0 0 
0 0 0 -1 0 0 0 0 0 
0 0 0 0 0 0 0 0 0 
0 0 0 0 0 0 0 0 0 
0 0 0 0 0 0 0 0 0 
0 0 0 0 0 0 0 0 0 
0 0 0 0 0 0 0 0 0 
0 0 0 0 0 0 0 0 0 
0 0 0 0 0 0 0 0 0 
0 0 0 0 0 0 0 0 0 
0 0 0 0 0 0 0 0 0 
0 0 0 0 0 0 0 0 0 
0 0 0 0 0 0 0 0 0 
0 0 0 0 0 0 0 0 0 
0 0 0 0 0 0 0 0 0 
0 0 0 0 0 0 0 0 0 
0 0 0 0 0 0 1 0 0 
0 0 0 0 0 0 0 0 0 
0 0 0 0 0 0 0 0 0 
0 0 0 0 0 0 0 0 0 
0 0 0 0 0 0 1 0 0 
0 0 0 0 0 0 0 0 0 
0 0 0 0 0 0 0 0 0 
0 0 0 0 0 0 0 0 0 
0 0 0 1 -1 0 0 0 0 
0 0 0 0 0 0 0 0 0 
0 0 0 0 0 0 0 0 0 
0 0 0 0 0 0 0 0 0 
0 -1 0 1 0 0 0 0 0 
0 0 0 0 0 0 0 -1 0 
0 0 0 0 0 0 0 0 0 
0 0 0 0 1 0 0 0 0 
0 0 0 0 0 0 0 0 0 
0 0 0 0 0 0 0 -1 0 
0 0 0 0 1 0 0 0 0 
0 0 0 0 0 0 0 0 0 
0 0 0 0 1 0 0 0 0 
0 0 0 0 0 0 0 0 0 
0 1 0 0 0 0 0 0 0 
0 0 0 0 0 0 0 0 0 
0 0 0 0 0 0 0 0 0 
0 0 0 0 0 0 0 0 0 
0 0 0 -1 0 0 0 0 0 
0 0 0 0 0 0 0 0 0 
0 0 0 0 0 0 0 0 0 
0 0 0 0 0 0 0 0 0 
-1 0 0 0 0 0 0 0 0 
0 0 0 0 0 0 0 0 0 
0 0 0 0 0 0 0 0 0 
0 0 0 0 0 0 0 0 0 
0 0 0 0 0 0 -1 0 0 
0 0 0 0 0 0 0 0 0 
0 0 0 0 0 0 0 0 0 
0 0 0 0 0 0 0 0 0 
0 0 0 0 0 0 0 0 0 
0 0 0 0 0 0 0 0 0 
0 0 0 0 0 0 0 0 0 
0 0 0 0 0 0 0 0 0 
0 0 0 0 0 0 0 0 0 
0 0 0 0 0 0 0 0 0 
0 0 0 0 0 0 0 0 0 
0 0 0 0 0 0 0 0 0 
0 0 0 0 0 0 0 0 0 
1 0 0 0 0 0 1 0 0 
0 0 0 0 0 0 0 0 0 
0 0 0 0 0 0 0 0 0 
0 0 0 -1 0 0 0 0 0 
0 0 0 0 0 0 0 0 0 
0 0 0 0 -1 0 0 0 0 
0 0 0 0 0 0 0 -1 0 
0 0 0 0 0 0 0 -1 0 
0 -1 0 0 -1 0 1 0 0 
0 0 0 0 0 0 0 1 0 
0 0 0 0 0 0 0 0 0 
0 0 0 0 0 0 0 0 0 
0 1 0 0 0 0 0 0 0 
0 0 0 0 0 0 0 0 0 
0 0 0 0 0 0 0 0 0 
0 0 0 0 0 0 0 0 0 
0 0 0 0 0 0 0 0 0 
0 0 0 0 0 0 0 0 0 
0 0 0 0 0 0 0 0 0 
0 0 0 0 0 0 0 0 0 
0 0 0 0 0 0 0 0 0 
0 0 0 0 0 0 0 0 0 
0 0 0 0 0 0 0 0 0 
0 0 0 0 0 0 0 0 0 
0 0 0 0 0 0 0 0 0 
0 0 0 0 0 0 0 0 0 
0 0 0 0 0 0 0 0 0 
0 0 0 0 0 0 0 0 0 
0 0 0 0 0 0 0 0 0 
0 0 0 0 0 0 0 0 0 
0 0 0 0 0 0 0 0 0 
0 0 0 0 0 0 0 0 0 
0 0 0 1 0 0 0 0 0 
0 0 0 0 0 0 0 0 0 
0 0 0 0 0 0 0 0 0 
0 0 0 0 0 0 0 0 0 
0 0 0 0 0 0 0 0 0 
0 0 0 0 0 0 0 0 0 
1 0 0 0 0 0 0 0 0 
0 0 0 0 0 0 0 -1 0 
0 0 0 0 0 0 0 0 0 
0 0 0 0 0 0 0 -1 0 
0 0 0 0 0 0 0 0 0 
0 0 0 0 0 0 0 0 0 
0 0 0 0 0 0 0 0 0 
0 0 0 0 0 0 0 0 0 
0 0 0 0 0 0 0 0 0 
0 0 0 0 0 0 0 0 0 
0 0 0 0 0 0 0 0 0 
0 0 0 0 0 0 0 0 0 
0 0 0 0 0 0 0 0 0 
0 0 0 0 0 0 0 0 0 
0 0 0 0 0 0 0 0 0 
0 0 0 0 0 0 0 0 0 
0 0 0 0 0 0 0 0 0 
0 0 0 0 0 0 0 0 0 
0 0 0 0 0 0 0 0 0 
0 0 0 0 0 0 0 0 0 
0 0 0 0 0 0 0 0 0 
0 0 0 0 0 0 0 0 0 
0 0 0 0 0 0 0 0 0 
0 0 0 0 0 0 0 0 0 
0 0 0 0 0 0 0 0 0 
0 0 0 0 0 0 0 0 0 
0 0 0 0 0 0 0 0 0 
0 0 0 0 0 0 0 0 0 
0 0 0 0 0 0 0 0 0 
0 0 0 0 0 0 0 0 0 
0 0 0 0 0 0 0 0 0 
0 0 0 0 0 0 
v 3 899 double
2.4557e-05 -7.27989e-05 -0.000167399 0.000281692 -0.000162556 -0.000334728 0.00042934 2.08609e-05 -9.29778e-06 
0.000298297 0.00039005 -0.000252255 -0.000217566 0.000104022 -0.000546599 -0.0001877 0.000161281 -5.16232e-05 
-5.5873e-05 0.000359681 5.30361e-05 0.000350396 -1.7043e-06 -0.0006079 -0.000799147 -0.000472667 -0.000224576 
-0.000484113 -0.000266692 5.05555e-05 -0.000230533 -0.000129429 -0.000124559 0.000156169 -1.37259e-05 -0.00017725 
0.000132705 -5.34488e-05 -0.000443754 0.000246055 0.000176084 -7.32169e-05 -3.61744e-05 8.22397e-05 -0.000498999 
8.77913e-05 -0.000125001 -0.000254246 -8.60591e-05 -0.00127741 0.000193006 0.000413512 0.000336087 -9.29535e-05 
8.11017e-05 -0.000364303 -6.8551e-05 -0.000171419 -8.13234e-05 0.00010519 -0.000159457 -0.000180485 -8.7199e-06 
-6.92963e-05 -0.000170151 -0.000400858 -8.19252e-05 -0.000154714 -0.000246551 7.77169e-05 -2.30611e-05 -0.000349758 
0.000281535 5.92159e-05 0.000248625 0.000260552 -0.000531856 -9.14099e-05 0.000127725 -0.000614758 -6.86e-05 
-8.80221e-06 -0.000296032 -4.15883e-05 0.000242033 9.32387e-05 9.98995e-05 0.000187206 9.78494e-05 9.97101e-05 
1.85011e-05 -0.000130271 -0.000196429 -3.557e-05 -1.66565e-05 -0.000395006 -0.000139528 -0.000448871 -0.000129974 
0.00021953 -5.2972e-05 3.94443e-05 -0.000306965 -0.000596516 -0.000247268 -0.000379731 -0.000589781 0.000111578 
3.06947e-05 -0.000191328 3.2336e-05 0.000187543 -0.000435041 3.05233e-05 -8.06443e-05 -0.000286883 -0.000153775 
-9.16349e-05 -0.000252368 -0.000355726 -8.76981e-05 5.96713e-05 3.68906e-06 -9.51579e-05 -8.64895e-05 -0.000272804 
0.000264346 0.000130802 -0.000167174 -7.2532e-05 -0.000278782 -7.521e-05 0.000838753 -0.000319904 -0.000113429 
9.524e-05 0.000154934 0.000152643 -0.00022565 5.42688e-05 -0.000308216 -0.000720863 -3.86099e-05 -3.37418e-05 
-0.0001255 -0.00015748 -4.3525e-05 -0.00037867 -6.32758e-05 -0.000112607 0.000366323 -0.0001788 -0.000173711 
0.000465767 -0.00057335 0.00025837 0.000335101 -0.000115099 -0.000205502 -0.000485923 -0.000160695 6.31046e-05 
-7.08232e-05 -0.000226147 -0.000167222 -8.00832e-06 -7.70475e-05 2.59869e-05 0.000110243 -0.000320658 -0.000759277 
-3.47061e-05 6.92304e-05 -0.000480839 -0.000224308 0.0001324 -3.68768e-05 -0.000163449 -5.77872e-05 0.000124871 
0.000424806 9.36361e-05 0.000139078 0.000408768 -0.000398636 -9.62943e-05 0.000163505 -0.000756087 -0.000150058 
-0.000292359 -0.00049182 0.000304166 -0.000990035 0.000175688 0.00023714 0.000126256 -0.000267297 -0.000159682 
0.000218595 -0.000286319 -0.000440634 -0.000213578 0.000483136 -2.90355e-05 2.97983e-05 0.000558707 -0.000240422 
-7.35498e-05 0.00017012 -0.000228407 -7.47884e-05 0.000329817 -0.000316472 -0.000168903 -0.000426732 -2.13148e-06 
0.000535804 0.000526748 -3.56025e-06 -0.000396232 3.73474e-05 0.000524055 0.000170321 -0.000746454 0.0002909 
-0.000225758 -0.000554986 0.000390736 -0.000634925 0.000430045 1.56014e-07 -0.000363896 0.000123311 0.000137987 
-8.77448e-05 0.000390102 -0.000258054 -0.000117447 0.000115426 -0.000320129 -4.77712e-05 0.000333718 7.1661e-05 
-8.10243e-06 9.27552e-05 -0.000195975 0.00034025 -0.000338757 6.24627e-05 0.000477838 -0.000179997 -0.000112835 
2.68783e-05 -0.000120039 -8.88275e-05 0.000572568 -0.000212825 -0.000419454 0.000318494 -0.000145989 -1.58326e-05 
-0.000334528 0.000286101 -0.00025 -0.000753879 0.000357839 3.5694e-05 -0.00023659 0.000242155 -0.000450097 
0.000232529 0.000653293 -0.000642427 -0.000108295 0.000346577 -0.000508937 0.000419539 0.000372299 -0.000452605 
0.000199967 -4.0981e-05 -0.000130638 0.000301876 -0.000271713 -0.00021089 0.00044507 -0.000340711 -0.000112456 
0.000576509 -0.000131287 -0.000224992 0.000347998 0.000536645 -0.000142059 1.28997e-05 0.000284444 0.00013401 
0.000819616 0.000627614 -0.000130573 -0.000331396 -0.00041742 -0.000103174 -0.000222551 -0.00033631 -0.000381027 
-0.000108981 -0.000138067 -0.000124418 -0.000326124 0.000185853 -7.54842e-06 0.000268969 -0.000365145 -0.000593324 
0.000890328 0.000143501 -0.000450429 0.000736252 1.68719e-06 0.000239381 0.00097849 9.2688e-05 -0.000400416 
0.000268378 -0.000502607 -0.000421566 -0.000257858 -0.00023758 0.000272897 -0.000947229 0.000149924 0.00068995 
-0.000371953 0.000421699 0.000571594 -0.000632275 -0.000231149 -0.000252739 -0.000227123 -6.49327e-07 -0.000467648 
0.000577847 -0.000240512 -0.000640161 0.000313899 -0.000147611 -0.000398086 0.00137484 -0.000881949 -9.20771e-05 
0.00114458 -0.000967131 1.88515e-05 0.00138977 -0.00153742 0.000457987 0.00182708 -0.0018626 0.000998904 
0.00104386 -0.0013142 -0.000525614 0.000649791 -0.000970511 -0.000727753 0.000336407 -0.00089967 0.000211707 
-0.000311065 6.16067e-05 5.79846e-05 -0.000332027 -5.57352e-05 0.000184734 -0.000411241 7.84282e-05 -0.000242815 
-2.33921e-05 -4.11928e-05 -6.62366e-05 -0.000310895 -0.000135329 -0.000635421 -0.000237563 -0.00076683 0.000173733 
0.000400714 -0.000852987 -0.000123754 0.000145407 -0.00115051 -0.000123184 0.000183247 -0.00201524 0.000869454 
7.77577e-05 -0.000232609 7.3031e-05 6.24224e-05 -0.000721562 -0.000173952 -0.00031242 -0.000364947 -0.000454344 
-0.000732598 -2.10002e-05 -0.000146274 0.00107636 -0.000704322 -0.000644927 -0.000241829 -0.00169626 -0.000280402 
0.000353804 -0.000397552 9.12559e-06 0.000363246 -0.000642127 -0.000295364 -0.000120755 -0.00105393 0.000448398 
-7.24294e-05 -0.000749496 2.29187e-05 -0.000148676 -0.000298873 -0.000484247 -0.000219562 0.000120188 -0.000778906 
-0.000266091 -0.000296272 -0.000123798 -8.65693e-05 -0.000151281 -0.00107347 5.6777e-05 -0.000737765 0.000171285 
0.000113189 -0.00121121 2.10497e-05 -5.4703e-05 0.000453405 0.000155734 -3.33759e-05 0.00052867 -0.000135617 
-0.000779464 -0.000514718 -0.000517984 -0.000252325 -0.00090599 -0.00125238 -0.00014338 -0.000491284 -0.000653332 
-1.74131e-06 -0.000106285 -0.000199664 -7.82013e-05 0.00089547 -0.000969344 0.000867544 -0.00049688 -0.000879555 
0.000844276 -0.000621412 0.000199293 -0.000419172 0.000115187 -0.000646761 -0.000908371 -0.0010109 -0.000430043 
7.06371e-05 -2.0817e-06 -0.000200269 0.000282626 -0.000391563 -0.00103531 0.000720725 -0.000558702 -0.000835259 
0.000590247 2.99842e-05 -0.000994971 0.000340371 0.000129981 -0.00108627 0.00055216 0.000773435 -0.0012424 
0.000754528 0.000163138 -0.000869188 0.000853261 -0.000555973 -3.80576e-05 0.000255804 -0.000350146 -0.000218773 
-0.000499503 -0.00196277 0.00118138 9.74253e-05 -0.0013906 0.00070138 0.000824604 -0.000693533 -0.000440155 
0.00063392 0.000447917 -0.00155559 -0.000364735 -0.000585649 -0.000189771 0.000494383 0.000289579 -0.000685325 
-9.37554e-05 0.000491572 2.30211e-05 0.00017775 4.47238e-05 -0.000574859 0.000939202 4.57957e-05 -0.000878478 
-0.000764078 -0.000923852 0.000270932 0.000630472 -0.0011266 6.85807e-05 -0.00048544 -0.00172105 0.00058757 
-0.000588455 -8.25605e-05 -5.16198e-05 -0.000409268 0.000538477 0.00029222 -0.000129741 0.00100145 -0.000317799 
0.000122557 0.000351005 -0.00111156 0.000111846 0.000100762 -0.000630827 -0.000152897 8.86405e-05 -0.00071526 
0.000152816 5.68362e-05 -0.000390865 8.00507e-05 0.000257531 0.000883688 0.000305371 -0.000797754 -0.000785492 
-6.04773e-05 0.000481913 -0.000569826 -0.000314577 -0.000489089 -8.40338e-05 0.000147639 -9.08756e-06 -0.000524721 
0.000118869 0.000395512 7.51026e-05 0.000228473 0.000748598 -0.000818392 0.000140554 0.00151484 -0.00112931 
0.00193429 -0.000273181 -0.00121594 -0.000392563 0.000956828 -0.000231115 -7.96439e-05 -0.000549515 -0.000872586 
0.000334524 -0.000477816 -0.000569019 0.000263818 0.000480268 -0.000157854 0.00029818 0.000131334 -0.000534456 
0.000169151 0.000119743 -0.00101671 0.000490591 0.000877399 0.000395671 0.000149831 0.000801222 -0.000504615 
0.000242765 0.00150954 -0.00118911 -0.000246299 9.11623e-05 7.88571e-05 0.000256521 0.000948205 0.000309021 
-7.64106e-05 0.000401781 0.00115027 -0.000582319 -0.000329906 -0.00101755 -0.000548784 -0.000542199 -0.000532744 
0.000133759 -0.000860068 -0.00135049 0.0015722 -0.00103506 -0.00199861 8.80533e-05 -0.000590374 -0.00133784 
0.00110266 -0.00118468 -0.000268916 0.000525806 0.000619801 0.00127988 -5.45043e-06 0.000649356 0.000497626 
0.000143713 -0.00131465 0.00270226 0.00120279 0.000127234 -0.000912929 0.000109078 -0.00180479 0.00167232 
-0.000275411 9.45384e-05 0.000563921 6.37293e-05 0.000584311 0.00167196 0.000528025 0.00127167 0.000169578 
-0.000272979 -6.92844e-05 0.000204115 0.000397416 -3.88593e-05 7.83088e-06 -0.000291674 -0.000596119 -0.00111216 
-1.91087e-05 -0.000135445 -0.00115234 0.000303323 -0.000530392 -0.00116808 0.00119808 -0.000567996 0.000200177 
0.00123979 -0.000678513 -0.000444844 0.000516581 0.000189916 -0.00176506 0.000576332 0.00207026 -0.00081098 