FoamFile
{version 2.0; format ascii;class vectorField; location 0;object  v;}
349
(
( -2.46523e-06 -1.63219e-06 -1.46102e-05 )  
( -1.70022e-06 1.59324e-06 -6.99536e-06 )  
( 1.84984e-06 1.3779e-06 -1.32812e-05 )  
( 4.16033e-07 -3.06394e-07 -1.29565e-05 )  
( 2.05671e-06 -1.25603e-06 -8.41625e-06 )  
( -1.73942e-07 1.76912e-07 -1.17118e-05 )  
( 5.93835e-07 1.50872e-06 -1.03016e-05 )  
( 6.02794e-07 -1.18901e-06 -1.25677e-05 )  
( 7.69482e-06 7.71718e-06 3.97611e-07 )  
( 4.97885e-07 2.18784e-06 -1.36271e-05 )  
( -1.42649e-06 -1.95958e-08 -1.35269e-05 )  
( 1.38875e-06 4.77339e-07 -1.08861e-05 )  
( -4.06076e-06 4.79095e-07 -1.09101e-05 )  
( 4.05868e-07 -9.59058e-07 -1.01219e-05 )  
( 1.05164e-06 9.07925e-07 -1.47164e-05 )  
( 1.36377e-07 1.95607e-06 -1.18178e-05 )  
( 3.32111e-07 2.77002e-06 -1.41603e-05 )  
( -2.25255e-06 1.81063e-06 -1.30737e-05 )  
( -6.46606e-06 -1.07843e-06 -1.16355e-05 )  
( -9.80713e-07 -3.4096e-06 -7.82917e-06 )  
( 3.45717e-06 6.34755e-06 -2.52103e-05 )  
( -4.93955e-06 -4.99744e-06 -4.71784e-06 )  
( 1.00181e-06 -3.26744e-07 -1.08986e-05 )  
( 1.45807e-06 1.10197e-06 -2.03059e-06 )  
( 7.54937e-07 1.82206e-07 -2.79965e-05 )  
( 1.59322e-06 2.57046e-07 -1.12221e-05 )  
( 9.69303e-07 3.23611e-06 -8.63085e-06 )  
( 4.90261e-06 1.47659e-06 -2.4627e-05 )  
( 7.27331e-08 9.99391e-07 -1.03117e-05 )  
( -2.6373e-07 -5.90015e-06 -2.82182e-05 )  
( -2.97811e-07 -3.65438e-06 -1.44419e-05 )  
( 4.10893e-06 -1.92257e-06 -2.53667e-05 )  
( 7.71231e-06 2.68038e-06 -1.47221e-05 )  
( 6.34127e-06 1.11261e-07 -2.61578e-05 )  
( -2.11255e-06 -1.08163e-06 -2.70353e-05 )  
( -1.13371e-06 4.71079e-06 -2.55617e-05 )  
( 8.02472e-06 -3.739e-06 -2.93468e-05 )  
( 3.22899e-06 5.10799e-07 -2.39916e-05 )  
( 5.56677e-06 7.32709e-07 -2.04687e-05 )  
( 2.25352e-06 7.27883e-07 -2.4189e-05 )  
( -1.25984e-06 4.62107e-06 -2.61227e-05 )  
( 7.11664e-06 6.62555e-06 -1.70318e-05 )  
( 5.64653e-06 6.16684e-07 -3.22969e-05 )  
( 5.92944e-06 -4.07199e-06 -2.04844e-05 )  
( -2.49025e-06 -5.80494e-07 -4.11714e-05 )  
( -2.65137e-06 3.53795e-06 -4.04477e-05 )  
( 1.36435e-05 5.40434e-06 -4.11485e-05 )  
( -4.97828e-06 3.35282e-06 -4.16868e-05 )  
( 5.34612e-06 2.81728e-06 -3.10142e-05 )  
( 3.27979e-06 4.17764e-06 -2.65622e-05 )  
( 1.14009e-05 4.52256e-06 -4.10779e-05 )  
( 1.6026e-06 -3.72712e-07 -2.29962e-05 )  
( 9.15295e-07 -3.09695e-06 -3.43143e-05 )  
( -4.44194e-06 -2.48676e-06 -2.7819e-05 )  
( 3.45651e-06 4.38699e-06 -2.75284e-05 )  
( 5.48442e-06 3.48066e-06 -3.51071e-05 )  
( -4.86645e-06 4.29447e-06 -3.92647e-05 )  
( 3.18437e-06 -4.19633e-06 -4.41834e-05 )  
( 9.72608e-06 2.33029e-06 -3.8381e-05 )  
( 3.52352e-06 2.13254e-06 -4.81805e-05 )  
( 9.82771e-06 4.92547e-06 -4.07647e-05 )  
( 8.01646e-06 4.56419e-06 -3.76963e-05 )  
( 2.73931e-06 2.73751e-06 -3.98413e-05 )  
( -2.97238e-06 6.46513e-06 -3.64367e-05 )  
( 1.04185e-05 -2.48529e-06 -4.33616e-05 )  
( 4.27256e-06 5.11609e-06 -4.02649e-05 )  
( 5.36637e-06 -4.04986e-06 -3.72143e-05 )  
( 1.10187e-05 6.32134e-06 -3.35981e-05 )  
( -5.05475e-06 -4.0161e-06 -3.50844e-05 )  
( 1.15712e-05 -2.48209e-07 -4.50444e-05 )  
( 2.21479e-06 8.87059e-06 -4.9014e-05 )  
( 7.40383e-06 6.40729e-07 -4.7216e-05 )  
( 7.9866e-06 3.65172e-06 -4.79636e-05 )  
( 7.67631e-06 9.45542e-07 -4.77837e-05 )  
( 2.83847e-06 4.09531e-06 -4.98436e-05 )  
( 6.05679e-06 2.63771e-06 -3.92857e-05 )  
( 4.7946e-07 3.75841e-06 -5.71097e-05 )  
( 1.72815e-06 -5.93487e-06 -3.84028e-05 )  
( 9.33657e-06 1.47765e-06 -4.03904e-05 )  
( 7.29335e-06 8.08859e-06 -5.48262e-05 )  
( 6.49703e-06 4.39359e-06 -4.60394e-05 )  
( 7.34071e-06 4.38996e-06 -4.83208e-05 )  
( -6.05779e-06 3.17511e-06 -5.96413e-05 )  
( 7.89535e-06 3.72375e-06 -5.10679e-05 )  
( 9.50335e-06 3.22306e-06 -5.15927e-05 )  
( 5.57469e-06 -1.95041e-06 -4.76686e-05 )  
( 1.31021e-05 8.7459e-06 -5.87554e-05 )  
( -4.92023e-06 1.97538e-06 -4.98996e-05 )  
( -4.60349e-06 8.16747e-06 -6.52519e-05 )  
( 4.82367e-06 3.76542e-06 -5.50523e-05 )  
( 4.41595e-06 2.24869e-06 -5.81054e-05 )  
( 5.44793e-06 1.08123e-05 -6.18018e-05 )  
( 5.87375e-06 -3.85947e-06 -4.6213e-05 )  
( 8.28671e-06 -4.51435e-07 -5.05319e-05 )  
( -5.98532e-06 2.79674e-06 -4.84009e-05 )  
( -7.10287e-06 2.66188e-06 -5.16765e-05 )  
( 9.53059e-06 4.95054e-06 -5.60716e-05 )  
( -1.27886e-06 5.87126e-07 -6.12932e-05 )  
( 4.44575e-06 5.47779e-06 -6.88615e-05 )  
( 5.2715e-06 -2.30785e-06 -5.50307e-05 )  
( 7.57518e-06 -3.75631e-07 -5.36078e-05 )  
( 3.99583e-06 3.96673e-06 -5.83618e-05 )  
( 4.05085e-06 2.34008e-06 -6.20224e-05 )  
( 7.2616e-06 1.87911e-06 -6.40368e-05 )  
( 3.31201e-06 2.56524e-06 -6.57133e-05 )  
( 2.18446e-08 1.5624e-06 -6.41804e-05 )  
( 4.74968e-06 2.09742e-06 -5.86808e-05 )  
( 8.18898e-06 9.47295e-07 -5.33933e-05 )  
( -4.65432e-06 1.22043e-06 -6.29514e-05 )  
( 3.23448e-05 4.57011e-05 -8.89061e-05 )  
( 6.90391e-06 2.94666e-06 -5.94725e-05 )  
( -7.4332e-07 1.59631e-07 -7.13307e-05 )  
( -4.26673e-06 1.03307e-06 -6.68401e-05 )  
( 4.90413e-06 1.39481e-06 -5.85911e-05 )  
( 4.41236e-06 -6.13766e-06 -7.63952e-05 )  
( 4.07993e-06 1.18422e-06 -6.77599e-05 )  
( 5.7605e-06 2.43199e-06 -5.58705e-05 )  
( 3.87274e-06 6.94249e-07 -6.92652e-05 )  
( 1.24278e-06 -7.93032e-07 -6.85252e-05 )  
( -9.99559e-07 1.49469e-06 -7.47077e-05 )  
( -1.75482e-06 9.84413e-06 -5.74872e-05 )  
( 2.73881e-06 2.88114e-07 -5.89863e-05 )  
( 1.12588e-06 6.78317e-06 -6.61245e-05 )  
( 1.3142e-06 -3.46775e-06 -7.04394e-05 )  
( 6.61415e-06 3.25345e-06 -5.58486e-05 )  
( 4.28922e-06 -3.10653e-06 -6.68216e-05 )  
( 1.83761e-07 -6.49531e-07 -6.68591e-05 )  
( 4.02475e-06 -1.62355e-06 -6.5987e-05 )  
( 8.92382e-06 3.16841e-06 -6.18541e-05 )  
( 7.01207e-06 -7.65966e-07 -7.26444e-05 )  
( 5.99658e-06 -1.20053e-06 -7.49216e-05 )  
( 5.03346e-06 8.46301e-07 -6.86277e-05 )  
( 2.24771e-06 -1.53527e-06 -7.17894e-05 )  
( 1.46378e-06 2.4791e-06 -6.93428e-05 )  
( 8.16348e-06 2.0178e-06 -6.5262e-05 )  
( -1.01059e-06 1.23317e-06 -8.04774e-05 )  
( 8.03813e-06 1.93237e-06 -5.71449e-05 )  
( -1.43059e-06 -2.57125e-06 -7.69659e-05 )  
( -3.27999e-06 -2.97887e-06 -6.86437e-05 )  
( 2.34757e-06 2.42354e-06 -7.27815e-05 )  
( 7.58468e-06 -9.02521e-06 -7.27479e-05 )  
( -7.8065e-06 -1.01757e-06 -7.00177e-05 )  
( -3.85538e-06 9.25826e-07 -7.24434e-05 )  
( 1.41476e-06 3.97336e-07 -7.51287e-05 )  
( 9.79889e-06 -1.32082e-06 -6.99336e-05 )  
( -7.71496e-06 -3.57034e-06 -7.72446e-05 )  
( 7.23688e-06 6.26851e-08 -7.70765e-05 )  
( -3.69641e-06 1.51045e-06 -6.85294e-05 )  
( 5.07962e-06 -1.10162e-06 -7.32171e-05 )  
( 9.48252e-06 -3.76194e-06 -6.62124e-05 )  
( 9.4035e-06 1.01276e-06 -6.72242e-05 )  
( 4.54427e-06 -1.31502e-06 -7.23335e-05 )  
( -5.45748e-06 2.62248e-06 -7.63623e-05 )  
( -4.14213e-06 -7.11432e-07 -7.31668e-05 )  
( -7.89223e-06 -5.18149e-08 -7.2874e-05 )  
( 5.98368e-06 -1.03829e-05 -7.97802e-05 )  
( 7.38237e-06 -1.27849e-05 -7.93454e-05 )  
( -2.11221e-06 -8.20069e-07 -7.19249e-05 )  
( -5.93092e-06 -7.06199e-07 -7.68806e-05 )  
( 2.92816e-06 -3.66731e-06 -7.56648e-05 )  
( 9.04589e-06 -5.60858e-06 -7.16893e-05 )  
( -5.30453e-06 -1.73577e-06 -7.68226e-05 )  
( -2.9087e-06 -7.81757e-08 -8.47869e-05 )  
( 4.92077e-06 1.21813e-06 -7.44575e-05 )  
( 9.6763e-06 1.01122e-06 -7.05537e-05 )  
( 7.95982e-06 -1.39854e-06 -7.2333e-05 )  
( -6.63571e-06 -1.67571e-06 -7.62792e-05 )  
( 1.67196e-06 -3.63946e-06 -7.9887e-05 )  
( -1.33627e-08 -2.98925e-06 -7.78825e-05 )  
( 1.98652e-06 -9.77685e-06 -8.18287e-05 )  
( 9.338e-07 -7.50754e-06 -8.1205e-05 )  
( 4.34611e-09 -3.58299e-06 -6.89729e-05 )  
( 7.15967e-06 -1.53066e-05 -7.48926e-05 )  
( -4.59892e-06 -3.26825e-06 -7.12017e-05 )  
( 6.582e-06 8.49649e-07 -8.31985e-05 )  
( 3.03867e-07 -1.07993e-06 -8.45908e-05 )  
( -5.47666e-06 -9.89746e-06 -7.9126e-05 )  
( 3.82987e-07 -8.37149e-06 -8.15013e-05 )  
( 6.25309e-06 -7.19309e-06 -7.2319e-05 )  
( 8.5593e-06 -7.85459e-06 -7.74179e-05 )  
( 8.67861e-06 -4.48924e-06 -7.29871e-05 )  
( 3.82388e-06 -7.10426e-06 -9.04746e-05 )  
( -7.34237e-07 1.31026e-06 -7.92656e-05 )  
( 1.48364e-06 -1.57229e-06 -7.81139e-05 )  
( 9.11716e-06 1.09764e-06 -7.7437e-05 )  
( -6.68373e-06 8.1336e-07 -7.90115e-05 )  
( 6.83394e-06 -1.19596e-05 -7.92166e-05 )  
( 5.13374e-06 -3.2559e-06 -7.32901e-05 )  
( 9.37495e-06 -7.87385e-07 -6.9014e-05 )  
( -6.39719e-06 -6.96355e-06 -7.71564e-05 )  
( 1.25161e-06 -2.13148e-06 -7.72391e-05 )  
( -1.00055e-06 -2.10159e-06 -6.44165e-05 )  
( 2.04254e-06 -6.60187e-06 -8.26031e-05 )  
( 6.93337e-06 -1.55902e-05 -7.74027e-05 )  
( -7.79529e-06 1.4444e-06 -7.50944e-05 )  
( -4.92294e-06 2.82231e-07 -8.4125e-05 )  
( -2.99277e-06 -1.31295e-05 -8.31783e-05 )  
( -8.81536e-07 -2.09971e-06 -8.54687e-05 )  
( 9.97906e-06 -8.32442e-06 -7.84526e-05 )  
( 8.99184e-06 -1.34984e-05 -6.87662e-05 )  
( -1.69284e-06 -7.79051e-08 -7.51052e-05 )  
( -7.55068e-07 -7.07404e-07 -7.32969e-05 )  
( -2.2209e-06 -7.95271e-07 -7.62605e-05 )  
( -4.08495e-06 -4.25016e-07 -7.60611e-05 )  
( 1.4676e-06 7.53442e-06 -9.63788e-05 )  
( 9.73302e-08 -6.06578e-06 -7.5947e-05 )  
( -4.53338e-06 4.73794e-06 -8.4051e-05 )  
( 6.7832e-07 -5.34552e-06 -8.75943e-05 )  
( -1.06861e-06 2.45167e-06 -8.26729e-05 )  
( -2.05041e-06 -7.56832e-06 -6.96088e-05 )  
( -5.74913e-07 -8.38826e-06 -7.86386e-05 )  
( 6.87847e-06 -5.08502e-06 -6.68551e-05 )  
( 9.93668e-06 -9.48701e-06 -6.70608e-05 )  
( 2.81317e-06 -1.2721e-05 -6.86816e-05 )  
( 5.28269e-06 -1.0419e-05 -7.16718e-05 )  
( 1.39289e-06 -1.20041e-06 -7.54399e-05 )  
( -6.62724e-06 6.14513e-06 -7.36826e-05 )  
( -7.16078e-07 1.58622e-06 -7.41278e-05 )  
( 6.56002e-06 -7.99857e-06 -6.86195e-05 )  
( -1.02951e-06 -2.72608e-05 -8.75342e-05 )  
( -2.78733e-07 -1.4631e-05 -7.73061e-05 )  
( -4.02096e-07 -9.91041e-07 -7.06822e-05 )  
( 1.48249e-06 -8.05377e-06 -7.61802e-05 )  
( 1.77265e-06 -1.4646e-05 -7.30376e-05 )  
( 6.10835e-06 -1.54007e-05 -6.50778e-05 )  
( 1.14222e-06 -3.18393e-06 -6.98271e-05 )  
( 5.7128e-06 -9.79391e-06 -6.66653e-05 )  
( 1.65214e-06 -1.82248e-06 -6.9919e-05 )  
( -4.95387e-06 -2.21998e-06 -6.50507e-05 )  
( -2.25858e-06 -7.75554e-06 -7.60613e-05 )  
( 4.47872e-06 -1.15337e-05 -7.21898e-05 )  
( 2.95805e-07 -3.40379e-06 -6.61801e-05 )  
( 8.71703e-07 -1.20489e-05 -7.15318e-05 )  
( -5.90219e-06 8.84284e-08 -7.48088e-05 )  
( 9.71648e-06 1.7879e-06 -6.21957e-05 )  
( 4.62284e-06 -1.47059e-05 -7.501e-05 )  
( 6.76118e-06 -7.20589e-06 -6.40071e-05 )  
( 2.56066e-06 5.49723e-06 -7.5046e-05 )  
( -7.32884e-06 1.13541e-05 -7.54603e-05 )  
( -1.62318e-06 4.17367e-06 -6.92944e-05 )  
( 1.50902e-05 -1.16319e-05 -6.12109e-05 )  
( 1.69988e-07 -1.21274e-05 -7.07842e-05 )  
( 9.81027e-06 -1.31307e-05 -6.49567e-05 )  
( -4.53466e-06 -1.18744e-06 -6.58199e-05 )  
( -1.91739e-05 1.3565e-05 -8.66519e-05 )  
( 1.09799e-05 -6.97579e-07 -7.82545e-05 )  
( 5.79488e-06 6.36525e-06 -5.5227e-05 )  
( -1.82087e-06 2.66357e-06 -6.61092e-05 )  
( -3.0267e-07 1.5838e-06 -6.50005e-05 )  
( -6.0908e-06 6.80877e-06 -6.80792e-05 )  
( 5.0112e-06 2.60434e-07 -6.0597e-05 )  
( 1.01153e-05 -1.02388e-05 -6.20937e-05 )  
( -2.00924e-06 -2.4235e-05 -6.98204e-05 )  
( 1.36512e-05 -1.97616e-05 -5.19238e-05 )  
( -5.71403e-06 5.14573e-06 -7.58274e-05 )  
( 7.26059e-06 -1.00318e-06 -5.92454e-05 )  
( 6.72807e-06 -3.90338e-06 -6.37373e-05 )  
( -5.41565e-06 1.29342e-06 -6.62776e-05 )  
( -1.67667e-06 9.62959e-06 -6.14057e-05 )  
( -1.20733e-05 6.47784e-06 -6.11493e-05 )  
( 3.43779e-06 -4.99509e-06 -6.50343e-05 )  
( 7.9715e-06 -1.01657e-05 -6.77439e-05 )  
( 1.07784e-06 3.26945e-06 -6.4338e-05 )  
( 5.65196e-06 -1.66619e-06 -6.615e-05 )  
( 7.35126e-06 5.35699e-07 -6.18e-05 )  
( 1.2371e-05 -4.00082e-06 -4.6701e-05 )  
( -3.70243e-06 7.18262e-06 -6.32213e-05 )  
( 1.97016e-05 -5.52045e-05 -8.41051e-05 )  
( -8.73814e-06 5.14739e-06 -6.9015e-05 )  
( -2.95655e-06 3.53688e-06 -5.13848e-05 )  
( -7.21338e-06 -6.35142e-06 -5.93466e-05 )  
( 1.6385e-05 -3.02691e-06 -5.69679e-05 )  
( 6.67985e-06 -1.18474e-05 -6.7781e-05 )  
( 1.38063e-05 1.58795e-05 -5.65379e-05 )  
( -1.26313e-05 4.17554e-06 -5.01134e-05 )  
( 7.7935e-06 -7.02001e-06 -6.39933e-05 )  
( -6.22018e-07 -2.43188e-06 -4.74851e-05 )  
( 3.58083e-06 -8.54517e-06 -4.25097e-05 )  
( 1.7375e-05 -1.86453e-05 -5.25631e-05 )  
( 1.97951e-05 -5.96119e-06 -6.00587e-05 )  
( -5.16982e-06 -3.53731e-06 -5.07699e-05 )  
( 2.37952e-06 -1.4201e-05 -4.14798e-05 )  
( -1.34941e-05 3.06567e-06 -4.2132e-05 )  
( 8.77194e-06 -6.03785e-06 -2.96233e-05 )  
( -1.60347e-05 -4.26023e-06 -4.79811e-05 )  
( -7.09158e-06 1.52365e-05 -4.36137e-05 )  
( -7.80419e-06 -7.38546e-06 -3.22698e-05 )  
( -2.02846e-06 -1.24856e-05 -5.95041e-05 )  
( -8.3111e-06 3.38524e-06 -6.2073e-05 )  
( -1.5713e-06 8.36146e-06 -6.26782e-05 )  
( 1.43197e-06 -1.84237e-05 -5.21963e-05 )  
( 3.18207e-06 -2.12889e-06 -4.30866e-05 )  
( -3.11828e-06 9.19511e-06 -6.7399e-05 )  
( 4.53333e-06 1.18384e-05 -6.09454e-05 )  
( -1.02151e-05 -7.44865e-08 -5.11837e-05 )  
( -1.0313e-05 -4.90536e-06 -5.09596e-05 )  
( 1.67365e-05 2.46954e-05 -4.01372e-05 )  
( -1.18499e-05 -1.53468e-05 -3.10939e-05 )  
( -1.84398e-06 2.92278e-05 -5.80263e-05 )  
( 1.55315e-06 4.30958e-06 -3.54543e-05 )  
( 7.78302e-06 -2.78176e-06 -7.29292e-05 )  
( -8.61018e-06 1.38393e-05 -3.73492e-05 )  
( 1.86954e-05 3.13347e-07 -4.24409e-05 )  
( 6.0469e-06 5.59062e-06 -7.00048e-05 )  
( 1.50003e-05 -6.07586e-06 -4.7248e-05 )  
( -5.91465e-06 -8.57626e-06 -3.69276e-05 )  
( 7.5298e-07 -1.52751e-06 -3.33138e-05 )  
( 4.77041e-05 1.39459e-05 -3.52202e-05 )  
( -8.53672e-06 -3.86891e-06 -3.44049e-05 )  
( 2.15158e-05 6.26916e-06 -2.66472e-05 )  
( 5.75111e-06 1.80911e-05 -6.93633e-05 )  
( -1.84047e-05 1.4851e-05 -7.41632e-06 )  
( -4.73494e-05 2.16153e-05 -5.47517e-05 )  
( 1.6221e-05 1.91331e-05 -4.23997e-05 )  
( -5.75114e-05 -2.42731e-06 -9.28639e-05 )  
( -8.7736e-06 2.64851e-05 -1.24642e-05 )  
( 9.72816e-08 -2.97468e-05 -4.89315e-05 )  
( 5.79404e-06 1.87438e-05 -4.00871e-05 )  
( -7.54258e-06 1.39043e-05 -3.01437e-05 )  
( 3.21962e-06 1.59965e-05 -2.29515e-05 )  
( -1.01133e-05 2.62522e-05 -2.82146e-05 )  
( -1.0116e-05 3.41941e-05 -3.61876e-05 )  
( -1.58821e-06 -1.73386e-05 -3.06174e-05 )  
( 3.49608e-05 7.9249e-06 -6.14886e-05 )  
( -4.90705e-06 3.42385e-05 -1.50447e-05 )  
( -1.51581e-05 -3.00933e-05 -6.12152e-05 )  
( 5.06038e-06 4.85737e-05 -4.9675e-05 )  
( -4.58792e-05 -6.08464e-05 -7.34996e-05 )  
( -1.31192e-05 2.30706e-06 -2.33902e-05 )  
( 4.13629e-05 2.19697e-05 -2.40367e-05 )  
( -8.97275e-06 1.30144e-05 -1.53706e-05 )  
( 2.76247e-06 1.32346e-05 -2.11474e-05 )  
( -1.13721e-05 1.16231e-05 -7.13092e-05 )  
( -1.1998e-05 7.67899e-06 -1.52855e-05 )  
( 2.93163e-06 8.14555e-05 -4.16318e-05 )  
( -8.21807e-05 5.96802e-05 -4.24722e-05 )  
( -7.58163e-06 3.48974e-06 -3.5564e-05 )  
( 2.35613e-05 8.119e-06 -2.92973e-05 )  
( -3.57785e-05 -1.03545e-05 -3.18254e-06 )  
( 4.95791e-08 1.80905e-05 -4.61718e-05 )  
( -1.9417e-05 9.01587e-06 -6.64798e-05 )  
( 4.77705e-05 2.23829e-05 -3.34807e-06 )  
( -3.66003e-05 8.16478e-06 -3.04614e-06 )  
( 6.99527e-06 1.08132e-05 -6.10622e-05 )  
( 0.000120825 -1.8678e-05 -3.81029e-05 )  
( 8.69304e-05 -6.40017e-05 -9.37679e-05 )  
( -6.23016e-05 -4.00842e-05 -0.000114729 )  
( -4.01629e-06 6.27049e-05 -5.19693e-05 )  
( 3.03558e-05 -1.35543e-05 -0.000143187 )  
)
