/*--------------------------------*- C++ -*----------------------------------*\
  =========                 |
  \\      /  F ield         | OpenFOAM: The Open Source CFD Toolbox
   \\    /   O peration     | Website:  https://openfoam.org
    \\  /    A nd           | Version:  9
     \\/     M anipulation  |
\*---------------------------------------------------------------------------*/
FoamFile
{
    format      ascii;
    class       volVectorField;
    location    "0.005";
    object      U;
}
// * * * * * * * * * * * * * * * * * * * * * * * * * * * * * * * * * * * * * //

dimensions      [0 1 -1 0 0 0 0];

internalField   nonuniform List<vector> 
720
(
(8.31962e-10 -7.17561e-09 -0.000999947)
(8.31961e-10 -7.21836e-09 -0.000999942)
(7.89214e-10 -7.17562e-09 -0.00100006)
(7.89213e-10 -7.21837e-09 -0.00100005)
(7.78602e-10 -9.99111e-09 -0.000999946)
(7.78598e-10 -1.01191e-08 -0.000999941)
(6.50619e-10 -9.99113e-09 -0.00100006)
(6.50618e-10 -1.01191e-08 -0.00100005)
(8.215e-10 -1.4453e-08 -0.000999945)
(8.21493e-10 -1.46835e-08 -0.00099994)
(5.90989e-10 -1.44531e-08 -0.00100006)
(5.90988e-10 -1.46836e-08 -0.00100006)
(9.65755e-10 -1.9757e-08 -0.000999943)
(9.6575e-10 -2.00797e-08 -0.000999938)
(6.4312e-10 -1.97571e-08 -0.00100006)
(6.43119e-10 -2.00797e-08 -0.00100006)
(1.16928e-09 -2.55236e-08 -0.000999941)
(1.16928e-09 -2.59321e-08 -0.000999936)
(7.60788e-10 -2.55236e-08 -0.00100006)
(7.60786e-10 -2.59321e-08 -0.00100006)
(1.39708e-09 -3.16416e-08 -0.000999938)
(1.39708e-09 -3.21302e-08 -0.000999933)
(9.08411e-10 -3.16416e-08 -0.00100007)
(9.08409e-10 -3.21303e-08 -0.00100006)
(1.63273e-09 -3.81183e-08 -0.000999934)
(1.63272e-09 -3.86812e-08 -0.000999929)
(1.06974e-09 -3.81183e-08 -0.00100007)
(1.06974e-09 -3.86813e-08 -0.00100007)
(1.8709e-09 -4.50047e-08 -0.00099993)
(1.8709e-09 -4.56362e-08 -0.000999925)
(1.23937e-09 -4.50048e-08 -0.00100008)
(1.23937e-09 -4.56363e-08 -0.00100007)
(2.11099e-09 -5.2368e-08 -0.000999925)
(2.11099e-09 -5.30629e-08 -0.00099992)
(1.41605e-09 -5.23681e-08 -0.00100008)
(1.41605e-09 -5.3063e-08 -0.00100008)
(2.35417e-09 -6.02828e-08 -0.000999919)
(2.35417e-09 -6.10373e-08 -0.000999914)
(1.59972e-09 -6.02829e-08 -0.00100009)
(1.59971e-09 -6.10374e-08 -0.00100008)
(2.60242e-09 -6.883e-08 -0.000999913)
(2.60242e-09 -6.96419e-08 -0.000999907)
(1.79048e-09 -6.88301e-08 -0.00100009)
(1.79048e-09 -6.9642e-08 -0.00100009)
(2.85824e-09 -7.80965e-08 -0.000999905)
(2.85823e-09 -7.89664e-08 -0.000999899)
(1.98835e-09 -7.80966e-08 -0.0010001)
(1.98834e-09 -7.89665e-08 -0.0010001)
(3.1246e-09 -8.81765e-08 -0.000999896)
(3.1246e-09 -8.9108e-08 -0.00099989)
(2.19315e-09 -8.81766e-08 -0.00100011)
(2.19314e-09 -8.91081e-08 -0.00100011)
(3.40498e-09 -9.9172e-08 -0.000999887)
(3.40498e-09 -1.00172e-07 -0.00099988)
(2.40455e-09 -9.91722e-08 -0.00100012)
(2.40454e-09 -1.00173e-07 -0.00100012)
(3.70333e-09 -1.11194e-07 -0.000999876)
(3.70333e-09 -1.12275e-07 -0.000999869)
(2.62208e-09 -1.11194e-07 -0.00100013)
(2.62208e-09 -1.12276e-07 -0.00100013)
(4.02412e-09 -1.24364e-07 -0.000999864)
(4.02411e-09 -1.25543e-07 -0.000999856)
(2.8452e-09 -1.24364e-07 -0.00100014)
(2.84519e-09 -1.25543e-07 -0.00100014)
(4.37232e-09 -1.38815e-07 -0.00099985)
(4.37231e-09 -1.40114e-07 -0.000999842)
(3.07328e-09 -1.38815e-07 -0.00100016)
(3.07326e-09 -1.40114e-07 -0.00100015)
(4.75348e-09 -1.54692e-07 -0.000999835)
(4.75346e-09 -1.5614e-07 -0.000999826)
(3.30568e-09 -1.54692e-07 -0.00100017)
(3.30567e-09 -1.5614e-07 -0.00100017)
(5.17371e-09 -1.72156e-07 -0.000999818)
(5.17369e-09 -1.73788e-07 -0.000999808)
(3.54183e-09 -1.72156e-07 -0.00100019)
(3.54182e-09 -1.73788e-07 -0.00100019)
(5.63977e-09 -1.91382e-07 -0.000999799)
(5.63975e-09 -1.93241e-07 -0.000999788)
(3.78125e-09 -1.91383e-07 -0.00100021)
(3.78123e-09 -1.93241e-07 -0.0010002)
(6.1591e-09 -2.12566e-07 -0.000999778)
(6.15907e-09 -2.14701e-07 -0.000999766)
(4.02362e-09 -2.12566e-07 -0.00100023)
(4.02359e-09 -2.14702e-07 -0.00100023)
(6.73993e-09 -2.3592e-07 -0.000999755)
(6.7399e-09 -2.38391e-07 -0.000999741)
(4.26884e-09 -2.3592e-07 -0.00100026)
(4.26881e-09 -2.38392e-07 -0.00100025)
(7.39141e-09 -2.61681e-07 -0.000999729)
(7.39137e-09 -2.64555e-07 -0.000999714)
(4.51708e-09 -2.61682e-07 -0.00100028)
(4.51703e-09 -2.64556e-07 -0.00100027)
(8.12372e-09 -2.9011e-07 -0.000999701)
(8.12367e-09 -2.93465e-07 -0.000999683)
(4.7688e-09 -2.90111e-07 -0.00100031)
(4.76874e-09 -2.93466e-07 -0.0010003)
(8.9483e-09 -3.21494e-07 -0.000999669)
(8.94824e-09 -3.25417e-07 -0.00099965)
(5.02482e-09 -3.21495e-07 -0.00100034)
(5.02476e-09 -3.25418e-07 -0.00100033)
(9.87807e-09 -3.5615e-07 -0.000999634)
(9.878e-09 -3.60742e-07 -0.000999612)
(5.28633e-09 -3.56152e-07 -0.00100038)
(5.28625e-09 -3.60744e-07 -0.00100037)
(1.09277e-08 -3.94431e-07 -0.000999596)
(1.09276e-08 -3.99804e-07 -0.000999571)
(5.55488e-09 -3.94433e-07 -0.00100042)
(5.55479e-09 -3.99806e-07 -0.00100041)
(1.21141e-08 -4.36723e-07 -0.000999553)
(1.2114e-08 -4.43004e-07 -0.000999525)
(5.8324e-09 -4.36725e-07 -0.00100046)
(5.83228e-09 -4.43007e-07 -0.00100045)
(1.34565e-08 -4.83453e-07 -0.000999506)
(1.34564e-08 -4.90789e-07 -0.000999474)
(6.12117e-09 -4.83456e-07 -0.00100051)
(6.12103e-09 -4.90792e-07 -0.0010005)
(1.49774e-08 -5.35095e-07 -0.000999454)
(1.49773e-08 -5.43649e-07 -0.000999418)
(6.42384e-09 -5.35099e-07 -0.00100056)
(6.42366e-09 -5.43653e-07 -0.00100055)
(1.6703e-08 -5.9217e-07 -0.000999397)
(1.67028e-08 -6.02129e-07 -0.000999356)
(6.74338e-09 -5.92175e-07 -0.00100062)
(6.74316e-09 -6.02134e-07 -0.00100061)
(1.86637e-08 -6.55253e-07 -0.000999333)
(1.86635e-08 -6.66834e-07 -0.000999287)
(7.08302e-09 -6.55259e-07 -0.00100069)
(7.08275e-09 -6.66839e-07 -0.00100068)
(2.08952e-08 -7.2498e-07 -0.000999263)
(2.08949e-08 -7.38429e-07 -0.000999211)
(7.44622e-09 -7.24987e-07 -0.00100076)
(7.44588e-09 -7.38436e-07 -0.00100075)
(2.3439e-08 -8.02052e-07 -0.000999186)
(2.34386e-08 -8.17654e-07 -0.000999126)
(7.83666e-09 -8.02061e-07 -0.00100084)
(7.83624e-09 -8.17663e-07 -0.00100083)
(2.63437e-08 -8.87244e-07 -0.000999101)
(2.63432e-08 -9.05329e-07 -0.000999033)
(8.25836e-09 -8.87254e-07 -0.00100093)
(8.25785e-09 -9.0534e-07 -0.00100091)
(2.96659e-08 -9.8141e-07 -0.000999007)
(2.96653e-08 -1.00236e-06 -0.000998929)
(8.71577e-09 -9.81423e-07 -0.00100103)
(8.71513e-09 -1.00237e-06 -0.00100101)
(3.34715e-08 -1.08549e-06 -0.000998903)
(3.34708e-08 -1.10975e-06 -0.000998814)
(9.21366e-09 -1.08551e-06 -0.00100114)
(9.21287e-09 -1.10977e-06 -0.00100112)
(3.78365e-08 -1.20054e-06 -0.000998789)
(3.78356e-08 -1.22862e-06 -0.000998687)
(9.75699e-09 -1.20056e-06 -0.00100126)
(9.75602e-09 -1.22864e-06 -0.00100124)
(4.28487e-08 -1.32769e-06 -0.000998663)
(4.28477e-08 -1.36019e-06 -0.000998546)
(1.03505e-08 -1.32772e-06 -0.00100139)
(1.03493e-08 -1.36022e-06 -0.00100137)
(4.86093e-08 -1.46823e-06 -0.000998524)
(4.8608e-08 -1.50584e-06 -0.00099839)
(1.09982e-08 -1.46826e-06 -0.00100154)
(1.09968e-08 -1.50587e-06 -0.00100152)
(5.52343e-08 -1.62354e-06 -0.00099837)
(5.52328e-08 -1.66707e-06 -0.000998217)
(1.17035e-08 -1.62358e-06 -0.00100171)
(1.17016e-08 -1.66711e-06 -0.00100168)
(6.28576e-08 -1.79518e-06 -0.000998201)
(6.28556e-08 -1.84557e-06 -0.000998025)
(1.2468e-08 -1.79522e-06 -0.00100189)
(1.24658e-08 -1.84561e-06 -0.00100186)
(7.16322e-08 -1.98485e-06 -0.000998015)
(7.16299e-08 -2.04319e-06 -0.000997812)
(1.32921e-08 -1.98491e-06 -0.00100209)
(1.32893e-08 -2.04325e-06 -0.00100206)
(8.17344e-08 -2.19444e-06 -0.000997809)
(8.17316e-08 -2.262e-06 -0.000997576)
(1.41739e-08 -2.19451e-06 -0.00100231)
(1.41704e-08 -2.26207e-06 -0.00100228)
(9.33666e-08 -2.42603e-06 -0.000997582)
(9.33631e-08 -2.50428e-06 -0.000997315)
(1.51088e-08 -2.42611e-06 -0.00100256)
(1.51045e-08 -2.50437e-06 -0.00100252)
(1.06762e-07 -2.6819e-06 -0.000997332)
(1.06757e-07 -2.77257e-06 -0.000997025)
(1.60904e-08 -2.682e-06 -0.00100283)
(1.6085e-08 -2.77267e-06 -0.00100279)
(1.22188e-07 -2.96459e-06 -0.000997056)
(1.22183e-07 -3.06967e-06 -0.000996703)
(1.71093e-08 -2.96471e-06 -0.00100313)
(1.71027e-08 -3.0698e-06 -0.00100309)
(1.39955e-07 -3.27689e-06 -0.000996752)
(1.39949e-07 -3.39869e-06 -0.000996346)
(1.81521e-08 -3.27705e-06 -0.00100346)
(1.81438e-08 -3.39885e-06 -0.00100342)
(1.60421e-07 -3.62189e-06 -0.000996416)
(1.60413e-07 -3.7631e-06 -0.00099595)
(1.9203e-08 -3.62207e-06 -0.00100383)
(1.91928e-08 -3.7633e-06 -0.00100378)
(1.83998e-07 -4.00297e-06 -0.000996047)
(1.83988e-07 -4.16671e-06 -0.000995511)
(2.02485e-08 -4.0032e-06 -0.00100423)
(2.02358e-08 -4.16696e-06 -0.00100419)
(2.11166e-07 -4.4239e-06 -0.00099564)
(2.11154e-07 -4.61378e-06 -0.000995023)
(2.12729e-08 -4.42418e-06 -0.00100468)
(2.12571e-08 -4.61408e-06 -0.00100463)
(2.42482e-07 -4.8888e-06 -0.000995192)
(2.42467e-07 -5.10901e-06 -0.000994482)
(2.22596e-08 -4.88915e-06 -0.00100518)
(2.224e-08 -5.10938e-06 -0.00100513)
(2.78594e-07 -5.40224e-06 -0.000994698)
(2.78575e-07 -5.65764e-06 -0.000993881)
(2.3189e-08 -5.40267e-06 -0.00100573)
(2.31646e-08 -5.65809e-06 -0.00100568)
(3.20255e-07 -5.96925e-06 -0.000994154)
(3.20231e-07 -6.26545e-06 -0.000993213)
(2.40369e-08 -5.96978e-06 -0.00100634)
(2.40066e-08 -6.26601e-06 -0.00100628)
(3.68344e-07 -6.59535e-06 -0.000993556)
(3.68316e-07 -6.93891e-06 -0.000992471)
(2.47741e-08 -6.596e-06 -0.00100701)
(2.47364e-08 -6.93959e-06 -0.00100695)
(4.23897e-07 -7.28665e-06 -0.000992897)
(4.23862e-07 -7.68516e-06 -0.000991645)
(2.53651e-08 -7.28744e-06 -0.00100775)
(2.53181e-08 -7.686e-06 -0.0010077)
(4.88137e-07 -8.04983e-06 -0.000992174)
(4.88094e-07 -8.51217e-06 -0.000990728)
(2.57663e-08 -8.05081e-06 -0.00100858)
(2.57078e-08 -8.51321e-06 -0.00100852)
(5.62452e-07 -8.8923e-06 -0.000991378)
(5.62398e-07 -9.42879e-06 -0.000989708)
(2.59255e-08 -8.8935e-06 -0.00100948)
(2.58527e-08 -9.43007e-06 -0.00100943)
(6.48405e-07 -9.82222e-06 -0.000990502)
(6.48339e-07 -1.04448e-05 -0.000988574)
(2.57793e-08 -9.82369e-06 -0.00101049)
(2.56885e-08 -1.04464e-05 -0.00101043)
(7.47805e-07 -1.08486e-05 -0.000989539)
(7.47723e-07 -1.15711e-05 -0.000987313)
(2.52488e-08 -1.08504e-05 -0.0010116)
(2.51355e-08 -1.1573e-05 -0.00101154)
(8.62747e-07 -1.19813e-05 -0.000988481)
(8.62646e-07 -1.28197e-05 -0.00098591)
(2.42354e-08 -1.19835e-05 -0.00101283)
(2.4094e-08 -1.28221e-05 -0.00101278)
(9.95656e-07 -1.32313e-05 -0.000987318)
(9.95531e-07 -1.42042e-05 -0.000984349)
(2.26185e-08 -1.3234e-05 -0.00101419)
(2.24419e-08 -1.42072e-05 -0.00101414)
(1.14934e-06 -1.46105e-05 -0.000986041)
(1.14918e-06 -1.57395e-05 -0.000982612)
(2.02498e-08 -1.46138e-05 -0.00101569)
(2.00292e-08 -1.57431e-05 -0.00101565)
(1.32704e-06 -1.61322e-05 -0.000984639)
(1.32684e-06 -1.74421e-05 -0.000980679)
(1.69491e-08 -1.61363e-05 -0.00101736)
(1.66734e-08 -1.74466e-05 -0.00101733)
(1.5325e-06 -1.78109e-05 -0.0009831)
(1.53226e-06 -1.93307e-05 -0.000978527)
(1.2499e-08 -1.78159e-05 -0.00101919)
(1.2154e-08 -1.93362e-05 -0.00101918)
(1.77006e-06 -1.96627e-05 -0.000981411)
(1.76977e-06 -2.14258e-05 -0.000976129)
(6.62833e-09 -1.96687e-05 -0.00102123)
(6.19645e-09 -2.14326e-05 -0.00102123)
(2.04475e-06 -2.1705e-05 -0.000979559)
(2.04438e-06 -2.37504e-05 -0.000973458)
(-1.00759e-09 -2.17125e-05 -0.00102348)
(-1.54882e-09 -2.37588e-05 -0.00102351)
(2.36234e-06 -2.39573e-05 -0.000977528)
(2.36188e-06 -2.63301e-05 -0.000970481)
(-1.08566e-08 -2.39665e-05 -0.00102596)
(-1.15361e-08 -2.63404e-05 -0.00102603)
(2.72954e-06 -2.64409e-05 -0.000975301)
(2.72895e-06 -2.91934e-05 -0.000967161)
(-2.35278e-08 -2.64521e-05 -0.00102871)
(-2.43848e-08 -2.92061e-05 -0.00102883)
(3.15409e-06 -2.9179e-05 -0.000972862)
(3.1533e-06 -3.23722e-05 -0.000963458)
(-3.99131e-08 -2.91927e-05 -0.00103175)
(-4.10063e-08 -3.2388e-05 -0.00103193)
(3.64495e-06 -3.21968e-05 -0.000970196)
(3.64368e-06 -3.5902e-05 -0.00095933)
(-6.14929e-08 -3.22139e-05 -0.0010351)
(-6.29241e-08 -3.59219e-05 -0.00103539)
(4.21219e-06 -3.55209e-05 -0.000967278)
(4.20928e-06 -3.98215e-05 -0.000954719)
(-9.11925e-08 -3.55428e-05 -0.00103881)
(-9.3161e-08 -3.98476e-05 -0.00103924)
(4.8663e-06 -3.91756e-05 -0.000964039)
(4.85701e-06 -4.41685e-05 -0.000949524)
(-1.35636e-07 -3.92059e-05 -0.00104286)
(-1.38518e-07 -4.4207e-05 -0.00104347)
(5.61511e-06 -4.3169e-05 -0.000960373)
(5.58136e-06 -4.89619e-05 -0.000943594)
(-2.11654e-07 -4.32169e-05 -0.00104716)
(-2.15894e-07 -4.90325e-05 -0.00104803)
(6.45657e-06 -4.74394e-05 -0.000956545)
(6.33681e-06 -5.41447e-05 -0.00093709)
(-3.7117e-07 -4.75288e-05 -0.00105196)
(-3.75753e-07 -5.431e-05 -0.00105326)
(7.36776e-06 -5.17081e-05 -0.000954134)
(6.97979e-06 -5.94271e-05 -0.000931402)
(-7.46365e-07 -5.18966e-05 -0.00105907)
(-7.42003e-07 -5.98766e-05 -0.00106113)
(8.28856e-06 -5.51501e-05 -0.000954389)
(7.18424e-06 -6.39152e-05 -0.000928063)
(-1.5355e-06 -5.55199e-05 -0.00107074)
(-1.48522e-06 -6.50926e-05 -0.00107325)
(9.09523e-06 -5.60424e-05 -0.000943137)
(6.39685e-06 -6.53912e-05 -0.000915459)
(-2.76792e-06 -5.67402e-05 -0.00107369)
(-2.59487e-06 -6.85825e-05 -0.00107468)
(9.36481e-06 -5.13476e-05 -0.000887358)
(4.00035e-06 -5.93627e-05 -0.000860259)
(-3.53982e-06 -5.25706e-05 -0.00102851)
(-3.02747e-06 -6.70537e-05 -0.00102596)
(8.57976e-06 -3.8e-05 -0.000673264)
(5.63164e-07 -4.06423e-05 -0.000636387)
(-1.05844e-06 -3.99378e-05 -0.000745929)
(5.85134e-07 -5.54375e-05 -0.000761344)
(1.03694e-05 -3.81195e-06 -0.00285656)
(-5.67022e-07 -3.53469e-06 -0.00259601)
(4.00733e-06 -7.43676e-06 -0.0032038)
(1.10483e-05 -2.27829e-05 -0.00336913)
(1.28375e-05 2.58152e-06 -1.23441e-05)
(-3.09473e-05 1.81501e-05 -3.00123e-05)
(-3.37758e-06 4.08381e-06 -1.70129e-05)
(4.09027e-06 5.65685e-06 -2.19591e-05)
(0.000153795 3.53493e-05 -0.00349182)
(0.000157472 -0.000243904 -0.00260685)
(-0.000138198 3.98033e-05 -0.00381871)
(-0.000108276 -0.000248688 -0.00430016)
(5.86851e-06 2.63802e-06 -4.28569e-05)
(4.84288e-05 -8.32337e-05 -0.00333989)
(-5.72827e-06 7.64551e-06 -0.000289736)
(-6.02209e-07 3.23913e-05 -4.93891e-05)
(-0.000460264 -0.000265534 -0.00287788)
(-5.23052e-05 2.73727e-05 -0.000588693)
(7.84104e-05 -0.000139345 -0.00387783)
(0.00013311 0.000305054 -0.0051917)
(-0.000519538 -0.000287331 -0.00261172)
(-0.000566957 0.000274591 -0.00443553)
(1.71214e-05 -0.000222297 -0.00432624)
(-1.9365e-05 6.4142e-05 -0.000141813)
(-3.77335e-05 -3.21226e-05 -0.000487416)
(-5.81458e-05 3.37608e-05 -0.00018629)
(7.60826e-06 -1.88986e-05 -0.000377135)
(0.000319514 0.000330005 -0.00528807)
(-0.000136404 -0.000163285 -0.0050292)
(-0.000324933 0.000249143 -0.00326953)
(0.000336971 -0.00041362 -0.00468981)
(-7.83012e-06 5.36069e-05 -0.000205601)
(-1.32029e-05 3.59989e-07 -0.000156525)
(4.98354e-05 -0.000122225 -0.00166265)
(-6.98605e-05 3.30085e-05 -0.00110114)
(-0.000126024 -0.000167048 -0.00502872)
(0.000309034 0.000304361 -0.00444449)
(0.00031712 -0.00016929 -0.00379078)
(-0.000365809 0.00077344 -0.00287024)
(-9.695e-05 -6.08652e-05 -0.00120093)
(0.00021194 0.000422365 -0.00171313)
(4.2155e-05 3.82943e-06 -0.0014379)
(-0.000457868 0.000982969 -0.00317254)
(-0.000394246 1.03313e-05 -0.00523814)
(6.42869e-05 0.0009062 -0.00331703)
(6.54238e-06 6.13437e-05 -0.00425833)
(-0.000119048 0.000149306 -0.000673158)
(3.55876e-06 5.98542e-06 -5.29405e-05)
(1.77048e-05 4.49542e-05 -0.000241117)
(-3.87159e-05 9.1131e-05 -0.000937201)
(-0.000980715 0.00138715 -0.00276154)
(-0.00135497 0.000956313 -0.00440191)
(-0.000191925 0.0013601 -0.00315946)
(-0.000178218 0.000617253 -0.00392386)
(-0.000297748 0.000432826 -0.00247556)
(-4.28286e-05 5.02954e-05 -0.00027254)
(-0.000187987 0.000403237 -0.00292677)
(4.32186e-08 2.18763e-05 -8.78603e-05)
(-3.50678e-06 -3.57895e-05 -9.32343e-05)
(-0.000331501 0.000400517 -0.00473091)
(-4.61166e-05 -1.41202e-05 -0.00103833)
(-0.000226397 0.000473084 -0.00401777)
(7.09189e-05 -1.08294e-05 -0.00479413)
(5.5885e-05 0.000126063 -0.00116151)
(-0.000440519 -0.0010441 -0.00370233)
(-0.000118296 0.000195706 -0.00181069)
(-2.2284e-06 -4.67647e-05 -0.000290356)
(0.000609783 0.000318561 -0.0034307)
(-5.12862e-05 -0.000116206 -0.000665074)
(-0.000192384 0.000248918 -0.00222983)
(0.000629429 -0.000573947 -0.00253311)
(0.000516088 0.000274023 -0.00251166)
(-0.000154786 -0.000396646 -0.00378055)
(-0.000187148 0.000307564 -0.00369222)
(0.000586489 -0.00049025 -0.00188923)
(0.000353903 0.000190632 -0.00535338)
(-8.90868e-05 -0.000163167 -0.00168823)
(-7.90196e-05 -5.52518e-05 -0.0018597)
(-1.25724e-05 -0.000295 -0.0013901)
(-1.35232e-05 -1.05539e-05 -0.00078174)
(-0.000218757 -0.000175061 -0.00292546)
(-0.000252766 -7.42016e-05 -0.00293755)
(-0.000269599 -0.000359854 -0.00231124)
(-0.000263411 -0.000117684 -0.00334395)
(-0.000109511 -7.58389e-05 -0.00241308)
(-0.000400121 -8.92855e-05 -0.00253098)
(-0.000143968 -0.000111293 -0.00179553)
(-0.00025622 -8.15052e-05 -0.00123469)
(-1.77906e-06 -1.91251e-05 -0.00157124)
(-0.000103649 -6.12538e-05 -0.00180023)
(-6.88679e-05 1.44047e-05 -0.00179463)
(-0.00032341 -0.000125517 -0.00171504)
(1.34273e-05 1.94919e-05 -0.00174701)
(2.16808e-06 -3.48739e-05 -0.00172457)
(-2.39169e-05 2.01557e-05 -0.001522)
(-0.000115914 -6.51029e-05 -0.0012204)
(2.03316e-05 -1.27367e-05 -0.000786545)
(3.668e-05 -1.89663e-05 -0.00138399)
(2.32228e-05 -1.30322e-06 -0.0011672)
(4.67442e-06 -4.46543e-05 -0.00125005)
(7.11251e-05 -1.92996e-06 -0.000956597)
(8.36448e-05 -9.65266e-06 -0.00124133)
(7.82365e-05 3.456e-06 -0.00100478)
(6.72604e-05 -2.74294e-05 -0.00110913)
(9.67393e-05 5.27461e-06 -0.000873069)
(0.000103495 -1.09975e-05 -0.00114026)
(8.9919e-05 8.40261e-06 -0.000881993)
(8.46064e-05 -2.06121e-05 -0.00107894)
(0.00010312 6.9952e-06 -0.000876104)
(0.000105648 -1.32794e-05 -0.00111932)
(8.72044e-05 8.39942e-06 -0.000894079)
(8.4948e-05 -1.75267e-05 -0.00107772)
(9.89458e-05 6.18313e-06 -0.000892722)
(9.96405e-05 -1.37371e-05 -0.00111341)
(8.06144e-05 6.69134e-06 -0.000913896)
(7.97689e-05 -1.53264e-05 -0.00107438)
(9.10086e-05 5.04179e-06 -0.000905622)
(9.11054e-05 -1.28994e-05 -0.00110418)
(7.35282e-05 5.19622e-06 -0.000923947)
(7.32352e-05 -1.3424e-05 -0.00106808)
(8.24409e-05 4.12087e-06 -0.000915277)
(8.23877e-05 -1.16129e-05 -0.00109361)
(6.67991e-05 4.16008e-06 -0.000930343)
(6.66932e-05 -1.17753e-05 -0.00106174)
(7.43187e-05 3.40313e-06 -0.000923707)
(7.42442e-05 -1.02965e-05 -0.00108393)
(6.06133e-05 3.41033e-06 -0.000936317)
(6.05653e-05 -1.03499e-05 -0.00105611)
(6.69083e-05 2.81904e-06 -0.000931403)
(6.68421e-05 -9.08531e-06 -0.0010754)
(5.49801e-05 2.81871e-06 -0.000942073)
(5.49504e-05 -9.1078e-06 -0.00105106)
(6.02215e-05 2.33134e-06 -0.000938357)
(6.01673e-05 -8.00673e-06 -0.0010678)
(4.98604e-05 2.32972e-06 -0.000947381)
(4.98382e-05 -8.01971e-06 -0.00104645)
(5.42045e-05 1.92093e-06 -0.000944596)
(5.4161e-05 -7.05611e-06 -0.00106098)
(4.52087e-05 1.91937e-06 -0.000952205)
(4.51908e-05 -7.0652e-06 -0.00104224)
(4.87932e-05 1.57512e-06 -0.000950192)
(4.87585e-05 -6.22074e-06 -0.00105484)
(4.09826e-05 1.57383e-06 -0.000956593)
(4.0968e-05 -6.22759e-06 -0.00103839)
(4.39268e-05 1.28403e-06 -0.000955216)
(4.38991e-05 -5.48698e-06 -0.00104933)
(3.71443e-05 1.283e-06 -0.000960588)
(3.71322e-05 -5.49225e-06 -0.00103488)
(3.95498e-05 1.03956e-06 -0.00095973)
(3.95276e-05 -4.8423e-06 -0.00104438)
(3.3659e-05 1.03874e-06 -0.000964223)
(3.3649e-05 -4.84638e-06 -0.00103168)
(3.56126e-05 8.34877e-07 -0.000963784)
(3.55949e-05 -4.27563e-06 -0.00103993)
(3.04951e-05 8.34218e-07 -0.000967531)
(3.04869e-05 -4.27879e-06 -0.00102876)
(3.20704e-05 6.63953e-07 -0.000967425)
(3.20562e-05 -3.7773e-06 -0.00103594)
(2.76237e-05 6.63425e-07 -0.00097054)
(2.7617e-05 -3.77976e-06 -0.00102611)
(2.88832e-05 5.21649e-07 -0.000970697)
(2.88719e-05 -3.33888e-06 -0.00103234)
(2.50185e-05 5.21224e-07 -0.000973277)
(2.50129e-05 -3.34079e-06 -0.00102369)
(2.60151e-05 4.03585e-07 -0.000973637)
(2.6006e-05 -2.953e-06 -0.00102911)
(2.26552e-05 4.03243e-07 -0.000975765)
(2.26506e-05 -2.95448e-06 -0.0010215)
(2.34337e-05 3.06028e-07 -0.000976279)
(2.34264e-05 -2.6132e-06 -0.00102621)
(2.05119e-05 3.05752e-07 -0.000978025)
(2.05082e-05 -2.61436e-06 -0.0010195)
(2.11102e-05 2.25793e-07 -0.000978654)
(2.11044e-05 -2.31387e-06 -0.00102359)
(1.85686e-05 2.2557e-07 -0.000980079)
(1.85655e-05 -2.31477e-06 -0.00101768)
(1.90186e-05 1.60175e-07 -0.00098079)
(1.90139e-05 -2.05006e-06 -0.00102124)
(1.68068e-05 1.59994e-07 -0.000981944)
(1.68043e-05 -2.05077e-06 -0.00101603)
(1.71356e-05 1.06849e-07 -0.000982709)
(1.71318e-05 -1.81748e-06 -0.00101913)
(1.521e-05 1.06702e-07 -0.000983638)
(1.52079e-05 -1.81804e-06 -0.00101453)
(1.54401e-05 6.37808e-08 -0.000984435)
(1.54371e-05 -1.61236e-06 -0.00101722)
(1.3763e-05 6.36613e-08 -0.000985175)
(1.37613e-05 -1.6128e-06 -0.00101317)
(1.39133e-05 2.92634e-08 -0.000985987)
(1.39109e-05 -1.43137e-06 -0.00101551)
(1.2452e-05 2.91661e-08 -0.000986571)
(1.24506e-05 -1.43171e-06 -0.00101193)
(1.25384e-05 1.86595e-09 -0.000987382)
(1.25364e-05 -1.27151e-06 -0.00101397)
(1.12644e-05 1.78671e-09 -0.000987837)
(1.12633e-05 -1.27178e-06 -0.00101081)
(1.12999e-05 -1.96154e-08 -0.000988638)
(1.12984e-05 -1.13019e-06 -0.00101259)
(1.01889e-05 -1.968e-08 -0.000988986)
(1.0188e-05 -1.1304e-06 -0.00100979)
(1.01843e-05 -3.61989e-08 -0.000989767)
(1.01831e-05 -1.00516e-06 -0.00101134)
(9.21503e-06 -3.62516e-08 -0.000990027)
(9.21425e-06 -1.00532e-06 -0.00100886)
(9.17932e-06 -4.87541e-08 -0.000990784)
(9.17831e-06 -8.94451e-07 -0.00101022)
(8.33335e-06 -4.87971e-08 -0.000990972)
(8.33272e-06 -8.94581e-07 -0.00100802)
(8.27384e-06 -5.80058e-08 -0.000991698)
(8.27303e-06 -7.96368e-07 -0.00100921)
(7.53527e-06 -5.80409e-08 -0.000991828)
(7.53475e-06 -7.96469e-07 -0.00100726)
(7.45799e-06 -6.4548e-08 -0.000992521)
(7.45734e-06 -7.09413e-07 -0.0010083)
(6.81296e-06 -6.45767e-08 -0.000992604)
(6.81254e-06 -7.09493e-07 -0.00100657)
(6.72283e-06 -6.88988e-08 -0.000993262)
(6.72231e-06 -6.32277e-07 -0.00100748)
(6.15933e-06 -6.89222e-08 -0.000993307)
(6.15898e-06 -6.32341e-07 -0.00100594)
(6.06034e-06 -7.14949e-08 -0.000993929)
(6.05991e-06 -5.63812e-07 -0.00100674)
(5.56792e-06 -7.15141e-08 -0.000993944)
(5.56764e-06 -5.63862e-07 -0.00100538)
(5.46328e-06 -7.26965e-08 -0.00099453)
(5.46294e-06 -5.03006e-07 -0.00100607)
(5.0329e-06 -7.27122e-08 -0.000994521)
(5.03266e-06 -5.03046e-07 -0.00100486)
(4.92517e-06 -7.28e-08 -0.00099507)
(4.9249e-06 -4.48973e-07 -0.00100547)
(4.54894e-06 -7.28129e-08 -0.000995043)
(4.54875e-06 -4.49005e-07 -0.0010044)
(4.44015e-06 -7.20488e-08 -0.000995557)
(4.43993e-06 -4.00932e-07 -0.00100493)
(4.11123e-06 -7.20593e-08 -0.000995516)
(4.11107e-06 -4.00956e-07 -0.00100398)
(4.00298e-06 -7.06421e-08 -0.000995996)
(4.0028e-06 -3.58194e-07 -0.00100445)
(3.71539e-06 -7.06507e-08 -0.000995945)
(3.71526e-06 -3.58214e-07 -0.0010036)
(3.6089e-06 -6.87424e-08 -0.000996391)
(3.60876e-06 -3.20156e-07 -0.00100401)
(3.35746e-06 -6.87494e-08 -0.000996333)
(3.35736e-06 -3.20172e-07 -0.00100325)
(3.25367e-06 -6.64825e-08 -0.000996747)
(3.25355e-06 -2.86285e-07 -0.00100361)
(3.03384e-06 -6.64882e-08 -0.000996684)
(3.03376e-06 -2.86297e-07 -0.00100294)
(2.93344e-06 -6.39703e-08 -0.000997068)
(2.93334e-06 -2.56109e-07 -0.00100326)
(2.74128e-06 -6.3975e-08 -0.000997002)
(2.74121e-06 -2.56119e-07 -0.00100266)
(2.64475e-06 -6.12911e-08 -0.000997357)
(2.64468e-06 -2.29216e-07 -0.00100293)
(2.47682e-06 -6.12949e-08 -0.000997289)
(2.47676e-06 -2.29223e-07 -0.0010024)
(2.38451e-06 -5.85104e-08 -0.000997617)
(2.38445e-06 -2.05237e-07 -0.00100265)
(2.23777e-06 -5.85135e-08 -0.000997549)
(2.23773e-06 -2.05243e-07 -0.00100217)
(2.1499e-06 -5.56778e-08 -0.000997852)
(2.14985e-06 -1.8385e-07 -0.00100238)
(2.02172e-06 -5.56804e-08 -0.000997785)
(2.02169e-06 -1.83855e-07 -0.00100196)
(1.93841e-06 -5.2832e-08 -0.000998064)
(1.93838e-06 -1.64768e-07 -0.00100215)
(1.82647e-06 -5.28341e-08 -0.000997998)
(1.82644e-06 -1.64772e-07 -0.00100177)
(1.74777e-06 -5.00013e-08 -0.000998256)
(1.74774e-06 -1.47736e-07 -0.00100194)
(1.65003e-06 -5.0003e-08 -0.00099819)
(1.65001e-06 -1.47739e-07 -0.0010016)
(1.57592e-06 -4.72087e-08 -0.000998428)
(1.5759e-06 -1.32529e-07 -0.00100175)
(1.4906e-06 -4.72101e-08 -0.000998364)
(1.49058e-06 -1.32532e-07 -0.00100144)
(1.42102e-06 -4.44722e-08 -0.000998583)
(1.421e-06 -1.18949e-07 -0.00100157)
(1.34654e-06 -4.44733e-08 -0.000998522)
(1.34653e-06 -1.18951e-07 -0.0010013)
(1.28141e-06 -4.18053e-08 -0.000998724)
(1.2814e-06 -1.06816e-07 -0.00100142)
(1.2164e-06 -4.18062e-08 -0.000998664)
(1.21639e-06 -1.06817e-07 -0.00100118)
(1.15559e-06 -3.92187e-08 -0.00099885)
(1.15558e-06 -9.59728e-08 -0.00100128)
(1.09883e-06 -3.92194e-08 -0.000998793)
(1.09882e-06 -9.59741e-08 -0.00100106)
(1.0422e-06 -3.67208e-08 -0.000998964)
(1.04219e-06 -8.62794e-08 -0.00100115)
(9.92641e-07 -3.67214e-08 -0.00099891)
(9.92632e-07 -8.62804e-08 -0.00100096)
(9.40027e-07 -3.43186e-08 -0.000999067)
(9.40018e-07 -7.76103e-08 -0.00100104)
(8.96734e-07 -3.43191e-08 -0.000999015)
(8.96727e-07 -7.76111e-08 -0.00100087)
(8.47968e-07 -3.20176e-08 -0.00099916)
(8.47961e-07 -6.98542e-08 -0.00100094)
(8.10131e-07 -3.2018e-08 -0.00099911)
(8.10125e-07 -6.98548e-08 -0.00100078)
(7.65035e-07 -2.98218e-08 -0.000999244)
(7.65029e-07 -6.29118e-08 -0.00100084)
(7.31944e-07 -2.98222e-08 -0.000999197)
(7.31939e-07 -6.29123e-08 -0.00100071)
(6.90333e-07 -2.77344e-08 -0.00099932)
(6.90328e-07 -5.66947e-08 -0.00100076)
(6.61372e-07 -2.77347e-08 -0.000999275)
(6.61368e-07 -5.66951e-08 -0.00100064)
(6.23058e-07 -2.57572e-08 -0.000999388)
(6.23054e-07 -5.1124e-08 -0.00100069)
(5.97691e-07 -2.57574e-08 -0.000999346)
(5.97687e-07 -5.11243e-08 -0.00100057)
(5.62484e-07 -2.3891e-08 -0.000999449)
(5.62481e-07 -4.61293e-08 -0.00100062)
(5.40246e-07 -2.38912e-08 -0.00099941)
(5.40243e-07 -4.61296e-08 -0.00100052)
(5.0796e-07 -2.21356e-08 -0.000999505)
(5.07957e-07 -4.16481e-08 -0.00100056)
(4.88447e-07 -2.21357e-08 -0.000999468)
(4.88445e-07 -4.16483e-08 -0.00100047)
(4.58896e-07 -2.04898e-08 -0.000999555)
(4.58894e-07 -3.76244e-08 -0.0010005)
(4.41761e-07 -2.04899e-08 -0.000999521)
(4.4176e-07 -3.76246e-08 -0.00100042)
(4.14765e-07 -1.89515e-08 -0.0009996)
(4.14763e-07 -3.40086e-08 -0.00100045)
(3.99708e-07 -1.89516e-08 -0.000999568)
(3.99706e-07 -3.40088e-08 -0.00100038)
(3.75091e-07 -1.75178e-08 -0.000999641)
(3.7509e-07 -3.07565e-08 -0.00100041)
(3.61852e-07 -1.75179e-08 -0.000999612)
(3.61851e-07 -3.07566e-08 -0.00100034)
(3.39447e-07 -1.61849e-08 -0.000999678)
(3.39446e-07 -2.78287e-08 -0.00100036)
(3.27804e-07 -1.6185e-08 -0.000999651)
(3.27803e-07 -2.78288e-08 -0.00100031)
(3.0745e-07 -1.49485e-08 -0.000999712)
(3.0745e-07 -2.51904e-08 -0.00100033)
(2.97208e-07 -1.49486e-08 -0.000999686)
(2.97208e-07 -2.51905e-08 -0.00100028)
(2.78757e-07 -1.38035e-08 -0.000999742)
(2.78756e-07 -2.28107e-08 -0.00100029)
(2.69749e-07 -1.38036e-08 -0.000999719)
(2.69749e-07 -2.28108e-08 -0.00100025)
(2.53058e-07 -1.27446e-08 -0.00099977)
(2.53057e-07 -2.06621e-08 -0.00100026)
(2.4514e-07 -1.27447e-08 -0.000999748)
(2.4514e-07 -2.06622e-08 -0.00100022)
(2.30079e-07 -1.17662e-08 -0.000999795)
(2.30078e-07 -1.87204e-08 -0.00100024)
(2.23124e-07 -1.17662e-08 -0.000999775)
(2.23124e-07 -1.87204e-08 -0.0010002)
(2.09573e-07 -1.08624e-08 -0.000999818)
(2.09572e-07 -1.6964e-08 -0.00100021)
(2.03471e-07 -1.08624e-08 -0.000999799)
(2.03471e-07 -1.6964e-08 -0.00100018)
(1.91321e-07 -1.00277e-08 -0.000999838)
(1.9132e-07 -1.5374e-08 -0.00100019)
(1.85974e-07 -1.00277e-08 -0.000999821)
(1.85974e-07 -1.5374e-08 -0.00100016)
(1.75127e-07 -9.25612e-09 -0.000999857)
(1.75127e-07 -1.39336e-08 -0.00100017)
(1.7045e-07 -9.25613e-09 -0.000999842)
(1.70449e-07 -1.39336e-08 -0.00100014)
(1.60819e-07 -8.54212e-09 -0.000999875)
(1.60819e-07 -1.26279e-08 -0.00100015)
(1.56733e-07 -8.54213e-09 -0.00099986)
(1.56733e-07 -1.26279e-08 -0.00100012)
(1.48243e-07 -7.88006e-09 -0.000999891)
(1.48243e-07 -1.14438e-08 -0.00100013)
(1.4468e-07 -7.88006e-09 -0.000999877)
(1.4468e-07 -1.14438e-08 -0.00100011)
(1.37266e-07 -7.26413e-09 -0.000999905)
(1.37266e-07 -1.037e-08 -0.00100011)
(1.3416e-07 -7.26414e-09 -0.000999893)
(1.3416e-07 -1.037e-08 -0.00100009)
(1.27772e-07 -6.68784e-09 -0.000999919)
(1.27772e-07 -9.39808e-09 -0.0010001)
(1.25062e-07 -6.68784e-09 -0.000999907)
(1.25062e-07 -9.39808e-09 -0.00100008)
(1.19662e-07 -6.1432e-09 -0.000999932)
(1.19662e-07 -8.52428e-09 -0.00100008)
(1.17281e-07 -6.1432e-09 -0.000999921)
(1.17281e-07 -8.52429e-09 -0.00100007)
(1.12861e-07 -5.62248e-09 -0.000999944)
(1.12861e-07 -7.75636e-09 -0.00100007)
(1.10727e-07 -5.62248e-09 -0.000999934)
(1.10727e-07 -7.75636e-09 -0.00100005)
(1.07345e-07 -5.12732e-09 -0.000999955)
(1.07345e-07 -7.12599e-09 -0.00100006)
(1.05346e-07 -5.12732e-09 -0.000999946)
(1.05346e-07 -7.12599e-09 -0.00100004)
(1.03236e-07 -4.69158e-09 -0.000999967)
(1.03236e-07 -6.69443e-09 -0.00100004)
(1.01233e-07 -4.69158e-09 -0.000999958)
(1.01233e-07 -6.69443e-09 -0.00100003)
(1.01028e-07 -4.36333e-09 -0.000999977)
(1.01028e-07 -6.56803e-09 -0.00100003)
(9.88233e-08 -4.36333e-09 -0.000999968)
(9.88233e-08 -6.56803e-09 -0.00100002)
)
;

boundaryField
{
    inlet
    {
        type            zeroGradient;
    }
    outlet
    {
        type            zeroGradient;
    }
    repeat_boundary
    {
        type            slip;
    }
}


// ************************************************************************* //
