FoamFile
{version 2.0; format ascii;class Cloud<passiveParticle>; location 0;object  positions;}
345
(
( 0.00101791 -0.00132762 0.000497888 ) 0 
( 0.00441609 -0.00109753 0.000498786 ) 0 
( 0.00348377 -0.00280865 0.000498671 ) 0 
( 0.00248772 -0.00289069 0.000498165 ) 0 
( 0.00185205 -0.00187712 0.000497966 ) 0 
( 0.00194788 -0.00373145 0.000497663 ) 0 
( 0.00418356 -0.00209486 0.000498452 ) 0 
( 0.00240409 -0.0046202 0.000496859 ) 0 
( 0.00494756 -0.000251138 0.000498279 ) 0 
( 0.003717 -0.00441715 0.000496841 ) 0 
( 0.00294615 -0.00378023 0.000497859 ) 0 
( 2.02656e-05 -0.00138248 0.000498645 ) 0 
( 0.000360055 -0.000442699 0.000498432 ) 0 
( 0.00284854 -0.00195939 0.000498979 ) 0 
( 0.003418 -0.00113833 0.000497928 ) 0 
( 0.000287965 -0.00436993 0.000498278 ) 0 
( 0.000954377 -0.00362516 0.000499289 ) 0 
( 0.00232275 -0.000370613 0.00121634 ) 0 
( 0.000153173 -0.00198875 0.00130227 ) 0 
( 0.00299905 -0.000231687 0.000497378 ) 0 
( 0.00266636 -0.0013774 0.0014102 ) 0 
( 0.00466416 -0.00409664 0.000498757 ) 0 
( 0.00153598 -0.00047292 0.000498055 ) 0 
( 0.00150511 -0.0028057 0.000655484 ) 0 
( 0.00477875 -0.00194002 0.00128531 ) 0 
( 0.00443324 -0.00312464 0.000498485 ) 0 
( 0.00242184 -0.00105592 0.000497553 ) 0 
( 0.000654839 -0.00230597 0.000497881 ) 0 
( 3.0657e-05 -0.00324388 0.000498602 ) 0 
( 0.00139334 -0.0045689 0.000497893 ) 0 
( 0.000442909 -0.00395328 0.00139166 ) 0 
( 0.00198435 -0.00483144 0.00137626 ) 0 
( 0.00353709 -0.00182639 0.00121089 ) 0 
( 0.00433436 -0.00468923 0.0012326 ) 0 
( 0.00229706 -0.00229724 0.00128685 ) 0 
( 0.000673693 -0.0029945 0.00122245 ) 0 
( 0.00339187 -0.000599917 0.00133856 ) 0 
( 0.00243776 -0.0039419 0.00134159 ) 0 
( 0.00299541 -0.00300852 0.00134882 ) 0 
( 0.00422778 -0.00112986 0.00147872 ) 0 
( 0.00428413 -0.000161894 0.00123925 ) 0 
( 0.00143771 -0.0039966 0.00131348 ) 0 
( 0.00308799 -0.00469672 0.00121911 ) 0 
( 0.00441169 -0.00365658 0.00180225 ) 0 
( 0.000955947 -0.000163836 0.00124961 ) 0 
( 0.00123285 -0.00203584 0.00126465 ) 0 
( 0.00188441 -0.00315071 0.00160067 ) 0 
( 0.000532243 -0.00106457 0.00132878 ) 0 
( 0.00375088 -0.00359258 0.00105759 ) 0 
( 0.00224349 -0.000803981 0.00211128 ) 0 
( 0.00171489 -0.00116462 0.00119477 ) 0 
( 4.57844e-05 -0.00486995 0.00132865 ) 0 
( 0.00302464 -0.0022258 0.00196991 ) 0 
( 0.00405594 -0.00267414 0.00130621 ) 0 
( 6.16417e-05 -0.0019124 0.00277526 ) 0 
( 0.00476683 -0.000410595 0.00207801 ) 0 
( 0.00129999 -0.00252907 0.0021288 ) 0 
( 0.00495273 -0.00243014 0.00213773 ) 0 
( 0.00188541 -0.00173041 0.00199961 ) 0 
( 0.000748409 -0.00169759 0.00206944 ) 0 
( 0.000989846 -0.00448385 0.00207725 ) 0 
( 0.00123356 -0.000788698 0.00198458 ) 0 
( 0.0034272 -0.00129833 0.00205031 ) 0 
( 0.00400545 -0.00210963 0.00212874 ) 0 
( 0.00363845 -0.00310104 0.00210657 ) 0 
( 0.00101777 -0.00348491 0.00206069 ) 0 
( 0.00030428 -0.00259154 0.00208425 ) 0 
( 0.0034599 -0.00405949 0.00189144 ) 0 
( 0.00412685 -0.00413644 0.00263144 ) 0 
( 0.000677934 -0.000174941 0.00254333 ) 0 
( 3.02759e-05 -0.00354357 0.00220319 ) 0 
( 0.00268288 -0.00478231 0.0021272 ) 0 
( 0.00270455 -0.00347403 0.00218251 ) 0 
( 0.00258605 -0.00417538 0.00291827 ) 0 
( 0.00394271 -0.000643165 0.0025987 ) 0 
( 0.000250826 -0.00497497 0.00253779 ) 0 
( 0.00166873 -0.000204538 0.00266757 ) 0 
( 0.00460942 -0.00135229 0.00237486 ) 0 
( 0.00263879 -0.00267304 0.00277586 ) 0 
( 0.00103546 -0.00204453 0.00296065 ) 0 
( 0.00164748 -0.00119487 0.00280892 ) 0 
( 0.00265126 -0.00156238 0.00261859 ) 0 
( 0.00447351 -0.00313896 0.0026532 ) 0 
( 0.000757249 -0.00300228 0.00289472 ) 0 
( 0.00182695 -0.00323624 0.00259462 ) 0 
( 0.00485975 -0.00451178 0.00206193 ) 0 
( 0.00192237 -0.00413656 0.00217369 ) 0 
( 0.000655014 -0.00111629 0.00287535 ) 0 
( 0.000540388 -0.00407992 0.00287248 ) 0 
( 0.00297984 -0.0006515 0.00286724 ) 0 
( 0.000352184 -0.00241085 0.00359094 ) 0 
( 0.00371991 -0.00156371 0.00296542 ) 0 
( 0.00332389 -0.00350449 0.00296427 ) 0 
( 0.00454122 -0.00213222 0.00299608 ) 0 
( 0.00442255 -0.001004 0.00339819 ) 0 
( 0.00338448 -0.004772 0.00284195 ) 0 
( 0.00200256 -0.00203643 0.00320975 ) 0 
( 0.00158709 -0.00464908 0.00296082 ) 0 
( 0.00123922 -0.000584488 0.00348581 ) 0 
( 0.00136704 -0.00374398 0.00331947 ) 0 
( 0.00379629 -0.000231639 0.003496 ) 0 
( 0.00237013 -0.00113312 0.00349589 ) 0 
( 0.000376028 -8.11251e-05 0.00348962 ) 0 
( 0.00392748 -0.00209859 0.00378319 ) 0 
( 0.00459664 -0.00469925 0.00352091 ) 0 
( 0.00145292 -0.00278315 0.00357664 ) 0 
( 0.00206967 -0.00429453 0.00376479 ) 0 
( 0.00297196 -0.00201441 0.00344974 ) 0 
( 0.000664442 -0.00331404 0.00388217 ) 0 
( 0.00363984 -0.00255798 0.0029434 ) 0 
( 0.00410395 -0.00324119 0.00357415 ) 0 
( 0.00295875 -0.0047499 0.00377441 ) 0 
( 0.0037483 -0.00417524 0.00356736 ) 0 
( 0.00230862 -0.00333482 0.00346418 ) 0 
( 0.00172675 -0.0016367 0.00408311 ) 0 
( 0.0002045 -0.00415173 0.0042621 ) 0 
( 0.00078175 -0.00152832 0.00377635 ) 0 
( 0.00101316 -0.00231789 0.00434303 ) 0 
( 0.00333533 -0.00108054 0.00374978 ) 0 
( 0.000221635 -0.000799566 0.00416661 ) 0 
( 0.00167116 -0.00349911 0.00423789 ) 0 
( 0.0031725 -0.00293844 0.00377373 ) 0 
( 0.00494209 -0.00375378 0.0038586 ) 0 
( 0.00201781 -0.000406814 0.00408559 ) 0 
( 0.000891406 -0.00456703 0.00367023 ) 0 
( 0.00459441 -0.000323323 0.00410697 ) 0 
( 0.00485419 -0.00262429 0.00380704 ) 0 
( 0.000946987 -0.000100185 0.0043084 ) 0 
( 0.00269798 -0.00160104 0.00431569 ) 0 
( 0.00371637 -0.00341957 0.00447596 ) 0 
( 0.00110008 -0.00104559 0.00458983 ) 0 
( 0.00283703 -0.00300924 0.00471239 ) 0 
( 0.00286915 -0.00382192 0.00413262 ) 0 
( 0.00290483 -0.00059218 0.00450734 ) 0 
( 0.00427278 -0.00424733 0.00441245 ) 0 
( 0.00238121 -0.00476242 0.00458929 ) 0 
( 0.00229868 -0.002513 0.0040348 ) 0 
( 0.00413553 -0.00127048 0.00431732 ) 0 
( 0.00143586 -0.00442703 0.00452583 ) 0 
( 0.000832836 -0.0036056 0.00482216 ) 0 
( 0.00448578 -0.00215963 0.00460995 ) 0 
( 0.000464256 -0.00271254 0.00507787 ) 0 
( 0.00148654 -0.00182905 0.0050748 ) 0 
( 0.00342427 -0.00220493 0.00463869 ) 0 
( 0.00377044 -0.000105763 0.00462725 ) 0 
( 0.00221295 -7.19933e-05 0.00500598 ) 0 
( 0.000243269 -0.000506605 0.00512105 ) 0 
( 0.00334969 -0.00453115 0.00466692 ) 0 
( 0.00467248 -0.00317342 0.004624 ) 0 
( 0.00143121 -0.00407931 0.00546636 ) 0 
( 0.00165461 -0.00280657 0.004957 ) 0 
( 0.00206458 -0.00104649 0.00485103 ) 0 
( 0.00226254 -0.00383797 0.00496692 ) 0 
( 0.00217247 -0.00147484 0.00574726 ) 0 
( 0.000177278 -0.00349364 0.00562975 ) 0 
( 0.00299913 -0.00128998 0.00521666 ) 0 
( 0.00312958 -0.000177526 0.00538972 ) 0 
( 0.000513139 -0.0016231 0.00515593 ) 0 
( 0.00408664 -0.00475592 0.00530351 ) 0 
( 0.00394791 -0.00160328 0.0052405 ) 0 
( 0.00242196 -0.00217872 0.00508193 ) 0 
( 0.00320991 -0.00374808 0.0052704 ) 0 
( 0.0026812 -0.00455729 0.00551858 ) 0 
( 0.00495624 -0.00157505 0.00530766 ) 0 
( 0.00421128 -0.00376492 0.0052849 ) 0 
( 0.00135797 -0.000928311 0.00554724 ) 0 
( 0.000353752 -0.00438703 0.00521996 ) 0 
( 0.000288604 -0.0010612 0.00595069 ) 0 
( 0.00397166 -0.00279679 0.00522772 ) 0 
( 0.00445301 -0.000688862 0.00506614 ) 0 
( 0.00483042 -0.00110826 0.00618036 ) 0 
( 0.00183761 -0.000139128 0.00592881 ) 0 
( 0.00265708 -0.000680212 0.00611146 ) 0 
( 0.00325977 -0.00221798 0.00562376 ) 0 
( 0.00111646 -0.0031643 0.00571871 ) 0 
( 0.00369256 -0.00405579 0.00608773 ) 0 
( 0.00333735 -0.00312344 0.00603845 ) 0 
( 0.00442968 -0.00219779 0.00588293 ) 0 
( 0.000737352 -0.00223856 0.00591221 ) 0 
( 0.00453537 -0.000186153 0.00592585 ) 0 
( 0.000695983 -0.00418271 0.00613466 ) 0 
( 0.00243322 -0.00301738 0.00562497 ) 0 
( 0.00376488 -0.000814196 0.00582334 ) 0 
( 0.00172859 -0.00235922 0.00588607 ) 0 
( 0.00433365 -0.0031724 0.0060801 ) 0 
( 0.00111471 -0.00143689 0.00637155 ) 0 
( 0.00267324 -0.00249776 0.00644316 ) 0 
( 0.00296388 -0.00376655 0.0067059 ) 0 
( 0.00157645 -0.00462145 0.00630998 ) 0 
( 0.00303621 -0.00157187 0.0063516 ) 0 
( 0.000974743 -0.00044301 0.00633177 ) 0 
( 0.00183874 -0.000815486 0.00666825 ) 0 
( 0.00171306 -0.00313114 0.00651972 ) 0 
( 0.00431605 -0.00477692 0.00638217 ) 0 
( 0.00220042 -0.00387924 0.0060715 ) 0 
( 0.00116471 -0.00234688 0.00680933 ) 0 
( 0.003676 -0.00232012 0.00652627 ) 0 
( 0.000407338 -0.00483996 0.00683056 ) 0 
( 0.00327378 -0.000715975 0.00689723 ) 0 
( 0.000717896 -0.00328748 0.00662705 ) 0 
( 0.000203929 -0.00179062 0.00662811 ) 0 
( 0.00348602 -0.00459454 0.00690781 ) 0 
( 0.00424258 -0.000409958 0.00685375 ) 0 
( 0.00256012 -0.00482696 0.00647185 ) 0 
( 0.0047259 -0.00244648 0.00680366 ) 0 
( 0.000363632 -4.71158e-06 0.0069897 ) 0 
( 0.00109641 -0.0041483 0.00704794 ) 0 
( 0.00397635 -0.00137201 0.00662389 ) 0 
( 0.0020954 -0.00413811 0.00703088 ) 0 
( 0.00140088 -0.00159607 0.00745166 ) 0 
( 0.00236837 -0.000225798 0.00727741 ) 0 
( 0.00429472 -0.00381201 0.00684614 ) 0 
( 0.000664709 -0.000994428 0.00714499 ) 0 
( 0.00199317 -0.00180373 0.00667401 ) 0 
( 0.00333867 -0.00176427 0.00728394 ) 0 
( 0.00159546 -0.00339605 0.00747531 ) 0 
( 0.00250507 -0.00121444 0.00729734 ) 0 
( 0.00360621 -0.00312174 0.0071175 ) 0 
( 0.00459848 -0.0016278 0.00736219 ) 0 
( 0.00214545 -0.00258348 0.00728617 ) 0 
( 0.00258936 -0.00343304 0.00756947 ) 0 
( 0.00302374 -0.00256243 0.00779511 ) 0 
( 0.0030313 -0.000610451 0.00791833 ) 0 
( 0.00132357 -0.00251031 0.00784878 ) 0 
( 0.00043003 -0.0022558 0.00748285 ) 0 
( 0.00393486 -0.000936582 0.00764468 ) 0 
( 0.000541569 -0.00430511 0.00786355 ) 0 
( 0.0034844 -0.00394604 0.00766786 ) 0 
( 0.00144418 -0.000506648 0.00753312 ) 0 
( 0.000663721 -0.00331442 0.00782589 ) 0 
( 0.00468132 -0.00316199 0.00749973 ) 0 
( 0.00451841 -2.69969e-05 0.00774189 ) 0 
( 0.00161146 -0.00442893 0.00785612 ) 0 
( 0.000206147 -0.000636968 0.00795761 ) 0 
( 0.0021075 -0.000894242 0.00817149 ) 0 
( 0.00371164 -5.96447e-06 0.00833082 ) 0 
( 0.00342929 -0.00154681 0.00825332 ) 0 
( 0.00217799 -0.00283284 0.00825439 ) 0 
( 0.00450793 -0.0041068 0.00777583 ) 0 
( 0.00442071 -0.00177454 0.00833492 ) 0 
( 0.00159932 -0.00362362 0.00844772 ) 0 
( 0.00260968 -0.00438646 0.0078656 ) 0 
( 0.00486105 -0.000923604 0.00802029 ) 0 
( 0.00219985 -0.00187143 0.00798477 ) 0 
( 0.00381707 -0.00480186 0.00806111 ) 0 
( 0.00106754 -0.00107335 0.00826428 ) 0 
( 0.00252775 -3.48372e-05 0.0088133 ) 0 
( 0.000319288 -0.00173255 0.00832702 ) 0 
( 0.00402609 -0.00239233 0.00765554 ) 0 
( 0.000644461 -0.00264729 0.00856859 ) 0 
( 0.00411258 -0.00408642 0.00869265 ) 0 
( 0.00407412 -0.00088624 0.0086354 ) 0 
( 0.00395941 -0.00323641 0.00818709 ) 0 
( 0.00301392 -0.00484792 0.00865432 ) 0 
( 0.00150398 -0.00282887 0.0090462 ) 0 
( 0.0015388 -0.000383034 0.00881487 ) 0 
( 0.00490379 -0.0049038 0.00824076 ) 0 
( 0.00210536 -0.00443841 0.00872615 ) 0 
( 0.00353387 -0.00245848 0.0086482 ) 0 
( 0.00144833 -0.00191626 0.00864247 ) 0 
( 0.00295543 -0.00366837 0.00846951 ) 0 
( 0.00438888 -6.06426e-05 0.009102 ) 0 
( 0.000677515 -0.00366502 0.00882916 ) 0 
( 0.00118801 -0.00119347 0.00928155 ) 0 
( 0.00481634 -0.0013291 0.00913754 ) 0 
( 0.00363127 -0.00164604 0.00922643 ) 0 
( 0.00273762 -0.00289174 0.00907929 ) 0 
( 0.00155603 -0.00483922 0.00953111 ) 0 
( 0.00271337 -0.00192202 0.00884011 ) 0 
( 0.00436893 -0.00231908 0.00917868 ) 0 
( 0.00196393 -0.00205335 0.00948765 ) 0 
( 0.00217521 -0.00113541 0.00913868 ) 0 
( 0.000606279 -0.00473377 0.00918489 ) 0 
( 0.00480649 -0.00462081 0.00919816 ) 0 
( 0.00363534 -0.00332652 0.00913173 ) 0 
( 0.00384873 -0.00490578 0.00920072 ) 0 
( 0.00461446 -0.00325998 0.00894674 ) 0 
( 0.00310283 -0.000848626 0.00888874 ) 0 
( 0.000490267 -0.000579977 0.00891411 ) 0 
( 0.00304508 -0.000428685 0.00979363 ) 0 
( 0.00206388 -0.000290979 0.00966071 ) 0 
( 0.00397313 -0.000799053 0.00963134 ) 0 
( 0.00112005 -0.00395218 0.00967743 ) 0 
( 0.000564982 -0.0019736 0.00930111 ) 0 
( 0.00308978 -0.00413424 0.00934872 ) 0 
( 8.43451e-05 -0.00397277 0.00957226 ) 0 
( 0.00210552 -0.00362986 0.00931297 ) 0 
( 0.00179909 -0.00125713 0.0100693 ) 0 
( 0.00406525 -0.00403616 0.0096892 ) 0 
( 0.00106514 -0.000289359 0.00968959 ) 0 
( 0.000579856 -0.00294885 0.0095194 ) 0 
( 0.00426346 -0.00305388 0.00985953 ) 0 
( 0.000218319 -0.000329841 0.0102177 ) 0 
( 0.0017868 -0.000418125 0.0106124 ) 0 
( 0.0028428 -0.00337357 0.00994841 ) 0 
( 0.00240633 -0.00453368 0.00995778 ) 0 
( 2.50683e-05 -0.00327446 0.0102844 ) 0 
( 0.00432357 -0.00168069 0.00994655 ) 0 
( 0.0034405 -0.00251489 0.00968154 ) 0 
( 0.00279892 -0.00158509 0.00977706 ) 0 
( 0.000498198 -0.00126455 0.0100017 ) 0 
( 0.00336879 -0.00450016 0.0102357 ) 0 
( 0.000518225 -0.00412991 0.0104588 ) 0 
( 0.00195575 -0.00291467 0.00999459 ) 0 
( 0.00395085 -0.00259607 0.010691 ) 0 
( 0.00209228 -0.00208848 0.0105402 ) 0 
( 0.00360723 -0.000745603 0.0105598 ) 0 
( 0.00116284 -0.00230727 0.0100286 ) 0 
( 0.00366853 -0.00356724 0.0104777 ) 0 
( 0.00440693 -0.00469953 0.0103542 ) 0 
( 0.00488537 -0.000925481 0.0102831 ) 0 
( 0.00182857 -0.00383146 0.0103719 ) 0 
( 0.000458578 -0.00248418 0.0107156 ) 0 
( 0.00296067 -0.00258333 0.0105554 ) 0 
( 0.00263035 -0.000955583 0.0105351 ) 0 
( 0.00348514 -0.00173521 0.0104877 ) 0 
( 0.00431958 -0.000101462 0.0102575 ) 0 
( 0.00102471 -0.00323679 0.0103687 ) 0 
( 0.00486018 -0.00218136 0.0106674 ) 0 
( 0.000884166 -0.000803807 0.0108001 ) 0 
( 0.0013145 -0.000607798 0.0116809 ) 0 
( 0.00134086 -0.00461683 0.0107512 ) 0 
( 0.00191944 -0.00122837 0.0111827 ) 0 
( 0.00274593 -0.00393143 0.0107721 ) 0 
( 0.00320836 -0.00321293 0.0112913 ) 0 
( 0.00107017 -0.0037719 0.0112118 ) 0 
( 0.00277293 -0.00174874 0.0111887 ) 0 
( 0.00430611 -0.0013974 0.0109468 ) 0 
( 0.00113846 -0.00176785 0.0108696 ) 0 
( 0.00462473 -0.00340702 0.0107222 ) 0 
( 0.00220415 -0.00310571 0.0109469 ) 0 
( 0.00425966 -0.000371247 0.0112181 ) 0 
( 0.000197225 -0.00022819 0.0112422 ) 0 
( 0.0019805 -0.00416389 0.0113715 ) 0 
( 0.00370046 -0.00200647 0.0114585 ) 0 
( 0.00178017 -0.00329913 0.0118315 ) 0 
( 0.00131864 -0.00270239 0.0111755 ) 0 
( 0.000464817 -0.00480601 0.0111935 ) 0 
( 0.00391926 -0.00428785 0.0111237 ) 0 
( 0.00273278 -0.000849552 0.0116239 ) 0 
( 0.0045785 -0.00273077 0.0114572 ) 0 
( 8.63915e-05 -0.00362833 0.0113172 ) 0 
( 0.00214646 -0.00238537 0.0116378 ) 0 
( 0.00307579 -0.00482463 0.0111347 ) 0 
( 0.00295042 -0.000118399 0.0109778 ) 0 
)
