/*--------------------------------*- C++ -*----------------------------------*\
  =========                 |
  \\      /  F ield         | OpenFOAM: The Open Source CFD Toolbox
   \\    /   O peration     | Website:  https://openfoam.org
    \\  /    A nd           | Version:  9
     \\/     M anipulation  |
\*---------------------------------------------------------------------------*/
FoamFile
{
    format      ascii;
    class       volScalarField;
    location    "0.02";
    object      p;
}
// * * * * * * * * * * * * * * * * * * * * * * * * * * * * * * * * * * * * * //

dimensions      [0 2 -2 0 0 0 0];

internalField   nonuniform List<scalar> 
9000
(
-1.51938e-10
-1.66654e-10
-1.33163e-10
-5.53623e-11
8.5195e-11
1.35903e-10
1.2431e-10
1.26808e-10
1.16906e-10
1.10453e-10
-1.83777e-10
-1.9178e-10
-1.49677e-10
-7.05578e-11
5.65204e-11
1.149e-10
1.12316e-10
1.16093e-10
1.12864e-10
1.06653e-10
-1.95523e-10
-1.99428e-10
-1.71064e-10
-1.15232e-10
-3.33606e-11
3.38341e-11
5.47243e-11
8.49487e-11
9.5687e-11
9.74916e-11
-2.12077e-10
-2.1942e-10
-1.99022e-10
-1.6589e-10
-1.3362e-10
-4.40227e-11
5.3831e-12
6.0621e-11
8.88071e-11
1.00281e-10
-2.69656e-10
-2.66807e-10
-2.42695e-10
-2.3304e-10
-2.48656e-10
-1.00627e-10
-2.35446e-11
5.14673e-11
9.05709e-11
1.03904e-10
-2.73281e-10
-2.74395e-10
-2.48312e-10
-2.209e-10
-1.88951e-10
-2.13177e-10
-6.57793e-11
1.59455e-11
5.34434e-11
6.49263e-11
-2.43669e-10
-2.50559e-10
-2.43379e-10
-2.31589e-10
-2.12234e-10
-1.72661e-10
-9.94673e-11
-5.00127e-11
-2.07682e-11
-1.06449e-11
-2.50154e-10
-2.65239e-10
-2.56828e-10
-2.38878e-10
-2.12315e-10
-1.74261e-10
-1.38409e-10
-1.11712e-10
-9.26094e-11
-8.40884e-11
-2.72812e-10
-2.85473e-10
-2.74487e-10
-2.53579e-10
-2.13183e-10
-1.81396e-10
-1.7006e-10
-1.57878e-10
-1.42458e-10
-1.32042e-10
-2.83015e-10
-2.90577e-10
-2.83171e-10
-2.6319e-10
-2.19693e-10
-1.92393e-10
-1.92854e-10
-1.83256e-10
-1.65594e-10
-1.52407e-10
-4.1538e-10
-4.41429e-10
-3.49799e-10
-1.71302e-10
1.09454e-10
2.59284e-10
2.7579e-10
3.19279e-10
3.29844e-10
3.23244e-10
-4.82444e-10
-4.84641e-10
-3.89461e-10
-2.23555e-10
4.96377e-12
1.64485e-10
2.27431e-10
2.87865e-10
3.07712e-10
3.01497e-10
-4.89532e-10
-4.89637e-10
-4.28418e-10
-3.1997e-10
-1.76162e-10
-9.88087e-12
1.14221e-10
2.22909e-10
2.74795e-10
2.94664e-10
-5.0467e-10
-5.08175e-10
-4.70954e-10
-4.17003e-10
-3.57392e-10
-1.45002e-10
2.25972e-11
1.73714e-10
2.6323e-10
3.05778e-10
-5.91877e-10
-5.62667e-10
-5.39941e-10
-5.51503e-10
-5.87266e-10
-2.13435e-10
-2.46115e-11
1.46612e-10
2.5119e-10
2.99946e-10
-6.20074e-10
-6.04989e-10
-5.81533e-10
-5.53396e-10
-4.49338e-10
-5.19017e-10
-1.82472e-10
2.67177e-11
1.36289e-10
1.81811e-10
-5.87516e-10
-6.04313e-10
-6.1455e-10
-6.10221e-10
-5.57005e-10
-4.9173e-10
-2.91684e-10
-1.52351e-10
-6.53012e-11
-2.92439e-11
-6.53649e-10
-6.93063e-10
-6.93446e-10
-6.74776e-10
-6.33305e-10
-5.41894e-10
-4.21518e-10
-3.27997e-10
-2.60911e-10
-2.24779e-10
-7.41679e-10
-7.78297e-10
-7.68159e-10
-7.42094e-10
-6.93354e-10
-6.05191e-10
-5.28634e-10
-4.57689e-10
-3.93456e-10
-3.49893e-10
-7.83616e-10
-8.09708e-10
-8.02853e-10
-7.78587e-10
-7.38381e-10
-6.58447e-10
-5.91934e-10
-5.17715e-10
-4.46173e-10
-3.97022e-10
-5.67364e-10
-5.91252e-10
-4.85423e-10
-3.05812e-10
-8.17278e-11
1.53622e-10
3.22394e-10
4.62906e-10
5.29692e-10
5.47864e-10
-6.29825e-10
-6.25795e-10
-5.37635e-10
-3.85822e-10
-2.07861e-10
2.49484e-11
2.58499e-10
4.19325e-10
4.95881e-10
5.27566e-10
-5.99139e-10
-5.97953e-10
-5.51689e-10
-4.61665e-10
-3.32126e-10
-1.17791e-10
1.61491e-10
3.57506e-10
4.71967e-10
5.31842e-10
-5.5349e-10
-5.49294e-10
-5.50058e-10
-5.26947e-10
-4.50553e-10
-2.25094e-10
7.18584e-11
3.02618e-10
4.55306e-10
5.31604e-10
-5.2699e-10
-5.15751e-10
-5.84432e-10
-6.54383e-10
-6.65859e-10
-2.78377e-10
-1.15935e-12
2.40712e-10
4.07524e-10
4.8723e-10
-5.98088e-10
-6.08132e-10
-6.91058e-10
-7.55705e-10
-6.35895e-10
-6.19492e-10
-2.51649e-10
3.30409e-11
2.13393e-10
2.92881e-10
-7.07235e-10
-7.62584e-10
-8.39151e-10
-8.88013e-10
-8.43377e-10
-7.52587e-10
-4.68922e-10
-2.4865e-10
-1.0089e-10
-3.80786e-11
-9.12183e-10
-9.86569e-10
-1.0296e-09
-1.05274e-09
-1.04365e-09
-9.1663e-10
-6.96122e-10
-5.16077e-10
-3.86859e-10
-3.16734e-10
-1.09423e-09
-1.16141e-09
-1.1809e-09
-1.19316e-09
-1.19654e-09
-1.06576e-09
-8.65243e-10
-6.96593e-10
-5.65007e-10
-4.83526e-10
-1.17566e-09
-1.22517e-09
-1.24267e-09
-1.25178e-09
-1.27308e-09
-1.15666e-09
-9.39602e-10
-7.61599e-10
-6.25233e-10
-5.37775e-10
-5.34586e-10
-5.54969e-10
-4.7847e-10
-3.52605e-10
-2.29005e-10
5.11412e-11
4.04481e-10
6.48883e-10
7.79105e-10
8.37944e-10
-5.68724e-10
-5.72624e-10
-5.20082e-10
-4.13488e-10
-2.84943e-10
-2.30544e-11
3.63353e-10
6.137e-10
7.52895e-10
8.30324e-10
-4.96319e-10
-5.03393e-10
-4.96564e-10
-4.40406e-10
-3.16581e-10
-9.00603e-11
2.96767e-10
5.57764e-10
7.25243e-10
8.14746e-10
-3.80881e-10
-3.95707e-10
-4.68417e-10
-4.89709e-10
-3.91741e-10
-2.0547e-10
1.85483e-10
4.71346e-10
6.65836e-10
7.56971e-10
-2.48538e-10
-3.27222e-10
-5.23838e-10
-6.45424e-10
-6.01192e-10
-3.72766e-10
1.46887e-11
3.29178e-10
5.39432e-10
6.25086e-10
-3.72359e-10
-4.77107e-10
-7.06344e-10
-8.83631e-10
-8.44247e-10
-6.07522e-10
-2.75943e-10
4.94779e-11
2.74836e-10
3.65931e-10
-6.98481e-10
-8.12594e-10
-9.66149e-10
-1.07332e-09
-1.08023e-09
-9.25402e-10
-5.92449e-10
-3.07449e-10
-1.12736e-10
-3.05013e-11
-1.04534e-09
-1.1564e-09
-1.24799e-09
-1.31552e-09
-1.34373e-09
-1.18714e-09
-8.73301e-10
-6.12966e-10
-4.30863e-10
-3.32365e-10
-1.30853e-09
-1.40142e-09
-1.45423e-09
-1.49938e-09
-1.53293e-09
-1.37545e-09
-1.04981e-09
-7.93758e-10
-6.10304e-10
-5.0113e-10
-1.41786e-09
-1.48244e-09
-1.52074e-09
-1.54901e-09
-1.5808e-09
-1.44689e-09
-1.09841e-09
-8.41382e-10
-6.62697e-10
-5.4641e-10
-2.72891e-10
-2.82678e-10
-2.20025e-10
-9.97947e-11
4.04212e-11
3.17873e-10
7.25287e-10
1.00103e-09
1.15659e-09
1.2349e-09
-2.8426e-10
-2.89344e-10
-2.39316e-10
-1.24228e-10
4.40118e-11
3.0345e-10
6.98735e-10
9.62875e-10
1.12266e-09
1.21267e-09
-2.10532e-10
-2.21481e-10
-2.25922e-10
-1.62919e-10
-8.01123e-12
2.18622e-10
6.02127e-10
8.68289e-10
1.04376e-09
1.1322e-09
-1.07928e-10
-1.54926e-10
-2.64621e-10
-2.89875e-10
-1.69769e-10
-1.14842e-11
4.05764e-10
6.99532e-10
8.914e-10
9.77115e-10
-3.66945e-11
-1.94547e-10
-4.42846e-10
-5.55692e-10
-4.59258e-10
-4.18697e-10
7.03852e-11
4.24003e-10
6.36662e-10
7.1552e-10
-2.18336e-10
-4.0607e-10
-6.96132e-10
-9.06823e-10
-9.8395e-10
-5.42629e-10
-2.17676e-10
1.03571e-10
3.24838e-10
4.09535e-10
-6.63054e-10
-8.04946e-10
-9.85616e-10
-1.10287e-09
-1.16399e-09
-9.26641e-10
-5.75797e-10
-2.67377e-10
-5.47591e-11
4.52334e-11
-1.0569e-09
-1.17772e-09
-1.28374e-09
-1.3537e-09
-1.3878e-09
-1.20584e-09
-8.45126e-10
-5.48093e-10
-3.41596e-10
-2.21362e-10
-1.34102e-09
-1.43092e-09
-1.48772e-09
-1.52195e-09
-1.51963e-09
-1.35137e-09
-9.79626e-10
-6.9461e-10
-4.92685e-10
-3.63531e-10
-1.44554e-09
-1.49764e-09
-1.53064e-09
-1.53521e-09
-1.49609e-09
-1.35908e-09
-9.95219e-10
-7.24956e-10
-5.30527e-10
-3.90047e-10
2.14065e-10
2.35869e-10
3.40597e-10
5.2279e-10
7.71061e-10
1.00982e-09
1.3046e-09
1.51698e-09
1.6448e-09
1.71313e-09
2.0196e-10
2.28328e-10
3.27388e-10
4.98679e-10
7.38304e-10
9.75964e-10
1.24469e-09
1.44304e-09
1.57634e-09
1.65218e-09
2.20858e-10
2.27819e-10
2.60518e-10
3.68351e-10
5.62104e-10
7.88497e-10
1.06651e-09
1.27669e-09
1.4227e-09
1.49922e-09
2.05105e-10
1.5462e-10
8.29105e-11
1.08102e-10
2.5683e-10
4.38353e-10
7.66773e-10
1.00824e-09
1.17167e-09
1.25786e-09
8.47173e-11
-6.5987e-11
-2.40968e-10
-2.76253e-10
-1.15004e-10
-1.25063e-10
2.94696e-10
6.00336e-10
8.0088e-10
9.04101e-10
-1.5867e-10
-3.33301e-10
-5.42588e-10
-6.61124e-10
-7.41374e-10
-2.98533e-10
9.84578e-13
2.66213e-10
4.67973e-10
5.72888e-10
-5.72095e-10
-6.81275e-10
-8.16578e-10
-8.85317e-10
-9.56828e-10
-6.80204e-10
-3.56672e-10
-6.66362e-11
1.54258e-10
2.8589e-10
-9.15683e-10
-1.00053e-09
-1.07771e-09
-1.11889e-09
-1.13799e-09
-9.38499e-10
-5.91771e-10
-2.99541e-10
-8.01078e-11
6.68093e-11
-1.15797e-09
-1.20624e-09
-1.24414e-09
-1.25104e-09
-1.1937e-09
-1.02009e-09
-6.88756e-10
-4.1702e-10
-2.02226e-10
-4.75511e-11
-1.22836e-09
-1.24848e-09
-1.27e-09
-1.24403e-09
-1.13168e-09
-9.90262e-10
-7.00228e-10
-4.45149e-10
-2.28189e-10
-6.25274e-11
8.7509e-10
9.5641e-10
1.12914e-09
1.37223e-09
1.67653e-09
1.86038e-09
1.99717e-09
2.11617e-09
2.20336e-09
2.25965e-09
8.49846e-10
9.31644e-10
1.08946e-09
1.30165e-09
1.56093e-09
1.75865e-09
1.88453e-09
2.00094e-09
2.10359e-09
2.16945e-09
7.69478e-10
8.14858e-10
9.06371e-10
1.06189e-09
1.27952e-09
1.49284e-09
1.63624e-09
1.77623e-09
1.89837e-09
1.97755e-09
5.88869e-10
5.76758e-10
5.92924e-10
6.93909e-10
8.75342e-10
1.10695e-09
1.26629e-09
1.439e-09
1.59744e-09
1.70803e-09
2.79749e-10
2.14382e-10
1.79023e-10
2.38547e-10
4.24252e-10
5.75057e-10
7.49183e-10
9.75282e-10
1.20684e-09
1.37076e-09
-2.87802e-11
-1.04691e-10
-1.58783e-10
-1.25365e-10
-6.23811e-11
1.28687e-10
3.76469e-10
6.16407e-10
8.57961e-10
1.02753e-09
-3.50896e-10
-3.84898e-10
-4.41932e-10
-4.53045e-10
-4.87764e-10
-2.66154e-10
2.85613e-11
3.15088e-10
5.70757e-10
7.45213e-10
-6.11642e-10
-6.32928e-10
-6.77233e-10
-7.06136e-10
-7.13824e-10
-5.17848e-10
-1.99253e-10
9.77718e-11
3.53345e-10
5.3571e-10
-7.92484e-10
-7.92415e-10
-8.28722e-10
-8.37563e-10
-7.75098e-10
-5.95497e-10
-3.06301e-10
-2.14175e-11
2.39665e-10
4.24485e-10
-8.39172e-10
-8.44403e-10
-8.76319e-10
-8.5443e-10
-7.56416e-10
-5.99854e-10
-3.42219e-10
-5.68229e-11
2.13259e-10
3.93948e-10
1.61512e-09
1.76211e-09
1.97482e-09
2.22659e-09
2.49801e-09
2.64062e-09
2.69757e-09
2.76722e-09
2.84521e-09
2.90661e-09
1.57057e-09
1.69861e-09
1.883e-09
2.09773e-09
2.3389e-09
2.49812e-09
2.55522e-09
2.63428e-09
2.73618e-09
2.80661e-09
1.37189e-09
1.45491e-09
1.59205e-09
1.78e-09
2.01579e-09
2.20071e-09
2.2653e-09
2.37603e-09
2.50886e-09
2.60317e-09
1.04239e-09
1.08339e-09
1.18189e-09
1.34517e-09
1.54481e-09
1.78084e-09
1.8416e-09
2.00274e-09
2.20039e-09
2.33987e-09
6.1709e-10
6.45273e-10
7.23546e-10
8.3723e-10
9.57611e-10
1.27404e-09
1.32486e-09
1.55635e-09
1.86137e-09
2.06482e-09
2.42925e-10
2.73678e-10
3.31615e-10
4.44815e-10
6.05281e-10
5.80828e-10
8.31018e-10
1.14383e-09
1.48249e-09
1.7083e-09
-2.87635e-11
1.06353e-11
8.30874e-12
1.63575e-11
2.82509e-11
1.64712e-10
4.86169e-10
8.22147e-10
1.13759e-09
1.34404e-09
-2.41713e-10
-2.14305e-10
-2.50291e-10
-2.89297e-10
-2.88261e-10
-1.04234e-10
2.29401e-10
5.77537e-10
8.97339e-10
1.10759e-09
-3.99712e-10
-3.80963e-10
-4.3245e-10
-4.60474e-10
-4.4175e-10
-2.4909e-10
7.92775e-11
4.39375e-10
7.71954e-10
9.69297e-10
-4.68177e-10
-4.82174e-10
-5.2537e-10
-5.26987e-10
-5.07338e-10
-3.21101e-10
2.46904e-11
3.98375e-10
7.25628e-10
8.96794e-10
2.3035e-09
2.48868e-09
2.70369e-09
2.94056e-09
3.18727e-09
3.34037e-09
3.4095e-09
3.49749e-09
3.60699e-09
3.68497e-09
2.22303e-09
2.36857e-09
2.55407e-09
2.76878e-09
3.01687e-09
3.18288e-09
3.25093e-09
3.35621e-09
3.48861e-09
3.57007e-09
1.91194e-09
2.01748e-09
2.18191e-09
2.39714e-09
2.65415e-09
2.83576e-09
2.91758e-09
3.06135e-09
3.23239e-09
3.33675e-09
1.47136e-09
1.55344e-09
1.70399e-09
1.90523e-09
2.11098e-09
2.30437e-09
2.42864e-09
2.64692e-09
2.89296e-09
3.03669e-09
9.84393e-10
1.06612e-09
1.20317e-09
1.34147e-09
1.41122e-09
1.68571e-09
1.87851e-09
2.19434e-09
2.54449e-09
2.73042e-09
5.43529e-10
6.36854e-10
7.33816e-10
8.34563e-10
9.52527e-10
1.01863e-09
1.32151e-09
1.7308e-09
2.12865e-09
2.35055e-09
2.41994e-10
3.21953e-10
3.53096e-10
3.77285e-10
4.38155e-10
5.83701e-10
9.61923e-10
1.36174e-09
1.71992e-09
1.93302e-09
-1.1941e-12
4.4953e-11
3.07306e-11
2.12709e-11
6.40789e-11
2.77795e-10
6.66717e-10
1.08546e-09
1.45805e-09
1.66864e-09
-2.01537e-10
-1.76981e-10
-2.00088e-10
-1.97167e-10
-1.79322e-10
5.83012e-11
4.8543e-10
9.33754e-10
1.30976e-09
1.49132e-09
-3.24131e-10
-3.26878e-10
-3.29741e-10
-3.07753e-10
-2.91297e-10
-4.29468e-11
4.34514e-10
8.8516e-10
1.23076e-09
1.37954e-09
2.80612e-09
3.00351e-09
3.22047e-09
3.47548e-09
3.76802e-09
4.00741e-09
4.15958e-09
4.333e-09
4.50779e-09
4.60998e-09
2.67631e-09
2.82675e-09
3.02524e-09
3.27299e-09
3.56748e-09
3.81547e-09
3.97013e-09
4.16291e-09
4.35169e-09
4.45157e-09
2.27798e-09
2.40525e-09
2.60156e-09
2.85747e-09
3.14144e-09
3.39126e-09
3.5814e-09
3.8093e-09
4.0295e-09
4.13866e-09
1.76041e-09
1.88049e-09
2.07536e-09
2.31522e-09
2.55032e-09
2.74887e-09
3.03007e-09
3.32235e-09
3.59012e-09
3.72219e-09
1.22327e-09
1.34018e-09
1.5254e-09
1.71565e-09
1.86767e-09
2.0036e-09
2.40741e-09
2.78087e-09
3.10761e-09
3.25501e-09
6.95102e-10
8.2739e-10
9.65761e-10
1.08186e-09
1.16669e-09
1.5223e-09
1.84625e-09
2.28092e-09
2.65228e-09
2.83222e-09
2.7676e-10
3.80272e-10
4.82087e-10
6.01118e-10
7.65392e-10
1.0346e-09
1.4559e-09
1.89153e-09
2.25133e-09
2.45257e-09
-8.26175e-11
-1.18489e-11
7.15298e-11
1.92267e-10
3.67093e-10
6.85126e-10
1.13897e-09
1.60172e-09
1.98235e-09
2.17421e-09
-3.68504e-10
-3.01586e-10
-2.07171e-10
-6.84889e-11
9.84908e-11
4.44117e-10
9.48246e-10
1.43475e-09
1.80502e-09
1.96962e-09
-5.40172e-10
-4.80702e-10
-3.67318e-10
-2.11858e-10
-1.07329e-11
3.6115e-10
8.96321e-10
1.36674e-09
1.70082e-09
1.84879e-09
3.05315e-09
3.26639e-09
3.52562e-09
3.8568e-09
4.24775e-09
4.65219e-09
4.98117e-09
5.31286e-09
5.59099e-09
5.73802e-09
2.87685e-09
3.05219e-09
3.30384e-09
3.62701e-09
4.00283e-09
4.40729e-09
4.74639e-09
5.08963e-09
5.37101e-09
5.51221e-09
2.42472e-09
2.59876e-09
2.85483e-09
3.1841e-09
3.53494e-09
3.92741e-09
4.30506e-09
4.6633e-09
4.95179e-09
5.08613e-09
1.85077e-09
2.02798e-09
2.29026e-09
2.60676e-09
2.94339e-09
3.24701e-09
3.70675e-09
4.08162e-09
4.3698e-09
4.51384e-09
1.24578e-09
1.41424e-09
1.67647e-09
1.98124e-09
2.34763e-09
2.43538e-09
3.00243e-09
3.41342e-09
3.70397e-09
3.84059e-09
5.76736e-10
7.57098e-10
9.92603e-10
1.2299e-09
1.41127e-09
2.09991e-09
2.42873e-09
2.85582e-09
3.17827e-09
3.33314e-09
-5.28233e-11
8.97585e-11
3.33613e-10
6.52401e-10
1.00946e-09
1.491e-09
1.97943e-09
2.4546e-09
2.80836e-09
3.00557e-09
-5.96319e-10
-4.60037e-10
-1.9513e-10
1.58529e-10
5.85778e-10
1.09046e-09
1.6371e-09
2.13511e-09
2.51317e-09
2.70699e-09
-9.8411e-10
-8.28858e-10
-5.44003e-10
-1.597e-10
3.22588e-10
8.55888e-10
1.41883e-09
1.92722e-09
2.29936e-09
2.48439e-09
-1.19761e-09
-1.04419e-09
-7.48065e-10
-3.37634e-10
2.03053e-10
7.75973e-10
1.33163e-09
1.82804e-09
2.18362e-09
2.37391e-09
3.04955e-09
3.31187e-09
3.67575e-09
4.15075e-09
4.7017e-09
5.35842e-09
5.97923e-09
6.54971e-09
6.9857e-09
7.21471e-09
2.83988e-09
3.08085e-09
3.43718e-09
3.89538e-09
4.43018e-09
5.07645e-09
5.7014e-09
6.26849e-09
6.70022e-09
6.9214e-09
2.35222e-09
2.60576e-09
2.96336e-09
3.42835e-09
3.94813e-09
4.56855e-09
5.20827e-09
5.76661e-09
6.17685e-09
6.3832e-09
1.70901e-09
1.96169e-09
2.32829e-09
2.78993e-09
3.33918e-09
3.86542e-09
4.55202e-09
5.08516e-09
5.45921e-09
5.66391e-09
9.79466e-10
1.20943e-09
1.58263e-09
2.07524e-09
2.75283e-09
2.94904e-09
3.74165e-09
4.29687e-09
4.63841e-09
4.81313e-09
1.03062e-10
3.37557e-10
7.20319e-10
1.17555e-09
1.56816e-09
2.65634e-09
3.13794e-09
3.64351e-09
3.98635e-09
4.16305e-09
-8.2315e-10
-6.11931e-10
-1.67828e-10
4.27432e-10
1.05444e-09
1.8866e-09
2.55379e-09
3.14689e-09
3.5537e-09
3.78567e-09
-1.59174e-09
-1.35261e-09
-8.57725e-10
-1.96344e-10
5.74881e-10
1.3844e-09
2.11824e-09
2.72743e-09
3.17006e-09
3.4148e-09
-2.10303e-09
-1.84073e-09
-1.32232e-09
-6.09162e-10
2.69509e-10
1.09273e-09
1.81068e-09
2.43561e-09
2.89133e-09
3.14363e-09
-2.37767e-09
-2.11489e-09
-1.58059e-09
-8.35115e-10
8.37617e-11
9.46454e-10
1.65356e-09
2.28899e-09
2.75227e-09
3.01766e-09
2.82145e-09
3.1793e-09
3.72544e-09
4.44816e-09
5.29669e-09
6.31828e-09
7.33473e-09
8.23166e-09
8.89811e-09
9.25263e-09
2.57841e-09
2.92547e-09
3.45702e-09
4.16083e-09
5.00404e-09
6.01613e-09
7.01659e-09
7.89964e-09
8.55858e-09
8.90206e-09
2.03073e-09
2.38944e-09
2.9163e-09
3.62626e-09
4.46722e-09
5.46132e-09
6.44599e-09
7.30677e-09
7.92524e-09
8.25445e-09
1.25686e-09
1.59763e-09
2.12908e-09
2.83648e-09
3.726e-09
4.6907e-09
5.68582e-09
6.50527e-09
7.0759e-09
7.39113e-09
3.05253e-10
6.08823e-10
1.14593e-09
1.90913e-09
2.9667e-09
3.64508e-09
4.73496e-09
5.58222e-09
6.11167e-09
6.38706e-09
-8.36164e-10
-5.29092e-10
6.80702e-11
8.6762e-10
1.67288e-09
3.08825e-09
4.00266e-09
4.77249e-09
5.27177e-09
5.53581e-09
-2.09591e-09
-1.77612e-09
-1.08157e-09
-1.33783e-10
8.84613e-10
2.16966e-09
3.19637e-09
4.04929e-09
4.62149e-09
4.94183e-09
-3.11035e-09
-2.73919e-09
-1.97846e-09
-9.43452e-10
2.45872e-10
1.49213e-09
2.56902e-09
3.43858e-09
4.05646e-09
4.39854e-09
-3.78229e-09
-3.39248e-09
-2.59802e-09
-1.50192e-09
-2.10708e-10
1.03437e-09
2.10272e-09
3.00541e-09
3.65034e-09
4.00492e-09
-4.14072e-09
-3.73242e-09
-2.91522e-09
-1.80024e-09
-5.06527e-10
7.60582e-10
1.85033e-09
2.77958e-09
3.44504e-09
3.80707e-09
2.35645e-09
2.85756e-09
3.69232e-09
4.82459e-09
6.17693e-09
7.70796e-09
9.23256e-09
1.05639e-08
1.1548e-08
1.20678e-08
2.04604e-09
2.54147e-09
3.36012e-09
4.47715e-09
5.82424e-09
7.35355e-09
8.85499e-09
1.01734e-08
1.11455e-08
1.16488e-08
1.36902e-09
1.86789e-09
2.67514e-09
3.7883e-09
5.13461e-09
6.66876e-09
8.14386e-09
9.43441e-09
1.03618e-08
1.08581e-08
3.7101e-10
8.36589e-10
1.63964e-09
2.73954e-09
4.11871e-09
5.74201e-09
7.19251e-09
8.43805e-09
9.32496e-09
9.80417e-09
-8.92998e-10
-4.61444e-10
3.43981e-10
1.49276e-09
2.96981e-09
4.59049e-09
6.06171e-09
7.31374e-09
8.15572e-09
8.60429e-09
-2.35727e-09
-1.91879e-09
-1.01335e-09
2.79165e-10
1.77942e-09
3.39087e-09
4.95417e-09
6.20689e-09
7.03453e-09
7.47232e-09
-3.94583e-09
-3.45584e-09
-2.44087e-09
-1.03517e-09
5.79009e-10
2.30242e-09
3.88508e-09
5.17035e-09
6.04184e-09
6.50983e-09
-5.22156e-09
-4.67082e-09
-3.58708e-09
-2.09872e-09
-3.63319e-10
1.40033e-09
2.99957e-09
4.29514e-09
5.20249e-09
5.69044e-09
-6.08944e-09
-5.52041e-09
-4.39862e-09
-2.86708e-09
-1.09337e-09
7.07177e-10
2.32583e-09
3.66079e-09
4.59836e-09
5.0956e-09
-6.54156e-09
-5.93998e-09
-4.80485e-09
-3.27411e-09
-1.52131e-09
2.90514e-10
1.95704e-09
3.32165e-09
4.28102e-09
4.78641e-09
1.59285e-09
2.2976e-09
3.56591e-09
5.30763e-09
7.38629e-09
9.62404e-09
1.18228e-08
1.37308e-08
1.51302e-08
1.58549e-08
1.15497e-09
1.86348e-09
3.11636e-09
4.83882e-09
6.9042e-09
9.13695e-09
1.13364e-08
1.32381e-08
1.46173e-08
1.53264e-08
2.51792e-10
9.50229e-10
2.17885e-09
3.88479e-09
5.95283e-09
8.18245e-09
1.03832e-08
1.2258e-08
1.36064e-08
1.4322e-08
-1.08344e-09
-4.24131e-10
7.9679e-10
2.48851e-09
4.57326e-09
6.90144e-09
9.09797e-09
1.09398e-08
1.22658e-08
1.29729e-08
-2.73809e-09
-2.08995e-09
-8.56132e-10
8.76784e-10
2.95395e-09
5.42946e-09
7.64147e-09
9.46702e-09
1.07444e-08
1.14378e-08
-4.59595e-09
-3.94106e-09
-2.62771e-09
-7.55638e-10
1.51382e-09
3.76171e-09
6.02766e-09
7.9111e-09
9.21201e-09
9.90338e-09
-6.52125e-09
-5.77968e-09
-4.34546e-09
-2.35548e-09
3.02297e-11
2.35096e-09
4.6302e-09
6.50459e-09
7.81128e-09
8.50127e-09
-8.08868e-09
-7.29259e-09
-5.80015e-09
-3.74119e-09
-1.27689e-09
1.13646e-09
3.42244e-09
5.30521e-09
6.63262e-09
7.33767e-09
-9.19464e-09
-8.38705e-09
-6.8688e-09
-4.7912e-09
-2.34805e-09
1.62694e-10
2.49765e-09
4.42007e-09
5.77383e-09
6.48389e-09
-9.76915e-09
-8.94319e-09
-7.42454e-09
-5.34968e-09
-2.92489e-09
-3.94665e-10
1.98977e-09
3.94039e-09
5.31355e-09
6.04011e-09
4.57278e-10
1.45407e-09
3.32339e-09
5.88934e-09
8.93676e-09
1.21582e-08
1.52592e-08
1.7924e-08
1.98576e-08
2.08511e-08
-1.76697e-10
8.28703e-10
2.6725e-09
5.21065e-09
8.24711e-09
1.14599e-08
1.45931e-08
1.7258e-08
1.9172e-08
2.01648e-08
-1.43334e-09
-4.61169e-10
1.34902e-09
3.87313e-09
6.91911e-09
1.01079e-08
1.32856e-08
1.59382e-08
1.78507e-08
1.88576e-08
-3.25471e-09
-2.3126e-09
-4.94936e-10
2.03726e-09
5.11846e-09
8.2722e-09
1.15236e-08
1.41665e-08
1.60685e-08
1.70733e-08
-5.42331e-09
-4.45177e-09
-2.59639e-09
6.96561e-13
3.134e-09
6.14896e-09
9.50707e-09
1.21332e-08
1.39967e-08
1.50067e-08
-7.77626e-09
-6.78843e-09
-4.909e-09
-2.31288e-09
7.59067e-10
4.41574e-09
7.44607e-09
1.00511e-08
1.19276e-08
1.2929e-08
-1.01093e-08
-9.03015e-09
-7.03477e-09
-4.26639e-09
-9.55845e-10
2.42542e-09
5.53241e-09
8.15684e-09
1.00478e-08
1.1052e-08
-1.20591e-08
-1.09538e-08
-8.91899e-09
-6.08856e-09
-2.68698e-09
7.05954e-10
3.86664e-09
6.53365e-09
8.44795e-09
9.4614e-09
-1.34914e-08
-1.23918e-08
-1.03426e-08
-7.50016e-09
-4.12088e-09
-6.40128e-10
2.60714e-09
5.32226e-09
7.25788e-09
8.2746e-09
-1.42556e-08
-1.31618e-08
-1.11077e-08
-8.25613e-09
-4.87519e-09
-1.37279e-09
1.91765e-09
4.65947e-09
6.61292e-09
7.64539e-09
-1.11462e-09
2.79435e-10
2.93165e-09
6.5816e-09
1.09169e-08
1.54662e-08
1.97656e-08
2.34238e-08
2.60668e-08
2.74392e-08
-2.03239e-09
-6.42777e-10
1.97774e-09
5.61223e-09
9.95469e-09
1.4509e-08
1.88511e-08
2.25205e-08
2.51649e-08
2.65499e-08
-3.81155e-09
-2.46669e-09
1.42404e-10
3.78922e-09
8.14035e-09
1.26979e-08
1.70998e-08
2.0783e-08
2.34501e-08
2.48408e-08
-6.30464e-09
-4.9532e-09
-2.30467e-09
1.38162e-09
5.80388e-09
1.0253e-08
1.47624e-08
1.84415e-08
2.10954e-08
2.24905e-08
-9.17297e-09
-7.75387e-09
-5.06276e-09
-1.28463e-09
3.3888e-09
7.40352e-09
1.20266e-08
1.56804e-08
1.83195e-08
1.97389e-08
-1.22165e-08
-1.07571e-08
-8.0572e-09
-4.35512e-09
-3.70036e-11
5.24591e-09
9.35388e-09
1.29235e-08
1.55471e-08
1.69503e-08
-1.51526e-08
-1.36502e-08
-1.08774e-08
-7.00486e-09
-2.44285e-09
2.39997e-09
6.66237e-09
1.03214e-08
1.3e-08
1.44293e-08
-1.76829e-08
-1.61882e-08
-1.33906e-08
-9.47757e-09
-4.83954e-09
-4.19113e-11
4.33545e-09
8.07684e-09
1.07906e-08
1.22246e-08
-1.95855e-08
-1.81025e-08
-1.52854e-08
-1.13575e-08
-6.71496e-09
-1.8915e-09
2.59594e-09
6.39187e-09
9.13105e-09
1.05671e-08
-2.06163e-08
-1.91431e-08
-1.6307e-08
-1.23637e-08
-7.7031e-09
-2.87336e-09
1.65179e-09
5.47372e-09
8.22657e-09
9.68352e-09
-3.19953e-09
-1.29142e-09
2.38326e-09
7.47791e-09
1.3526e-08
1.98058e-08
2.56999e-08
3.06863e-08
3.42999e-08
3.61966e-08
-4.52097e-09
-2.62604e-09
1.0453e-09
6.16486e-09
1.22476e-08
1.85495e-08
2.44796e-08
2.94982e-08
3.31405e-08
3.50424e-08
-7.01619e-09
-5.13461e-09
-1.42193e-09
3.74816e-09
9.84566e-09
1.61989e-08
2.21864e-08
2.72458e-08
3.0916e-08
3.28198e-08
-1.04018e-08
-8.4634e-09
-4.686e-09
5.54463e-10
6.75733e-09
1.30378e-08
1.9121e-08
2.41801e-08
2.78492e-08
2.97762e-08
-1.42481e-08
-1.22453e-08
-8.44199e-09
-3.09572e-09
3.46602e-09
9.353e-09
1.55093e-08
2.05642e-08
2.42584e-08
2.62202e-08
-1.83307e-08
-1.62799e-08
-1.24577e-08
-7.15855e-09
-9.65551e-10
6.03973e-09
1.17928e-08
1.6806e-08
2.04922e-08
2.24646e-08
-2.2232e-08
-2.0188e-08
-1.63306e-08
-1.09343e-08
-4.61452e-09
2.02126e-09
8.01139e-09
1.31552e-08
1.69113e-08
1.89097e-08
-2.56392e-08
-2.36084e-08
-1.9729e-08
-1.43289e-08
-7.9986e-09
-1.36076e-09
4.76597e-09
9.98903e-09
1.3795e-08
1.58042e-08
-2.81894e-08
-2.6154e-08
-2.22445e-08
-1.68318e-08
-1.04894e-08
-3.86316e-09
2.35549e-09
7.63524e-09
1.14792e-08
1.34948e-08
-2.95592e-08
-2.75193e-08
-2.35861e-08
-1.81604e-08
-1.17994e-08
-5.18274e-09
1.0668e-09
6.37432e-09
1.0232e-08
1.22797e-08
-5.88975e-09
-3.29623e-09
1.7529e-09
8.76693e-09
1.70525e-08
2.55867e-08
3.35979e-08
4.03794e-08
4.53094e-08
4.78931e-08
-7.74584e-09
-5.13902e-09
-4.30086e-11
7.03156e-09
1.5369e-08
2.39441e-08
3.19922e-08
3.88316e-08
4.38001e-08
4.63766e-08
-1.11733e-08
-8.52498e-09
-3.34947e-09
3.80464e-09
1.21891e-08
2.08454e-08
2.8972e-08
3.58766e-08
4.08804e-08
4.34802e-08
-1.57749e-08
-1.30499e-08
-7.80392e-09
-5.45005e-10
7.99866e-09
1.66117e-08
2.48647e-08
3.18164e-08
3.68701e-08
3.95133e-08
-2.10589e-08
-1.83071e-08
-1.30286e-08
-5.63113e-09
3.28718e-09
1.1607e-08
1.99952e-08
2.70481e-08
3.21938e-08
3.4877e-08
-2.66801e-08
-2.38896e-08
-1.85903e-08
-1.12328e-08
-2.66495e-09
6.78545e-09
1.48699e-08
2.19061e-08
2.70542e-08
2.97869e-08
-3.20542e-08
-2.92715e-08
-2.39344e-08
-1.65268e-08
-7.88456e-09
1.20858e-09
9.59223e-09
1.6771e-08
2.19944e-08
2.47583e-08
-3.67095e-08
-3.39109e-08
-2.85438e-08
-2.11454e-08
-1.25144e-08
-3.41901e-09
5.10296e-09
1.23497e-08
1.76516e-08
2.04421e-08
-4.0135e-08
-3.73097e-08
-3.19088e-08
-2.44995e-08
-1.5852e-08
-6.77968e-09
1.80656e-09
9.12297e-09
1.44697e-08
1.72769e-08
-4.19521e-08
-3.91094e-08
-3.36895e-08
-2.62711e-08
-1.76089e-08
-8.55261e-09
7.11689e-11
7.42135e-09
1.27869e-08
1.56103e-08
-9.27409e-09
-5.73019e-09
1.15584e-09
1.06682e-08
2.1838e-08
3.33546e-08
4.41907e-08
5.33853e-08
6.00602e-08
6.35382e-08
-1.18062e-08
-8.20828e-09
-1.25041e-09
8.33236e-09
1.95606e-08
3.11553e-08
4.20516e-08
5.13214e-08
5.80344e-08
6.1517e-08
-1.64821e-08
-1.28185e-08
-5.77554e-09
3.91303e-09
1.52414e-08
2.69759e-08
3.79868e-08
4.73539e-08
5.41396e-08
5.76739e-08
-2.28255e-08
-1.91012e-08
-1.19751e-08
-2.14997e-09
9.38728e-09
2.11812e-08
3.23716e-08
4.18723e-08
4.87768e-08
5.23768e-08
-3.02291e-08
-2.64958e-08
-1.92949e-08
-9.29134e-09
2.61396e-09
1.42404e-08
2.5662e-08
3.53902e-08
4.24713e-08
4.61467e-08
-3.80522e-08
-3.42681e-08
-2.70001e-08
-1.69763e-08
-5.34407e-09
7.32028e-09
1.86416e-08
2.84015e-08
3.55146e-08
3.92517e-08
-4.55269e-08
-4.17148e-08
-3.43897e-08
-2.43104e-08
-1.25881e-08
-1.23559e-10
1.14697e-08
2.13787e-08
2.85951e-08
3.23924e-08
-5.19146e-08
-4.80452e-08
-4.06721e-08
-3.05736e-08
-1.88039e-08
-6.35328e-09
5.37905e-09
1.5379e-08
2.26986e-08
2.65356e-08
-5.65599e-08
-5.26498e-08
-4.52388e-08
-3.51168e-08
-2.33052e-08
-1.08534e-08
9.461e-10
1.10351e-08
1.83999e-08
2.22635e-08
-5.90136e-08
-5.50812e-08
-4.76548e-08
-3.75194e-08
-2.56892e-08
-1.32341e-08
-1.37016e-09
8.76243e-09
1.61423e-08
2.00158e-08
-1.34849e-08
-8.65521e-09
6.30731e-10
1.33895e-08
2.83299e-08
4.38269e-08
5.8458e-08
7.0862e-08
7.98455e-08
8.45307e-08
-1.69188e-08
-1.20218e-08
-2.66363e-09
1.01852e-08
2.52202e-08
4.08279e-08
5.55492e-08
6.80449e-08
7.70882e-08
8.18099e-08
-2.3357e-08
-1.83997e-08
-8.93444e-09
4.07358e-09
1.92698e-08
3.5104e-08
4.99931e-08
6.26538e-08
7.18336e-08
7.66327e-08
-3.22025e-08
-2.71817e-08
-1.75762e-08
-4.39655e-09
1.10187e-08
2.71535e-08
4.22854e-08
5.51837e-08
6.4557e-08
6.94674e-08
-4.26315e-08
-3.75497e-08
-2.77969e-08
-1.44051e-08
1.30242e-09
1.76255e-08
3.30956e-08
4.63132e-08
5.59486e-08
6.10018e-08
-5.35538e-08
-4.83987e-08
-3.84772e-08
-2.48719e-08
-9.06059e-09
7.59483e-09
2.33553e-08
3.67917e-08
4.65785e-08
5.17141e-08
-6.39136e-08
-5.86789e-08
-4.86743e-08
-3.49645e-08
-1.89847e-08
-2.09929e-09
1.38495e-08
2.74468e-08
3.7361e-08
4.25554e-08
-7.27227e-08
-6.73964e-08
-5.73092e-08
-4.35129e-08
-2.73913e-08
-1.03902e-08
5.70849e-09
1.9451e-08
2.94813e-08
3.4734e-08
-7.91123e-08
-7.3735e-08
-6.35928e-08
-4.97333e-08
-3.35283e-08
-1.64277e-08
-2.14677e-10
1.36455e-08
2.37355e-08
2.90409e-08
-8.24865e-08
-7.70858e-08
-6.69191e-08
-5.30315e-08
-3.67863e-08
-1.96218e-08
-3.30844e-09
1.06095e-08
2.07261e-08
2.6069e-08
-1.87928e-08
-1.22793e-08
1.58372e-10
1.72256e-08
3.72072e-08
5.80402e-08
7.77335e-08
9.44151e-08
1.06508e-07
1.12854e-07
-2.35051e-08
-1.69212e-08
-4.38733e-09
1.28215e-08
3.29553e-08
5.39207e-08
7.3748e-08
9.05724e-08
1.02777e-07
1.09192e-07
-3.24302e-08
-2.57659e-08
-1.30558e-08
4.39495e-09
2.47793e-08
4.60374e-08
6.61592e-08
8.32609e-08
9.56779e-08
1.02204e-07
-4.47621e-08
-3.7979e-08
-2.50294e-08
-7.31318e-09
1.33724e-08
3.51534e-08
5.56528e-08
7.31132e-08
8.58148e-08
9.24962e-08
-5.93715e-08
-5.24079e-08
-3.91933e-08
-2.11425e-08
-1.05424e-10
2.22247e-08
4.32105e-08
6.10864e-08
7.41257e-08
8.09917e-08
-7.46079e-08
-6.75644e-08
-5.40734e-08
-3.56091e-08
-1.40475e-08
8.31039e-09
2.98378e-08
4.81549e-08
6.152e-08
6.8562e-08
-8.8968e-08
-8.17912e-08
-6.81472e-08
-4.946e-08
-2.75743e-08
-4.68352e-09
1.71462e-08
3.57269e-08
4.9273e-08
5.63689e-08
-1.01213e-07
-9.39133e-08
-8.01266e-08
-6.12465e-08
-3.91062e-08
-1.58673e-08
6.22993e-09
2.50742e-08
3.8788e-08
4.59803e-08
-1.10105e-07
-1.02739e-07
-8.88561e-08
-6.98411e-08
-4.75318e-08
-2.40413e-08
-1.72022e-09
1.7308e-08
3.11371e-08
3.84242e-08
-1.14796e-07
-1.07399e-07
-9.34762e-08
-7.44045e-08
-5.19863e-08
-2.83534e-08
-5.88932e-09
1.32318e-08
2.71364e-08
3.44727e-08
-2.56046e-08
-1.68559e-08
-1.89738e-10
2.26653e-08
4.9403e-08
7.73871e-08
1.03858e-07
1.26315e-07
1.42629e-07
1.51225e-07
-3.21049e-08
-2.32537e-08
-6.44454e-09
1.66037e-08
4.35506e-08
7.17471e-08
9.84456e-08
1.21133e-07
1.37618e-07
1.46308e-07
-4.44524e-08
-3.54663e-08
-1.83914e-08
5.0141e-09
3.23841e-08
6.09732e-08
8.81613e-08
1.11262e-07
1.28045e-07
1.36884e-07
-6.15557e-08
-5.23717e-08
-3.4932e-08
-1.10471e-08
1.68875e-08
4.61512e-08
7.39289e-08
9.75409e-08
1.14723e-07
1.23757e-07
-8.18455e-08
-7.2362e-08
-5.44842e-08
-3.00055e-08
-1.36556e-09
2.86225e-08
5.70803e-08
8.12772e-08
9.89095e-08
1.08158e-07
-1.03069e-07
-9.34656e-08
-7.51756e-08
-5.01148e-08
-2.07435e-08
9.93757e-09
3.90131e-08
6.38412e-08
8.19616e-08
9.15363e-08
-1.23127e-07
-1.13323e-07
-9.47327e-08
-6.92393e-08
-3.93003e-08
-8.02449e-09
2.17998e-08
4.71686e-08
6.56347e-08
7.5332e-08
-1.40272e-07
-1.303e-07
-1.11458e-07
-8.5602e-08
-5.51983e-08
-2.33188e-08
7.04592e-09
3.28843e-08
5.16481e-08
6.14992e-08
-1.52738e-07
-1.42664e-07
-1.23649e-07
-9.75353e-08
-6.67685e-08
-3.44536e-08
-3.70491e-09
2.24436e-08
4.14341e-08
5.14213e-08
-1.593e-07
-1.49184e-07
-1.30111e-07
-1.03849e-07
-7.28636e-08
-4.03116e-08
-9.36796e-09
1.69479e-08
3.60713e-08
4.61301e-08
-3.43733e-08
-2.25927e-08
-2.29296e-10
3.03917e-08
6.61883e-08
1.03749e-07
1.39385e-07
1.69641e-07
1.91613e-07
2.03191e-07
-4.33162e-08
-3.13977e-08
-8.8482e-09
2.20348e-08
5.81516e-08
9.61014e-08
1.32102e-07
1.62683e-07
1.84888e-07
1.96586e-07
-6.03696e-08
-4.8254e-08
-2.53176e-08
6.11802e-09
4.29328e-08
8.15023e-08
1.18221e-07
1.49381e-07
1.72009e-07
1.83924e-07
-8.40366e-08
-7.16322e-08
-4.81497e-08
-1.59045e-08
2.18676e-08
6.13228e-08
9.89488e-08
1.30873e-07
1.54086e-07
1.66286e-07
-1.12097e-07
-9.93038e-08
-7.5163e-08
-4.19982e-08
-3.0747e-09
3.7273e-08
7.60129e-08
1.08882e-07
1.32798e-07
1.45317e-07
-1.41674e-07
-1.2862e-07
-1.03844e-07
-6.98507e-08
-3.00525e-08
1.21357e-08
5.16866e-08
8.54452e-08
1.10045e-07
1.23017e-07
-1.69844e-07
-1.56487e-07
-1.31149e-07
-9.63456e-08
-5.54679e-08
-1.25388e-08
2.82948e-08
6.29951e-08
8.81962e-08
1.0144e-07
-1.93934e-07
-1.80317e-07
-1.54529e-07
-1.19066e-07
-7.73073e-08
-3.34608e-08
8.26859e-09
4.37209e-08
6.94385e-08
8.29483e-08
-2.11463e-07
-1.97674e-07
-1.71582e-07