FoamFile
{version 2.0; format ascii;class vectorField; location 0;object  v;}
356
(
( -7.14618e-07 -4.23063e-06 -1.50249e-05 )  
( -9.25256e-07 -1.50004e-06 -1.11362e-05 )  
( 6.39304e-06 8.09696e-06 -1.51472e-05 )  
( -1.21484e-06 -2.01247e-06 -1.7496e-05 )  
( -1.10885e-07 -5.14958e-07 -1.823e-05 )  
( -5.8623e-07 4.75151e-06 -1.46046e-05 )  
( -1.58278e-06 1.77534e-06 -1.46881e-05 )  
( -1.30316e-06 7.08382e-07 -1.93581e-05 )  
( -1.45314e-06 -3.30189e-06 -1.86268e-05 )  
( -9.78404e-07 -7.89901e-07 -8.89988e-06 )  
( 8.82675e-06 -3.58034e-06 -1.52435e-05 )  
( 1.21672e-06 -2.37291e-06 -1.74952e-05 )  
( -1.19023e-06 2.66458e-06 -7.17035e-06 )  
( -3.95775e-07 8.43719e-07 -3.63092e-05 )  
( -4.12485e-07 -2.77975e-06 -1.62674e-05 )  
( -4.77181e-06 -5.6374e-06 -3.34196e-05 )  
( 2.13315e-06 -3.3979e-08 -1.4683e-05 )  
( 5.37529e-07 -2.11736e-07 -1.73416e-05 )  
( -2.26858e-06 -4.24327e-06 -1.48628e-05 )  
( -2.54566e-06 -1.86446e-06 -1.44041e-05 )  
( -2.39486e-06 2.43692e-07 -1.32583e-05 )  
( -6.97858e-07 7.3313e-07 -1.85658e-05 )  
( -3.84674e-06 5.26299e-07 -1.70147e-05 )  
( -4.63828e-06 -5.57317e-07 -2.845e-05 )  
( 2.87678e-06 -4.6519e-06 -1.22933e-05 )  
( -5.34328e-07 -2.89157e-06 -1.9133e-05 )  
( 2.9037e-06 3.46359e-06 -1.56228e-05 )  
( -5.61227e-06 -4.32143e-06 -2.11939e-05 )  
( -1.83859e-06 -1.0167e-06 -3.31002e-05 )  
( -4.53268e-06 1.20838e-06 -3.16363e-05 )  
( -4.25151e-06 -4.34457e-06 -2.79194e-05 )  
( -8.59044e-06 -1.78328e-06 -3.72498e-05 )  
( 1.06894e-07 -4.6e-07 -1.5495e-05 )  
( -3.4603e-07 -9.63054e-07 -3.12474e-05 )  
( -6.57196e-06 5.2355e-06 -3.02741e-05 )  
( 3.22768e-06 -1.50691e-06 -3.43366e-05 )  
( -3.23318e-06 5.10163e-06 -3.18584e-05 )  
( -1.59652e-06 -4.9389e-06 -1.62752e-05 )  
( 1.05665e-06 3.19179e-06 -3.77825e-05 )  
( -2.89116e-06 -2.44106e-06 -3.3799e-05 )  
( -7.66839e-06 3.22675e-06 -2.80327e-05 )  
( -4.60745e-06 1.16551e-05 -3.75279e-05 )  
( -6.04137e-06 1.4459e-06 -4.9742e-05 )  
( -1.31475e-06 1.93253e-07 -2.70055e-05 )  
( -2.86524e-06 1.59275e-06 -3.24223e-05 )  
( -6.80167e-06 -1.08662e-06 -4.28123e-05 )  
( -3.33951e-06 5.28007e-06 -3.70812e-05 )  
( -1.23538e-06 -2.89521e-06 -3.04004e-05 )  
( -6.83159e-06 -1.71823e-07 -3.61403e-05 )  
( -7.98523e-07 3.03476e-06 -5.88002e-05 )  
( 4.33143e-07 6.50781e-06 -4.094e-05 )  
( -8.13637e-06 -1.54266e-06 -5.32358e-05 )  
( -1.96334e-06 3.81308e-06 -3.12306e-05 )  
( -8.52112e-06 5.79086e-07 -5.5808e-05 )  
( -4.04953e-06 -3.62359e-06 -5.10273e-05 )  
( -3.54091e-06 2.0559e-06 -3.56711e-05 )  
( -1.98597e-06 4.72586e-06 -3.69959e-05 )  
( -6.17151e-06 2.76915e-06 -5.22211e-05 )  
( -3.80062e-07 -3.23311e-06 -5.00093e-05 )  
( -2.45672e-06 -2.69616e-06 -4.17497e-05 )  
( -3.20977e-06 6.48474e-06 -5.67196e-05 )  
( -4.79715e-06 -3.4332e-06 -4.55598e-05 )  
( -3.65909e-06 5.25735e-06 -3.36897e-05 )  
( -7.69885e-06 -5.20584e-06 -5.90119e-05 )  
( -2.16053e-06 2.09156e-08 -4.30419e-05 )  
( -1.58558e-06 -4.86599e-06 -4.74932e-05 )  
( 1.18706e-05 -4.59417e-06 -5.54565e-05 )  
( -1.12254e-05 -1.36457e-06 -5.45896e-05 )  
( -7.81816e-06 3.88926e-06 -6.12756e-05 )  
( -4.42114e-06 -1.26562e-06 -4.76777e-05 )  
( -1.95817e-06 2.58646e-06 -7.00351e-05 )  
( -6.43251e-06 5.39007e-07 -5.18945e-05 )  
( -1.15074e-05 4.36076e-07 -7.0473e-05 )  
( -5.69505e-06 -8.54385e-07 -7.48299e-05 )  
( -5.142e-06 -5.04938e-07 -6.86937e-05 )  
( -8.55026e-06 -3.93049e-07 -7.31281e-05 )  
( -1.44537e-05 -9.73522e-07 -6.79101e-05 )  
( -2.34004e-06 3.2571e-06 -6.97496e-05 )  
( -4.35186e-06 -7.88379e-06 -7.3552e-05 )  
( -1.32889e-05 6.54423e-06 -6.10278e-05 )  
( -1.15695e-06 1.62428e-06 -5.60364e-05 )  
( -6.85309e-06 7.49861e-06 -6.06725e-05 )  
( -1.68674e-05 -9.94221e-07 -7.46666e-05 )  
( -1.05494e-05 8.64517e-09 -6.95982e-05 )  
( -4.44107e-07 4.1635e-06 -7.48166e-05 )  
( -1.22902e-05 5.51248e-06 -6.27251e-05 )  
( -5.80088e-07 5.12939e-06 -7.07957e-05 )  
( 1.06023e-05 -1.17933e-05 -6.47608e-05 )  
( -3.53412e-06 1.65391e-07 -8.03834e-05 )  
( -9.90454e-06 -5.3241e-06 -5.74246e-05 )  
( 1.39866e-06 -1.08135e-05 -7.06698e-05 )  
( -4.90828e-06 1.99463e-06 -9.91038e-05 )  
( -3.51395e-08 1.66868e-06 -6.3824e-05 )  
( -1.29789e-05 3.94759e-07 -8.06332e-05 )  
( 1.71975e-07 1.2376e-06 -7.05602e-05 )  
( -7.91228e-06 1.38695e-06 -8.39695e-05 )  
( 1.15719e-06 9.15908e-07 -6.36601e-05 )  
( -8.35602e-06 4.96234e-06 -7.8163e-05 )  
( -3.05046e-07 2.00742e-06 -8.81467e-05 )  
( 5.80966e-06 4.98363e-06 -8.96834e-05 )  
( -1.13898e-05 1.93461e-06 -7.59166e-05 )  
( -3.93018e-06 9.71367e-06 -7.27878e-05 )  
( 5.41313e-06 -6.32147e-06 -9.13975e-05 )  
( -8.34491e-06 9.48973e-07 -8.71666e-05 )  
( -8.07232e-06 -2.00833e-06 -8.88354e-05 )  
( -3.60963e-06 7.82167e-06 -8.57555e-05 )  
( -1.19008e-05 2.88729e-06 -8.55762e-05 )  
( -1.23822e-05 2.44349e-06 -8.58753e-05 )  
( -9.02218e-06 -1.08066e-07 -8.87503e-05 )  
( -9.08247e-06 1.91699e-07 -9.15636e-05 )  
( -2.75426e-06 -1.36242e-07 -9.51488e-05 )  
( 4.15072e-06 1.779e-07 -9.02804e-05 )  
( -8.37564e-06 -6.76025e-07 -8.6149e-05 )  
( 7.48664e-06 -7.42718e-06 -8.28564e-05 )  
( 1.03492e-06 2.05508e-06 -6.58622e-05 )  
( -8.28373e-06 2.42014e-06 -9.70959e-05 )  
( -8.60215e-06 -4.74756e-06 -9.73e-05 )  
( 4.06512e-06 2.62969e-06 -7.81156e-05 )  
( -8.96597e-06 -6.88747e-06 -0.000106496 )  
( -1.36618e-05 -3.84594e-06 -0.000100853 )  
( -4.35316e-06 1.85485e-07 -0.000104739 )  
( -1.06553e-05 1.30776e-05 -9.71176e-05 )  
( -9.59482e-06 -6.29043e-07 -0.000105183 )  
( -1.17606e-05 1.2881e-05 -8.23544e-05 )  
( 6.06536e-06 -9.51395e-06 -0.000100704 )  
( -7.55875e-06 -3.40885e-06 -9.58418e-05 )  
( -8.28357e-06 1.7032e-06 -0.000100543 )  
( -1.09172e-05 2.25215e-06 -9.07831e-05 )  
( -6.38581e-06 -3.13276e-06 -0.000111518 )  
( -8.62829e-06 -7.00961e-07 -9.98615e-05 )  
( -5.8118e-06 3.10072e-07 -0.000107848 )  
( 3.21462e-06 -2.07265e-06 -0.000105886 )  
( 4.87603e-06 -1.05463e-06 -0.000107447 )  
( 3.84477e-06 -9.21456e-06 -9.22945e-05 )  
( -8.58907e-06 7.32217e-06 -9.75681e-05 )  
( 2.12573e-06 -5.11898e-06 -0.00011407 )  
( 2.76044e-06 -3.77171e-06 -8.31583e-05 )  
( 4.82081e-06 -6.57039e-06 -0.000101478 )  
( -1.04456e-05 -4.63957e-07 -0.000102058 )  
( -6.46485e-06 2.40902e-06 -0.000104421 )  
( -9.69682e-06 -3.05068e-06 -9.43991e-05 )  
( 6.67135e-06 -1.23821e-05 -0.000105592 )  
( 4.39057e-06 -8.3259e-06 -0.000104109 )  
( -6.55405e-06 -5.52509e-06 -0.000114257 )  
( -1.56194e-06 -8.05848e-06 -0.000123988 )  
( 3.09983e-06 -9.88093e-06 -0.000116201 )  
( -3.7272e-06 -6.33503e-06 -0.000113952 )  
( -3.67618e-06 -4.68099e-06 -0.000112222 )  
( -6.28094e-06 -7.77825e-06 -0.000120682 )  
( 3.12601e-06 -6.38661e-06 -0.000115095 )  
( -6.03439e-06 -4.25319e-06 -0.000115699 )  
( -4.58419e-06 -6.06068e-06 -0.000106271 )  
( -9.78245e-06 -4.65828e-06 -0.000107064 )  
( 4.1005e-06 -1.28013e-05 -0.000122118 )  
( -6.20903e-06 -3.61765e-06 -0.000118248 )  
( -8.55594e-06 -1.73316e-06 -0.000114232 )  
( -4.12101e-06 -3.81934e-06 -0.000120001 )  
( -1.35842e-06 -9.29412e-06 -0.00011965 )  
( 5.8485e-07 -8.15939e-06 -0.000116773 )  
( -9.34353e-06 -6.6751e-06 -0.000105365 )  
( -6.96836e-06 -7.68417e-06 -0.000123435 )  
( -5.22124e-06 -7.07372e-06 -0.000123464 )  
( 2.65348e-06 -1.0249e-05 -0.000125972 )  
( -4.19835e-06 -3.44053e-06 -0.000116682 )  
( 2.64235e-06 -1.10499e-05 -0.000117434 )  
( -7.29443e-07 -7.06501e-06 -0.000125907 )  
( -1.09078e-06 -1.16275e-05 -0.000116561 )  
( 4.26341e-07 -8.73885e-06 -0.000124467 )  
( 1.41064e-06 -5.82888e-06 -0.000127152 )  
( -8.43486e-06 -7.12909e-06 -0.000123026 )  
( -4.42962e-06 -6.84201e-06 -0.00012568 )  
( -1.05602e-05 -4.01674e-07 -0.000113647 )  
( -4.60481e-06 -1.1204e-05 -0.000115968 )  
( -7.33435e-06 -1.12464e-05 -0.000129529 )  
( -9.39841e-06 -5.59233e-06 -0.000123052 )  
( 1.70802e-06 -1.14506e-05 -0.000131187 )  
( -4.08067e-06 -1.10462e-05 -0.000124951 )  
( -6.07146e-06 -7.40553e-06 -0.000124382 )  
( -4.98027e-06 -2.77233e-06 -0.000130762 )  
( 3.59468e-06 -8.3487e-06 -0.000126238 )  
( 3.06574e-06 -8.59232e-06 -0.00012534 )  
( -8.03846e-07 -3.98329e-06 -0.000121763 )  
( -3.82594e-07 -7.56964e-06 -0.000126038 )  
( -6.3961e-06 -4.90136e-06 -0.000131234 )  
( -8.19092e-06 -1.03448e-05 -0.000136603 )  
( -4.48879e-06 -9.51567e-06 -0.000133204 )  
( -6.49418e-06 -6.75589e-06 -0.000132742 )  
( 9.62142e-07 -8.01828e-06 -0.000133941 )  
( -4.43197e-06 -8.70993e-06 -0.000139108 )  
( -5.26024e-07 -8.39558e-06 -0.000136192 )  
( -6.76018e-06 -1.16355e-05 -0.000139185 )  
( -3.70861e-08 -9.19308e-06 -0.000135942 )  
( -1.46954e-06 -1.39889e-05 -0.000131038 )  
( -3.31687e-06 -6.54018e-06 -0.000131524 )  
( 3.12447e-07 -6.59756e-06 -0.000131925 )  
( 3.21782e-06 -1.14389e-05 -0.000129628 )  
( -1.63009e-06 -6.28476e-06 -0.000134142 )  
( 1.63963e-06 -5.72484e-06 -0.00013391 )  
( 7.90284e-07 -8.41922e-06 -0.000132253 )  
( -6.32114e-06 -9.32214e-06 -0.000131092 )  
( -1.19443e-05 -6.11339e-06 -0.000126534 )  
( -4.93295e-08 -7.29558e-06 -0.000134259 )  
( 1.29074e-06 -9.38123e-06 -0.000135653 )  
( -3.90621e-06 -9.90712e-06 -0.000143266 )  
( -5.93486e-06 -1.10048e-05 -0.000137106 )  
( -2.9694e-06 -9.91191e-06 -0.000136918 )  
( -7.26322e-06 -7.07847e-06 -0.000136409 )  
( -3.6901e-06 -9.28713e-06 -0.000145537 )  
( 1.35998e-06 -9.16923e-06 -0.000139002 )  
( -8.24415e-06 -8.52756e-06 -0.000137865 )  
( -7.79476e-06 -6.91576e-06 -0.000141094 )  
( -2.06671e-06 -8.34208e-06 -0.000142078 )  
( -6.67939e-06 -5.69874e-06 -0.000144645 )  
( -8.29758e-06 -7.80535e-06 -0.000136908 )  
( -8.58951e-07 -9.16307e-06 -0.000139958 )  
( 4.60633e-06 -7.76116e-06 -0.000136494 )  
( -1.78621e-06 -1.55374e-05 -0.000136552 )  
( -8.09353e-06 -7.74174e-06 -0.000139036 )  
( -2.88706e-06 -7.31657e-06 -0.000135002 )  
( 1.42992e-06 -1.11563e-05 -0.00013756 )  
( 6.56451e-07 -9.97482e-06 -0.000142521 )  
( -6.67034e-06 -1.41228e-05 -0.000153895 )  
( 6.79008e-07 -1.03713e-05 -0.000141725 )  
( 8.96844e-07 -8.69008e-06 -0.000140452 )  
( -5.38966e-06 -1.38954e-05 -0.000144084 )  
( -1.90425e-07 -7.19694e-06 -0.000138265 )  
( -3.66663e-06 -8.67513e-06 -0.000148816 )  
( -1.13222e-06 -9.50251e-06 -0.000142114 )  
( -8.99563e-06 -5.06578e-06 -0.000150482 )  
( -1.26733e-06 -3.12021e-06 -0.000138308 )  
( 5.27951e-07 -8.90335e-06 -0.000143204 )  
( -7.58564e-06 -6.58214e-06 -0.000145887 )  
( 3.22622e-06 -1.13086e-05 -0.00013677 )  
( -8.79821e-06 -9.42624e-06 -0.000148328 )  
( -1.22336e-06 -7.79365e-06 -0.000143624 )  
( 2.04498e-06 -9.13753e-06 -0.000147017 )  
( -1.32839e-05 -1.05114e-05 -0.000152985 )  
( -6.50097e-06 -5.73347e-06 -0.000145531 )  
( 2.79774e-06 -1.36045e-05 -0.000141871 )  
( -7.20093e-06 -2.57727e-06 -0.000148835 )  
( 2.44269e-06 -1.17104e-05 -0.000137035 )  
( -5.48255e-06 -6.58367e-06 -0.000145595 )  
( -5.48189e-07 -8.09551e-06 -0.000143638 )  
( -7.31651e-06 -8.48118e-06 -0.000149567 )  
( -4.20125e-06 -6.74303e-06 -0.000144534 )  
( -3.29731e-06 -6.08818e-06 -0.000147619 )  
( -3.0026e-06 -6.23427e-06 -0.000159578 )  
( -8.38232e-06 -1.04509e-05 -0.00015298 )  
( -9.57707e-07 -6.53764e-06 -0.000150184 )  
( -2.66991e-06 -1.28475e-05 -0.000143412 )  
( 1.11585e-07 -1.12149e-05 -0.000143281 )  
( -2.85311e-06 -6.23541e-06 -0.000152378 )  
( -6.80044e-06 -1.43196e-06 -0.000150795 )  
( -1.48909e-06 -9.53177e-06 -0.000146391 )  
( -4.94538e-06 -6.24101e-06 -0.000150414 )  
( -4.60347e-06 -1.45108e-05 -0.000143725 )  
( -5.21017e-06 -1.10168e-05 -0.000142049 )  
( 8.46559e-07 -3.40342e-06 -0.000153833 )  
( 9.56179e-07 -5.29675e-06 -0.000141882 )  
( -2.62498e-06 -9.8908e-06 -0.000141617 )  
( -7.53168e-06 -1.10541e-05 -0.000146866 )  
( -6.05653e-06 -8.90125e-07 -0.000152735 )  
( 2.48416e-06 -4.15867e-06 -0.000150671 )  
( -1.65751e-05 -7.80855e-06 -0.000148571 )  
( -6.34224e-06 -5.00067e-06 -0.000158246 )  
( -1.51814e-05 -1.20057e-05 -0.00015357 )  
( -3.58169e-06 -4.82163e-06 -0.000156432 )  
( 6.36244e-07 -3.74137e-06 -0.00015661 )  
( 3.69959e-06 -7.92463e-06 -0.000165949 )  
( -1.28048e-05 -7.20374e-06 -0.000162658 )  
( -2.15164e-06 -5.90506e-06 -0.000159602 )  
( 1.65014e-06 -4.17056e-06 -0.000146677 )  
( -4.79647e-06 2.59795e-06 -0.000154083 )  
( -4.05167e-06 -4.94683e-06 -0.000148144 )  
( -1.78736e-05 -6.90074e-06 -0.000152283 )  
( -9.84536e-06 -1.38502e-05 -0.000144092 )  
( -5.91844e-06 1.04978e-06 -0.000152048 )  
( -3.52061e-06 -5.47226e-06 -0.000138805 )  
( 2.33541e-07 -3.14769e-07 -0.000168162 )  
( -1.38775e-05 -6.08697e-06 -0.000160491 )  
( -2.51321e-06 -1.41054e-05 -0.000160517 )  
( -2.99036e-07 -2.32829e-05 -0.000149918 )  
( -2.43205e-06 -6.43497e-06 -0.000168934 )  
( 1.76932e-06 2.15149e-06 -0.000155936 )  
( 1.06739e-05 1.17807e-05 -0.000164146 )  
( -7.21191e-07 -4.97717e-06 -0.00014458 )  
( -2.73461e-06 -4.56145e-06 -0.000163865 )  
( -6.21498e-06 -8.59821e-06 -0.000141906 )  
( 5.59604e-06 -3.75547e-06 -0.000149759 )  
( -8.93406e-06 -4.22396e-06 -0.000144181 )  
( -1.11772e-05 -1.85631e-05 -0.000162472 )  
( -3.37352e-06 -2.21619e-06 -0.000144491 )  
( -1.41285e-05 -6.07211e-06 -0.000160814 )  
( 7.93173e-07 -1.16895e-06 -0.000153468 )  
( -3.7188e-06 -2.54896e-06 -0.000169005 )  
( -1.31676e-06 -1.21214e-05 -0.000153239 )  
( 1.5612e-07 -5.04824e-06 -0.000146085 )  
( -1.19083e-05 4.62068e-06 -0.000164359 )  
( -1.10007e-05 -1.36356e-05 -0.00016984 )  
( 6.16121e-06 -1.40646e-05 -0.000142839 )  
( -8.66294e-06 -5.26567e-06 -0.000157598 )  
( 2.13569e-05 -7.12163e-07 -0.000149736 )  
( -9.35086e-06 1.93069e-06 -0.000154114 )  
( -1.09342e-05 1.08326e-06 -0.000159029 )  
( -2.06937e-06 -9.17094e-06 -0.000159361 )  
( 8.06301e-06 9.62713e-06 -0.000163057 )  
( 5.19168e-06 9.15874e-06 -0.000136191 )  
( -1.04409e-06 -1.92095e-05 -0.000162131 )  
( 6.43586e-06 -1.27011e-06 -0.00013599 )  
( 4.97135e-06 -8.77893e-06 -0.000152688 )  
( -3.73275e-06 -1.1131e-05 -0.000169472 )  
( -7.74517e-06 6.56538e-06 -0.0001455 )  
( 1.27589e-05 -5.68107e-06 -0.000156154 )  
( -5.45232e-06 -7.64907e-06 -0.000167164 )  
( -1.46885e-05 4.3003e-06 -0.000163918 )  
( -1.42515e-06 8.05208e-06 -0.000170083 )  
( -1.40106e-05 -1.30074e-05 -0.000152236 )  
( -5.31933e-06 -9.19043e-06 -0.000169497 )  
( 2.75365e-07 -1.73182e-06 -0.000174977 )  
( 1.68245e-05 -6.14322e-06 -0.000166909 )  
( 1.27234e-06 -7.68679e-07 -0.000155429 )  
( -1.80439e-05 1.59652e-05 -0.000145345 )  
( 5.23357e-06 3.83804e-06 -0.000176211 )  
( 2.45668e-05 -6.38208e-07 -0.000152393 )  
( 1.35918e-05 2.69857e-05 -0.000150381 )  
( 2.21037e-05 -2.12069e-06 -0.00015532 )  
( 4.37155e-06 -1.59653e-06 -0.000162843 )  
( 1.72304e-05 7.10973e-06 -0.000152116 )  
( -3.21636e-06 2.16658e-06 -0.000139021 )  
( -1.07181e-05 -7.64246e-06 -0.000168578 )  
( 5.22966e-06 -2.73683e-06 -0.000149894 )  
( -2.47181e-05 4.80821e-07 -0.000165654 )  
( 1.02977e-05 2.21531e-06 -0.000174201 )  
( -3.44991e-05 -1.38122e-05 -0.000142788 )  
( -1.08576e-05 -5.34716e-06 -0.000165425 )  
( 1.15014e-06 -1.4604e-05 -0.000213766 )  
( -1.54845e-06 -3.2526e-06 -0.000180751 )  
( 2.0916e-05 3.58815e-05 -0.000152271 )  
( 2.06981e-06 6.50138e-06 -0.000156071 )  
( 1.00884e-06 9.22443e-06 -0.000153542 )  
( -3.56527e-06 -4.74075e-07 -0.000180929 )  
( 2.81347e-06 3.87203e-06 -0.000157651 )  
( 1.42967e-05 3.57762e-05 -0.000156807 )  
( -2.1964e-05 1.252e-05 -0.000171637 )  
( 1.19895e-05 2.95823e-05 -0.000153544 )  
( -1.91343e-05 -9.17158e-06 -0.000161371 )  
( 1.1912e-06 1.19216e-06 -0.000174577 )  
( 9.56413e-07 5.31311e-07 -0.000174074 )  
( -6.8393e-06 -5.40121e-05 -0.000202269 )  
( -1.66625e-05 1.82061e-06 -0.000144609 )  
( 2.59184e-07 1.60748e-05 -0.000160284 )  
( 6.25262e-05 4.48909e-06 -0.000195294 )  
( 1.2308e-05 7.70183e-06 -0.000150711 )  
( -1.40101e-05 1.5521e-05 -0.000176887 )  
( 3.68809e-06 1.11755e-05 -0.000162447 )  
( 9.60832e-06 3.38053e-06 -0.000169088 )  
)
