/*--------------------------------*- C++ -*----------------------------------*\
| =========                 |                                                 |
| \\      /  F ield         | OpenFOAM: The Open Source CFD Toolbox           |
|  \\    /   O peration     | Version:  5.x                                   |
|   \\  /    A nd           | Web:      www.OpenFOAM.org                      |
|    \\/     M anipulation  |                                                 |
\*---------------------------------------------------------------------------*/
FoamFile
{
    version     2.0;
    format      ascii;
    class       volVectorField;
    location    "0.007";
    object      stored_U;
}
// * * * * * * * * * * * * * * * * * * * * * * * * * * * * * * * * * * * * * //

dimensions      [0 1 -1 0 0 0 0];

internalField   nonuniform List<vector> 
180
(
(6.56552e-10 -9.34202e-09 -0.000999946)
(5.4593e-10 -1.19438e-08 -0.000999944)
(4.47331e-10 -1.63211e-08 -0.000999942)
(4.08996e-10 -2.17598e-08 -0.00099994)
(4.2518e-10 -2.78326e-08 -0.000999938)
(4.74534e-10 -3.43527e-08 -0.000999936)
(5.39453e-10 -4.12781e-08 -0.000999932)
(6.09796e-10 -4.86377e-08 -0.000999928)
(6.80283e-10 -5.64925e-08 -0.000999923)
(7.47839e-10 -6.49182e-08 -0.000999917)
(8.10024e-10 -7.39995e-08 -0.00099991)
(8.64365e-10 -8.38286e-08 -0.000999901)
(9.0812e-10 -9.45057e-08 -0.000999892)
(9.38227e-10 -1.06139e-07 -0.000999882)
(9.51317e-10 -1.18848e-07 -0.00099987)
(9.43765e-10 -1.3276e-07 -0.000999857)
(9.11767e-10 -1.48017e-07 -0.000999843)
(8.51419e-10 -1.64772e-07 -0.000999826)
(7.5882e-10 -1.83193e-07 -0.000999809)
(6.30173e-10 -2.03464e-07 -0.000999788)
(4.61875e-10 -2.25786e-07 -0.000999766)
(2.50612e-10 -2.5038e-07 -0.000999741)
(-6.5695e-12 -2.77489e-07 -0.000999714)
(-3.12201e-10 -3.07377e-07 -0.000999684)
(-6.68353e-10 -3.40336e-07 -0.00099965)
(-1.07662e-09 -3.76689e-07 -0.000999612)
(-1.53814e-09 -4.16786e-07 -0.000999571)
(-2.05363e-09 -4.61018e-07 -0.000999524)
(-2.6235e-09 -5.09811e-07 -0.000999473)
(-3.24793e-09 -5.63638e-07 -0.000999417)
(-3.92708e-09 -6.23018e-07 -0.000999355)
(-4.66125e-09 -6.88525e-07 -0.000999286)
(-5.4511e-09 -7.60792e-07 -0.000999209)
(-6.29786e-09 -8.40518e-07 -0.000999125)
(-7.20362e-09 -9.28475e-07 -0.000999032)
(-8.17149e-09 -1.02551e-06 -0.000998929)
(-9.20592e-09 -1.13258e-06 -0.000998815)
(-1.0313e-08 -1.2507e-06 -0.00099869)
(-1.15006e-08 -1.38104e-06 -0.000998551)
(-1.27784e-08 -1.52485e-06 -0.000998398)
(-1.41576e-08 -1.68353e-06 -0.000998229)
(-1.5653e-08 -1.85863e-06 -0.000998043)
(-1.72819e-08 -2.05184e-06 -0.000997837)
(-1.90667e-08 -2.26505e-06 -0.00099761)
(-2.10335e-08 -2.50033e-06 -0.000997359)
(-2.32125e-08 -2.75997e-06 -0.000997081)
(-2.56381e-08 -3.0465e-06 -0.000996775)
(-2.83486e-08 -3.36271e-06 -0.000996437)
(-3.1389e-08 -3.71167e-06 -0.000996064)
(-3.48277e-08 -4.09679e-06 -0.000995652)
(-3.8752e-08 -4.52183e-06 -0.000995196)
(-4.32727e-08 -4.99096e-06 -0.000994691)
(-4.85316e-08 -5.50878e-06 -0.000994134)
(-5.47097e-08 -6.08037e-06 -0.000993517)
(-6.20361e-08 -6.71138e-06 -0.000992835)
(-7.07996e-08 -7.40804e-06 -0.000992079)
(-8.13648e-08 -8.17727e-06 -0.000991242)
(-9.41861e-08 -9.02672e-06 -0.000990316)
(-1.09832e-07 -9.96488e-06 -0.000989289)
(-1.29006e-07 -1.10012e-05 -0.000988151)
(-1.52578e-07 -1.2146e-05 -0.000986889)
(-1.81617e-07 -1.34109e-05 -0.000985489)
(-2.17425e-07 -1.48089e-05 -0.000983937)
(-2.61576e-07 -1.6354e-05 -0.000982213)
(-3.15957e-07 -1.80622e-05 -0.000980301)
(-3.82788e-07 -1.9951e-05 -0.000978178)
(-4.64613e-07 -2.20398e-05 -0.000975822)
(-5.64228e-07 -2.43498e-05 -0.000973208)
(-6.85415e-07 -2.69046e-05 -0.000970301)
(-8.32867e-07 -2.97301e-05 -0.000967069)
(-1.01245e-06 -3.2854e-05 -0.000963481)
(-1.23213e-06 -3.63017e-05 -0.000959488)
(-1.50446e-06 -4.00838e-05 -0.000954988)
(-1.85189e-06 -4.41596e-05 -0.000949842)
(-2.31469e-06 -4.83473e-05 -0.00094433)
(-2.95968e-06 -5.21421e-05 -0.000940097)
(-3.91208e-06 -5.45378e-05 -0.000938184)
(-5.4985e-06 -5.4026e-05 -0.000923823)
(-8.54258e-06 -4.8881e-05 -0.000860881)
(-1.32625e-05 -3.76753e-05 -0.00065211)
(-7.01596e-06 -7.01747e-06 -0.00318651)
(1.75541e-05 -1.50488e-06 9.74628e-06)
(0.000185419 1.54096e-05 -0.00386335)
(1.22506e-05 -6.68913e-06 -3.35903e-05)
(-0.000437616 -0.000257533 -0.00300868)
(-0.000505882 -0.000282506 -0.00258122)
(-5.82913e-05 -5.60347e-05 -0.000552168)
(-0.000136655 -0.000177292 -0.00514652)
(-1.1335e-05 8.49825e-06 -0.000264332)
(0.000334534 0.00033914 -0.004587)
(0.00023653 0.000485236 -0.00174787)
(0.000101551 0.000979189 -0.00341825)
(-2.47311e-05 0.000116975 -0.000308676)
(-0.000142481 0.00149253 -0.00336498)
(-0.000189186 0.000450306 -0.00302827)
(-9.75845e-05 -4.77813e-05 -0.00106611)
(-0.000481146 -0.00109141 -0.00390083)
(-7.623e-05 -0.00014583 -0.000700513)
(-0.000163886 -0.000412861 -0.00389459)
(-9.32269e-05 -0.000155766 -0.0017071)
(-0.000225766 -0.000170816 -0.00297895)
(-0.000117604 -5.71294e-05 -0.00240123)
(-5.00506e-06 1.57653e-05 -0.00156697)
(7.51426e-06 2.39609e-05 -0.00177145)
(1.14753e-05 -1.1537e-05 -0.000799687)
(6.19917e-05 -1.05211e-05 -0.00095998)
(9.08269e-05 -2.06102e-06 -0.000873116)
(0.000101584 1.54177e-06 -0.000874885)
(0.000101055 2.27632e-06 -0.000890908)
(9.50398e-05 2.03419e-06 -0.000903587)
(8.71031e-05 1.61786e-06 -0.000913169)
(7.89663e-05 1.24497e-06 -0.00092157)
(7.12975e-05 9.43062e-07 -0.000929277)
(6.42874e-05 7.00939e-07 -0.000936277)
(5.79467e-05 5.05463e-07 -0.00094258)
(5.22303e-05 3.46838e-07 -0.000948249)
(4.70812e-05 2.1811e-07 -0.000953353)
(4.24437e-05 1.14123e-07 -0.00095795)
(3.82667e-05 3.07989e-08 -0.00096209)
(3.45041e-05 -3.52141e-08 -0.00096582)
(3.11143e-05 -8.66949e-08 -0.000969182)
(2.80602e-05 -1.25908e-07 -0.000972213)
(2.53082e-05 -1.54653e-07 -0.000974945)
(2.28284e-05 -1.74806e-07 -0.000977406)
(2.05933e-05 -1.87952e-07 -0.000979624)
(1.85788e-05 -1.95413e-07 -0.000981623)
(1.67628e-05 -1.9829e-07 -0.000983424)
(1.51255e-05 -1.97579e-07 -0.000985046)
(1.36493e-05 -1.94191e-07 -0.000986507)
(1.2318e-05 -1.88814e-07 -0.000987824)
(1.11173e-05 -1.81998e-07 -0.000989011)
(1.00343e-05 -1.74182e-07 -0.000990082)
(9.05729e-06 -1.65718e-07 -0.000991047)
(8.17592e-06 -1.56887e-07 -0.000991918)
(7.3807e-06 -1.4791e-07 -0.000992703)
(6.66316e-06 -1.38956e-07 -0.000993411)
(6.01565e-06 -1.30151e-07 -0.000994051)
(5.4313e-06 -1.21592e-07 -0.000994628)
(4.90392e-06 -1.13344e-07 -0.000995148)
(4.42791e-06 -1.05455e-07 -0.000995618)
(3.99825e-06 -9.7955e-08 -0.000996043)
(3.61041e-06 -9.08596e-08 -0.000996426)
(3.26031e-06 -8.4175e-08 -0.000996772)
(2.94426e-06 -7.78992e-08 -0.000997084)
(2.65894e-06 -7.20247e-08 -0.000997366)
(2.40136e-06 -6.6539e-08 -0.000997621)
(2.16882e-06 -6.14265e-08 -0.000997851)
(1.95888e-06 -5.66697e-08 -0.000998059)
(1.76935e-06 -5.22504e-08 -0.000998247)
(1.59824e-06 -4.815e-08 -0.000998416)
(1.44376e-06 -4.43494e-08 -0.00099857)
(1.30431e-06 -4.08284e-08 -0.000998708)
(1.17842e-06 -3.75683e-08 -0.000998833)
(1.06477e-06 -3.45515e-08 -0.000998947)
(9.62197e-07 -3.17623e-08 -0.000999049)
(8.69612e-07 -2.9186e-08 -0.000999141)
(7.86055e-07 -2.68092e-08 -0.000999225)
(7.10652e-07 -2.46196e-08 -0.0009993)
(6.42619e-07 -2.26053e-08 -0.000999368)
(5.81246e-07 -2.07552e-08 -0.00099943)
(5.25895e-07 -1.90582e-08 -0.000999486)
(4.7599e-07 -1.75037e-08 -0.000999537)
(4.31014e-07 -1.60815e-08 -0.000999582)
(3.905e-07 -1.47814e-08 -0.000999624)
(3.54028e-07 -1.35936e-08 -0.000999661)
(3.21222e-07 -1.25084e-08 -0.000999695)
(2.91742e-07 -1.15166e-08 -0.000999726)
(2.65286e-07 -1.06091e-08 -0.000999755)
(2.41581e-07 -9.77722e-09 -0.00099978)
(2.20382e-07 -9.01275e-09 -0.000999804)
(2.01472e-07 -8.30775e-09 -0.000999826)
(1.84656e-07 -7.65469e-09 -0.000999845)
(1.69762e-07 -7.04629e-09 -0.000999864)
(1.56637e-07 -6.47538e-09 -0.00099988)
(1.45151e-07 -5.93481e-09 -0.000999896)
(1.35197e-07 -5.41841e-09 -0.000999911)
(1.26703e-07 -4.92541e-09 -0.000999925)
(1.19696e-07 -4.46444e-09 -0.000999938)
(1.14359e-07 -4.13549e-09 -0.000999951)
(1.11302e-07 -4.07183e-09 -0.000999962)
)
;

boundaryField
{
    inlet
    {
        type            calculated;
        value           uniform (1.11302e-07 -4.07183e-09 -0.000999962);
    }
    outlet
    {
        type            calculated;
        value           uniform (6.56552e-10 -9.34202e-09 -0.000999946);
    }
    repeat_boundary
    {
        type            calculated;
        value           nonuniform List<vector> 
360
(
(6.56552e-10 0 -0.000999946)
(5.4593e-10 0 -0.000999944)
(4.47331e-10 0 -0.000999942)
(4.08996e-10 0 -0.00099994)
(4.2518e-10 0 -0.000999938)
(4.74534e-10 0 -0.000999936)
(5.39453e-10 0 -0.000999932)
(6.09796e-10 0 -0.000999928)
(6.80283e-10 0 -0.000999923)
(7.47839e-10 0 -0.000999917)
(8.10024e-10 0 -0.00099991)
(8.64365e-10 0 -0.000999901)
(9.0812e-10 0 -0.000999892)
(9.38227e-10 0 -0.000999882)
(9.51317e-10 0 -0.00099987)
(9.43765e-10 0 -0.000999857)
(9.11767e-10 0 -0.000999843)
(8.51419e-10 0 -0.000999826)
(7.5882e-10 0 -0.000999809)
(6.30173e-10 0 -0.000999788)
(4.61875e-10 0 -0.000999766)
(2.50612e-10 0 -0.000999741)
(-6.5695e-12 0 -0.000999714)
(-3.12201e-10 0 -0.000999684)
(-6.68353e-10 0 -0.00099965)
(-1.07662e-09 0 -0.000999612)
(-1.53814e-09 0 -0.000999571)
(-2.05363e-09 0 -0.000999524)
(-2.6235e-09 0 -0.000999473)
(-3.24793e-09 0 -0.000999417)
(-3.92708e-09 0 -0.000999355)
(-4.66125e-09 0 -0.000999286)
(-5.4511e-09 0 -0.000999209)
(-6.29786e-09 0 -0.000999125)
(-7.20362e-09 0 -0.000999032)
(-8.17149e-09 0 -0.000998929)
(-9.20592e-09 0 -0.000998815)
(-1.0313e-08 0 -0.00099869)
(-1.15006e-08 0 -0.000998551)
(-1.27784e-08 0 -0.000998398)
(-1.41576e-08 0 -0.000998229)
(-1.5653e-08 0 -0.000998043)
(-1.72819e-08 0 -0.000997837)
(-1.90667e-08 0 -0.00099761)
(-2.10335e-08 0 -0.000997359)
(-2.32125e-08 0 -0.000997081)
(-2.56381e-08 0 -0.000996775)
(-2.83486e-08 0 -0.000996437)
(-3.1389e-08 0 -0.000996064)
(-3.48277e-08 0 -0.000995652)
(-3.8752e-08 0 -0.000995196)
(-4.32727e-08 0 -0.000994691)
(-4.85316e-08 0 -0.000994134)
(-5.47097e-08 0 -0.000993517)
(-6.20361e-08 0 -0.000992835)
(-7.07996e-08 0 -0.000992079)
(-8.13648e-08 0 -0.000991242)
(-9.41861e-08 0 -0.000990316)
(-1.09832e-07 0 -0.000989289)
(-1.29006e-07 0 -0.000988151)
(-1.52578e-07 0 -0.000986889)
(-1.81617e-07 0 -0.000985489)
(-2.17425e-07 0 -0.000983937)
(-2.61576e-07 0 -0.000982213)
(-3.15957e-07 0 -0.000980301)
(-3.82788e-07 0 -0.000978178)
(-4.64613e-07 0 -0.000975822)
(-5.64228e-07 0 -0.000973208)
(-6.85415e-07 0 -0.000970301)
(-8.32867e-07 0 -0.000967069)
(-1.01245e-06 0 -0.000963481)
(-1.23213e-06 0 -0.000959488)
(-1.50446e-06 0 -0.000954988)
(-1.85189e-06 0 -0.000949842)
(-2.31469e-06 0 -0.00094433)
(-2.95968e-06 0 -0.000940097)
(-3.91208e-06 0 -0.000938184)
(-5.4985e-06 0 -0.000923823)
(-8.54258e-06 0 -0.000860881)
(-1.32625e-05 0 -0.00065211)
(-7.01596e-06 0 -0.00318651)
(1.75541e-05 0 9.74628e-06)
(0.000185419 0 -0.00386335)
(1.22506e-05 0 -3.35903e-05)
(-0.000437616 0 -0.00300868)
(-0.000505882 0 -0.00258122)
(-5.82913e-05 0 -0.000552168)
(-0.000136655 0 -0.00514652)
(-1.1335e-05 0 -0.000264332)
(0.000334534 0 -0.004587)
(0.00023653 0 -0.00174787)
(0.000101551 0 -0.00341825)
(-2.47311e-05 0 -0.000308676)
(-0.000142481 0 -0.00336498)
(-0.000189186 0 -0.00302827)
(-9.75845e-05 0 -0.00106611)
(-0.000481146 0 -0.00390083)
(-7.623e-05 0 -0.000700513)
(-0.000163886 0 -0.00389459)
(-9.32269e-05 0 -0.0017071)
(-0.000225766 0 -0.00297895)
(-0.000117604 0 -0.00240123)
(-5.00506e-06 0 -0.00156697)
(7.51426e-06 0 -0.00177145)
(1.14753e-05 0 -0.000799687)
(6.19917e-05 0 -0.00095998)
(9.08269e-05 0 -0.000873116)
(0.000101584 0 -0.000874885)
(0.000101055 0 -0.000890908)
(9.50398e-05 0 -0.000903587)
(8.71031e-05 0 -0.000913169)
(7.89663e-05 0 -0.00092157)
(7.12975e-05 0 -0.000929277)
(6.42874e-05 0 -0.000936277)
(5.79467e-05 0 -0.00094258)
(5.22303e-05 0 -0.000948249)
(4.70812e-05 0 -0.000953353)
(4.24437e-05 0 -0.00095795)
(3.82667e-05 0 -0.00096209)
(3.45041e-05 0 -0.00096582)
(3.11143e-05 0 -0.000969182)
(2.80602e-05 0 -0.000972213)
(2.53082e-05 0 -0.000974945)
(2.28284e-05 0 -0.000977406)
(2.05933e-05 0 -0.000979624)
(1.85788e-05 0 -0.000981623)
(1.67628e-05 0 -0.000983424)
(1.51255e-05 0 -0.000985046)
(1.36493e-05 0 -0.000986507)
(1.2318e-05 0 -0.000987824)
(1.11173e-05 0 -0.000989011)
(1.00343e-05 0 -0.000990082)
(9.05729e-06 0 -0.000991047)
(8.17592e-06 0 -0.000991918)
(7.3807e-06 0 -0.000992703)
(6.66316e-06 0 -0.000993411)
(6.01565e-06 0 -0.000994051)
(5.4313e-06 0 -0.000994628)
(4.90392e-06 0 -0.000995148)
(4.42791e-06 0 -0.000995618)
(3.99825e-06 0 -0.000996043)
(3.61041e-06 0 -0.000996426)
(3.26031e-06 0 -0.000996772)
(2.94426e-06 0 -0.000997084)
(2.65894e-06 0 -0.000997366)
(2.40136e-06 0 -0.000997621)
(2.16882e-06 0 -0.000997851)
(1.95888e-06 0 -0.000998059)
(1.76935e-06 0 -0.000998247)
(1.59824e-06 0 -0.000998416)
(1.44376e-06 0 -0.00099857)
(1.30431e-06 0 -0.000998708)
(1.17842e-06 0 -0.000998833)
(1.06477e-06 0 -0.000998947)
(9.62197e-07 0 -0.000999049)
(8.69612e-07 0 -0.000999141)
(7.86055e-07 0 -0.000999225)
(7.10652e-07 0 -0.0009993)
(6.42619e-07 0 -0.000999368)
(5.81246e-07 0 -0.00099943)
(5.25895e-07 0 -0.000999486)
(4.7599e-07 0 -0.000999537)
(4.31014e-07 0 -0.000999582)
(3.905e-07 0 -0.000999624)
(3.54028e-07 0 -0.000999661)
(3.21222e-07 0 -0.000999695)
(2.91742e-07 0 -0.000999726)
(2.65286e-07 0 -0.000999755)
(2.41581e-07 0 -0.00099978)
(2.20382e-07 0 -0.000999804)
(2.01472e-07 0 -0.000999826)
(1.84656e-07 0 -0.000999845)
(1.69762e-07 0 -0.000999864)
(1.56637e-07 0 -0.00099988)
(1.45151e-07 0 -0.000999896)
(1.35197e-07 0 -0.000999911)
(1.26703e-07 0 -0.000999925)
(1.19696e-07 0 -0.000999938)
(1.14359e-07 0 -0.000999951)
(1.11302e-07 0 -0.000999962)
(0 -9.34202e-09 -0.000999946)
(0 -1.19438e-08 -0.000999944)
(0 -1.63211e-08 -0.000999942)
(0 -2.17598e-08 -0.00099994)
(0 -2.78326e-08 -0.000999938)
(0 -3.43527e-08 -0.000999936)
(0 -4.12781e-08 -0.000999932)
(0 -4.86377e-08 -0.000999928)
(0 -5.64925e-08 -0.000999923)
(0 -6.49182e-08 -0.000999917)
(0 -7.39995e-08 -0.00099991)
(0 -8.38286e-08 -0.000999901)
(0 -9.45057e-08 -0.000999892)
(0 -1.06139e-07 -0.000999882)
(0 -1.18848e-07 -0.00099987)
(0 -1.3276e-07 -0.000999857)
(0 -1.48017e-07 -0.000999843)
(0 -1.64772e-07 -0.000999826)
(0 -1.83193e-07 -0.000999809)
(0 -2.03464e-07 -0.000999788)
(0 -2.25786e-07 -0.000999766)
(0 -2.5038e-07 -0.000999741)
(0 -2.77489e-07 -0.000999714)
(0 -3.07377e-07 -0.000999684)
(0 -3.40336e-07 -0.00099965)
(0 -3.76689e-07 -0.000999612)
(0 -4.16786e-07 -0.000999571)
(0 -4.61018e-07 -0.000999524)
(0 -5.09811e-07 -0.000999473)
(0 -5.63638e-07 -0.000999417)
(0 -6.23018e-07 -0.000999355)
(0 -6.88525e-07 -0.000999286)
(0 -7.60792e-07 -0.000999209)
(0 -8.40518e-07 -0.000999125)
(0 -9.28475e-07 -0.000999032)
(0 -1.02551e-06 -0.000998929)
(0 -1.13258e-06 -0.000998815)
(0 -1.2507e-06 -0.00099869)
(0 -1.38104e-06 -0.000998551)
(0 -1.52485e-06 -0.000998398)
(0 -1.68353e-06 -0.000998229)
(0 -1.85863e-06 -0.000998043)
(0 -2.05184e-06 -0.000997837)
(0 -2.26505e-06 -0.00099761)
(0 -2.50033e-06 -0.000997359)
(0 -2.75997e-06 -0.000997081)
(0 -3.0465e-06 -0.000996775)
(0 -3.36271e-06 -0.000996437)
(0 -3.71167e-06 -0.000996064)
(0 -4.09679e-06 -0.000995652)
(0 -4.52183e-06 -0.000995196)
(0 -4.99096e-06 -0.000994691)
(0 -5.50878e-06 -0.000994134)
(0 -6.08037e-06 -0.000993517)
(0 -6.71138e-06 -0.000992835)
(0 -7.40804e-06 -0.000992079)
(0 -8.17727e-06 -0.000991242)
(0 -9.02672e-06 -0.000990316)
(0 -9.96488e-06 -0.000989289)
(0 -1.10012e-05 -0.000988151)
(0 -1.2146e-05 -0.000986889)
(0 -1.34109e-05 -0.000985489)
(0 -1.48089e-05 -0.000983937)
(0 -1.6354e-05 -0.000982213)
(0 -1.80622e-05 -0.000980301)
(0 -1.9951e-05 -0.000978178)
(0 -2.20398e-05 -0.000975822)
(0 -2.43498e-05 -0.000973208)
(0 -2.69046e-05 -0.000970301)
(0 -2.97301e-05 -0.000967069)
(0 -3.2854e-05 -0.000963481)
(0 -3.63017e-05 -0.000959488)
(0 -4.00838e-05 -0.000954988)
(0 -4.41596e-05 -0.000949842)
(0 -4.83473e-05 -0.00094433)
(0 -5.21421e-05 -0.000940097)
(0 -5.45378e-05 -0.000938184)
(0 -5.4026e-05 -0.000923823)
(0 -4.8881e-05 -0.000860881)
(0 -3.76753e-05 -0.00065211)
(0 -7.01747e-06 -0.00318651)
(0 -1.50488e-06 9.74628e-06)
(0 1.54096e-05 -0.00386335)
(0 -6.68913e-06 -3.35903e-05)
(0 -0.000257533 -0.00300868)
(0 -0.000282506 -0.00258122)
(0 -5.60347e-05 -0.000552168)
(0 -0.000177292 -0.00514652)
(0 8.49825e-06 -0.000264332)
(0 0.00033914 -0.004587)
(0 0.000485236 -0.00174787)
(0 0.000979189 -0.00341825)
(0 0.000116975 -0.000308676)
(0 0.00149253 -0.00336498)
(0 0.000450306 -0.00302827)
(0 -4.77813e-05 -0.00106611)
(0 -0.00109141 -0.00390083)
(0 -0.00014583 -0.000700513)
(0 -0.000412861 -0.00389459)
(0 -0.000155766 -0.0017071)
(0 -0.000170816 -0.00297895)
(0 -5.71294e-05 -0.00240123)
(0 1.57653e-05 -0.00156697)
(0 2.39609e-05 -0.00177145)
(0 -1.1537e-05 -0.000799687)
(0 -1.05211e-05 -0.00095998)
(0 -2.06102e-06 -0.000873116)
(0 1.54177e-06 -0.000874885)
(0 2.27632e-06 -0.000890908)
(0 2.03419e-06 -0.000903587)
(0 1.61786e-06 -0.000913169)
(0 1.24497e-06 -0.00092157)
(0 9.43062e-07 -0.000929277)
(0 7.00939e-07 -0.000936277)
(0 5.05463e-07 -0.00094258)
(0 3.46838e-07 -0.000948249)
(0 2.1811e-07 -0.000953353)
(0 1.14123e-07 -0.00095795)
(0 3.07989e-08 -0.00096209)
(0 -3.52141e-08 -0.00096582)
(0 -8.66949e-08 -0.000969182)
(0 -1.25908e-07 -0.000972213)
(0 -1.54653e-07 -0.000974945)
(0 -1.74806e-07 -0.000977406)
(0 -1.87952e-07 -0.000979624)
(0 -1.95413e-07 -0.000981623)
(0 -1.9829e-07 -0.000983424)
(0 -1.97579e-07 -0.000985046)
(0 -1.94191e-07 -0.000986507)
(0 -1.88814e-07 -0.000987824)
(0 -1.81998e-07 -0.000989011)
(0 -1.74182e-07 -0.000990082)
(0 -1.65718e-07 -0.000991047)
(0 -1.56887e-07 -0.000991918)
(0 -1.4791e-07 -0.000992703)
(0 -1.38956e-07 -0.000993411)
(0 -1.30151e-07 -0.000994051)
(0 -1.21592e-07 -0.000994628)
(0 -1.13344e-07 -0.000995148)
(0 -1.05455e-07 -0.000995618)
(0 -9.7955e-08 -0.000996043)
(0 -9.08596e-08 -0.000996426)
(0 -8.4175e-08 -0.000996772)
(0 -7.78992e-08 -0.000997084)
(0 -7.20247e-08 -0.000997366)
(0 -6.6539e-08 -0.000997621)
(0 -6.14265e-08 -0.000997851)
(0 -5.66697e-08 -0.000998059)
(0 -5.22504e-08 -0.000998247)
(0 -4.815e-08 -0.000998416)
(0 -4.43494e-08 -0.00099857)
(0 -4.08284e-08 -0.000998708)
(0 -3.75683e-08 -0.000998833)
(0 -3.45515e-08 -0.000998947)
(0 -3.17623e-08 -0.000999049)
(0 -2.9186e-08 -0.000999141)
(0 -2.68092e-08 -0.000999225)
(0 -2.46196e-08 -0.0009993)
(0 -2.26053e-08 -0.000999368)
(0 -2.07552e-08 -0.00099943)
(0 -1.90582e-08 -0.000999486)
(0 -1.75037e-08 -0.000999537)
(0 -1.60815e-08 -0.000999582)
(0 -1.47814e-08 -0.000999624)
(0 -1.35936e-08 -0.000999661)
(0 -1.25084e-08 -0.000999695)
(0 -1.15166e-08 -0.000999726)
(0 -1.06091e-08 -0.000999755)
(0 -9.77722e-09 -0.00099978)
(0 -9.01275e-09 -0.000999804)
(0 -8.30775e-09 -0.000999826)
(0 -7.65469e-09 -0.000999845)
(0 -7.04629e-09 -0.000999864)
(0 -6.47538e-09 -0.00099988)
(0 -5.93481e-09 -0.000999896)
(0 -5.41841e-09 -0.000999911)
(0 -4.92541e-09 -0.000999925)
(0 -4.46444e-09 -0.000999938)
(0 -4.13549e-09 -0.000999951)
(0 -4.07183e-09 -0.000999962)
)
;
    }
    procBoundary0to1
    {
        type            processor;
        value           nonuniform List<vector> 
180
(
(6.5655e-10 -9.4425e-09 -0.000999944)
(5.45926e-10 -1.21594e-08 -0.000999942)
(4.47326e-10 -1.66719e-08 -0.00099994)
(4.08991e-10 -2.22574e-08 -0.000999938)
(4.25176e-10 -2.84889e-08 -0.000999936)
(4.74532e-10 -3.5182e-08 -0.000999934)
(5.39451e-10 -4.22962e-08 -0.00099993)
(6.09794e-10 -4.98619e-08 -0.000999926)
(6.80281e-10 -5.79408e-08 -0.000999921)
(7.47836e-10 -6.66092e-08 -0.000999915)
(8.10021e-10 -7.5952e-08 -0.000999908)
(8.6436e-10 -8.60616e-08 -0.0009999)
(9.08115e-10 -9.70381e-08 -0.000999891)
(9.38221e-10 -1.0899e-07 -0.000999881)
(9.51309e-10 -1.22036e-07 -0.000999869)
(9.43756e-10 -1.36305e-07 -0.000999857)
(9.11755e-10 -1.51938e-07 -0.000999843)
(8.51404e-10 -1.69093e-07 -0.000999827)
(7.58803e-10 -1.87939e-07 -0.000999809)
(6.30151e-10 -2.08665e-07 -0.00099979)
(4.61849e-10 -2.31481e-07 -0.000999768)
(2.5058e-10 -2.56617e-07 -0.000999744)
(-6.60866e-12 -2.84327e-07 -0.000999718)
(-3.12249e-10 -3.14892e-07 -0.000999688)
(-6.68412e-10 -3.48625e-07 -0.000999655)
(-1.07669e-09 -3.85869e-07 -0.000999618)
(-1.53823e-09 -4.27005e-07 -0.000999577)
(-2.05374e-09 -4.72455e-07 -0.000999532)
(-2.62363e-09 -5.22683e-07 -0.000999482)
(-3.2481e-09 -5.78203e-07 -0.000999426)
(-3.92729e-09 -6.39584e-07 -0.000999364)
(-4.6615e-09 -7.07453e-07 -0.000999296)
(-5.45141e-09 -7.82502e-07 -0.00099922)
(-6.29824e-09 -8.65497e-07 -0.000999137)
(-7.20408e-09 -9.57281e-07 -0.000999044)
(-8.17206e-09 -1.05879e-06 -0.000998942)
(-9.20663e-09 -1.17104e-06 -0.000998829)
(-1.03139e-08 -1.29519e-06 -0.000998704)
(-1.15017e-08 -1.43248e-06 -0.000998566)
(-1.27797e-08 -1.58429e-06 -0.000998414)
(-1.41592e-08 -1.75216e-06 -0.000998246)
(-1.56551e-08 -1.93778e-06 -0.00099806)
(-1.72844e-08 -2.14302e-06 -0.000997856)
(-1.90698e-08 -2.36993e-06 -0.00099763)
(-2.10373e-08 -2.62079e-06 -0.000997381)
(-2.32173e-08 -2.89811e-06 -0.000997106)
(-2.5644e-08 -3.20467e-06 -0.000996803)
(-2.83558e-08 -3.54353e-06 -0.000996468)
(-3.13979e-08 -3.91808e-06 -0.000996099)
(-3.48388e-08 -4.33204e-06 -0.000995692)
(-3.87658e-08 -4.78952e-06 -0.000995243)
(-4.32899e-08 -5.29506e-06 -0.000994748)
(-4.85529e-08 -5.85363e-06 -0.000994202)
(-5.47362e-08 -6.47074e-06 -0.0009936)
(-6.20692e-08 -7.15243e-06 -0.000992937)
(-7.08409e-08 -7.90536e-06 -0.000992207)
(-8.14164e-08 -8.73684e-06 -0.000991403)
(-9.42507e-08 -9.65492e-06 -0.000990519)
(-1.09912e-07 -1.06684e-05 -0.000989546)
(-1.29107e-07 -1.17871e-05 -0.000988476)
(-1.52706e-07 -1.30217e-05 -0.0009873)
(-1.81778e-07 -1.43838e-05 -0.000986008)
(-2.17628e-07 -1.58863e-05 -0.000984591)
(-2.61832e-07 -1.75433e-05 -0.000983035)
(-3.16281e-07 -1.93702e-05 -0.000981329)
(-3.832e-07 -2.13842e-05 -0.000979457)
(-4.65142e-07 -2.36037e-05 -0.000977404)
(-5.64925e-07 -2.60495e-05 -0.000975153)
(-6.86413e-07 -2.87442e-05 -0.00097269)
(-8.34594e-07 -3.17118e-05 -0.000969997)
(-1.01641e-06 -3.49764e-05 -0.000967059)
(-1.24347e-06 -3.85583e-05 -0.000963851)
(-1.5395e-06 -4.24584e-05 -0.000960304)
(-1.95747e-06 -4.66146e-05 -0.000956302)
(-2.60993e-06 -5.0799e-05 -0.000952073)
(-3.70166e-06 -5.44004e-05 -0.000949174)
(-5.54902e-06 -5.61196e-05 -0.000949436)
(-8.62648e-06 -5.3561e-05 -0.000941182)
(-1.35633e-05 -4.29052e-05 -0.000889584)
(-2.00311e-05 -2.1109e-05 -0.000676274)
(-1.81736e-05 1.42219e-05 -0.00270374)
(4.85763e-06 6.33074e-06 -1.68006e-05)
(0.000190649 -0.000237844 -0.00275115)
(8.15905e-05 -7.79577e-05 -0.00343118)
(-2.2621e-05 3.61672e-05 -0.000660606)
(-0.000544891 0.000289263 -0.00462036)
(-3.22384e-05 3.61636e-05 -0.000251967)
(-0.000335643 0.0002709 -0.00341777)
(8.5878e-05 -0.000120331 -0.00170099)
(0.000387501 -0.000157923 -0.00390672)
(7.81283e-05 -4.42242e-06 -0.0014566)
(5.13807e-05 2.25596e-05 -0.00432083)
(-7.18551e-06 4.3062e-05 -0.00105956)
(-0.000111207 0.000513485 -0.00439648)
(-4.52814e-06 3.81954e-06 5.01767e-05)
(-0.000264698 0.000479563 -0.00464086)
(-0.00019323 0.000249569 -0.00197184)
(-0.000242861 0.000281666 -0.00219668)
(-0.000215266 0.000330619 -0.00374034)
(-9.10582e-05 -5.09686e-05 -0.00185589)
(-0.000248747 -6.52875e-05 -0.00294761)
(-0.000393309 -9.32649e-05 -0.00257321)
(-9.44712e-05 -6.67069e-05 -0.0018193)
(4.59765e-06 -4.54372e-05 -0.00174194)
(3.09836e-05 -2.80942e-05 -0.00139678)
(7.42479e-05 -1.65359e-05 -0.00125271)
(9.80946e-05 -1.43265e-05 -0.00115049)
(0.00010521 -1.49587e-05 -0.0011293)
(0.000102518 -1.50792e-05 -0.00112298)
(9.54747e-05 -1.42811e-05 -0.00111313)
(8.71465e-05 -1.30012e-05 -0.00110179)
(7.8894e-05 -1.15979e-05 -0.00109133)
(7.12067e-05 -1.02487e-05 -0.00108208)
(6.42056e-05 -9.02087e-06 -0.00107383)
(5.78788e-05 -7.92926e-06 -0.00106642)
(5.21753e-05 -6.96778e-06 -0.00105976)
(4.70369e-05 -6.12363e-06 -0.00105377)
(4.24081e-05 -5.38313e-06 -0.00104838)
(3.8238e-05 -4.73364e-06 -0.00104355)
(3.4481e-05 -4.16392e-06 -0.0010392)
(3.10957e-05 -3.66408e-06 -0.00103529)
(2.80452e-05 -3.22545e-06 -0.00103178)
(2.52962e-05 -2.84043e-06 -0.00102862)
(2.28187e-05 -2.50238e-06 -0.00102577)
(2.05855e-05 -2.20548e-06 -0.00102321)
(1.85725e-05 -1.94464e-06 -0.00102091)
(1.67577e-05 -1.71541e-06 -0.00101884)
(1.51214e-05 -1.51389e-06 -0.00101698)
(1.36459e-05 -1.33666e-06 -0.0010153)
(1.23153e-05 -1.18074e-06 -0.00101379)
(1.11151e-05 -1.04351e-06 -0.00101243)
(1.00325e-05 -9.22708e-07 -0.0010112)
(9.05588e-06 -8.16317e-07 -0.0010101)
(8.17477e-06 -7.22586e-07 -0.0010091)
(7.37977e-06 -6.39972e-07 -0.00100821)
(6.66241e-06 -5.67122e-07 -0.0010074)
(6.01505e-06 -5.02852e-07 -0.00100667)
(5.43081e-06 -4.46122e-07 -0.00100602)
(4.90352e-06 -3.96023e-07 -0.00100543)
(4.42759e-06 -3.51761e-07 -0.0010049)
(3.99799e-06 -3.12636e-07 -0.00100442)
(3.6102e-06 -2.78038e-07 -0.00100398)
(3.26014e-06 -2.47429e-07 -0.00100359)
(2.94412e-06 -2.20338e-07 -0.00100324)
(2.65883e-06 -1.9635e-07 -0.00100293)
(2.40127e-06 -1.75101e-07 -0.00100264)
(2.16875e-06 -1.56269e-07 -0.00100238)
(1.95882e-06 -1.39572e-07 -0.00100215)
(1.7693e-06 -1.24759e-07 -0.00100194)
(1.5982e-06 -1.11611e-07 -0.00100175)
(1.44373e-06 -9.99323e-08 -0.00100158)
(1.30428e-06 -8.95513e-08 -0.00100142)
(1.17839e-06 -8.0316e-08 -0.00100128)
(1.06476e-06 -7.20921e-08 -0.00100116)
(9.62183e-07 -6.47611e-08 -0.00100105)
(8.69601e-07 -5.82181e-08 -0.00100094)
(7.86046e-07 -5.23708e-08 -0.00100085)
(7.10645e-07 -4.71379e-08 -0.00100077)
(6.42613e-07 -4.24477e-08 -0.00100069)
(5.81241e-07 -3.82373e-08 -0.00100062)
(5.25891e-07 -3.44512e-08 -0.00100056)
(4.75987e-07 -3.10412e-08 -0.00100051)
(4.31011e-07 -2.79648e-08 -0.00100046)
(3.90498e-07 -2.51847e-08 -0.00100041)
(3.54026e-07 -2.26686e-08 -0.00100037)
(3.2122e-07 -2.03882e-08 -0.00100033)
(2.91741e-07 -1.83184e-08 -0.0010003)
(2.65286e-07 -1.64376e-08 -0.00100027)
(2.4158e-07 -1.47266e-08 -0.00100024)
(2.20381e-07 -1.31686e-08 -0.00100021)
(2.01471e-07 -1.17487e-08 -0.00100019)
(1.84656e-07 -1.04537e-08 -0.00100017)
(1.69761e-07 -9.27233e-09 -0.00100015)
(1.56637e-07 -8.19534e-09 -0.00100013)
(1.45151e-07 -7.21727e-09 -0.00100012)
(1.35197e-07 -6.33955e-09 -0.0010001)
(1.26703e-07 -5.57514e-09 -0.00100009)
(1.19696e-07 -4.95893e-09 -0.00100007)
(1.14359e-07 -4.47665e-09 -0.00100006)
(1.11302e-07 -4.11525e-09 -0.00100005)
)
;
    }
    procBoundary0to2
    {
        type            processor;
        value           nonuniform List<vector> 
180
(
(5.56066e-10 -9.34205e-09 -0.00100006)
(3.3031e-10 -1.19438e-08 -0.00100006)
(9.65407e-11 -1.63212e-08 -0.00100007)
(-8.86116e-11 -2.17598e-08 -0.00100007)
(-2.3118e-10 -2.78326e-08 -0.00100007)
(-3.54773e-10 -3.43528e-08 -0.00100007)
(-4.78704e-10 -4.12781e-08 -0.00100008)
(-6.14419e-10 -4.86378e-08 -0.00100008)
(-7.68021e-10 -5.64926e-08 -0.00100009)
(-9.43132e-10 -6.49183e-08 -0.0010001)
(-1.14249e-09 -7.39996e-08 -0.0010001)
(-1.36864e-09 -8.38288e-08 -0.00100011)
(-1.62428e-09 -9.45059e-08 -0.00100012)
(-1.9124e-09 -1.0614e-07 -0.00100013)
(-2.23646e-09 -1.18848e-07 -0.00100014)
(-2.6005e-09 -1.32761e-07 -0.00100016)
(-3.00942e-09 -1.48018e-07 -0.00100017)
(-3.46912e-09 -1.64773e-07 -0.00100019)
(-3.98683e-09 -1.83194e-07 -0.00100021)
(-4.57138e-09 -2.03465e-07 -0.00100023)
(-5.23349e-09 -2.25787e-07 -0.00100025)
(-5.98612e-09 -2.50381e-07 -0.00100027)
(-6.84476e-09 -2.7749e-07 -0.0010003)
(-7.82781e-09 -3.07378e-07 -0.00100033)
(-8.95682e-09 -3.40339e-07 -0.00100036)
(-1.02569e-08 -3.76691e-07 -0.0010004)
(-1.17571e-08 -4.1679e-07 -0.00100044)
(-1.34906e-08 -4.61022e-07 -0.00100048)
(-1.54952e-08 -5.09816e-07 -0.00100053)
(-1.78136e-08 -5.63644e-07 -0.00100058)
(-2.04938e-08 -6.23025e-07 -0.00100064)
(-2.35898e-08 -6.88534e-07 -0.0010007)
(-2.71618e-08 -7.60803e-07 -0.00100077)
(-3.12768e-08 -8.40532e-07 -0.00100085)
(-3.60098e-08 -9.28492e-07 -0.00100093)
(-4.14441e-08 -1.02554e-06 -0.00100103)
(-4.76726e-08 -1.1326e-06 -0.00100113)
(-5.47989e-08 -1.25073e-06 -0.00100125)
(-6.29389e-08 -1.38108e-06 -0.00100137)
(-7.22218e-08 -1.52489e-06 -0.00100151)
(-8.27924e-08 -1.68359e-06 -0.00100166)
(-9.48126e-08 -1.8587e-06 -0.00100183)
(-1.08464e-07 -2.05192e-06 -0.00100202)
(-1.23949e-07 -2.26515e-06 -0.00100223)
(-1.41495e-07 -2.50046e-06 -0.00100246)
(-1.61355e-07 -2.76013e-06 -0.00100271)
(-1.83812e-07 -3.0467e-06 -0.00100298)
(-2.0918e-07 -3.36295e-06 -0.00100329)
(-2.37812e-07 -3.71196e-06 -0.00100363)
(-2.70096e-07 -4.09714e-06 -0.001004)
(-3.06465e-07 -4.52226e-06 -0.00100441)
(-3.47399e-07 -4.99149e-06 -0.00100486)
(-3.93425e-07 -5.50942e-06 -0.00100536)
(-4.45128e-07 -6.08116e-06 -0.00100591)
(-5.03148e-07 -6.71234e-06 -0.00100652)
(-5.6819e-07 -7.40922e-06 -0.00100719)
(-6.41026e-07 -8.1787e-06 -0.00100793)
(-7.22505e-07 -9.02847e-06 -0.00100874)
(-8.13555e-07 -9.96702e-06 -0.00100964)
(-9.15191e-07 -1.10038e-05 -0.00101064)
(-1.02852e-06 -1.21492e-05 -0.00101173)
(-1.15476e-06 -1.34148e-05 -0.00101294)
(-1.29523e-06 -1.48136e-05 -0.00101428)
(-1.45134e-06 -1.63598e-05 -0.00101576)
(-1.62464e-06 -1.80693e-05 -0.00101739)
(-1.81681e-06 -1.99596e-05 -0.00101919)
(-2.0296e-06 -2.20503e-05 -0.00102117)
(-2.26533e-06 -2.43627e-05 -0.00102336)
(-2.52696e-06 -2.69204e-05 -0.00102578)
(-2.81744e-06 -2.97496e-05 -0.00102845)
(-3.14033e-06 -3.28788e-05 -0.00103141)
(-3.50207e-06 -3.63348e-05 -0.00103468)
(-3.91672e-06 -4.01325e-05 -0.00103825)
(-4.41572e-06 -4.42397e-05 -0.001042)
(-5.06118e-06 -4.84911e-05 -0.0010462)
(-5.93745e-06 -5.24191e-05 -0.00105271)
(-7.01041e-06 -5.50027e-05 -0.00106356)
(-7.83482e-06 -5.48307e-05 -0.00106511)
(-6.93631e-06 -5.0121e-05 -0.00101589)
(-2.4924e-06 -3.9312e-05 -0.000724989)
(2.36469e-06 -6.2364e-06 -0.00360366)
(-2.94423e-06 8.43277e-06 9.51893e-06)
(-8.15305e-05 2.07729e-05 -0.00422795)
(-2.22611e-06 6.71154e-06 -0.000342732)
(9.82131e-05 -0.000135173 -0.00386641)
(3.94212e-05 -0.000217106 -0.00434681)
(2.00573e-05 -3.63743e-05 -0.000446833)
(0.000350604 -0.0004144 -0.00477256)
(-5.43957e-05 3.66017e-05 -0.00114822)
(-0.000336981 0.000841245 -0.00289375)
(-0.000430934 0.00105479 -0.00318283)
(-0.000166333 0.000216225 -0.000674414)