/*--------------------------------*- C++ -*----------------------------------*\
| =========                 |                                                 |
| \\      /  F ield         | OpenFOAM: The Open Source CFD Toolbox           |
|  \\    /   O peration     | Version:  5.x                                   |
|   \\  /    A nd           | Web:      www.OpenFOAM.org                      |
|    \\/     M anipulation  |                                                 |
\*---------------------------------------------------------------------------*/
FoamFile
{
    version     2.0;
    format      ascii;
    class       surfaceScalarField;
    location    "1000";
    object      phi;
}
// * * * * * * * * * * * * * * * * * * * * * * * * * * * * * * * * * * * * * //

dimensions      [0 3 -1 0 0 0 0];

internalField   nonuniform List<scalar> 
179
(
-249.969
-249.969
-249.969
-249.97
-249.97
-249.97
-249.97
-249.971
-249.971
-249.971
-249.971
-249.972
-249.972
-249.971
-249.971
-249.971
-249.97
-249.969
-249.968
-249.967
-249.965
-249.963
-249.961
-249.958
-249.954
-249.95
-249.946
-249.94
-249.934
-249.927
-249.92
-249.911
-249.901
-249.891
-249.879
-249.866
-249.851
-249.835
-249.818
-249.798
-249.777
-249.754
-249.728
-249.7
-249.669
-249.635
-249.598
-249.557
-249.511
-249.461
-249.405
-249.344
-249.275
-249.2
-249.117
-249.025
-248.923
-248.812
-248.689
-248.556
-248.411
-248.254
-248.084
-247.901
-247.704
-247.494
-247.27
-247.033
-246.784
-246.524
-246.256
-245.978
-245.693
-245.407
-245.124
-244.85
-244.599
-244.392
-244.391
-244.611
-244.102
-248.274
-249.056
-249.456
-249.409
-248.134
-249.961
-256.494
-261.49
-266.196
-267.654
-269.591
-269.93
-269.247
-268.157
-265.691
-261.857
-258.456
-255.551
-256.386
-258.595
-260.484
-254.686
-255.905
-254.331
-253.475
-252.59
-251.815
-251.144
-250.575
-250.098
-249.706
-249.391
-249.144
-248.955
-248.817
-248.722
-248.664
-248.636
-248.634
-248.65
-248.681
-248.724
-248.775
-248.833
-248.895
-248.959
-249.023
-249.088
-249.15
-249.211
-249.269
-249.324
-249.375
-249.422
-249.467
-249.508
-249.546
-249.582
-249.615
-249.646
-249.675
-249.703
-249.729
-249.753
-249.776
-249.798
-249.818
-249.836
-249.853
-249.869
-249.883
-249.896
-249.907
-249.917
-249.926
-249.933
-249.939
-249.944
-249.948
-249.951
-249.953
-249.955
-249.957
-249.958
-249.959
-249.96
-249.961
-249.963
-249.965
-249.967
-249.969
-249.972
-249.975
-249.979
-249.982
-249.986
-249.991
-249.995
)
;

boundaryField
{
    inlet
    {
        type            calculated;
        value           uniform -249.999;
    }
    outlet
    {
        type            calculated;
        value           uniform 249.969;
    }
    repeat_boundary
    {
        type            calculated;
        value           uniform 0;
    }
    procBoundary2to0
    {
        type            processor;
        value           nonuniform List<scalar> 
180
(
-6.17237e-05
-0.000175299
-0.000296266
-0.000415449
-0.000525767
-0.000626352
-0.000714447
-0.000787659
-0.000843849
-0.000881158
-0.000898031
-0.000893234
-0.000865888
-0.000815532
-0.000742119
-0.000645694
-0.000526928
-0.000386805
-0.000226676
-4.82423e-05
0.00014416
0.000345178
0.000556873
0.000776781
0.00100251
0.00123186
0.00146297
0.00169448
0.00192568
0.0021567
0.00238872
0.00262413
0.0028668
0.00309855
0.0033217
0.00355467
0.0038041
0.00407812
0.00438649
0.00474066
0.00515386
0.00564122
0.0062199
0.00690928
0.00773119
0.0087102
0.00987402
0.011254
0.0128857
0.0148097
0.0170724
0.0197271
0.022835
0.0264667
0.0307072
0.0356772
0.0415164
0.0484014
0.0565701
0.0663737
0.0783852
0.0924145
0.108452
0.127348
0.149621
0.175882
0.206854
0.243387
0.286483
0.33732
0.397188
0.4644
0.54372
0.637198
0.747238
0.87625
1.02873
1.21401
1.46114
1.48073
-0.447478
2.53361
0.40542
0.247698
0.29127
1.42915
2.7683
3.55654
2.47756
1.38774
-0.00218844
-0.105328
-0.353235
-0.696126
-0.570237
-1.27661
-2.0059
-1.53351
-1.33298
-0.142162
0.700311
-1.39587
-8.57497
-4.87709
-5.30155
-1.39493
-0.840743
-0.652838
-0.521708
-0.411324
-0.316777
-0.236433
-0.168838
-0.11256
-0.0662241
-0.028539
0.00168469
0.0255265
0.0439547
0.0578297
0.0679066
0.0748397
0.0791954
0.0814601
0.0820487
0.0813136
0.0795521
0.077013
0.073904
0.0703969
0.0666324
0.0627254
0.0587682
0.0548333
0.0509735
0.0472307
0.0435995
0.0399819
0.036642
0.03356
0.0307183
0.0281006
0.0256921
0.0234788
0.0214471
0.019584
0.0178766
0.0163125
0.0148797
0.0135669
0.0123633
0.0112589
0.0102444
0.0093104
0.00845002
0.00765736
0.00692727
0.00625525
0.00563747
0.00507065
0.00455199
0.00407901
0.00364955
0.00326159
0.00291319
0.00260243
0.00232734
0.00208586
0.00187581
0.00169491
0.00154079
0.00141104
0.00130329
0.00121528
0.00114473
0.00108958
0.00104795
0.00101637
0.000998575
0.00100281
)
;
    }
    procBoundary2to3
    {
        type            processor;
        value           nonuniform List<scalar> 
180
(
-0.000107302
-0.000283397
-0.000476844
-0.000671671
-0.000861265
-0.00104567
-0.00122324
-0.00139276
-0.0015533
-0.00170437
-0.00184588
-0.00197827
-0.00210142
-0.00221716
-0.00232731
-0.00243672
-0.00254654
-0.00266085
-0.00278424
-0.00292196
-0.00307993
-0.00326471
-0.00348354
-0.00374428
-0.00405533
-0.00442559
-0.00486441
-0.00538154
-0.00598717
-0.00669188
-0.00750669
-0.00844312
-0.00951339
-0.0107307
-0.0121101
-0.0136678
-0.0154198
-0.0173836
-0.0195784
-0.0220256
-0.0247488
-0.0277749
-0.0311339
-0.03486
-0.0389918
-0.0435735
-0.048655
-0.0542931
-0.0605523
-0.0675055
-0.0752352
-0.0838345
-0.093408
-0.104073
-0.115963
-0.129223
-0.14402
-0.160538
-0.178983
-0.199584
-0.222598
-0.248311
-0.27704
-0.309143
-0.345008
-0.385061
-0.429774
-0.479675
-0.535351
-0.597451
-0.666701
-0.743903
-0.829962
-0.925882
-1.03283
-1.15227
-1.28431
-1.42091
-1.46508
-1.26175
-0.0601482
1.63855
0.378056
0.153087
-0.338704
-2.70332
-0.941423
2.97774
2.51804
3.31825
1.46001
2.04247
0.691557
0.0123607
-0.520218
-1.18999
-1.82915
-1.86786
-1.57419
0.976762
1.50836
3.28452
2.77386
6.09552
3.72536
0.537631
-0.0441768
-0.128563
-0.153518
-0.163814
-0.16477
-0.159394
-0.149953
-0.138043
-0.12486
-0.111251
-0.0977968
-0.0848835
-0.0727496
-0.0615262
-0.0532043
-0.0455913
-0.0386886
-0.0325081
-0.027035
-0.0222361
-0.0180663
-0.014474
-0.0114041
-0.00880078
-0.00660932
-0.00477722
-0.00339875
-0.00284399
-0.00206961
-0.001261
-0.000511187
0.000141375
0.00068735
0.00113014
0.00148092
0.00175288
0.0019588
0.00211006
0.00221623
0.0022851
0.00232284
0.00233409
0.00232172
0.00228887
0.00223809
0.00217144
0.00209072
0.00199766
0.00189397
0.00178147
0.00166211
0.00153791
0.00141124
0.0012862
0.00116661
0.00104847
0.000935589
0.000830389
0.0007343
0.000648311
0.000572948
0.000508299
0.000454075
0.000409683
0.000374297
0.000346875
0.000326132
0.000311066
0.000305234
0.000309879
0.00031098
0.000311814
0.000316725
0.000323269
)
;
    }
}


// ************************************************************************* //
