# vtk DataFile Version 4.0
Generated by LIGGGHTS
ASCII
DATASET POLYDATA
POINTS 1359 float
-4.95555 -4.20529 0.49993 -2.89136 -4.09382 0.499958 -1.87502 -4.15565 0.499997 
-0.824136 -4.61712 0.499933 0.120555 -4.94501 0.499963 1.20577 -4.05842 0.499989 
1.60595 -4.99231 0.500044 2.39146 -4.45486 0.807104 3.24416 -4.87743 0.499988 
-4.39397 -3.38343 0.621309 -3.41173 -3.23993 0.499955 -2.35641 -3.24886 0.499996 
-1.00097 -3.63256 0.49997 0.239969 -3.7964 0.499996 1.32295 -3.06528 0.50003 
2.86364 -3.62832 0.499948 3.64946 -3.00983 0.499956 4.06707 -3.9938 0.499961 
4.63627 -3.17163 0.499976 -3.96766 -2.40871 0.499991 -2.92461 -2.36634 0.499966 
-1.49939 -2.81134 0.777651 -0.903446 -2.03014 0.499981 -0.319215 -2.87504 0.499999 
0.614924 -2.35914 0.499995 2.33339 -2.61705 0.499956 3.19939 -2.11682 0.499986 
-4.74827 -1.78371 0.500054 -3.47339 -1.54411 0.650712 -1.98158 -1.98047 0.499982 
-0.682707 -1.05483 0.499989 0.260684 -1.42398 0.500004 1.29957 -1.56417 0.499978 
2.97866 -1.14082 0.499979 2.24514 -1.69933 0.887231 4.25163 -1.77691 0.499944 
-4.07846 -0.762388 0.499929 -3.06952 -0.640613 0.507222 -2.0218 -0.950942 0.499923 
-0.747735 -0.0617227 0.597449 0.983809 -0.615335 0.500037 1.99396 -0.812307 0.499965 
2.75685 -0.165748 0.499967 3.92945 -0.830122 0.499973 4.92695 -0.839697 0.570434 
-4.7013 0.109034 0.499986 -3.7025 0.164241 0.49991 -2.71061 0.292746 0.499954 
-1.742 0.0438404 0.499979 0.159069 0.348436 0.499994 1.15889 0.369214 0.499968 
2.10619 0.546592 0.766948 3.01524 0.86641 0.499971 3.70761 0.144926 0.499966 
4.51465 0.739352 0.499993 -4.28076 1.19811 0.499997 -3.32091 1.01575 0.859448 
-3.40102 1.94546 0.500008 -2.41814 1.25165 0.499955 -1.44764 1.49622 0.499968 
-0.505619 1.13451 0.499952 0.47774 1.31926 0.49999 1.4311 1.28356 0.799642 
2.33226 1.59682 0.499983 3.81621 1.54125 0.499957 -4.36466 2.21281 0.499996 
-3.64371 2.92208 0.5 -2.40534 2.25165 0.499919 -1.46687 2.43471 0.872891 
-0.590142 2.13092 0.499948 0.298475 2.59118 0.499984 1.2258 2.21702 0.505605 
2.15503 2.58647 0.499998 3.1268 2.35023 0.499931 4.60794 2.15634 0.499979 
-4.23586 3.81183 0.499995 -4.90966 3.07293 0.500023 -3.2379 3.83407 0.559882 
-1.3063 3.35398 0.499975 -0.306876 3.38712 0.499982 1.57184 3.40438 0.499975 
2.57799 3.49261 0.499996 4.04011 3.00172 0.500044 4.69428 3.99125 0.499964 
-4.74264 4.81768 0.499952 -3.75078 4.69042 0.500012 -2.77574 4.91293 0.49994 
-2.26109 4.0396 0.500023 -1.66621 4.8434 0.499992 -0.859684 4.24868 0.499971 
0.860505 4.34101 0.500011 2.46515 4.4955 0.500001 3.63961 4.00074 0.499997 
4.21126 4.86823 0.499884 -4.37854 -4.59122 1.21965 -3.36669 -4.75116 1.23526 
-2.19828 -4.74876 1.24323 -1.29318 -4.33391 1.33638 -0.250268 -4.26105 1.2374 
0.762435 -4.74992 1.24147 1.55953 -4.17564 1.42792 2.50932 -4.03545 1.70746 
2.94315 -4.97996 1.4566 3.37421 -4.11115 1.21133 3.95128 -4.65593 1.81966 
4.57299 -4.02014 1.36213 -4.60581 -3.53211 1.65797 -3.7422 -3.82027 1.24421 
-2.7849 -3.97656 1.48731 -1.90507 -3.52022 1.35462 -0.917459 -3.41735 1.47293 
0.826452 -3.4993 1.25404 1.55227 -3.02633 1.83702 2.0749 -3.39726 1.06948 
3.88029 -3.31329 1.54043 -4.8578 -2.67311 1.20385 -4.45414 -2.10412 1.92021 
-3.8884 -2.84108 1.39933 -2.88186 -2.9628 1.30142 -1.8222 -2.21915 1.62747 
-0.834803 -2.42238 1.41724 0.202241 -2.71553 1.33861 0.731985 -2.05045 1.87175 
1.3801 -2.3136 1.15709 2.23521 -2.31381 1.67613 2.99282 -2.80504 1.22815 
3.89117 -2.36434 1.2244 -4.28121 -1.35876 1.27651 -3.51523 -1.86509 1.6727 
-2.62127 -1.76146 1.23673 -2.60671 -1.0074 1.89359 -1.42488 -1.44317 1.1335 
-0.10754 -1.73709 1.37545 0.722919 -1.17279 1.35045 1.70144 -1.19018 1.55581 
3.06893 -1.81058 1.44292 3.93572 -1.31674 1.37354 4.84989 -1.40207 1.76974 
-4.46383 -0.377721 1.34062 -3.25043 -0.270817 1.66201 -2.36135 -0.326777 1.20344 
-1.38449 -0.228659 1.39322 -0.666826 -0.914442 1.51525 0.0603737 -0.546404 0.935646 
1.58823 -0.213405 1.19034 2.52533 -0.665974 1.33436 3.67365 -0.225719 1.61534 
4.49856 -0.0832823 1.06832 -4.87914 0.658458 1.32107 -3.90832 0.448209 1.43629 
-2.18902 0.655792 1.27199 -1.21418 0.696454 1.05309 -0.60338 0.263644 1.77715 
0.0164146 0.901977 1.3205 0.665197 0.14129 1.33917 1.45392 0.627262 1.7156 
2.87943 0.326592 1.36164 3.72064 0.846306 1.21256 4.33354 0.475561 1.91024 
-4.61275 1.90008 1.41694 -3.62375 1.75793 1.45727 -2.12351 1.74799 1.31651 
-2.84086 1.22311 1.7751 -1.56032 1.14233 1.87857 -0.874911 1.6013 1.31289 
0.0752558 1.89588 1.21097 1.2269 1.93923 1.52648 2.31625 1.11988 1.59869 
3.07533 1.60893 1.16906 4.52029 1.44941 1.20411 -4.26789 2.8354 1.27718 
-3.02734 2.58146 1.20997 -1.53049 2.32181 1.88128 -0.491931 2.76876 1.26374 
0.563849 2.6859 1.58132 1.5706 2.85924 1.33828 2.21716 2.08688 1.36401 
3.06667 2.38216 1.80312 3.84695 2.26579 1.18862 4.74901 2.6668 1.34818 
-4.84106 3.49528 1.77863 -3.53685 3.49494 1.45199 -2.18404 3.13003 0.923501 
-2.5869 3.49139 1.76438 -1.35324 3.2251 1.49049 0.00695953 3.50476 1.7213 
0.718587 3.49463 1.01354 1.95336 3.90652 1.27612 2.4415 3.15899 1.72769 
3.27935 3.1018 1.14157 4.28346 3.5519 1.2988 -4.49001 4.31534 1.32681 
-3.60645 4.43742 1.77897 -2.70318 4.39493 1.35212 -1.58551 4.16155 1.22724 
-1.51061 4.88158 1.9171 -0.84918 4.00347 1.88689 -0.715931 4.81189 1.31365 
0.00573352 4.1957 0.998392 0.192869 4.68896 1.84792 1.06022 4.32354 1.47972 
1.9514 4.89435 1.43169 2.95753 4.0431 1.24358 3.86607 4.45871 1.36015 
4.73941 4.95278 1.34465 -4.87098 -4.49968 2.0851 -4.45741 -4.82201 2.93656 
-3.8455 -4.44511 2.05811 -2.80169 -4.89374 2.04801 -2.76039 -4.1051 2.66146 
-1.96387 -4.23975 2.07207 -0.574396 -4.62988 2.13113 0.38668 -4.35803 2.08118 
1.25872 -4.84706 2.10515 2.94736 -4.62072 2.38984 2.1324 -4.0621 2.63327 
4.27834 -4.87096 2.73982 -4.38053 -3.7952 2.59791 -3.47746 -3.428 2.12575 
-2.47033 -3.29651 2.14951 -1.08718 -3.80759 2.37783 -1.9014 -3.5921 2.91691 
-0.0766661 -3.91249 2.84894 -0.0429329 -3.46387 1.95554 -0.648585 -3.09578 2.92646 
1.2137 -3.84244 2.30522 1.94417 -3.10052 2.83636 2.62812 -3.12635 2.10669 
3.60849 -3.87209 2.34022 4.59034 -3.68595 2.30441 -4.79543 -2.9044 2.41299 
-3.8014 -2.56799 2.52184 -2.71798 -2.32977 2.05795 -2.08071 -2.61827 2.7725 
-1.29008 -2.84196 2.20252 -1.2272 -2.10307 2.93071 -0.198354 -2.51586 2.2331 
0.705382 -2.93937 2.36154 0.69974 -2.09637 2.89931 1.56829 -2.21203 2.41723 
3.40483 -2.49676 2.08796 4.50829 -2.31085 2.00943 4.0876 -2.91173 2.6891 
-4.76495 -1.64067 2.7501 -3.45091 -1.18199 2.40019 -2.14912 -1.64492 2.51335 
-0.814731 -1.70348 2.11203 -0.259837 -1.80859 2.93731 0.404254 -1.27173 2.41701 
1.56345 -1.21249 2.54727 2.73353 -1.81921 2.38826 3.17889 -0.997592 2.01465 
4.15229 -1.08527 2.41249 4.29434 -1.93932 2.91284 -4.38789 -0.905466 2.18673 
-3.21211 -0.247719 2.6647 -2.31357 -0.6797 2.7918 -1.57865 -0.991285 2.01228 
-0.352431 -0.0180731 2.70321 -0.74553 -0.936375 2.74978 0.114224 -0.447818 1.93019 
0.579301 -0.336931 2.87676 1.19279 -0.404798 2.08864 1.74932 -0.266255 2.90958 
2.1321 -0.0450527 2.01241 2.70798 -0.499421 2.74545 3.7307 -0.292255 2.85215 
4.76083 -0.426488 1.97021 4.93719 -0.660744 2.92623 -4.41881 0.0955182 2.22048 
-4.93159 0.937864 2.40637 -3.68877 0.873442 2.31424 -2.0464 0.0787463 2.07791 
-2.74601 0.63264 2.57768 -1.13561 0.594981 2.59962 0.888041 0.551266 2.53656 
2.32222 0.779898 2.54463 3.19683 0.356101 2.30943 3.9264 0.906365 2.71558 
-4.2718 1.68561 2.33229 -3.28681 1.77411 2.48038 -2.23572 1.50916 2.51831 
-1.24622 1.72071 2.63148 -0.464499 1.18469 2.15041 0.573197 1.34818 2.02106 
0.0646791 1.75156 2.78169 1.59918 1.4258 2.29972 3.16712 1.33965 2.12769 
4.14761 1.66768 2.10606 -4.66999 2.58621 2.15837 -3.62487 2.59014 2.01168 
-2.5125 2.41744 2.05139 -1.59752 2.63603 2.82822 -0.558288 2.17676 2.06688 
0.0906127 2.83154 2.45623 0.875574 2.21304 2.42176 1.8418 2.39396 2.23851 
2.70869 2.42997 2.7356 3.69775 2.42216 2.58401 4.82282 2.21002 2.93372 
-4.00942 3.4556 2.33247 -4.80536 3.23886 2.90379 -3.12493 3.88767 2.50856 
-2.42352 3.18544 2.70225 -0.861486 3.11983 2.3548 0.406576 3.95881 2.5176 
1.07466 3.45312 1.9718 1.81347 3.31324 2.63098 2.80461 3.44467 2.61525 
3.53151 3.62808 1.95355 4.35106 3.06036 2.17684 4.13974 3.88249 2.70541 
-4.47672 4.1835 2.83407 -3.52278 4.8363 2.6921 -2.249 4.29667 2.25272 
-1.36061 4.29326 2.71177 -0.393285 4.54159 2.66095 0.537254 4.92111 2.75759 
1.6052 4.23842 2.31385 2.58367 4.32606 2.127 3.53776 4.57061 2.2999 
4.81804 4.36318 2.14838 -4.87266 -4.82748 3.84624 -3.64743 -4.25797 3.09715 
-2.83329 -4.11058 3.65878 -2.21445 -4.8587 3.90281 -1.8658 -4.5916 3.00333 
-0.86797 -4.47382 3.09133 0.0295405 -4.65178 3.51402 0.860705 -4.22256 3.16009 
1.97891 -4.59006 3.84376 2.70671 -4.99084 3.28733 3.51296 -4.4081 3.18689 
4.83399 -4.15098 3.15546 -4.02526 -3.3999 3.44492 -3.1204 -3.23346 3.03982 
-2.41871 -3.08676 3.73825 -1.87109 -3.92045 3.86096 -0.533323 -3.73561 3.72517 
0.448877 -3.55897 3.7902 1.67587 -3.62712 3.70714 2.61787 -3.88544 3.48938 
3.14952 -3.22947 2.9537 4.97161 -3.26896 3.60606 4.04457 -3.59368 3.41906 
-4.46208 -2.51571 3.27184 -3.57517 -2.54908 3.77414 -2.97438 -2.24429 3.02125 
-2.16418 -2.01954 3.56903 -1.45386 -2.91009 3.49528 0.0935958 -2.67328 3.44675 
1.06766 -2.94933 3.29391 1.95766 -2.6308 3.71917 1.13414 -2.0571 3.79988 
2.96711 -2.76898 3.82295 3.35729 -2.2569 3.05776 4.12745 -2.62314 3.64584 
-4.68024 -1.0767 3.7512 -3.84454 -1.74243 3.12872 -3.70063 -1.16459 3.93198 
-2.96102 -1.27516 3.26742 -1.60389 -1.22445 3.23856 -0.71215 -1.31717 3.68165 
0.872392 -1.19546 3.2974 0.193153 -1.71784 3.8243 2.10129 -1.81192 3.16298 
2.90382 -1.70014 3.75372 3.33825 -1.26136 2.96593 4.60176 -1.766 3.84848 
-3.99584 -0.706227 3.0922 -3.41914 -0.20587 3.89371 -2.27665 -1.00202 3.94533 
-1.4336 -0.262525 3.01897 -0.139237 -0.492573 3.55733 1.7942 -0.974923 3.61608 
2.27659 -0.121676 3.8142 3.15357 -0.620708 3.71117 3.91411 0.000580346 3.89979 
4.15146 -0.957859 3.46876 -4.47042 0.165213 3.21669 -3.50342 0.54689 3.24097 
-2.57399 0.0501239 3.42388 -1.94488 0.780516 3.15753 -0.804856 0.356293 3.51262 
[...]
POINT_DATA 1359
FIELD FieldData 7
id 1 1359 int
48 62 69 126 50 115 30 89 31 
120 60 12 7 23 28 51 64 29 
24 49 79 129 104 11 56 59 14 
20 99 45 1 18 22 78 82 109 
27 15 19 105 26 4 86 43 67 
54 65 37 80 16 35 110 2 114 
46 33 108 3 71 21 42 55 119 
53 97 52 94 8 84 25 13 6 
63 47 36 9 81 87 40 34 44 
5 41 38 58 57 17 10 88 32 
39 72 76 112 161 165 151 214 77 
106 168 213 198 136 231 123 166 127 
284 210 220 100 157 93 197 103 212 
194 172 174 132 83 180 102 160 70 
135 164 217 155 191 61 85 150 207 
159 66 196 139 258 117 169 147 98 
91 158 309 130 101 167 143 73 125 
113 124 171 215 137 193 68 153 133 
190 187 146 74 131 186 163 128 134 
142 203 122 173 154 138 175 95 211 
162 222 118 185 121 144 96 116 235 
92 170 107 178 152 111 267 206 141 
90 148 75 156 149 192 145 260 291 
189 263 321 244 195 199 221 316 322 
336 333 280 266 281 348 255 140 303 
253 318 245 233 205 262 272 225 312 
248 324 249 289 298 228 247 223 282 
234 274 283 204 254 285 279 241 179 
313 302 224 359 264 184 188 257 227 
230 177 355 181 269 369 270 295 208 
271 265 216 250 277 238 273 256 331 
176 326 259 232 226 218 311 239 261 
236 219 243 183 315 200 276 240 201 
297 293 379 252 296 325 314 182 237 
209 275 327 242 278 306 292 376 229 
328 290 320 268 202 332 251 431 349 
404 484 380 310 377 343 428 364 341 
346 422 350 448 455 371 399 405 339 
319 389 344 288 400 375 384 420 330 
342 433 402 432 287 356 503 335 442 
323 360 419 329 378 305 391 354 453 
368 415 439 317 337 440 407 383 470 
401 373 338 358 308 361 301 421 387 
334 424 435 304 429 372 299 414 393 
347 294 340 412 367 300 352 418 489 
353 461 374 403 366 246 362 286 459 
430 388 406 390 381 345 445 423 392 
357 413 385 425 363 382 416 397 410 
398 307 365 351 386 477 468 558 542 
513 426 446 443 516 539 457 396 501 
518 456 553 500 492 557 478 482 514 
505 481 507 544 460 411 465 529 555 
488 417 370 458 595 490 528 462 472 
556 510 549 471 427 515 535 434 548 
506 550 498 474 534 444 408 537 525 
493 499 522 552 437 480 475 469 601 
509 463 541 449 609 512 452 524 504 
450 531 479 617 521 497 519 447 543 
394 438 454 483 473 546 486 395 562 
545 466 520 496 530 487 491 409 495 
511 436 604 494 547 451 502 464 441 
590 467 540 476 615 672 626 616 611 
536 576 669 631 572 659 589 570 718 
571 648 633 569 632 588 608 485 579 
655 582 665 533 563 581 586 618 607 
508 587 538 670 610 564 625 658 568 
675 654 651 676 664 594 580 660 647 
527 517 593 641 561 685 614 573 605 
612 600 627 596 554 567 577 673 591 
653 671 560 662 599 574 629 551 622 
613 674 656 559 619 598 526 585 566 
583 666 578 639 628 565 584 523 663 
620 532 650 657 623 688 652 667 575 
597 606 603 602 592 692 728 642 643 
727 686 680 774 661 636 804 709 733 
750 722 699 668 738 696 700 649 780 
703 767 720 697 724 702 634 717 752 
769 740 775 682 713 698 729 690 683 
719 766 706 716 772 746 646 739 677 
624 737 743 711 630 710 679 759 621 
687 640 762 787 708 694 778 726 635 
707 721 695 637 756 715 725 689 644 
678 714 684 753 757 731 758 765 693 
786 776 704 705 691 723 763 638 681 
701 747 645 749 837 741 800 831 833 
822 745 735 744 825 844 732 791 808 
764 777 823 810 836 802 770 742 755 
820 815 712 736 811 768 781 734 805 
773 782 789 827 809 761 783 754 812 
771 784 839 785 779 748 801 814 819 
816 845 760 840 751 790 817 797 730 
807 899 828 835 798 832 818 834 846 
821 788 891 829 794 842 806 795 843 
889 792 841 813 793 803 799 830 796 
824 826 838 883 886 862 879 854 880 
851 876 881 957 865 884 897 874 875 
869 849 860 870 853 848 856 878 892 
864 866 863 872 896 857 858 867 873 
890 885 882 888 847 855 877 871 852 
861 895 893 859 887 850 894 898 868 
929 950 943 947 914 905 913 942 930 
954 918 911 919 953 958 904 935 986 
926 951 938 937 941 915 903 925 934 
909 940 959 948 939 932 952 901 955 
949 924 900 921 928 946 907 917 923 
956 922 906 910 912 908 1003 931 927 
944 1002 916 920 933 936 945 902 1005 
1012 990 969 1014 997 989 995 968 971 
978 961 960 998 982 1006 981 1009 967 
966 988 1007 974 1011 976 993 1016 979 
1004 992 977 999 1008 970 973 963 980 
962 983 964 996 987 1041 1010 972 1000 
975 1067 984 1034 1065 1025 1028 1038 1053 
1068 991 985 965 1013 1048 1001 994 1037 
1015 1024 1029 1039 1054 1020 1045 1027 1058 
1043 1030 1032 1021 1071 1026 1023 1066 1022 
1052 1018 1070 1063 1061 1035 1056 1050 1059 
1049 1069 1055 1017 1047 1040 1019 1057 1087 
1051 1033 1064 1036 1031 1060 1042 1046 1062 
1044 1098 1119 1104 1099 1074 1127 1121 1108 
1077 1125 1122 1103 1073 1126 1080 1107 1090 
1076 1081 1089 1072 1092 1084 1097 1088 1118 
1101 1086 1128 1100 1112 1095 1110 1117 1085 
1093 1120 1113 1082 1096 1123 1116 1111 1078 
1115 1106 1124 1083 1079 1075 1102 1091 1109 
1094 1114 1105 1130 1129 1170 1158 1156 1133 
1147 1179 1146 1142 1169 1150 1171 1155 1160 
1141 1134 1157 1153 1166 1145 1165 1175 1186 
1163 1140 1188 1159 1185 1176 1135 1148 1161 
1168 1187 1154 1184 1182 1245 1180 1217 1225 
1139 1202 1162 1206 1198 1181 1152 1192 1138 
1167 1205 1164 1196 1214 1247 1144 1183 1149 
1178 1204 1209 1219 1172 1136 1173 1190 1131 
1137 1132 1234 1151 1210 1177 1243 1174 1235 
1143 1230 1272 1221 1242 1191 1244 1211 1236 
1229 1218 1233 1213 1215 1238 1222 1252 1301 
1197 1201 1226 1224 1239 1297 1237 1189 1223 
1264 1194 1240 1193 1271 1228 1231 1250 1207 
1220 1241 1267 1248 1203 1227 1216 1195 1200 
1232 1246 1208 1212 1199 1293 1294 1299 1291 
1351 1331 1312 1269 1254 1347 1261 1300 1273 
1253 1265 1281 1325 1262 1320 1282 1302 1287 
1285 1255 1270 1348 1296 1274 1315 1290 1292 
1251 1288 1303 1276 1275 1263 1357 1256 1257 
1284 1258 1298 1326 1359 1249 1286 1266 1278 
1268 1289 1277 1279 1313 1259 1280 1295 1260 
1283 1342 1337 1304 1344 1323 1335 1308 1317 
1310 1305 1354 1328 1353 1339 1341 1307 1318 
1306 1356 1350 1343 1309 1346 1334 1355 1333 
1358 1314 1327 1338 1319 1340 1349 1316 1332 
1322 1352 1324 1330 1311 1329 1345 1321 1336 

type 1 1359 int
1 1 1 1 1 1 1 1 1 
1 1 1 1 1 1 1 1 1 
1 1 1 1 1 1 1 1 1 
1 1 1 1 1 1 1 1 1 
1 1 1 1 1 1 1 1 1 
1 1 1 1 1 1 1 1 1 
1 1 1 1 1 1 1 1 1 
1 1 1 1 1 1 1 1 1 
1 1 1 1 1 1 1 1 1 
1 1 1 1 1 1 1 1 1 
1 1 1 1 1 1 1 1 1 
1 1 1 1 1 1 1 1 1 
1 1 1 1 1 1 1 1 1 
1 1 1 1 1 1 1 1 1 
1 1 1 1 1 1 1 1 1 
1 1 1 1 1 1 1 1 1 
1 1 1 1 1 1 1 1 1 
1 1 1 1 1 1 1 1 1 
1 1 1 1 1 1 1 1 1 
1 1 1 1 1 1 1 1 1 
1 1 1 1 1 1 1 1 1 
1 1 1 1 1 1 1 1 1 
1 1 1 1 1 1 1 1 1 
1 1 1 1 1 1 1 1 1 
1 1 1 1 1 1 1 1 1 
1 1 1 1 1 1 1 1 1 
1 1 1 1 1 1 1 1 1 
1 1 1 1 1 1 1 1 1 
1 1 1 1 1 1 1 1 1 
1 1 1 1 1 1 1 1 1 
1 1 1 1 1 1 1 1 1 
1 1 1 1 1 1 1 1 1 
1 1 1 1 1 1 1 1 1 
1 1 1 1 1 1 1 1 1 
1 1 1 1 1 1 1 1 1 
1 1 1 1 1 1 1 1 1 
1 1 1 1 1 1 1 1 1 
1 1 1 1 1 1 1 1 1 
1 1 1 1 1 1 1 1 1 
1 1 1 1 1 1 1 1 1 
1 1 1 1 1 1 1 1 1 
1 1 1 1 1 1 1 1 1 
1 1 1 1 1 1 1 1 1 
1 1 1 1 1 1 1 1 1 
1 1 1 1 1 1 1 1 1 
1 1 1 1 1 1 1 1 1 
1 1 1 1 1 1 1 1 1 
1 1 1 1 1 1 1 1 1 
1 1 1 1 1 1 1 1 1 
1 1 1 1 1 1 1 1 1 
1 1 1 1 1 1 1 1 1 
1 1 1 1 1 1 1 1 1 
1 1 1 1 1 1 1 1 1 
1 1 1 1 1 1 1 1 1 
1 1 1 1 1 1 1 1 1 
1 1 1 1 1 1 1 1 1 
1 1 1 1 1 1 1 1 1 
1 1 1 1 1 1 1 1 1 
1 1 1 1 1 1 1 1 1 
1 1 1 1 1 1 1 1 1 
1 1 1 1 1 1 1 1 1 
1 1 1 1 1 1 1 1 1 
1 1 1 1 1 1 1 1 1 
1 1 1 1 1 1 1 1 1 
1 1 1 1 1 1 1 1 1 
1 1 1 1 1 1 1 1 1 
1 1 1 1 1 1 1 1 1 
1 1 1 1 1 1 1 1 1 
1 1 1 1 1 1 1 1 1 
1 1 1 1 1 1 1 1 1 
1 1 1 1 1 1 1 1 1 
1 1 1 1 1 1 1 1 1 
1 1 1 1 1 1 1 1 1 
1 1 1 1 1 1 1 1 1 
1 1 1 1 1 1 1 1 1 
1 1 1 1 1 1 1 1 1 
1 1 1 1 1 1 1 1 1 
1 1 1 1 1 1 1 1 1 
1 1 1 1 1 1 1 1 1 
1 1 1 1 1 1 1 1 1 
1 1 1 1 1 1 1 1 1 
1 1 1 1 1 1 1 1 1 
1 1 1 1 1 1 1 1 1 
1 1 1 1 1 1 1 1 1 
1 1 1 1 1 1 1 1 1 
1 1 1 1 1 1 1 1 1 
1 1 1 1 1 1 1 1 1 
1 1 1 1 1 1 1 1 1 
1 1 1 1 1 1 1 1 1 
1 1 1 1 1 1 1 1 1 
1 1 1 1 1 1 1 1 1 
1 1 1 1 1 1 1 1 1 
1 1 1 1 1 1 1 1 1 
1 1 1 1 1 1 1 1 1 
1 1 1 1 1 1 1 1 1 
1 1 1 1 1 1 1 1 1 
1 1 1 1 1 1 1 1 1 
1 1 1 1 1 1 1 1 1 
1 1 1 1 1 1 1 1 1 
1 1 1 1 1 1 1 1 1 
1 1 1 1 1 1 1 1 1 
1 1 1 1 1 1 1 1 1 
1 1 1 1 1 1 1 1 1 
1 1 1 1 1 1 1 1 1 
1 1 1 1 1 1 1 1 1 
1 1 1 1 1 1 1 1 1 
1 1 1 1 1 1 1 1 1 
1 1 1 1 1 1 1 1 1 
1 1 1 1 1 1 1 1 1 
1 1 1 1 1 1 1 1 1 
1 1 1 1 1 1 1 1 1 
1 1 1 1 1 1 1 1 1 
1 1 1 1 1 1 1 1 1 
1 1 1 1 1 1 1 1 1 
1 1 1 1 1 1 1 1 1 
1 1 1 1 1 1 1 1 1 
1 1 1 1 1 1 1 1 1 
1 1 1 1 1 1 1 1 1 
1 1 1 1 1 1 1 1 1 
1 1 1 1 1 1 1 1 1 
1 1 1 1 1 1 1 1 1 
1 1 1 1 1 1 1 1 1 
1 1 1 1 1 1 1 1 1 
1 1 1 1 1 1 1 1 1 
1 1 1 1 1 1 1 1 1 
1 1 1 1 1 1 1 1 1 
1 1 1 1 1 1 1 1 1 
1 1 1 1 1 1 1 1 1 
1 1 1 1 1 1 1 1 1 
1 1 1 1 1 1 1 1 1 
1 1 1 1 1 1 1 1 1 
1 1 1 1 1 1 1 1 1 
1 1 1 1 1 1 1 1 1 
1 1 1 1 1 1 1 1 1 
1 1 1 1 1 1 1 1 1 
1 1 1 1 1 1 1 1 1 
1 1 1 1 1 1 1 1 1 
1 1 1 1 1 1 1 1 1 
1 1 1 1 1 1 1 1 1 
1 1 1 1 1 1 1 1 1 
1 1 1 1 1 1 1 1 1 
1 1 1 1 1 1 1 1 1 
1 1 1 1 1 1 1 1 1 
1 1 1 1 1 1 1 1 1 
1 1 1 1 1 1 1 1 1 
1 1 1 1 1 1 1 1 1 
1 1 1 1 1 1 1 1 1 
1 1 1 1 1 1 1 1 1 
1 1 1 1 1 1 1 1 1 
1 1 1 1 1 1 1 1 1 
1 1 1 1 1 1 1 1 1 

i 3 1359 int
0 0 0 0 0 0 0 0 0 
0 0 0 0 0 0 0 0 0 
0 1 0 0 0 0 0 0 0 
0 0 0 0 0 0 0 0 0 
0 0 0 0 0 0 0 0 0 
0 0 0 0 0 0 0 0 0 
0 0 0 0 0 0 0 0 0 
0 0 0 0 0 0 0 0 0 
0 0 0 0 0 0 0 0 0 
1 0 0 0 0 0 0 0 0 
0 0 0 0 0 0 0 0 0 
0 0 0 0 0 0 0 0 0 
0 0 0 0 0 0 0 0 0 
0 0 0 0 0 0 0 0 0 
0 0 0 0 0 0 -1 0 0 
0 0 0 0 0 0 0 0 0 
0 0 0 0 0 0 0 0 0 
0 0 0 0 0 0 0 0 0 
0 0 0 0 0 0 0 0 0 
0 0 0 0 0 0 0 0 0 
0 0 0 0 0 0 0 0 0 
0 0 0 0 0 0 0 0 0 
0 0 0 0 0 0 0 0 0 
0 0 0 0 0 0 0 0 0 
0 0 0 0 0 0 0 0 0 
0 0 0 1 0 0 0 0 0 
0 0 0 0 0 0 0 0 0 
0 0 0 0 0 0 0 0 0 
0 0 0 0 0 0 0 -1 0 
0 0 0 0 -1 0 0 0 0 
0 0 0 0 0 0 0 0 0 
0 -1 0 0 0 0 0 1 0 
0 0 0 0 0 0 0 0 0 
0 0 0 0 0 0 0 0 0 
0 0 0 0 0 0 0 0 0 
0 0 0 0 0 0 0 0 0 
0 0 0 0 0 0 0 0 0 
0 0 0 0 0 0 0 0 0 
0 0 0 0 0 0 0 0 0 
0 0 0 0 0 0 0 0 0 
0 0 0 0 0 0 0 0 0 
0 0 0 0 0 0 0 0 0 
0 0 0 0 0 0 0 0 0 
0 0 0 0 0 0 0 0 0 
0 0 0 0 0 0 0 0 0 
0 0 0 0 0 0 0 0 0 
0 0 0 0 0 0 0 0 0 
0 0 0 0 0 0 0 0 0 
0 0 0 0 0 0 0 0 0 
0 0 0 0 0 0 0 0 0 
0 0 0 0 0 0 0 0 0 
0 0 0 0 0 0 0 0 0 
0 0 0 0 0 0 0 0 0 
0 0 0 0 0 0 0 0 0 
0 0 0 0 0 0 0 0 0 
0 0 0 0 0 0 0 0 0 
0 0 0 0 0 0 0 0 0 
0 0 0 0 0 0 0 0 0 
0 0 0 0 0 0 0 0 0 
0 0 0 0 0 0 0 0 0 
0 0 0 0 0 0 0 0 0 
0 0 0 0 0 0 0 0 0 
0 0 0 0 0 0 0 0 0 
0 0 0 0 0 0 0 0 0 
0 0 0 0 0 0 0 0 0 
0 0 0 0 0 0 0 0 0 
0 0 0 0 -1 0 0 0 0 
0 0 0 0 0 0 0 0 0 
0 0 0 0 0 0 0 0 0 
0 0 0 0 1 0 0 0 0 
0 0 0 0 0 0 0 0 0 
0 0 0 0 0 0 0 0 0 
0 0 0 0 0 0 0 0 0 
0 0 0 0 0 0 0 0 0 
0 0 0 0 0 0 0 0 0 
0 0 0 0 0 0 0 0 0 
0 0 0 0 0 0 0 0 0 
0 0 0 0 0 0 0 0 0 
0 0 0 0 0 0 0 0 0 
0 0 0 0 0 0 0 0 0 
0 0 0 0 0 0 0 0 0 
0 0 0 0 0 0 0 0 0 
0 0 0 0 0 0 0 0 0 
0 0 0 0 0 0 0 0 0 
0 0 0 0 0 0 0 0 0 
0 0 0 0 0 0 0 0 0 
0 0 0 0 0 0 0 0 0 
0 0 0 0 0 0 0 0 0 
0 0 0 0 0 0 0 0 0 
0 0 0 -1 0 0 0 0 0 
0 0 0 0 0 0 0 0 0 
0 0 0 0 0 0 0 0 0 
0 0 0 0 0 0 0 0 0 
0 0 0 0 0 0 0 0 0 
0 0 0 0 0 0 0 0 0 
0 0 0 0 0 0 0 0 0 
0 0 0 0 0 0 0 0 0 
0 0 0 0 0 0 0 0 0 
0 0 0 0 0 0 0 0 0 
0 0 0 0 0 0 -1 0 0 
0 0 0 0 0 0 0 0 0 
0 0 0 0 0 0 0 0 0 
0 0 0 0 0 0 0 0 0 
0 0 0 0 0 0 0 0 0 
0 0 0 0 0 0 0 0 0 
0 0 0 0 0 0 0 -1 0 
0 0 0 0 0 0 0 0 0 
-1 0 0 0 0 0 0 0 0 
0 0 0 0 0 0 0 0 0 
0 0 0 0 0 0 0 0 0 
0 0 0 0 0 0 0 0 0 
-1 0 0 0 0 0 0 0 0 
0 0 0 0 0 0 0 0 0 
0 0 0 0 0 0 0 0 0 
0 0 0 -1 0 0 0 0 0 
0 0 0 0 0 0 0 0 0 
0 0 0 0 0 0 0 0 0 
0 0 0 0 0 0 0 0 0 
0 0 0 0 0 0 0 0 0 
0 0 0 0 0 0 0 0 0 
0 0 0 0 0 0 0 0 0 
0 0 0 0 0 0 0 0 0 
0 0 0 0 0 0 0 0 0 
0 0 0 0 0 0 0 0 0 
0 0 0 0 0 0 0 0 0 
0 0 0 0 0 0 0 0 0 
0 0 0 0 0 0 0 0 0 
0 0 0 0 0 0 0 0 0 
0 0 0 0 0 0 0 0 0 
0 0 0 0 0 0 0 0 0 
0 0 0 0 0 0 0 0 0 
0 0 0 0 0 0 0 0 0 
0 0 0 0 0 0 0 0 0 
0 0 0 0 0 0 0 0 0 
0 0 0 0 0 0 0 0 0 
0 0 0 0 0 0 0 0 0 
0 0 0 0 0 0 0 0 0 
0 0 0 0 0 0 0 0 0 
0 0 0 0 0 0 0 0 0 
0 0 0 0 0 0 0 0 0 
0 0 0 0 0 0 0 0 0 
0 0 0 0 0 0 0 0 0 
0 0 0 0 0 0 0 0 0 
0 0 0 0 0 0 0 0 0 
0 -1 0 0 0 0 0 0 0 
0 0 0 0 0 0 1 0 0 
0 0 0 0 0 0 0 0 0 
0 0 0 0 0 0 0 0 0 
0 0 0 0 1 0 0 0 0 
0 0 0 0 0 0 0 0 0 
0 0 0 0 0 0 0 0 0 
0 0 0 0 0 0 0 0 0 
0 0 0 0 0 0 0 0 0 
0 0 0 0 0 0 0 0 0 
0 0 0 0 0 0 0 0 0 
0 0 0 0 0 0 0 0 0 
0 0 0 -1 0 0 0 0 0 
0 0 0 0 0 0 0 0 0 
0 0 0 0 0 0 0 0 0 
0 0 0 0 0 0 0 0 0 
0 0 0 0 0 0 0 0 0 
0 0 0 0 0 0 0 0 0 
0 0 0 0 0 0 0 0 0 
0 0 0 0 0 0 0 0 0 
0 0 0 0 0 0 0 0 0 
0 0 0 0 0 0 0 0 0 
0 0 0 0 0 0 0 0 0 
0 0 0 0 0 0 0 0 0 
0 0 0 0 0 0 0 0 0 
0 0 0 0 0 0 0 0 0 
0 0 0 0 0 0 0 0 0 
0 0 0 0 0 0 0 0 0 
0 0 0 0 0 0 0 0 0 
0 0 0 0 0 0 0 0 0 
0 0 0 0 0 0 0 0 0 
0 0 0 0 0 0 0 0 0 
0 0 0 0 0 0 0 0 0 
0 0 0 0 0 0 0 0 0 
0 0 0 0 0 0 0 0 0 
0 0 0 0 0 0 0 0 0 
0 0 0 0 0 0 0 0 0 
0 0 0 0 0 0 0 0 0 
0 0 0 0 0 0 0 0 0 
0 0 0 0 0 0 0 0 0 
0 0 0 0 0 0 0 0 0 
0 0 0 0 0 0 0 0 0 
0 0 0 0 0 0 0 0 0 
0 0 0 0 0 0 0 1 0 
0 0 0 0 0 0 0 0 0 
0 0 0 0 0 0 0 0 0 
0 0 0 0 0 0 0 0 0 
0 0 0 0 0 0 0 0 0 
0 0 0 0 0 0 0 0 0 
0 0 0 0 0 0 0 0 0 
0 0 0 0 0 0 0 0 0 
0 0 0 0 0 0 0 0 0 
0 0 0 0 0 0 0 0 0 
0 0 0 0 0 0 0 0 0 
0 0 0 0 0 0 0 0 0 
0 0 0 1 0 0 0 0 0 
0 0 0 0 0 0 0 0 0 
0 0 0 0 0 0 0 0 0 
0 0 0 0 0 0 0 0 0 
0 0 0 0 0 0 0 0 0 
0 0 0 0 0 0 0 0 0 
0 0 0 0 0 0 0 0 0 
0 0 0 0 0 0 0 0 0 
0 0 0 0 0 0 0 0 0 
0 0 0 0 0 0 0 0 0 
0 0 0 0 0 0 0 0 0 
0 0 0 0 0 0 0 0 0 
0 0 0 0 0 0 0 0 0 
0 0 0 0 0 0 0 0 0 
0 0 0 0 0 0 0 0 0 
0 0 0 0 0 0 1 0 0 
0 0 0 0 0 0 0 0 0 
0 0 0 0 0 0 0 0 0 
0 0 0 0 0 0 0 0 0 
0 0 0 0 0 0 0 0 0 
0 0 0 0 0 0 0 0 0 
0 0 0 0 0 0 0 0 0 
0 0 0 0 0 0 0 0 0 
0 0 0 0 0 0 0 0 0 
0 0 0 0 0 0 0 0 0 
0 0 0 0 0 0 0 0 0 
0 0 0 0 0 0 0 0 0 
0 0 0 0 0 0 0 0 0 
0 0 0 0 0 0 0 0 0 
0 0 0 0 0 0 0 0 0 
0 0 0 0 0 0 0 0 0 
0 0 0 0 0 0 0 0 0 
0 0 0 0 0 0 0 0 0 
0 0 0 0 0 0 0 0 0 
0 0 0 0 0 0 0 0 0 
0 0 0 0 0 0 0 0 0 
0 0 0 0 0 0 0 0 0 
0 0 0 0 0 0 0 0 0 
0 0 0 0 0 0 0 0 0 
0 0 0 0 0 0 0 0 0 
0 0 0 0 0 0 0 0 0 
0 0 0 0 0 0 0 0 0 
0 0 0 0 0 0 0 0 0 
0 0 0 0 0 0 0 0 0 
0 0 0 0 0 0 0 0 0 
1 0 0 0 0 0 0 0 0 
0 0 0 0 0 0 0 0 0 
0 0 0 0 0 0 0 0 0 
0 0 0 0 0 0 0 0 0 
0 0 0 0 0 0 0 0 0 
0 0 0 0 0 0 0 0 0 
0 0 0 0 0 0 0 0 0 
0 0 0 0 0 0 0 0 0 
0 0 0 0 0 0 0 0 0 
0 0 0 0 0 0 0 0 0 
0 0 0 0 0 0 0 0 0 
0 0 0 0 0 0 0 0 0 
0 0 0 0 0 0 0 0 0 
0 0 0 0 0 0 0 0 0 
0 0 0 0 0 0 0 0 0 
0 0 0 0 0 0 0 0 0 
0 0 0 0 0 0 0 0 0 
0 0 0 0 0 0 0 0 0 
0 0 0 0 0 0 0 0 0 
0 0 0 0 0 0 0 0 0 
0 0 0 0 0 0 0 0 0 
0 0 0 0 0 0 0 0 0 
0 0 0 0 0 0 0 0 0 
0 0 0 0 0 0 0 0 0 
0 0 0 0 0 0 0 0 0 
0 0 0 0 0 0 0 0 0 
0 0 0 0 0 0 0 0 0 
0 0 0 0 0 0 0 0 0 
0 0 0 0 0 0 0 0 0 
0 0 0 0 0 0 0 0 0 
0 0 0 0 0 0 0 0 0 
0 0 0 0 0 0 0 0 0 
0 0 0 0 0 0 0 0 0 
0 0 0 0 0 0 0 0 0 
0 0 0 0 0 0 0 0 0 
0 0 0 0 0 0 0 0 0 
0 0 0 0 0 0 0 0 0 
0 0 0 0 0 0 0 0 0 
0 0 0 0 0 0 0 0 0 
0 0 0 0 0 0 0 0 0 
0 0 0 0 0 0 0 0 0 
0 0 0 0 0 0 0 0 0 
0 0 0 0 0 0 0 0 0 
0 0 0 0 0 0 0 0 0 
0 0 0 0 0 0 0 0 0 
0 0 0 0 0 0 0 0 0 
0 0 0 0 0 0 0 0 0 
0 0 0 0 0 0 0 0 0 
0 0 0 0 0 0 0 0 0 
0 0 0 0 0 0 0 0 0 
0 0 0 0 0 0 0 0 0 
0 0 0 0 0 0 0 0 0 
0 0 0 0 0 0 0 0 0 
0 0 0 0 0 0 0 0 0 
0 0 0 0 0 0 0 0 0 
0 0 0 0 0 0 0 0 0 
0 0 0 0 0 0 0 0 0 
0 0 0 0 0 0 0 0 0 
0 0 0 0 0 0 0 0 0 
0 0 0 0 0 0 0 0 0 
0 0 0 0 0 0 0 0 0 
0 0 0 0 0 0 0 0 0 
0 0 0 0 0 0 0 0 0 
0 0 0 0 0 0 0 0 0 
0 0 0 0 0 0 0 0 0 
0 0 0 0 0 0 0 0 0 
0 0 0 0 0 0 0 0 0 
0 0 0 0 0 0 0 0 0 
0 0 0 0 0 0 0 0 0 
0 0 0 0 0 0 0 0 0 
0 0 0 0 0 0 0 0 0 
0 0 0 0 0 0 0 0 0 
0 0 0 0 0 0 0 0 0 
0 0 0 0 0 0 0 0 0 
0 0 0 0 0 0 0 0 0 
0 0 0 0 0 0 0 0 0 
0 0 0 0 0 0 0 0 0 
0 0 0 0 0 0 0 0 0 
0 0 0 0 0 0 0 0 0 
0 0 0 0 0 0 0 0 0 
0 0 0 0 0 0 0 0 0 
0 0 0 0 0 0 0 0 0 
0 0 0 0 0 0 0 0 0 
0 0 0 0 0 0 0 0 0 
0 0 0 0 0 0 0 0 0 
0 0 0 0 0 0 0 0 0 
0 0 0 0 0 0 0 0 0 
0 0 0 0 0 0 0 0 0 
0 0 0 0 0 0 0 0 0 
0 0 0 0 0 0 0 0 0 
0 0 0 0 0 0 0 0 0 
0 0 0 0 0 0 0 0 0 
0 0 0 0 0 0 0 0 0 
0 0 0 0 0 0 0 0 0 
0 0 0 0 0 0 0 0 0 
0 0 0 0 0 0 0 0 0 
0 0 0 0 0 0 0 0 0 
0 0 0 0 0 0 0 0 0 
0 0 0 0 0 0 0 0 0 
0 0 0 0 0 0 0 0 0 
0 0 0 0 0 0 0 0 0 
0 0 0 0 0 0 0 0 0 
0 0 0 0 0 0 0 0 0 
0 0 0 0 0 0 0 0 0 
0 0 0 0 0 0 0 0 0 
0 0 0 0 0 0 0 0 0 
0 0 0 0 0 0 0 0 0 
0 0 0 0 0 0 0 0 0 
0 0 0 0 0 0 0 0 0 
0 0 0 0 0 0 0 0 0 
0 0 0 0 0 0 0 0 0 
0 0 0 0 0 0 0 0 0 
0 0 0 0 0 0 0 0 0 
0 0 0 0 0 0 0 0 0 
0 0 0 0 0 0 0 0 0 
0 0 0 0 0 0 0 0 0 
0 0 0 0 0 0 0 0 0 
0 0 0 0 0 0 0 0 0 
0 0 0 0 0 0 0 0 0 
0 0 0 0 0 0 0 0 0 
0 0 0 0 0 0 0 0 0 
0 0 0 0 0 0 0 0 0 
0 0 0 0 0 0 0 0 0 
0 0 0 0 0 0 0 0 0 
0 0 0 0 0 0 0 0 0 
0 0 0 0 0 0 0 0 0 
0 0 0 0 0 0 0 0 0 
0 0 0 0 0 0 0 0 0 
0 0 0 0 0 0 0 0 0 
0 0 0 0 0 0 0 0 0 
0 0 0 0 0 0 0 0 0 
0 0 0 0 0 0 0 0 0 
0 0 0 0 0 0 0 0 0 
0 0 0 0 0 0 0 0 0 
0 0 0 0 0 0 0 0 0 
0 0 0 0 0 0 0 0 0 
0 0 0 0 0 0 0 0 0 
0 0 0 0 0 0 0 0 0 
0 0 0 0 0 0 0 0 0 
0 0 0 0 0 0 0 0 0 
0 0 0 0 0 0 0 0 0 
0 0 0 0 0 0 0 0 0 
0 0 0 0 0 0 0 0 0 
0 0 0 0 0 0 0 0 0 
0 0 0 0 0 0 0 0 0 
0 0 0 0 0 0 0 0 0 
0 0 0 0 0 0 0 0 0 
0 0 0 0 0 0 0 0 0 
0 0 0 0 0 0 0 0 0 
0 0 0 0 0 0 0 0 0 
0 0 0 0 0 0 0 0 0 
0 0 0 0 0 0 0 0 0 
0 0 0 0 0 0 0 0 0 
0 0 0 0 0 0 0 0 0 
0 0 0 0 0 0 0 0 0 
0 0 0 0 0 0 0 0 0 
0 0 0 0 0 0 0 0 0 
0 0 0 0 0 0 0 0 0 
0 0 0 0 0 0 0 0 0 
0 0 0 0 0 0 0 0 0 
0 0 0 0 0 0 0 0 0 
0 0 0 0 0 0 0 0 0 
0 0 0 0 0 0 0 0 0 
0 0 0 0 0 0 0 0 0 
0 0 0 0 0 0 0 0 0 
0 0 0 0 0 0 0 0 0 
0 0 0 0 0 0 0 0 0 
0 0 0 0 0 0 0 0 0 
0 0 0 0 0 0 0 0 0 
0 0 0 0 0 0 0 0 0 
0 0 0 0 0 0 0 0 0 
0 0 0 0 0 0 0 0 0 
0 0 0 0 0 0 0 0 0 
0 0 0 0 0 0 0 0 0 
0 0 0 0 0 0 0 0 0 
0 0 0 0 0 0 0 0 0 
0 0 0 0 0 0 0 0 0 
0 0 0 0 0 0 0 0 0 
0 0 0 0 0 0 0 0 0 
0 0 0 0 0 0 0 0 0 
0 0 0 0 0 0 0 0 0 
0 0 0 0 0 0 0 0 0 
0 0 0 0 0 0 0 0 0 
0 0 0 0 0 0 0 0 0 
0 0 0 0 0 0 0 0 0 
0 0 0 0 0 0 0 0 0 
0 0 0 0 0 0 0 0 0 
0 0 0 0 0 0 0 0 0 
0 0 0 0 0 0 0 0 0 
0 0 0 0 0 0 0 0 0 
0 0 0 0 0 0 0 0 0 
0 0 0 0 0 0 0 0 0 
0 0 0 0 0 0 0 0 0 
0 0 0 0 0 0 0 0 0 
0 0 0 0 0 0 0 0 0 
0 0 0 0 0 0 0 0 0 
0 0 0 0 0 0 0 0 0 
0 0 0 0 0 0 0 0 0 
0 0 0 0 0 0 0 0 0 
0 0 0 0 0 0 0 0 0 
0 0 0 0 0 0 0 0 0 
0 0 0 0 0 0 0 0 0 
0 0 0 0 0 0 0 0 0 
0 0 0 0 0 0 0 0 0 
0 0 0 0 0 0 0 0 0 
0 0 0 0 0 0 0 0 0 
0 0 0 0 0 0 0 0 0 
0 0 0 0 0 0 0 0 0 
0 0 0 0 0 0 0 0 0 

v 3 1359 double
-7.33731e-05 3.31602e-05 3.64096e-05 9.76024e-05 0.000124315 -7.33567e-06 -0.000187997 5.58747e-05 1.89454e-15 
5.65107e-05 4.94077e-05 3.42283e-05 1.95313e-05 -4.47998e-05 -5.46457e-05 -0.000202954 0.000301095 -8.21208e-05 
-7.93879e-05 9.38689e-06 3.02929e-05 -0.000170855 0.000155028 -3.08752e-05 -0.000234177 -6.77576e-05 1.46001e-05 
4.2411e-05 0.000278701 3.74101e-05 0.000101851 0.000123583 7.77349e-06 7.82328e-05 0.000172552 2.40857e-06 
4.27888e-05 -8.4782e-05 -5.77508e-06 -0.000112538 0.000178326 5.01249e-07 -0.000100025 0.000164138 1.50063e-05 
-0.000157662 7.28712e-05 1.77255e-05 -1.47801e-05 -3.99642e-05 -4.84116e-05 -6.73319e-05 3.1225e-05 7.55169e-07 
-3.77756e-05 1.12085e-05 8.3028e-06 2.90156e-05 9.32221e-05 1.11881e-05 0.000159737 8.65707e-05 8.80317e-06 
0.000160224 -5.44524e-06 -1.16398e-05 0.000137232 4.17277e-05 -1.17799e-05 0.000132475 -0.000187263 7.09931e-06 
-0.000124366 4.91557e-06 -1.55184e-05 -4.75025e-05 6.51673e-05 -4.21984e-05 1.8741e-05 2.21274e-05 -0.00014423 
-2.83702e-05 3.44629e-05 -2.40778e-05 -7.15091e-05 -3.66079e-05 2.69431e-05 -3.10475e-05 -0.000112141 -3.3253e-06 
0.00020264 1.11387e-05 -7.73289e-06 -0.000136846 -4.39937e-05 -2.30105e-06 1.56565e-05 0.000138703 -9.24256e-06 
9.59116e-06 -5.08845e-05 -2.50627e-05 -0.000282242 0.00017455 -0.00021208 0.000181907 -4.11849e-05 -8.47328e-05 
-8.57674e-05 -1.41519e-05 3.10489e-06 6.4678e-05 -3.06074e-05 0.00015494 0.000115305 7.56175e-05 -3.27386e-05 
0.000121719 1.93466e-05 -4.46163e-05 -0.000155675 8.99259e-05 2.89555e-05 -0.000165219 0.000105625 -8.4539e-05 
4.02535e-05 -3.88225e-05 2.09336e-05 -9.28011e-05 -4.45525e-05 1.59729e-05 -7.69986e-05 -0.00012843 -6.30156e-05 
-0.000119743 8.74045e-05 2.41608e-05 3.19115e-05 -5.57464e-05 2.23376e-05 9.15598e-05 6.1146e-05 1.13971e-05 
0.000119566 9.95829e-05 -1.00487e-05 0.0001521 4.98034e-05 5.88157e-06 -2.98107e-05 6.28396e-05 -3.32121e-06 
-5.02511e-05 2.19007e-05 -0.000129598 -2.58491e-05 8.21353e-05 -3.81612e-06 -0.000116486 -5.11828e-05 4.46354e-05 
-6.3681e-05 -8.2147e-05 5.6584e-06 -0.000175329 -0.000124488 2.27006e-15 -4.96144e-05 1.80399e-05 -4.0887e-05 
4.82589e-05 3.75263e-05 -8.39284e-05 3.55733e-05 -0.000140332 4.60289e-06 -0.000119183 -1.25278e-05 -5.43524e-05 
0.000111746 7.09411e-05 -4.58351e-06 -7.09162e-05 6.7179e-05 2.02689e-06 -3.42453e-05 8.25988e-05 -6.37318e-05 
-3.19029e-05 0.0001083 -2.18555e-05 -8.99371e-05 -4.13914e-05 4.70486e-07 -1.37174e-05 -0.000136666 1.2951e-06 