# vtk DataFile Version 4.0
Generated by LIGGGHTS
ASCII
DATASET POLYDATA
POINTS 60 float
-2.86983 -4.36089 19.8481 0.518694 -4.21969 19.4933 3.03478 -4.49976 20.2641 
4.05029 -4.01541 19.7825 -3.65082 -3.38597 19.761 -2.71486 -3.18942 20.1037 
-1.26131 -3.54452 19.8676 1.56005 -3.14157 19.7538 2.61323 -3.5425 19.8824 
-0.100007 -2.85847 20.2049 0.836093 -2.30748 19.9881 -3.81459 -1.32984 20.1187 
0.125219 -1.56383 19.8256 1.3991 -1.3347 19.9872 3.28485 -1.98368 19.4889 
4.21745 -1.00374 19.5615 4.16598 -1.88368 20.0846 -3.87717 -0.318466 19.86 
-2.8515 -0.799255 19.9037 -0.855993 -0.949301 19.982 0.759117 -0.326288 19.9616 
1.95486 -0.442233 19.9216 -2.85263 0.237872 20.2032 -0.701993 0.927345 19.7418 
3.09254 0.403266 20.1314 4.19726 0.746026 19.492 -4.27519 1.05596 20.0187 
-1.95773 1.36012 19.9915 -0.934762 1.98212 20.2671 0.514418 1.71901 20.2351 
2.99367 1.87399 19.7069 4.13347 1.60038 20.1127 -4.13001 2.146 19.5397 
-2.309 2.44513 19.725 0.395978 2.61026 19.5585 1.38855 2.27547 19.8059 
3.68684 2.73017 20.008 -4.47419 3.23216 20.0466 -0.596854 3.06914 19.7126 
1.74452 3.23358 20.2588 2.94782 3.67894 19.9563 4.23345 3.65417 20.0529 
-4.06013 4.41318 20.2311 -3.14569 4.01572 19.5152 -0.962804 4.0532 20.1004 
0.729734 4.13758 19.6439 -4.39245 -4.31447 20.3369 0.605086 -3.76811 20.3963 
-3.92389 -2.5619 20.4499 -1.84548 -2.19817 20.4303 4.23459 -2.97601 20.4282 
2.79938 -1.95575 20.375 -1.94206 -0.920279 20.3907 -0.0347712 0.405222 20.3652 
1.76398 0.540026 20.3868 -3.4893 1.95614 20.3626 2.39064 1.34563 20.471 
-2.78063 3.83223 20.4503 -1.3863 3.05908 20.4621 1.76649 4.40925 20.4335 

VERTICES 60 120
1 0 
1 1 
1 2 
1 3 
1 4 
1 5 
1 6 
1 7 
1 8 
1 9 
1 10 
1 11 
1 12 
1 13 
1 14 
1 15 
1 16 
1 17 
1 18 
1 19 
1 20 
1 21 
1 22 
1 23 
1 24 
1 25 
1 26 
1 27 
1 28 
1 29 
1 30 
1 31 
1 32 
1 33 
1 34 
1 35 
1 36 
1 37 
1 38 
1 39 
1 40 
1 41 
1 42 
1 43 
1 44 
1 45 
1 46 
1 47 
1 48 
1 49 
1 50 
1 51 
1 52 
1 53 
1 54 
1 55 
1 56 
1 57 
1 58 
1 59 

POINT_DATA 60
FIELD FieldData 7
id 1 60 int
17 50 31 29 60 12 7 28 51 
11 56 27 18 22 14 43 20 54 
15 1 26 4 37 42 2 46 33 
21 25 55 47 36 52 8 13 6 
41 9 34 44 5 38 58 57 32 
39 48 23 49 45 24 59 19 16 
35 3 53 10 40 30 
type 1 60 int
1 1 1 1 1 1 1 1 1 
1 1 1 1 1 1 1 1 1 
1 1 1 1 1 1 1 1 1 
1 1 1 1 1 1 1 1 1 
1 1 1 1 1 1 1 1 1 
1 1 1 1 1 1 1 1 1 
1 1 1 1 1 1 
i 3 60 int
0 0 0 0 0 0 0 0 0 
0 0 0 0 0 0 0 0 0 
0 0 0 0 0 0 0 0 0 
0 0 0 0 0 0 0 0 0 
0 0 0 0 0 0 0 0 0 
0 0 0 0 0 0 0 0 0 
0 0 0 0 0 0 0 0 0 
0 0 0 0 0 0 0 0 0 
0 0 0 0 0 0 0 0 0 
0 0 0 0 0 0 0 0 0 
0 0 0 0 0 0 0 0 0 
0 0 0 0 0 0 0 0 0 
0 0 0 0 0 0 0 0 0 
0 0 0 0 0 0 0 0 0 
0 0 0 0 0 0 0 0 0 
0 0 0 0 0 0 0 0 0 
0 0 0 0 0 0 0 0 0 
0 0 0 0 0 0 0 0 0 
0 0 0 0 0 0 0 0 0 
0 0 0 0 0 0 0 0 0 

v 3 60 double
0 0 -0.0101479 0 0 -0.0104853 -0 -0 -0.01 
0 0 -0.0102112 0 0 -0.0102318 -0 -0 -0.01 
0 0 -0.0101291 0 0 -0.0102387 0 0 -0.0101147 
-0 -0 -0.01 0 0 -0.0100117 -0 -0 -0.01 
0 0 -0.0101696 0 0 -0.0100126 0 0 -0.0104894 
0 0 -0.0104213 -0 -0 -0.01 0 0 -0.0101364 
0 0 -0.010094 0 0 -0.0100177 0 0 -0.0100376 
0 0 -0.0100767 -0 -0 -0.01 0 0 -0.0102502 
-0 -0 -0.01 0 0 -0.0104865 -0 -0 -0.01 
0 0 -0.0100084 -0 -0 -0.01 -0 -0 -0.01 
0 0 -0.0102835 -0 -0 -0.01 0 0 -0.0104418 
0 0 -0.0102662 0 0 -0.0104241 0 0 -0.0101886 
-0 -0 -0.01 -0 -0 -0.01 0 0 -0.0102781 
-0 -0 -0.01 0 0 -0.0100427 -0 -0 -0.01 
-0 -0 -0.01 0 0 -0.0104648 -0 -0 -0.01 
0 0 -0.0103435 -0 -0 -0.01 -0 -0 -0.01 
-0 -0 -0.01 -0 -0 -0.01 -0 -0 -0.01 
-0 -0 -0.01 -0 -0 -0.01 -0 -0 -0.01 
-0 -0 -0.01 -0 -0 -0.01 -0 -0 -0.01 
-0 -0 -0.01 -0 -0 -0.01 -0 -0 -0.01 

f 3 60 double
0 0 -1.28413e-05 0 0 -1.28413e-05 0 0 0 
0 0 -1.28413e-05 0 0 -1.28413e-05 0 0 0 
0 0 -1.28413e-05 0 0 -1.28413e-05 0 0 -1.28413e-05 
0 0 0 0 0 -1.28413e-05 0 0 0 
0 0 -1.28413e-05 0 0 -1.28413e-05 0 0 -1.28413e-05 
0 0 -1.28413e-05 0 0 0 0 0 -1.28413e-05 
0 0 -1.28413e-05 0 0 -1.28413e-05 0 0 -1.28413e-05 
0 0 -1.28413e-05 0 0 0 0 0 -1.28413e-05 
0 0 0 0 0 -1.28413e-05 0 0 0 
0 0 -1.28413e-05 0 0 0 0 0 0 
0 0 -1.28413e-05 0 0 0 0 0 -1.28413e-05 
0 0 -1.28413e-05 0 0 -1.28413e-05 0 0 -1.28413e-05 
0 0 0 0 0 0 0 0 -1.28413e-05 
0 0 0 0 0 -1.28413e-05 0 0 0 
0 0 0 0 0 -1.28413e-05 0 0 0 
0 0 -1.28413e-05 0 0 0 0 0 0 
0 0 0 0 0 0 0 0 0 
0 0 0 0 0 0 0 0 0 
0 0 0 0 0 0 0 0 0 
0 0 0 0 0 0 0 0 0 

radius 1 60 double
0.5 0.5 0.5 0.5 0.5 0.5 0.5 0.5 0.5 
0.5 0.5 0.5 0.5 0.5 0.5 0.5 0.5 0.5 
0.5 0.5 0.5 0.5 0.5 0.5 0.5 0.5 0.5 
0.5 0.5 0.5 0.5 0.5 0.5 0.5 0.5 0.5 
0.5 0.5 0.5 0.5 0.5 0.5 0.5 0.5 0.5 
0.5 0.5 0.5 0.5 0.5 0.5 0.5 0.5 0.5 
0.5 0.5 0.5 0.5 0.5 0.5 
omega 3 60 double
0 0 0 0 0 0 0 0 0 
0 0 0 0 0 0 0 0 0 
0 0 0 0 0 0 0 0 0 
0 0 0 0 0 0 0 0 0 
0 0 0 0 0 0 0 0 0 
0 0 0 0 0 0 0 0 0 
0 0 0 0 0 0 0 0 0 
0 0 0 0 0 0 0 0 0 
0 0 0 0 0 0 0 0 0 
0 0 0 0 0 0 0 0 0 
0 0 0 0 0 0 0 0 0 
0 0 0 0 0 0 0 0 0 
0 0 0 0 0 0 0 0 0 
0 0 0 0 0 0 0 0 0 
0 0 0 0 0 0 0 0 0 
0 0 0 0 0 0 0 0 0 
0 0 0 0 0 0 0 0 0 
0 0 0 0 0 0 0 0 0 
0 0 0 0 0 0 0 0 0 
0 0 0 0 0 0 0 0 0 

