# vtk DataFile Version 4.0
Generated by LIGGGHTS
ASCII
DATASET POLYDATA
POINTS 787 float
-4.50888 -4.45474 0.772155 -2.81726 -4.44429 0.614899 -1.45967 -4.65665 0.51435 
0.397097 -4.55146 0.585218 1.46371 -4.2507 0.506347 3.05607 -4.53802 0.813417 
-3.73816 -3.4948 0.548288 -2.43425 -3.03352 0.564343 -1.22065 -3.36729 0.82447 
1.4583 -3.06033 0.508742 2.70409 -3.57561 0.830763 3.97476 -3.99114 0.559326 
4.29541 -3.03025 0.658303 -3.98794 -2.36398 0.568321 -1.86461 -2.19417 0.703267 
-0.229627 -2.90252 0.567744 0.654676 -2.39892 0.521645 3.32523 -2.06333 0.500075 
4.70275 -2.08843 0.531911 -3.77933 -1.33423 0.557457 0.191656 -1.31599 0.512465 
1.4238 -1.3715 0.864602 -4.02931 -0.286896 0.521408 -3.00092 -0.700117 0.587817 
-1.79343 -0.963249 0.598219 -0.762373 -0.901927 0.681837 1.00051 -0.504177 0.530193 
2.0279 -0.511445 0.847951 4.31574 -0.843541 0.567695 -2.86052 0.26353 0.848779 
-1.84461 0.291379 0.507442 0.0830984 0.350321 0.511709 1.54151 0.466859 0.512843 
3.03181 0.448977 0.83458 4.3299 0.503225 0.520643 -4.25143 0.971964 0.808095 
-3.21197 1.7679 0.548726 -1.87413 1.46492 0.757368 -0.983302 1.06184 0.52 
0.577842 1.20705 0.68131 2.26346 1.36278 0.702678 4.25245 1.93647 0.554897 
-4.51915 2.31631 0.514081 -2.32187 2.36626 0.626077 -0.944292 2.14476 0.709615 
0.530549 2.5581 0.500132 3.06349 1.99345 0.50323 3.66724 2.90981 0.768887 
-1.58028 3.17935 0.535782 -0.427868 3.14292 0.532872 1.73828 3.24207 0.819318 
2.93441 3.62563 0.659028 4.33623 3.74685 0.649388 -4.40301 4.54028 0.773836 
-3.366 4.16575 0.504709 -0.901264 4.08851 0.659687 0.747151 4.26367 0.634844 
1.76649 4.40925 0.726504 -3.06754 -4.04725 1.73728 4.20895 -4.63835 1.42722 
-4.09316 -3.64865 1.48484 -2.04938 -3.48895 1.37889 0.629422 -3.46481 0.899122 
0.900433 -3.13093 1.8299 2.09677 -3.20031 1.57698 3.76628 -3.31576 1.49341 
-3.24202 -2.54816 1.52488 -1.06219 -2.36217 1.30017 0.0838756 -2.27003 1.48295 
1.40308 -2.13851 1.5333 2.97533 -2.57522 1.72691 4.29689 -2.10919 1.49252 
-4.61197 -1.12255 1.2821 -0.150285 -1.21635 1.5035 2.31438 -1.92706 1.08015 
3.22434 -1.13957 0.906797 -3.50588 -0.398268 1.47527 -2.45086 -0.587827 1.67553 
0.655654 -0.268088 1.50539 1.69999 -0.0513624 1.71371 3.82926 -0.136529 1.10671 
-4.46431 0.822115 1.79773 -4.46985 1.86892 1.42963 -2.6959 1.19153 1.41375 
1.38626 1.20215 1.27355 3.98019 1.14231 1.22278 -3.41856 2.69744 1.59789 
-2.1359 2.92233 1.47355 -1.38781 2.27153 1.63272 0.566543 2.04014 1.4961 
1.41931 2.27081 0.880898 2.31967 2.55356 1.26961 3.61847 2.06751 1.33214 
4.2793 2.83532 1.62988 -4.47419 3.23216 0.956692 -2.46647 3.7958 1.03281 
-1.57926 3.85456 1.54076 -0.502677 3.94108 1.60835 0.579348 3.25451 1.36687 
4.00666 3.91968 1.72825 0.795426 4.20371 1.82393 2.86758 4.08666 1.69286 
-1.10306 -4.23406 2.63572 0.46025 -4.14651 1.82475 2.13219 -4.15988 1.88221 
-0.614913 -3.30174 1.87515 -4.34298 -2.5901 1.77124 -3.38313 -1.3672 1.90906 
-1.59297 -1.16854 1.78415 2.15664 -1.35413 1.90443 -0.455917 -0.2236 1.99605 
2.80176 -0.036423 2.0126 3.87404 -0.527649 2.06525 -3.45904 0.503094 1.97513 
-1.1372 0.903847 1.98773 0.35725 1.04419 1.83267 2.3348 1.28732 1.97469 
-0.282212 2.39552 2.10015 3.16957 2.9705 2.00748 -3.40423 3.82202 1.79754 
1.81472 3.93507 1.81169 -4.37972 4.14117 1.80357 -4.40534 -4.44547 3.18733 
-2.71248 -4.12826 3.78717 -1.62063 -3.15841 3.31733 -0.189913 -3.86751 3.74441 
2.98124 -3.71561 3.19705 4.13444 -3.71435 3.54131 -0.71201 -2.08566 3.15813 
1.3659 -2.82923 3.7092 4.14164 -2.21447 3.58095 -2.50451 -1.84749 3.57996 
-0.274688 -1.15929 3.5055 1.33953 -1.25795 3.72369 3.13643 -1.18467 3.67759 
-3.86606 -0.560827 3.28881 -2.08673 -0.157003 3.764 -1.17899 -0.717647 3.55707 
2.1624 -0.442815 3.54248 -4.16463 0.61736 3.77648 -0.423074 0.487533 3.55913 
1.79385 0.490052 3.68336 4.46022 0.0576785 3.70712 -3.71291 1.48262 3.0384 
-2.19277 1.24584 3.08603 -0.660258 1.80028 3.68597 1.21839 1.54541 3.69137 
2.97278 1.80676 3.31525 4.04343 1.74673 2.88926 -4.0787 2.92142 3.70215 
-1.67784 2.88772 3.47602 2.09837 2.41592 3.28299 -2.33235 3.72421 3.03283 
0.108077 3.6926 3.27992 2.88194 3.90461 3.59797 4.28804 3.27578 3.38283 
-3.06268 4.41706 3.43271 -1.11972 4.22412 3.69874 4.27642 4.36265 3.7255 
-1.62651 -4.33285 4.79121 -3.65275 -3.58305 3.98544 1.08292 -3.79961 3.87601 
-4.46703 -2.97179 3.99007 -2.879 -2.78606 3.88845 -0.690634 -2.80793 4.81696 
0.311035 -2.73112 3.99985 2.44337 -2.34665 4.00779 -4.09201 -1.89406 3.99152 
-1.49487 0.842463 4.81222 0.581922 0.345406 4.04563 3.09982 0.856622 4.055 
-3.20377 2.34284 3.95533 0.4333 2.30249 3.94529 -4.41229 3.98901 3.93488 
1.29856 3.01013 3.99725 1.19471 4.32354 3.89492 2.62946 -4.24514 5.80072 
-3.30001 -3.25171 5.80519 0.501731 -3.57654 5.56026 1.91078 -3.19628 5.28185 
4.46733 -3.64532 5.66778 -4.46464 -2.16021 5.79058 -1.4656 -2.12735 4.86321 
0.908524 -2.40029 5.497 4.38433 -2.36736 5.54717 -4.04965 -1.06631 5.23589 
-2.52748 -1.00118 5.85946 -0.535139 -1.54067 5.3473 1.83383 -1.54707 5.57589 
4.05553 -1.02814 5.61755 0.044931 -0.728519 5.22349 -3.12872 0.68349 5.26292 
-1.96062 0.0488463 5.72727 -0.521165 0.150845 5.70176 -1.71034 1.78066 5.46521 
-0.526029 1.14437 5.28246 2.58886 1.51818 5.40154 -2.58522 2.26172 5.79681 
-0.191308 2.43527 5.58263 1.39294 2.4173 5.80107 3.20144 2.76346 5.73472 
4.34336 2.56541 5.76292 -4.41814 3.41137 5.74547 -3.44119 3.12284 5.57651 
-2.36372 3.72735 5.42652 -0.474659 3.91307 5.43441 1.12095 3.93384 5.85521 
-3.55439 4.27696 5.41489 2.60934 4.15439 5.54578 -3.42976 -4.2455 6.07277 
-2.33781 -4.12823 6.36945 1.02704 -4.45466 6.02827 -1.83322 -3.18341 5.95844 
-0.545713 -3.85504 5.95528 3.57133 -3.14799 6.06077 -2.34618 -2.1473 5.97644 
-1.02252 -2.69312 6.69416 -3.50469 -1.83685 5.99811 0.368357 -1.81727 6.6746 
3.01137 -1.43991 6.01239 -4.22803 -0.15766 6.05172 -1.32146 -0.760165 6.01343 
1.08036 -0.645759 5.93746 1.84003 0.0355093 5.98049 3.21694 0.417552 5.98692 
4.40565 0.826357 5.87497 -4.09358 1.52853 5.91381 0.529071 1.38381 5.89149 
-1.28861 3.036 5.92918 4.17896 4.23781 5.9877 -4.37031 -4.4062 6.90109 
-1.80024 -4.46971 7.90487 -0.775399 -4.15253 7.89249 4.41589 -4.38604 7.3481 
-4.2242 -3.15793 7.90114 -3.18857 -3.60472 7.85945 0.3214 -3.78122 7.58415 
1.27539 -3.3641 7.27004 2.48525 -3.57702 7.78254 3.58601 -3.54007 7.86794 
-1.82161 -2.97696 7.89716 0.0178133 -2.74125 7.17319 1.40503 -2.21404 7.87456 
2.54534 -2.20802 7.05132 4.43031 -2.65651 7.69794 -4.44824 -1.92366 7.67131 
-2.21844 -1.03305 7.86003 -1.40755 -1.72813 7.10607 1.74095 -1.14548 7.56169 
2.88346 -1.02821 7.77644 3.66797 -1.8367 7.40484 -3.54522 -0.195935 7.9204 
-0.601509 -0.576258 7.82353 0.481229 -0.678517 7.69719 4.35246 -0.211247 7.86438 
-4.44502 0.758801 6.976 -2.31378 0.652999 7.90796 -0.841943 0.456573 7.77473 
0.760613 0.950757 7.56225 -3.31937 1.1027 7.59124 -2.40884 1.88238 7.63366 
-1.24652 1.51684 7.38674 1.64763 1.64862 7.39698 3.95473 1.86453 7.65282 
-3.98285 2.22176 7.76995 -0.566183 2.27159 7.90058 0.391698 2.75651 7.84307 
-3.6579 3.347 7.40592 -1.86415 3.37671 7.76241 -0.385313 3.3515 7.25692 
1.49947 3.08015 7.92611 2.65935 3.15365 7.55617 4.25973 3.28708 7.291 
-2.88926 4.46792 7.63156 -1.62506 4.45534 7.53706 0.0833131 4.3604 7.80366 
1.61631 4.48099 7.44654 3.28209 4.16793 7.00088 -3.59979 -4.41508 8.86622 
3.06524 -4.32246 8.91138 -2.88228 -2.46864 7.93858 -0.775582 -2.76034 8.55699 
0.679281 -2.94409 8.83751 2.32293 -2.63878 8.72553 -3.21558 -1.22702 7.93015 
-1.24359 -1.8959 8.921 -0.372403 -1.55137 7.9287 -4.40959 0.925727 8.87289 
1.96681 0.0325421 7.95071 3.0628 0.224778 7.93878 2.78233 1.34625 7.92781 
2.31165 2.37456 8.58771 2.3398 3.82474 8.81736 -4.41774 4.04246 7.92855 
3.12572 4.45244 8.86121 -0.85346 -4.1805 9.6806 0.804985 -4.24466 9.02306 
4.03388 -4.21531 9.64371 -3.48488 -3.25631 9.67661 -2.17539 -3.71592 9.66302 
1.69894 -3.60086 9.49482 3.11526 -3.20989 9.61561 -4.16905 -2.49172 9.5415 
-1.88402 -2.64915 9.63149 3.19324 -2.19311 9.50881 4.48247 -2.5268 9.55892 
-3.78897 -1.50652 9.38686 -2.88885 -1.03354 9.6086 -0.313578 -1.89941 9.7028 
0.66852 -1.62627 9.19241 2.12786 -1.28646 9.72295 4.38205 -1.17805 8.99833 
-4.38262 -0.177783 9.20639 -1.5851 -0.422284 9.69309 -0.436688 -0.470933 9.73892 
0.755108 -0.667197 9.68956 3.67122 -0.487347 9.2388 -1.46158 0.722843 9.4846 
0.357497 0.259719 9.68963 2.42508 0.0147207 9.70594 4.36993 0.909648 9.69364 
-3.24464 1.22741 9.55526 -2.06966 1.68966 9.32234 0.04762 1.9025 9.40663 
1.29846 1.12127 9.64021 3.17868 1.40398 9.73533 -4.32849 2.90663 9.66247 
-2.7768 2.46104 9.17825 -1.15405 2.54523 9.2753 1.05612 2.78433 9.45201 
3.7623 2.62725 9.36876 -4.14876 3.90627 9.67765 -3.00324 3.42397 9.49079 
-1.61394 3.75724 9.52225 -0.447028 3.88061 9.32149 3.8801 3.79753 9.57973 
0.930522 4.04386 9.10125 -4.32603 -3.98923 10.1719 0.799384 -3.46943 10.6636 
2.39312 -3.01955 10.8806 4.32106 -3.38831 10.6411 -3.18021 -2.24953 10.3977 
0.976034 -2.05343 10.8047 3.72085 -1.33456 10.8655 1.64267 -0.45296 10.7187 
2.82579 -0.602224 10.9615 -4.33231 0.190842 10.9643 -2.53071 0.283738 10.3533 
-0.620382 1.313 10.7504 -1.95629 2.58724 10.8802 -3.12006 4.31446 10.35 
-1.98134 4.42807 10.8728 -4.495 -4.20759 11.9054 -3.34954 -4.17827 11.4179 
-1.73938 -4.4346 11.1133 -0.256302 -4.17273 11.1105 0.808126 -4.37495 11.5247 
2.02427 -4.30468 11.123 -4.35477 -3.05111 11.0207 -2.59005 -3.2489 11.1949 
-1.1686 -3.61115 11.1778 3.26142 -3.83697 11.2581 -2.09569 -2.36953 11.2407 
-0.472379 -2.86622 11.0853 4.173 -2.46078 11.4163 -3.85608 -1.61052 11.1007 
-1.52978 -1.46293 11.24 1.80939 -1.16273 11.9485 2.71109 -1.77727 11.272 
-3.57366 -0.635516 11.0936 -2.45996 -0.626045 11.1606 -0.0363289 -0.775526 11.2839 
3.74685 -0.133939 11.3211 -3.21135 0.670472 11.401 -1.1372 0.195211 11.0993 
0.56949 0.254972 11.5382 1.58336 0.710768 11.1879 -4.40258 1.97099 11.2893 
-2.37532 1.40719 11.3867 0.48654 1.32164 11.3859 2.6109 1.12611 11.1902 
3.72086 1.24635 11.323 -3.379 2.1075 11.0552 -0.881744 2.24874 11.22 
0.370273 2.4239 11.4066 1.53612 2.0476 11.2206 3.17697 2.31605 11.2681 
[...]
POINT_DATA 787
FIELD FieldData 7
id 1 787 int
48 17 88 50 115 31 60 12 7 
28 51 29 24 49 45 11 56 14 
20 27 18 22 54 15 19 1 26 
4 43 37 80 16 35 2 46 33 
3 21 42 55 53 36 52 8 25 
13 47 41 40 34 44 5 38 58 
57 32 39 30 62 112 120 69 23 
100 93 64 79 104 83 102 70 109 
67 85 59 78 65 117 98 91 114 
101 68 71 119 97 94 118 84 74 
6 63 95 81 9 10 111 90 96 
76 75 72 126 106 89 77 103 99 
61 82 105 86 66 108 73 113 110 
122 92 87 116 107 161 151 129 148 
136 123 132 157 135 155 147 150 159 
139 143 169 158 167 125 171 130 153 
133 146 131 163 128 134 121 138 152 
144 149 170 165 141 145 214 127 168 
166 172 220 140 160 164 187 124 137 
142 173 162 154 156 198 194 199 213 
205 212 174 180 223 224 191 204 207 
196 227 190 216 188 203 226 186 183 
200 201 175 211 219 222 185 206 209 
178 202 189 284 221 210 195 197 225 
248 217 285 179 208 184 177 181 215 
193 176 218 182 192 260 244 281 231 
262 280 255 253 245 233 266 249 228 
241 282 234 264 283 279 269 247 258 
257 230 270 271 250 277 238 265 259 
232 239 236 243 246 240 252 229 276 
275 235 278 263 267 237 268 242 291 
316 272 303 289 318 274 324 254 304 
273 256 261 297 327 251 332 310 320 
336 333 321 322 319 288 312 287 302 
335 323 330 298 305 313 295 317 337 
329 309 308 301 334 331 326 299 311 
294 300 296 314 315 286 293 292 325 
328 290 306 307 346 343 339 344 375 
342 354 355 383 373 359 393 374 376 
382 431 349 380 377 398 364 389 350 
348 341 384 371 356 370 360 440 391 
368 358 378 369 338 361 421 387 379 
372 347 367 352 353 366 362 340 388 
385 390 381 345 392 357 363 365 351 
386 426 428 422 404 399 443 405 396 
417 400 420 433 432 442 439 411 402 
427 415 419 408 407 401 434 414 444 
437 435 429 394 412 424 418 403 438 
423 430 395 406 445 409 413 436 416 
397 410 441 425 484 446 455 457 481 
456 448 460 465 472 503 471 469 447 
459 461 496 473 486 468 478 477 501 
542 500 492 482 485 544 555 488 490 
462 549 453 458 550 498 537 493 499 
474 480 475 470 463 449 512 452 450 
479 489 497 454 483 551 451 487 491 
495 466 494 502 464 467 476 558 513 
557 539 514 518 553 536 529 505 507 
533 508 538 548 528 556 510 515 535 
506 534 527 517 525 522 552 554 509 
541 524 531 521 519 543 526 546 599 
504 511 545 520 523 530 532 575 547 
516 540 615 616 611 576 569 572 608 
589 570 571 586 588 582 563 581 587 
579 595 610 568 593 607 594 580 564 
561 614 573 560 605 612 596 567 591 
609 600 574 577 617 613 559 598 566 
583 562 584 597 585 603 578 565 604 
606 590 602 592 642 643 669 631 626 
636 633 654 658 675 651 676 630 647 
624 653 627 640 601 619 662 629 656 
644 666 622 650 623 639 667 638 659 
728 727 680 661 672 718 648 699 668 
632 655 697 702 634 649 670 665 625 
698 618 706 716 646 677 729 664 660 
679 635 621 641 674 671 694 721 673 
708 725 689 714 628 705 663 620 693 
657 704 637 652 691 723 681 701 645 
692 686 774 709 750 722 738 696 780 
703 767 720 724 717 752 719 769 700 
740 775 682 713 742 690 683 766 712 
736 737 685 711 710 759 687 762 787 
761 726 707 784 695 756 779 778 765 
678 684 753 757 715 760 786 688 731 
730 747 749 741 745 733 735 732 764 
777 744 770 755 772 746 739 743 768 
781 734 773 782 783 754 771 785 748 
758 763 751 776 
type 1 787 int
1 1 1 1 1 1 1 1 1 
1 1 1 1 1 1 1 1 1 
1 1 1 1 1 1 1 1 1 
1 1 1 1 1 1 1 1 1 
1 1 1 1 1 1 1 1 1 
1 1 1 1 1 1 1 1 1 
1 1 1 1 1 1 1 1 1 
1 1 1 1 1 1 1 1 1 
1 1 1 1 1 1 1 1 1 
1 1 1 1 1 1 1 1 1 
1 1 1 1 1 1 1 1 1 
1 1 1 1 1 1 1 1 1 
1 1 1 1 1 1 1 1 1 
1 1 1 1 1 1 1 1 1 
1 1 1 1 1 1 1 1 1 
1 1 1 1 1 1 1 1 1 
1 1 1 1 1 1 1 1 1 
1 1 1 1 1 1 1 1 1 
1 1 1 1 1 1 1 1 1 
1 1 1 1 1 1 1 1 1 
1 1 1 1 1 1 1 1 1 
1 1 1 1 1 1 1 1 1 
1 1 1 1 1 1 1 1 1 
1 1 1 1 1 1 1 1 1 
1 1 1 1 1 1 1 1 1 
1 1 1 1 1 1 1 1 1 
1 1 1 1 1 1 1 1 1 
1 1 1 1 1 1 1 1 1 
1 1 1 1 1 1 1 1 1 
1 1 1 1 1 1 1 1 1 
1 1 1 1 1 1 1 1 1 
1 1 1 1 1 1 1 1 1 
1 1 1 1 1 1 1 1 1 
1 1 1 1 1 1 1 1 1 
1 1 1 1 1 1 1 1 1 
1 1 1 1 1 1 1 1 1 
1 1 1 1 1 1 1 1 1 
1 1 1 1 1 1 1 1 1 
1 1 1 1 1 1 1 1 1 
1 1 1 1 1 1 1 1 1 
1 1 1 1 1 1 1 1 1 
1 1 1 1 1 1 1 1 1 
1 1 1 1 1 1 1 1 1 
1 1 1 1 1 1 1 1 1 
1 1 1 1 1 1 1 1 1 
1 1 1 1 1 1 1 1 1 
1 1 1 1 1 1 1 1 1 
1 1 1 1 1 1 1 1 1 
1 1 1 1 1 1 1 1 1 
1 1 1 1 1 1 1 1 1 
1 1 1 1 1 1 1 1 1 
1 1 1 1 1 1 1 1 1 
1 1 1 1 1 1 1 1 1 
1 1 1 1 1 1 1 1 1 
1 1 1 1 1 1 1 1 1 
1 1 1 1 1 1 1 1 1 
1 1 1 1 1 1 1 1 1 
1 1 1 1 1 1 1 1 1 
1 1 1 1 1 1 1 1 1 
1 1 1 1 1 1 1 1 1 
1 1 1 1 1 1 1 1 1 
1 1 1 1 1 1 1 1 1 
1 1 1 1 1 1 1 1 1 
1 1 1 1 1 1 1 1 1 
1 1 1 1 1 1 1 1 1 
1 1 1 1 1 1 1 1 1 
1 1 1 1 1 1 1 1 1 
1 1 1 1 1 1 1 1 1 
1 1 1 1 1 1 1 1 1 
1 1 1 1 1 1 1 1 1 
1 1 1 1 1 1 1 1 1 
1 1 1 1 1 1 1 1 1 
1 1 1 1 1 1 1 1 1 
1 1 1 1 1 1 1 1 1 
1 1 1 1 1 1 1 1 1 
1 1 1 1 1 1 1 1 1 
1 1 1 1 1 1 1 1 1 
1 1 1 1 1 1 1 1 1 
1 1 1 1 1 1 1 1 1 
1 1 1 1 1 1 1 1 1 
1 1 1 1 1 1 1 1 1 
1 1 1 1 1 1 1 1 1 
1 1 1 1 1 1 1 1 1 
1 1 1 1 1 1 1 1 1 
1 1 1 1 1 1 1 1 1 
1 1 1 1 1 1 1 1 1 
1 1 1 1 1 1 1 1 1 
1 1 1 1 
i 3 787 int
0 0 0 0 0 0 0 0 0 
0 0 0 0 0 0 0 0 0 
0 0 0 0 0 0 0 0 0 
0 0 0 0 0 0 0 0 0 
0 0 0 0 0 0 0 0 0 
0 0 0 0 0 0 0 0 0 
0 0 0 0 0 0 0 0 0 
0 0 0 0 0 0 0 0 0 
0 0 0 0 0 0 0 0 0 
0 0 0 0 0 0 0 0 0 
0 0 0 0 0 0 0 0 0 
0 0 0 0 0 0 0 0 0 
0 0 0 0 0 0 0 0 0 
0 0 0 0 0 0 0 0 0 
0 0 0 0 0 0 0 0 0 
0 0 0 0 0 0 0 0 0 
0 0 0 0 0 0 0 0 0 
0 0 0 0 0 0 0 0 0 
0 0 0 0 0 0 0 0 0 
0 0 0 0 0 0 0 0 0 
0 0 0 0 0 0 0 0 0 
0 0 0 0 0 0 0 0 0 
0 0 0 0 0 0 0 0 0 
0 0 0 0 0 0 0 0 0 
0 0 0 0 0 0 0 0 0 
0 0 0 0 0 0 0 0 0 
0 0 0 0 0 0 0 0 0 
0 0 0 0 0 0 0 0 0 
0 0 0 0 0 0 0 0 0 
0 0 0 0 0 0 0 0 0 
0 0 0 0 0 0 0 0 0 
0 0 0 0 0 0 0 0 0 
0 0 0 0 0 0 0 0 0 
0 0 0 0 0 0 0 0 0 
0 0 0 0 0 0 0 0 0 
0 0 0 0 0 0 0 0 0 
0 0 0 0 0 0 0 0 0 
0 0 0 0 0 0 0 0 0 
0 0 0 0 0 0 0 0 0 
0 0 0 0 0 0 0 0 0 
0 0 0 0 0 0 0 0 0 
0 0 0 0 0 0 0 0 0 
0 0 0 0 0 0 0 0 0 
0 0 0 0 0 0 0 0 0 
0 0 0 0 0 0 0 0 0 
0 0 0 0 0 0 0 0 0 
0 0 0 0 0 0 0 0 0 
0 0 0 0 0 0 0 0 0 
0 0 0 0 0 0 0 0 0 
0 0 0 0 0 0 0 0 0 
0 0 0 0 0 0 0 0 0 
0 0 0 0 0 0 0 0 0 
0 0 0 0 0 0 0 0 0 
0 0 0 0 0 0 0 0 0 
0 0 0 0 0 0 0 0 0 
0 0 0 0 0 0 0 0 0 
0 0 0 0 0 0 0 0 0 
0 0 0 0 0 0 0 0 0 
0 0 0 0 0 0 0 0 0 
0 0 0 0 0 0 0 0 0 
0 0 0 0 0 0 0 0 0 
0 0 0 0 0 0 0 0 0 
0 0 0 0 0 0 0 0 0 
0 0 0 0 0 0 0 0 0 
0 0 0 0 0 0 0 0 0 
0 0 0 0 0 0 0 0 0 
0 0 0 0 0 0 0 0 0 
0 0 0 0 0 0 0 0 0 
0 0 0 0 0 0 0 0 0 
0 0 0 0 0 0 0 0 0 
0 0 0 0 0 0 0 0 0 
0 0 0 0 0 0 0 0 0 
0 0 0 0 0 0 0 0 0 
0 0 0 0 0 0 0 0 0 
0 0 0 0 0 0 0 0 0 
0 0 0 0 0 0 0 0 0 
0 0 0 0 0 0 0 0 0 
0 0 0 0 0 0 0 0 0 
0 0 0 0 0 0 0 0 0 
0 0 0 0 0 0 0 0 0 
0 0 0 0 0 0 0 0 0 
0 0 0 0 0 0 0 0 0 
0 0 0 0 0 0 0 0 0 
0 0 0 0 0 0 0 0 0 
0 0 0 0 0 0 0 0 0 
0 0 0 0 0 0 0 0 0 
0 0 0 0 0 0 0 0 0 
0 0 0 0 0 0 0 0 0 
0 0 0 0 0 0 0 0 0 
0 0 0 0 0 0 0 0 0 
0 0 0 0 0 0 0 0 0 
0 0 0 0 0 0 0 0 0 
0 0 0 0 0 0 0 0 0 
0 0 0 0 0 0 0 0 0 
0 0 0 0 0 0 0 0 0 
0 0 0 0 0 0 0 0 0 
0 0 0 0 0 0 0 0 0 
0 0 0 0 0 0 0 0 0 
0 0 0 0 0 0 0 0 0 
0 0 0 0 0 0 0 0 0 
0 0 0 0 0 0 0 0 0 
0 0 0 0 0 0 0 0 0 
0 0 0 0 0 0 0 0 0 
0 0 0 0 0 0 0 0 0 
0 0 0 0 0 0 0 0 0 
0 0 0 0 0 0 0 0 0 
0 0 0 0 0 0 0 0 0 
0 0 0 0 0 0 0 0 0 
0 0 0 0 0 0 0 0 0 
0 0 0 0 0 0 0 0 0 
0 0 0 0 0 0 0 0 0 
0 0 0 0 0 0 0 0 0 
0 0 0 0 0 0 0 0 0 
0 0 0 0 0 0 0 0 0 
0 0 0 0 0 0 0 0 0 
0 0 0 0 0 0 0 0 0 
0 0 0 0 0 0 0 0 0 
0 0 0 0 0 0 0 0 0 
0 0 0 0 0 0 0 0 0 
0 0 0 0 0 0 0 0 0 
0 0 0 0 0 0 0 0 0 
0 0 0 0 0 0 0 0 0 
0 0 0 0 0 0 0 0 0 
0 0 0 0 0 0 0 0 0 
0 0 0 0 0 0 0 0 0 
0 0 0 0 0 0 0 0 0 
0 0 0 0 0 0 0 0 0 
0 0 0 0 0 0 0 0 0 
0 0 0 0 0 0 0 0 0 
0 0 0 0 0 0 0 0 0 
0 0 0 0 0 0 0 0 0 
0 0 0 0 0 0 0 0 0 
0 0 0 0 0 0 0 0 0 
0 0 0 0 0 0 0 0 0 
0 0 0 0 0 0 0 0 0 
0 0 0 0 0 0 0 0 0 
0 0 0 0 0 0 0 0 0 
0 0 0 0 0 0 0 0 0 
0 0 0 0 0 0 0 0 0 
0 0 0 0 0 0 0 0 0 
0 0 0 0 0 0 0 0 0 
0 0 0 0 0 0 0 0 0 
0 0 0 0 0 0 0 0 0 
0 0 0 0 0 0 0 0 0 
0 0 0 0 0 0 0 0 0 
0 0 0 0 0 0 0 0 0 
0 0 0 0 0 0 0 0 0 
0 0 0 0 0 0 0 0 0 
0 0 0 0 0 0 0 0 0 
0 0 0 0 0 0 0 0 0 
0 0 0 0 0 0 0 0 0 
0 0 0 0 0 0 0 0 0 
0 0 0 0 0 0 0 0 0 
0 0 0 0 0 0 0 0 0 
0 0 0 0 0 0 0 0 0 
0 0 0 0 0 0 0 0 0 
0 0 0 0 0 0 0 0 0 
0 0 0 0 0 0 0 0 0 
0 0 0 0 0 0 0 0 0 
0 0 0 0 0 0 0 0 0 
0 0 0 0 0 0 0 0 0 
0 0 0 0 0 0 0 0 0 
0 0 0 0 0 0 0 0 0 
0 0 0 0 0 0 0 0 0 
0 0 0 0 0 0 0 0 0 
0 0 0 0 0 0 0 0 0 
0 0 0 0 0 0 0 0 0 
0 0 0 0 0 0 0 0 0 
0 0 0 0 0 0 0 0 0 
0 0 0 0 0 0 0 0 0 
0 0 0 0 0 0 0 0 0 
0 0 0 0 0 0 0 0 0 
0 0 0 0 0 0 0 0 0 
0 0 0 0 0 0 0 0 0 
0 0 0 0 0 0 0 0 0 
0 0 0 0 0 0 0 0 0 
0 0 0 0 0 0 0 0 0 
0 0 0 0 0 0 0 0 0 
0 0 0 0 0 0 0 0 0 
0 0 0 0 0 0 0 0 0 
0 0 0 0 0 0 0 0 0 
0 0 0 0 0 0 0 0 0 
0 0 0 0 0 0 0 0 0 
0 0 0 0 0 0 0 0 0 
0 0 0 0 0 0 0 0 0 
0 0 0 0 0 0 0 0 0 
0 0 0 0 0 0 0 0 0 
0 0 0 0 0 0 0 0 0 
0 0 0 0 0 0 0 0 0 
0 0 0 0 0 0 0 0 0 
0 0 0 0 0 0 0 0 0 
0 0 0 0 0 0 0 0 0 
0 0 0 0 0 0 0 0 0 
0 0 0 0 0 0 0 0 0 
0 0 0 0 0 0 0 0 0 
0 0 0 0 0 0 0 0 0 
0 0 0 0 0 0 0 0 0 
0 0 0 0 0 0 0 0 0 
0 0 0 0 0 0 0 0 0 
0 0 0 0 0 0 0 0 0 
0 0 0 0 0 0 0 0 0 
0 0 0 0 0 0 0 0 0 
0 0 0 0 0 0 0 0 0 
0 0 0 0 0 0 0 0 0 
0 0 0 0 0 0 0 0 0 
0 0 0 0 0 0 0 0 0 
0 0 0 0 0 0 0 0 0 
0 0 0 0 0 0 0 0 0 
0 0 0 0 0 0 0 0 0 
0 0 0 0 0 0 0 0 0 
0 0 0 0 0 0 0 0 0 
0 0 0 0 0 0 0 0 0 
0 0 0 0 0 0 0 0 0 
0 0 0 0 0 0 0 0 0 
0 0 0 0 0 0 0 0 0 
0 0 0 0 0 0 0 0 0 
0 0 0 0 0 0 0 0 0 
0 0 0 0 0 0 0 0 0 
0 0 0 0 0 0 0 0 0 
0 0 0 0 0 0 0 0 0 
0 0 0 0 0 0 0 0 0 
0 0 0 0 0 0 0 0 0 
0 0 0 0 0 0 0 0 0 
0 0 0 0 0 0 0 0 0 
0 0 0 0 0 0 0 0 0 
0 0 0 0 0 0 0 0 0 
0 0 0 0 0 0 0 0 0 
0 0 0 0 0 0 0 0 0 
0 0 0 0 0 0 0 0 0 
0 0 0 0 0 0 0 0 0 
0 0 0 0 0 0 0 0 0 
0 0 0 0 0 0 0 0 0 
0 0 0 0 0 0 0 0 0 
0 0 0 0 0 0 0 0 0 
0 0 0 0 0 0 0 0 0 
0 0 0 0 0 0 0 0 0 
0 0 0 0 0 0 0 0 0 
0 0 0 0 0 0 0 0 0 
0 0 0 0 0 0 0 0 0 
0 0 0 0 0 0 0 0 0 
0 0 0 0 0 0 0 0 0 
0 0 0 0 0 0 0 0 0 
0 0 0 0 0 0 0 0 0 
0 0 0 0 0 0 0 0 0 
0 0 0 0 0 0 0 0 0 
0 0 0 0 0 0 0 0 0 
0 0 0 0 0 0 0 0 0 
0 0 0 0 0 0 0 0 0 
0 0 0 0 0 0 0 0 0 
0 0 0 0 0 0 0 0 0 
0 0 0 0 0 0 0 0 0 
0 0 0 0 0 0 0 0 0 
0 0 0 0 0 0 0 0 0 
0 0 0 0 0 0 0 0 0 
0 0 0 0 0 0 0 0 0 
0 0 0 0 0 0 0 0 0 
0 0 0 0 0 0 0 0 0 
0 0 0 0 0 0 0 0 0 
0 0 0 0 0 0 0 0 0 
0 0 0 0 0 0 0 0 0 
0 0 0 0 0 0 0 0 0 
0 0 0 0 0 0 0 0 0 
0 0 0 
v 3 787 double
-0.00302842 5.44355e-05 0.00529326 0.00191344 -0.00303538 -0.0109813 -0.00100071 -0.00561058 0.00490955 
-0.00324727 -0.00306499 -0.00112542 0.00353458 0.000692582 0.00547886 0.00135566 -0.00244216 0.00489298 
0.00164123 0.000924603 0.00111146 0.0014516 0.00236981 0.00304198 0.00410546 0.00433354 -0.00198985 
0.00161419 0.00186222 0.000179535 0.0023486 8.44087e-05 -0.00109592 -0.000870111 0.000800649 0.00324566 
0.000586162 -7.31018e-05 0.00474014 -0.000924537 -0.000711691 0.00271798 -0.00665552 0.00139349 -0.00324845 
-0.00569079 -0.00137803 -0.00651852 -0.00253107 -0.00127571 0.00248073 0.00105307 -0.00261057 7.90068e-05 
0.00789178 -0.000501411 -0.0107121 0.000846543 0.00156788 -0.00452408 0.00278586 0.0015494 0.00207003 
0.00137661 -0.0013016 0.000981421 -0.00215456 0.000447083 0.00307992 0.000673473 0.00211647 -0.00172154 
0.00134015 -0.000709045 0.0035616 -0.00312589 0.00358477 -0.0100869 0.00525864 -0.00263461 -0.0127426 
0.00214133 0.000617861 0.00194737 0.000935022 -0.0010508 0.00181959 -0.000373646 0.00141002 0.00493838 
0.000982788 -0.00396056 0.00536464 0.000269733 0.000562856 0.00256741 -0.00445407 -0.00194797 0.000143117 
-0.004316 0.00341992 0.000562807 0.0031232 0.000503328 -0.00333016 0.00293579 -0.00303271 -0.0135706 
-0.00251252 -0.000462298 -0.0138103 0.00483948 0.00358577 -0.00492923 -0.00136815 0.000756913 0.000996739 
-0.0058629 -0.00487934 -0.00429964 -0.000172857 0.00274426 -0.00595029 0.00360077 0.000928191 -0.00183117 
-0.0019587 0.00285706 -0.000102657 9.3416e-05 -0.00255378 -0.00855065 0.00446437 0.00055632 -0.00916158 
0.000694207 -0.00117094 0.000620875 -0.00314367 -0.00171952 8.35001e-06 0.00159517 -0.000322236 0.000475922 
0.00104515 0.00232578 -0.0125853 0.000915457 0.000481933 0.00130371 -0.00213901 0.00290267 0.00132321 
-0.00162022 -0.000861925 -0.00797436 0.0039568 0.000764198 -0.0111654 -0.00387855 -0.00173691 0.00541003 
-0.00224794 0.00211897 0.000749269 0.003084 0.00279854 -0.0164576 0.000467995 0.00387451 -0.0134149 
0 0 0.00606533 -0.00191344 0.00303538 -0.00508505 0.00126903 -0.00463713 -0.00687723 
0 0 -0.0215237 0.0014799 -0.00308133 -0.00397551 -0.00168966 -0.00282898 -0.0078186 
0.00142681 0.00280388 -0.0118815 -0.0023744 0.00182064 -0.00868176 0 0 -0.0215197 
0 0 -0.0215054 0.00665552 -0.00139349 -0.0122497 0.000715092 -0.00131687 -5.8366e-07 
-0.000733842 -0.00376503 0.000194957 0.00445314 0.0032049 -0.0167842 -0.00208357 -0.000520289 -0.00764541 
-0.00699676 0.00169305 -0.00805235 0.00492776 -0.00236726 -0.00997614 0.000552286 -0.00335742 -0.0130075 
-0.000358591 0.00582062 -0.0133246 -0.00115084 0.000116808 -0.00941968 0.00541682 -0.00100202 -0.0176637 
-0.00289893 0.00237579 -0.0101419 0 0 -0.0214191 -0.000623688 -0.00282006 -0.00685118 
-0.00213335 -0.00170472 -0.00791205 -0.00132877 0.00061805 0.000430885 -0.00163778 -0.00507198 -0.00724536 
0.00671199 -0.00150996 -0.0131833 -0.00108182 0.00176814 -0.00475764 0 0 -0.0214721 
-0.00111859 -8.13796e-05 -0.00775237 -0.00116281 -0.000953097 -0.00559407 -0.00646019 -0.00184896 -0.0120357 
0.00432896 -0.00102943 -0.00832531 0.00742052 -0.00126614 -0.0103916 -0.000725275 0.00218236 -0.00410481 
0.00500186 0.00518949 -0.0150516 0 0 0.00572454 -0.00249448 0.00154822 -0.00940189 
-0.000794453 -0.00140721 -0.00596539 0.00329709 -0.000844249 -0.0120358 0.00128914 0.000848344 -6.114e-06 
-0.00265891 0.00238557 -0.00473503 0.000566143 0.00041109 -0.00651244 -0.000799005 0.00406011 -0.00540115 
0 0 -0.0209925 0 0 -0.0213682 9.45236e-05 -0.00331809 -0.017155 
0 0 -0.021345 0 0 -0.0213927 0 0 -0.0213294 
0 0 -0.0213868 -0.00180805 0.00397624 -0.0132307 0 0 -0.0212894 
0 0 -0.0212817 -6.90275e-05 -0.0045943 -0.00822002 0 0 -0.021299 
0 0 -0.0212932 0 0 -0.0213645 0 0 -0.0212992 
0 0 -0.0212413 0 0 -0.0212841 0 0 -0.0213806 
0 0 -0.0213742 0 0 -0.0213779 0 0 -0.0207332 
0 0 -0.0204474 0 0 -0.0206716 0 0 -0.0204679 
0 0 -0.0207286 0 0 -0.020565 0 0 -0.020747 
0 0 -0.0204848 0 0 -0.0205461 0 0 -0.0205466 
0 0 -0.0205821 0 0 -0.0204778 0 0 -0.0204999 
0 0 -0.0206851 0 0 -0.0204585 0 0 -0.0205575 
0 0 -0.0205644 0 0 -0.0204525 0 0 -0.0205565 
0 0 -0.0204971 0 0 -0.0204858 0 0 -0.0208035 
0 0 -0.020781 0 0 -0.0204959 0 0 -0.0204933 
0 0 -0.0206725 0 0 -0.0208737 0 0 -0.0204881 
0 0 -0.0205961 0 0 -0.0206878 0 0 -0.0208062 
0 0 -0.0206893 0 0 -0.020538 0 0 -0.0206405 
0 0 -0.0206167 0 0 -0.0204898 0 0 -0.0204769 
0 0 -0.0199598 0 0 -0.0203521 0 0 -0.0204047 
0 0 -0.0203498 0 0 -0.0203987 0 0 -0.0199472 
0 0 -0.0203451 0 0 -0.0203413 0 0 -0.0203491 
0 0 -0.0199495 0 0 -0.020323 0 0 -0.0203185 
0 0 -0.0203666 0 0 -0.0203714 0 0 -0.0203764 
0 0 -0.0203464 0 0 -0.0203956 0 0 -0.0194574 
0 0 -0.0194551 0 0 -0.0195782 0 0 -0.0197172 
0 0 -0.0195243 0 0 -0.0194625 0 0 -0.0199244 
0 0 -0.0196099 0 0 -0.0195848 0 0 -0.0197401 
0 0 -0.0194278 0 0 -0.0196847 0 0 -0.0195704 
0 0 -0.0195495 0 0 -0.0197463 0 0 -0.0197267 
0 0 -0.0194944 0 0 -0.0195072 0 0 -0.0196258 
0 0 -0.019717 0 0 -0.0196576 0 0 -0.0194593 
0 0 -0.0195671 0 0 -0.0194572 0 0 -0.0194906 
0 0 -0.0194764 0 0 -0.0194852 0 0 -0.0195701 
0 0 -0.0196451 0 0 -0.0196412 0 0 -0.0194299 
0 0 -0.0196509 0 0 -0.0195855 0 0 -0.0193197 
0 0 -0.0191685 0 0 -0.0193423 0 0 -0.0193777 
0 0 -0.0193793 0 0 -0.0193258 0 0 -0.0193686 
0 0 -0.0190016 0 0 -0.0193576 0 0 -0.0190117 
0 0 -0.0193504 0 0 -0.0193304 0 0 -0.0193499 
0 0 -0.0193883 0 0 -0.0193665 0 0 -0.0193633 
0 0 -0.0194199 0 0 -0.0194003 0 0 -0.0194116 
0 0 -0.0193925 0 0 -0.0193629 0 0 -0.0188945 
0 0 -0.0183659 0 0 -0.0183725 0 0 -0.0186609 
0 0 -0.0183679 0 0 -0.0183901 0 0 -0.0185364 
0 0 -0.0187019 0 0 -0.0184312 0 0 -0.0183856 
0 0 -0.01837 0 0 -0.0187526 0 0 -0.0183821 
0 0 -0.0188163 0 0 -0.0184761 0 0 -0.0184902 
0 0 -0.0183899 0 0 -0.0187877 0 0 -0.0185483 
0 0 -0.0184344 0 0 -0.0186311 0 0 -0.0183576 
0 0 -0.0184093 0 0 -0.0184765 0 0 -0.0183875 
0 0 -0.0188555 0 0 -0.0183643 0 0 -0.0184353 
0 0 -0.018548 0 0 -0.0185327 0 0 -0.0185102 
0 0 -0.0186406 0 0 -0.0186352 0 0 -0.0185 
0 0 -0.0184378 0 0 -0.0183682 0 0 -0.0183989 
0 0 -0.0186305 0 0 -0.0184418 0 0 -0.0187088 
0 0 -0.0183545 0 0 -0.0185512 0 0 -0.0186909 
0 0 -0.0185113 0 0 -0.0185613 0 0 -0.0184199 
0 0 -0.0186091 0 0 -0.0188426 0 0 -0.017845 
0 0 -0.0178202 0 0 -0.0183479 0 0 -0.0180142 
0 0 -0.0178608 0 0 -0.0179222 0 0 -0.0183524 
0 0 -0.0178149 0 0 -0.0183532 0 0 -0.0178414 
0 0 -0.0183414 0 0 -0.0183478 0 0 -0.0183537 
0 0 -0.0179975 0 0 -0.0178719 0 0 -0.0183533 
0 0 -0.0178478 0 0 -0.0173916 0 0 -0.0177586 
0 0 -0.0174124 0 0 -0.0173938 0 0 -0.0174015 
0 0 -0.0174961 0 0 -0.0174282 0 0 -0.0174699 
0 0 -0.0174193 0 0 -0.0174882 0 0 -0.0174601 
0 0 -0.0175565 0 0 -0.0174321 0 0 -0.017379 
0 0 -0.0176648 0 0 -0.0173677 0 0 -0.0177722 
0 0 -0.017657 0 0 -0.0173845 0 0 -0.0173586 
0 0 -0.0173865 0 0 -0.017639 0 0 -0.0175018 
0 0 -0.0173865 0 0 -0.0173773 0 0 -0.0173842 
0 0 -0.0174621 0 0 -0.0175925 0 0 -0.0175454 
0 0 -0.0174143 0 0 -0.0173607 0 0 -0.0174018 
0 0 -0.0176726 0 0 -0.0176187 0 0 -0.01752 
0 0 -0.0175666 0 0 -0.0173933 0 0 -0.0174983 
0 0 -0.0174807 0 0 -0.017593 0 0 -0.0174484 
0 0 -0.0177153 0 0 -0.0171122 0 0 -0.016828 
0 0 -0.016701 0 0 -0.0168411 0 0 -0.0169822 
0 0 -0.0167455 0 0 -0.0167099 0 0 -0.0167958 
0 0 -0.0166534 0 0 -0.0166517 0 0 -0.0170079 
0 0 -0.0167773 0 0 -0.0167013 0 0 -0.0170098 
0 0 -0.0167056 0 0 -0.0160877 0 0 -0.0163823 
0 0 -0.0165637 0 0 -0.0165654 0 0 -0.0163183 
0 0 -0.016558 0 0 -0.0166185 0 0 -0.0165154 
0 0 -0.0165255 0 0 -0.0164778 0 0 -0.0164881 
0 0 -0.0165803 0 0 -0.0163833 0 0 -0.0165712 
0 0 -0.0164885 0 0 -0.0160615 0 0 -0.0164694 
0 0 -0.0165754 0 0 -0.0165357 0 0 -0.0164624 
0 0 -0.0164402 0 0 -0.0163924 0 0 -0.0165721 
0 0 -0.0163101 0 0 -0.0165195 0 0 -0.0164591 
0 0 -0.016401 0 0 -0.0164015 0 0 -0.0165181 
0 0 -0.016439 0 0 -0.0165982 0 0 -0.0165004 
0 0 -0.0163891 0 0 -0.0165001 0 0 -0.0164718 
0 0 -0.0164471 0 0 -0.0163837 0 0 -0.0163953 
0 0 -0.0164539 0 0 -0.0164572 0 0 -0.0165551 
0 0 -0.0164355 0 0 -0.0165973 0 0 -0.0164409 
0 0 -0.0165734 0 0 -0.0154938 0 0 -0.0155709 
0 0 -0.0155206 0 0 -0.0156803 0 0 -0.0156529 
0 0 -0.0154062 0 0 -0.0155635 0 0 -0.0156912 
0 0 -0.0154988 0 0 -0.0159219 0 0 -0.0159792 
0 0 -0.0155091 0 0 -0.0155729 0 0 -0.0155574 
0 0 -0.0156367 0 0 -0.0158105 0 0 -0.0154808 
0 0 -0.0153957 0 0 -0.0154681 0 0 -0.0157456 
0 0 -0.0154304 0 0 -0.0158693 0 0 -0.0158444 
0 0 -0.0155743 0 0 -0.015674 0 0 -0.0154714 
0 0 -0.0154179 0 0 -0.0154834 0 0 -0.0155814 
0 0 -0.0156082 0 0 -0.0155037 0 0 -0.0154436 
0 0 -0.0154333 0 0 -0.0157773 0 0 -0.0156196 
0 0 -0.0155403 0 0 -0.0156732 0 0 -0.0154631 
0 0 -0.0155233 0 0 -0.0154037 0 0 -0.015436 
0 0 -0.015695 0 0 -0.0154934 0 0 -0.0158485 
0 0 -0.015868 0 0 -0.0155879 0 0 -0.0154514 
0 0 -0.0154232 0 0 -0.0148263 0 0 -0.0148091 
0 0 -0.0148087 0 0 -0.0148033 0 0 -0.0151031 
0 0 -0.0147489 0 0 -0.0150089 0 0 -0.0147644 
0 0 -0.0148253 0 0 -0.0147667 0 0 -0.0151494 
0 0 -0.0147483 0 0 -0.0150658 0 0 -0.015102 
0 0 -0.0153531 0 0 -0.0152671 0 0 -0.0147133 
0 0 -0.0147404 0 0 -0.0150646 0 0 -0.0145958 
0 0 -0.0145158 0 0 -0.0145946 0 0 -0.014512 
0 0 -0.0141601 0 0 -0.0145187 0 0 -0.0145556 
0 0 -0.0145021 0 0 -0.0145025 0 0 -0.014227 
0 0 -0.0143639 0 0 -0.0144786 0 0 -0.0146882 
0 0 -0.0145415 0 0 -0.0141212 0 0 -0.0145462 
0 0 -0.0144921 0 0 -0.0141134 0 0 -0.0144868 
0 0 -0.0140384 0 0 -0.0144691 0 0 -0.0144896 
0 0 -0.0146352 0 0 -0.0144891 0 0 -0.0144822 
0 0 -0.0145397 0 0 -0.01455 0 0 -0.0145826 
0 0 -0.0142276 0 0 -0.0145381 0 0 -0.0145414 
0 0 -0.0144482 0 0 -0.0146433 0 0 -0.0145034 
0 0 -0.0146862 0 0 -0.014431 0 0 -0.0141143 
0 0 -0.0145644 0 0 -0.0146183 0 0 -0.0145281 
0 0 -0.0144782 0 0 -0.0145484 0 0 -0.0144892 
0 0 -0.0144575 0 0 -0.0145281 0 0 -0.014635 
0 0 -0.0145466 0 0 -0.0134655 0 0 -0.0136889 
0 0 -0.0136556 0 0 -0.0137515 0 0 -0.0136727 
0 0 -0.0135947 0 0 -0.0136725 0 0 -0.0138043 
0 0 -0.0135358 0 0 -0.0134926 0 0 -0.0139604 
0 0 -0.0137309 0 0 -0.0134465 0 0 -0.0136402 
0 0 -0.0136834 0 0 -0.0135727 0 0 -0.0138813 
0 0 -0.0137631 0 0 -0.0136155 0 0 -0.0134557 
0 0 -0.0134489 0 0 -0.0137501 0 0 -0.0134703 
0 0 -0.0135316 0 0 -0.013664 0 0 -0.013532 