# vtk DataFile Version 4.0
Generated by LIGGGHTS
ASCII
DATASET POLYDATA
POINTS 1302 float
-4.96438 -4.2111 0.499977 -2.88864 -4.09471 0.500255 -1.85622 -4.16124 0.499997 
-0.829436 -4.61769 0.499911 0.117455 -4.9395 0.499952 1.21875 -4.07417 0.499941 
1.61154 -4.99595 0.499974 2.38785 -4.4539 0.821598 3.24462 -4.85703 0.500007 
4.05755 -4.0012 0.499985 -4.39567 -3.39708 0.618 -3.41438 -3.24401 0.499937 
-2.33161 -3.26422 0.500076 -0.996178 -3.63172 0.499939 0.254061 -3.79895 0.499994 
1.31092 -3.07844 0.499995 2.85776 -3.63082 0.499936 3.64854 -3.0183 0.499995 
4.63572 -3.17813 0.500043 -3.97665 -2.41699 0.500043 -2.92312 -2.36833 0.49995 
-1.48739 -2.80686 0.779745 -0.906815 -2.0268 0.499997 -0.33705 -2.85074 0.499962 
0.614338 -2.36097 0.500247 2.31959 -2.62099 0.49995 3.19036 -2.12944 0.499938 
-4.75448 -1.78854 0.501448 -3.46298 -1.5395 0.646597 -1.97446 -1.97948 0.499948 
-0.682338 -1.05225 0.500035 0.274798 -1.42039 0.499967 1.28335 -1.58607 0.499997 
2.98322 -1.13798 0.500215 2.256 -1.70346 0.892345 4.24556 -1.79423 0.499952 
-4.07201 -0.760062 0.499967 -3.0653 -0.633722 0.500382 -2.01596 -0.941651 0.500005 
-0.747504 -0.0607433 0.61354 0.97472 -0.631889 0.499997 2.00417 -0.818955 0.499871 
2.75861 -0.162651 0.499993 3.93872 -0.842472 0.5 4.93502 -0.841678 0.586017 
-4.69896 0.123093 0.499991 -3.69973 0.167999 0.500293 -2.70847 0.300437 0.499995 
-1.74006 0.0380516 0.499992 0.161545 0.342575 0.499977 1.16136 0.360323 0.499975 
2.10307 0.536606 0.786346 3.00522 0.859411 0.499994 3.71402 0.13252 0.500102 
4.51114 0.736292 0.499989 -4.26323 1.21056 0.499997 -3.31833 1.01952 0.859943 
-3.40877 1.9481 0.500132 -2.41614 1.25677 0.499941 -1.44577 1.50234 0.500111 
-0.50381 1.13485 0.499972 0.479253 1.31807 0.499978 1.42889 1.27474 0.810209 
2.32491 1.59233 0.49998 3.80704 1.5429 0.500019 -4.37312 2.21265 0.499995 
-3.65461 2.91766 0.499981 -2.41008 2.25671 0.499977 -1.46581 2.4344 0.879693 
-0.591903 2.13096 0.499906 0.298606 2.58763 0.499995 1.2225 2.20504 0.506789 
2.14738 2.58555 0.499965 3.11754 2.34306 0.49998 4.60049 2.15274 0.49995 
-4.24011 3.79708 0.499997 -4.92565 3.06821 0.499997 -3.24296 3.82631 0.569785 
-1.30064 3.34597 0.49995 -0.301511 3.38753 0.500197 1.56989 3.4023 0.49999 
2.57407 3.48999 0.500013 4.0297 2.99945 0.499947 4.68428 3.98961 0.499988 
-4.74776 4.81267 0.499953 -3.75548 4.6826 0.500002 -2.78164 4.91102 0.499971 
-2.26818 4.03825 0.499991 -1.66876 4.83869 0.500005 -0.863046 4.24504 0.499939 
0.85899 4.34558 0.499987 2.47668 4.50213 0.49997 3.62533 4.02521 0.499996 
4.20765 4.87349 0.500005 -4.38124 -4.5954 1.21797 -3.38255 -4.76007 1.24183 
-2.20072 -4.74751 1.2388 -1.2982 -4.32794 1.33525 -0.267335 -4.23192 1.2353 
0.758294 -4.74994 1.24377 1.56341 -4.18746 1.43173 2.50806 -4.02931 1.71894 
2.93364 -4.98883 1.47335 3.36219 -4.12518 1.20784 3.95193 -4.65075 1.82097 
4.56708 -4.01089 1.36041 -4.60421 -3.5375 1.65921 -3.74195 -3.82689 1.24355 
-2.78419 -3.97523 1.49005 -1.89162 -3.52084 1.36118 -0.902749 -3.41988 1.47266 
0.837017 -3.51983 1.26304 1.56601 -3.04294 1.85475 2.06709 -3.40385 1.06838 
3.85223 -3.32761 1.55975 -4.85185 -2.68316 1.20239 -4.45519 -2.09952 1.91096 
-3.88478 -2.83633 1.40739 -2.87332 -2.97192 1.29559 -1.82464 -2.21002 1.62752 
-0.813141 -2.42575 1.4123 0.183417 -2.69517 1.3395 0.747115 -2.07721 1.89406 
1.37787 -2.33076 1.16067 2.23195 -2.31748 1.6812 2.98794 -2.80616 1.22039 
3.9001 -2.38328 1.2304 -4.29104 -1.33376 1.28915 -3.51982 -1.85482 1.65472 
-2.62055 -1.75428 1.22915 -2.61649 -1.00183 1.88772 -1.42357 -1.43767 1.13485 
-0.0923738 -1.72577 1.3786 0.736231 -1.16397 1.34932 1.71339 -1.19367 1.55986 
3.07647 -1.83477 1.44868 3.93535 -1.32814 1.37415 4.84374 -1.39637 1.78654 
-4.48991 -0.355812 1.3526 -3.24286 -0.255276 1.66351 -2.35626 -0.319215 1.20483 
-1.37942 -0.222305 1.39562 -0.6667 -0.912019 1.52331 0.061165 -0.549023 0.941563 
1.58607 -0.227108 1.18882 2.53035 -0.662417 1.33563 3.67652 -0.255163 1.61877 
4.50037 -0.0870424 1.07755 -4.88188 0.659463 1.32461 -3.90948 0.454251 1.43518 
-2.18851 0.664258 1.27282 -1.21249 0.704383 1.05896 -0.595491 0.266703 1.77912 
0.0239564 0.902569 1.31694 0.667774 0.137845 1.34179 1.46387 0.614818 1.7142 
2.87952 0.308472 1.37371 3.71098 0.838739 1.20813 4.31715 0.482765 1.91929 
-4.61852 1.89702 1.4166 -3.62861 1.759 1.45734 -2.12377 1.75415 1.31663 
-2.84289 1.22876 1.7759 -1.56085 1.15251 1.88324 -0.876435 1.61054 1.31556 
0.0759759 1.89619 1.20927 1.22566 1.93967 1.5289 2.31915 1.12474 1.62262 
3.07232 1.60761 1.17599 4.51423 1.44718 1.20325 -4.27887 2.83539 1.27685 
-3.04031 2.57227 1.20937 -1.55344 2.33189 1.90042 -0.485062 2.76689 1.26405 
0.560104 2.68451 1.58891 1.5696 2.86211 1.3418 2.21375 2.08528 1.36323 
3.05794 2.38006 1.81088 3.83493 2.26416 1.19217 4.73925 2.66068 1.35003 
-4.84743 3.49553 1.78162 -3.54162 3.48536 1.46115 -2.18177 3.13381 0.922492 
-2.58807 3.49229 1.76292 -1.3469 3.22047 1.49092 0.00823014 3.50825 1.71883 
0.717806 3.49954 1.01426 1.93944 3.8954 1.28757 2.43143 3.1596 1.75292 
3.26843 3.09536 1.14125 4.27819 3.54654 1.29921 -4.48769 4.30812 1.32317 
-3.60867 4.43055 1.78383 -2.70609 4.39743 1.35466 -1.58847 4.15351 1.22434 
-1.52984 4.88366 1.90509 -0.726874 4.81018 1.3135 -0.852337 3.99705 1.88292 
0.00351737 4.20007 0.996872 0.182793 4.69177 1.84908 1.05285 4.32432 1.4808 
1.94228 4.88435 1.43609 2.9489 4.03689 1.24861 3.85365 4.45351 1.37431 
4.73645 4.95155 1.34528 -4.87449 -4.49868 2.08445 -4.4618 -4.84014 2.92889 
-3.87452 -4.49193 2.07412 -2.78943 -4.88148 2.04241 -2.77457 -4.09694 2.66222 
-1.97366 -4.22491 2.06656 -0.57769 -4.6331 2.13055 0.381911 -4.35606 2.08228 
1.24952 -4.85254 2.10913 2.93444 -4.6208 2.40324 2.14089 -4.06116 2.64898 
4.26881 -4.8523 2.74779 -4.37383 -3.79402 2.59788 -3.46854 -3.441 2.12469 
-2.46783 -3.29426 2.15084 -1.08028 -3.80494 2.37827 -1.89655 -3.59255 2.91533 
-0.0973306 -3.90859 2.84479 -0.0286807 -3.45293 1.95701 -0.658379 -3.08285 2.92645 
1.22036 -3.86195 2.31291 1.97282 -3.06446 2.84191 2.65002 -3.11923 2.10823 
3.61652 -3.87875 2.36082 4.59485 -3.67995 2.30363 -4.78719 -2.90081 2.40865 
-3.79601 -2.5721 2.49588 -2.72659 -2.32422 2.044 -2.0776 -2.60177 2.7576 
-1.28975 -2.84047 2.18991 -1.18131 -2.14909 2.92283 -0.20306 -2.51068 2.2431 
0.722849 -2.95046 2.38405 0.711238 -2.09701 2.90543 1.58584 -2.2311 2.43952 
3.43309 -2.4974 2.10719 4.50639 -2.30793 2.02203 4.1105 -2.90886 2.71686 
-4.76829 -1.63735 2.76391 -3.4623 -1.17344 2.39278 -2.1619 -1.63569 2.51347 
-0.795346 -1.7107 2.11112 -0.241146 -1.79396 2.93937 0.432921 -1.27569 2.4075 
1.55756 -1.23005 2.54691 2.73853 -1.83925 2.39867 3.16845 -1.01812 2.0184 
4.15347 -1.09 2.44199 4.2967 -1.94993 2.93187 -4.40316 -0.890304 2.20687 
-3.20907 -0.247221 2.67378 -2.3104 -0.673432 2.78125 -1.58269 -0.978659 2.0177 
-0.358967 -0.0305886 2.70534 -0.775436 -0.938773 2.74652 0.119791 -0.451747 1.93507 
0.576236 -0.340867 2.87578 1.18702 -0.410786 2.08712 1.74713 -0.298178 2.90792 
2.14553 -0.0489181 2.02523 2.71348 -0.489533 2.73502 3.73372 -0.286031 2.86923 
4.74159 -0.419964 1.98916 -4.39539 0.109167 2.23896 -4.94355 0.923879 2.42799 
-3.70108 0.854411 2.32758 -2.04219 0.0956886 2.08412 -2.75992 0.642292 2.59051 
-1.12437 0.603521 2.59598 0.871006 0.545243 2.51703 2.32687 0.776063 2.56049 
3.2025 0.357982 2.31878 3.92052 0.915865 2.73492 -4.27687 1.67197 2.3291 
-3.29417 1.76208 2.49136 -2.23814 1.52742 2.51619 -1.24989 1.72961 2.63923 
-0.45231 1.19236 2.14705 0.569672 1.35941 2.01956 0.0667401 1.76012 2.78595 
1.60456 1.4153 2.29663 3.16732 1.34488 2.13667 4.14987 1.66156 2.10943 
-4.67719 2.57427 2.15748 -3.62086 2.58326 2.0235 -2.53686 2.42108 2.06267 
-1.61367 2.6468 2.84754 -0.562259 2.18347 2.07249 0.0878494 2.83855 2.45732 
0.875154 2.22308 2.42149 1.84591 2.3842 2.24372 2.70913 2.41991 2.74717 
3.69511 2.41718 2.58069 4.8113 2.19903 2.93049 -4.01938 3.44412 2.33984 
-4.79598 3.20724 2.92357 -3.13723 3.88586 2.50303 -2.44678 3.18405 2.70362 
-0.867658 3.11975 2.36294 0.401122 3.96617 2.51615 1.06865 3.45458 1.97404 
1.81553 3.30885 2.62312 2.80067 3.4803 2.62684 3.52555 3.62319 1.95305 
4.34042 3.06371 2.17394 4.1248 3.87868 2.71174 -4.50211 4.16489 2.8375 
-3.52752 4.8129 2.70424 -2.25996 4.29769 2.25657 -1.36262 4.29708 2.6978 
-0.39526 4.54944 2.67673 0.526858 4.92692 2.76406 1.61011 4.23825 2.31678 
2.58716 4.34047 2.13008 3.53827 4.58601 2.31717 4.79627 4.36671 2.15419 
-4.87954 -4.82117 3.83727 -3.65449 -4.27615 3.10254 -2.83879 -4.11292 3.65996 
-2.22476 -4.85905 3.91701 -1.87146 -4.58842 3.0047 -0.88054 -4.48215 3.08678 
0.0081134 -4.64782 3.5153 0.839595 -4.21348 3.16815 1.95815 -4.54971 3.85815 
2.69041 -4.9577 3.31259 3.51353 -4.39736 3.21983 4.85144 -4.14585 3.15043 
-4.02248 -3.41547 3.45438 -3.12873 -3.23694 3.04278 -2.42467 -3.09204 3.73877 
-1.87724 -3.92326 3.85876 -0.514075 -3.72481 3.7351 0.46123 -3.51479 3.80406 
1.70406 -3.58647 3.7577 2.62435 -3.89153 3.50767 3.14957 -3.23474 2.9667 
4.9865 -3.27044 3.61451 4.05077 -3.58616 3.45082 -4.44128 -2.52652 3.26903 
-3.56243 -2.55086 3.76607 -2.9872 -2.2475 3.0064 -1.45716 -2.91438 3.50442 
0.0651077 -2.63232 3.44938 1.10008 -2.92476 3.30955 1.9563 -2.61597 3.73569 
2.93995 -2.77047 3.82967 3.35804 -2.26292 3.07637 4.15226 -2.61619 3.6721 
-4.65888 -1.06592 3.7493 -3.84125 -1.73967 3.12472 -3.68116 -1.17042 3.93114 
-2.18288 -1.99076 3.54218 -2.95584 -1.27758 3.2487 -1.59212 -1.24427 3.23604 
-0.694408 -1.29443 3.67757 0.892409 -1.19306 3.29262 0.207225 -1.70519 3.82949 
1.17422 -1.99474 3.8201 2.1032 -1.79346 3.17494 2.90071 -1.69785 3.77066 
3.32561 -1.26879 2.97357 4.62291 -1.75338 3.85647 -3.98997 -0.703372 3.10043 
-3.40003 -0.210998 3.90629 -2.2763 -0.973429 3.91667 -1.43995 -0.244231 3.02221 
-0.128506 -0.472558 3.57289 1.79493 -0.961017 3.65533 2.27923 -0.0915426 3.86394 
3.16865 -0.620206 3.71832 4.91777 -0.643675 2.94776 4.13738 -0.961415 3.48637 
-4.4814 0.177805 3.233 -3.50905 0.542813 3.25822 -2.56547 0.0595943 3.41547 
-1.93999 0.7915 3.14311 -0.785956 0.362482 3.51993 0.117448 0.72891 3.14826 
[...]
POINT_DATA 1302
FIELD FieldData 7
id 1 1302 int
48 62 69 126 50 115 30 89 31 
29 120 60 12 7 23 28 51 64 
24 49 79 129 104 11 56 59 14 
20 99 45 1 18 22 78 82 109 
27 15 19 105 26 4 86 43 67 
54 65 37 80 16 35 110 2 114 
46 33 108 3 71 21 42 55 119 
53 97 52 94 8 84 25 13 6 
63 47 36 9 81 87 40 34 44 
5 41 38 58 57 17 10 88 32 
39 72 76 112 161 165 151 214 77 
106 168 213 198 136 231 123 166 127 
284 210 220 100 157 93 197 103 212 
194 172 174 132 83 180 102 160 70 
135 164 217 155 191 61 85 150 207 
159 66 196 139 258 117 169 147 98 
91 158 309 130 101 167 143 73 125 
113 124 171 215 137 193 68 153 133 
190 187 146 74 131 186 163 128 134 
142 203 122 173 154 138 175 95 211 
162 222 118 185 121 144 96 116 235 
92 170 107 178 152 111 267 141 206 
90 148 75 156 149 192 145 260 291 
189 263 321 244 195 199 221 316 322 
336 333 280 266 281 348 255 140 303 
253 318 245 233 205 262 272 225 312 
248 324 249 289 298 228 247 223 282 
234 274 283 204 254 285 279 241 179 
313 302 224 359 264 184 188 257 227 
230 177 355 181 269 369 270 208 271 
265 216 250 277 238 273 256 331 176 
326 259 232 226 218 311 239 261 236 
219 243 183 315 200 276 240 201 297 
293 379 252 296 325 314 182 237 209 
275 327 242 278 306 292 376 229 328 
290 320 268 202 332 251 431 349 404 
484 380 310 377 343 428 364 341 346 
422 350 448 455 371 399 405 339 319 
389 344 288 400 375 420 330 342 433 
432 287 356 503 335 442 384 323 360 
419 329 378 402 305 391 354 453 368 
415 439 317 337 440 407 383 295 401 
373 338 358 308 361 301 421 387 334 
424 470 435 304 429 372 299 414 393 
347 294 340 412 367 300 352 418 489 
353 461 374 403 366 246 362 286 430 
388 385 406 390 381 345 445 423 392 
357 409 413 425 363 382 416 451 397 
410 398 307 365 351 386 477 468 558 
542 513 426 446 443 516 457 396 501 
456 553 500 492 478 482 514 481 518 
507 544 460 411 465 555 488 505 417 
370 458 595 490 528 462 498 472 556 
510 549 427 515 535 434 548 506 550 
474 534 444 408 537 471 525 493 499 
522 552 437 480 475 469 601 509 463 
541 449 512 452 524 504 450 531 479 
617 521 497 519 447 543 394 438 454 
459 483 473 546 486 395 562 545 466 
520 496 530 487 491 495 511 436 604 
494 547 502 464 441 590 467 540 476 
615 672 667 626 616 611 536 576 669 
539 631 572 608 589 570 571 648 557 
633 569 632 588 485 655 582 533 563 
581 529 607 508 587 538 610 564 658 
568 675 654 651 676 664 594 580 647 
527 517 593 561 614 573 605 612 600 
627 596 554 641 577 673 591 653 609 
560 662 574 629 551 622 613 674 656 
559 598 526 585 566 599 583 666 578 
639 628 565 584 523 663 620 532 650 
657 623 652 575 597 606 603 602 592 
659 692 728 642 643 727 680 636 709 
718 722 699 668 738 661 579 700 665 
703 720 697 586 724 702 634 717 649 
670 682 625 713 698 618 683 719 706 
716 660 646 677 624 685 711 630 679 
621 567 640 671 694 726 635 707 721 
695 637 756 708 619 725 689 644 678 
714 684 715 693 786 704 688 705 691 
723 638 681 701 645 745 686 774 733 
750 735 696 732 780 767 752 769 740 
775 729 690 766 712 739 736 737 710 
781 759 773 687 762 787 761 754 771 
784 779 778 748 765 753 757 760 731 
730 747 749 804 741 825 764 777 744 
802 770 742 755 772 746 743 768 734 
782 783 785 845 758 763 751 776 837 
807 800 831 833 822 828 835 798 844 
832 791 808 818 834 846 823 821 810 
836 788 820 815 829 794 842 806 811 
795 805 843 789 827 809 792 841 812 
813 839 793 803 801 814 819 799 816 
830 840 796 790 817 797 824 826 838 
899 874 848 856 891 889 873 883 886 
862 879 854 880 851 876 881 957 865 
884 897 875 869 849 860 870 853 878 
892 864 866 863 872 896 857 858 867 
890 885 882 888 847 855 877 871 852 
861 895 893 859 953 887 850 894 898 
868 951 938 929 937 950 941 915 903 
925 943 934 940 948 947 914 939 932 
905 949 924 913 921 942 930 946 907 
917 954 956 922 906 910 918 927 911 
919 916 958 904 920 945 935 902 986 
926 989 909 959 998 952 901 955 900 
967 928 976 923 912 908 1003 931 973 
944 1002 983 933 936 1005 987 1012 990 
969 1010 1014 972 997 995 1000 968 971 
978 975 1067 961 960 982 984 1006 1034 
981 1065 1009 966 988 1007 974 1011 993 
1016 979 1068 1004 992 977 991 999 985 
965 1008 1013 970 963 980 1001 962 964 
994 1037 1015 996 1024 1029 1039 1041 1054 
1020 1045 1027 1058 1043 1030 1032 1021 1071 
1026 1023 1066 1022 1052 1025 1028 1018 1070 
1038 1063 1061 1035 1056 1050 1059 1049 1053 
1069 1055 1017 1047 1040 1019 1057 1051 1033 
1048 1064 1036 1031 1060 1042 1046 1062 1044 
1119 1104 1108 1077 1103 1073 1126 1080 1090 
1076 1081 1089 1084 1097 1101 1100 1095 1085 
1093 1120 1082 1096 1116 1087 1124 1083 1079 
1102 1094 1130 1129 1098 1170 1099 1074 1127 
1121 1156 1125 1122 1147 1107 1142 1150 1072 
1092 1155 1088 1118 1141 1086 1128 1112 1110 
1117 1153 1166 1113 1165 1123 1111 1175 1078 
1115 1163 1106 1140 1188 1075 1091 1109 1185 
1114 1135 1105 1168 1187 1154 1184 1182 1180 
1158 1217 1133 1139 1202 1179 1162 1146 1206 
1198 1181 1169 1152 1192 1138 1171 1167 1164 
1160 1196 1214 1247 1144 1134 1183 1149 1157 
1178 1204 1145 1209 1219 1172 1136 1173 1186 
1131 1137 1132 1159 1234 1151 1210 1177 1176 
1148 1174 1143 1161 1230 1272 1221 1242 1191 
1244 1211 1245 1236 1229 1218 1233 1213 1215 
1225 1238 1222 1252 1301 1197 1201 1226 1224 
1239 1297 1205 1237 1189 1223 1264 1194 1240 
1193 1271 1228 1231 1250 1207 1220 1241 1190 
1267 1248 1203 1227 1216 1195 1200 1232 1246 
1208 1212 1243 1199 1235 1293 1294 1299 1291 
1269 1254 1261 1300 1273 1253 1265 1281 1262 
1282 1302 1287 1285 1255 1270 1274 1296 1290 
1292 1251 1288 1276 1275 1263 1256 1257 1284 
1258 1298 1249 1286 1266 1278 1268 1289 1277 
1279 1259 1280 1295 1260 1283 
type 1 1302 int
1 1 1 1 1 1 1 1 1 
1 1 1 1 1 1 1 1 1 
1 1 1 1 1 1 1 1 1 
1 1 1 1 1 1 1 1 1 
1 1 1 1 1 1 1 1 1 
1 1 1 1 1 1 1 1 1 
1 1 1 1 1 1 1 1 1 
1 1 1 1 1 1 1 1 1 
1 1 1 1 1 1 1 1 1 
1 1 1 1 1 1 1 1 1 
1 1 1 1 1 1 1 1 1 
1 1 1 1 1 1 1 1 1 
1 1 1 1 1 1 1 1 1 
1 1 1 1 1 1 1 1 1 
1 1 1 1 1 1 1 1 1 
1 1 1 1 1 1 1 1 1 
1 1 1 1 1 1 1 1 1 
1 1 1 1 1 1 1 1 1 
1 1 1 1 1 1 1 1 1 
1 1 1 1 1 1 1 1 1 
1 1 1 1 1 1 1 1 1 
1 1 1 1 1 1 1 1 1 
1 1 1 1 1 1 1 1 1 
1 1 1 1 1 1 1 1 1 
1 1 1 1 1 1 1 1 1 
1 1 1 1 1 1 1 1 1 
1 1 1 1 1 1 1 1 1 
1 1 1 1 1 1 1 1 1 
1 1 1 1 1 1 1 1 1 
1 1 1 1 1 1 1 1 1 
1 1 1 1 1 1 1 1 1 
1 1 1 1 1 1 1 1 1 
1 1 1 1 1 1 1 1 1 
1 1 1 1 1 1 1 1 1 
1 1 1 1 1 1 1 1 1 
1 1 1 1 1 1 1 1 1 
1 1 1 1 1 1 1 1 1 
1 1 1 1 1 1 1 1 1 
1 1 1 1 1 1 1 1 1 
1 1 1 1 1 1 1 1 1 
1 1 1 1 1 1 1 1 1 
1 1 1 1 1 1 1 1 1 
1 1 1 1 1 1 1 1 1 
1 1 1 1 1 1 1 1 1 
1 1 1 1 1 1 1 1 1 
1 1 1 1 1 1 1 1 1 
1 1 1 1 1 1 1 1 1 
1 1 1 1 1 1 1 1 1 
1 1 1 1 1 1 1 1 1 
1 1 1 1 1 1 1 1 1 
1 1 1 1 1 1 1 1 1 
1 1 1 1 1 1 1 1 1 
1 1 1 1 1 1 1 1 1 
1 1 1 1 1 1 1 1 1 
1 1 1 1 1 1 1 1 1 
1 1 1 1 1 1 1 1 1 
1 1 1 1 1 1 1 1 1 
1 1 1 1 1 1 1 1 1 
1 1 1 1 1 1 1 1 1 
1 1 1 1 1 1 1 1 1 
1 1 1 1 1 1 1 1 1 
1 1 1 1 1 1 1 1 1 
1 1 1 1 1 1 1 1 1 
1 1 1 1 1 1 1 1 1 
1 1 1 1 1 1 1 1 1 
1 1 1 1 1 1 1 1 1 
1 1 1 1 1 1 1 1 1 
1 1 1 1 1 1 1 1 1 
1 1 1 1 1 1 1 1 1 
1 1 1 1 1 1 1 1 1 
1 1 1 1 1 1 1 1 1 
1 1 1 1 1 1 1 1 1 
1 1 1 1 1 1 1 1 1 
1 1 1 1 1 1 1 1 1 
1 1 1 1 1 1 1 1 1 
1 1 1 1 1 1 1 1 1 
1 1 1 1 1 1 1 1 1 
1 1 1 1 1 1 1 1 1 
1 1 1 1 1 1 1 1 1 
1 1 1 1 1 1 1 1 1 
1 1 1 1 1 1 1 1 1 
1 1 1 1 1 1 1 1 1 
1 1 1 1 1 1 1 1 1 
1 1 1 1 1 1 1 1 1 
1 1 1 1 1 1 1 1 1 
1 1 1 1 1 1 1 1 1 
1 1 1 1 1 1 1 1 1 
1 1 1 1 1 1 1 1 1 
1 1 1 1 1 1 1 1 1 
1 1 1 1 1 1 1 1 1 
1 1 1 1 1 1 1 1 1 
1 1 1 1 1 1 1 1 1 
1 1 1 1 1 1 1 1 1 
1 1 1 1 1 1 1 1 1 
1 1 1 1 1 1 1 1 1 
1 1 1 1 1 1 1 1 1 
1 1 1 1 1 1 1 1 1 
1 1 1 1 1 1 1 1 1 
1 1 1 1 1 1 1 1 1 
1 1 1 1 1 1 1 1 1 
1 1 1 1 1 1 1 1 1 
1 1 1 1 1 1 1 1 1 
1 1 1 1 1 1 1 1 1 
1 1 1 1 1 1 1 1 1 
1 1 1 1 1 1 1 1 1 
1 1 1 1 1 1 1 1 1 
1 1 1 1 1 1 1 1 1 
1 1 1 1 1 1 1 1 1 
1 1 1 1 1 1 1 1 1 
1 1 1 1 1 1 1 1 1 
1 1 1 1 1 1 1 1 1 
1 1 1 1 1 1 1 1 1 
1 1 1 1 1 1 1 1 1 
1 1 1 1 1 1 1 1 1 
1 1 1 1 1 1 1 1 1 
1 1 1 1 1 1 1 1 1 
1 1 1 1 1 1 1 1 1 
1 1 1 1 1 1 1 1 1 
1 1 1 1 1 1 1 1 1 
1 1 1 1 1 1 1 1 1 
1 1 1 1 1 1 1 1 1 
1 1 1 1 1 1 1 1 1 
1 1 1 1 1 1 1 1 1 
1 1 1 1 1 1 1 1 1 
1 1 1 1 1 1 1 1 1 
1 1 1 1 1 1 1 1 1 
1 1 1 1 1 1 1 1 1 
1 1 1 1 1 1 1 1 1 
1 1 1 1 1 1 1 1 1 
1 1 1 1 1 1 1 1 1 
1 1 1 1 1 1 1 1 1 
1 1 1 1 1 1 1 1 1 
1 1 1 1 1 1 1 1 1 
1 1 1 1 1 1 1 1 1 
1 1 1 1 1 1 1 1 1 
1 1 1 1 1 1 1 1 1 
1 1 1 1 1 1 1 1 1 
1 1 1 1 1 1 1 1 1 
1 1 1 1 1 1 1 1 1 
1 1 1 1 1 1 1 1 1 
1 1 1 1 1 1 1 1 1 
1 1 1 1 1 1 1 1 1 
1 1 1 1 1 1 1 1 1 
1 1 1 1 1 1 1 1 1 
1 1 1 1 1 1 
i 3 1302 int
0 0 0 0 0 0 0 0 0 
0 0 0 0 0 0 0 0 0 
0 1 0 0 0 0 0 0 0 
0 0 0 0 0 0 0 0 0 
0 0 0 0 0 0 0 0 0 
0 0 0 0 0 0 0 0 0 
0 0 0 0 0 0 0 0 0 
0 0 0 0 0 0 0 0 0 
0 0 0 0 0 0 0 0 0 
1 0 0 0 0 0 0 0 0 
0 0 0 0 0 0 0 0 0 
0 0 0 0 0 0 0 0 0 
0 0 0 0 0 0 0 0 0 
0 0 0 0 0 0 0 0 0 
0 0 0 0 0 0 -1 0 0 
0 0 0 0 0 0 0 0 0 
0 0 0 0 0 0 0 0 0 
0 0 0 0 0 0 0 0 0 
0 0 0 0 0 0 0 0 0 
0 0 0 0 0 0 0 0 0 
0 0 0 0 0 0 0 0 0 
0 0 0 0 0 0 0 0 0 
0 0 0 0 0 0 0 0 0 
0 0 0 0 0 0 0 0 0 
0 0 0 0 0 0 0 0 0 
0 0 0 1 0 0 0 0 0 
0 0 0 0 0 0 0 0 0 
0 0 0 0 0 0 0 0 0 
0 0 0 0 0 0 0 -1 0 
0 0 0 0 -1 0 0 0 0 
0 0 0 0 0 0 0 0 0 
0 -1 0 0 0 0 0 1 0 
0 0 0 0 0 0 0 0 0 
0 0 0 0 0 0 0 0 0 
0 0 0 0 0 0 0 0 0 
0 0 0 0 0 0 0 0 0 
0 0 0 0 0 0 0 0 0 
0 0 0 0 0 0 0 0 0 
0 0 0 0 0 0 0 0 0 
0 0 0 0 0 0 0 0 0 
0 0 0 0 0 0 0 0 0 
0 0 0 0 0 0 0 0 0 
0 0 0 0 0 0 0 0 0 
0 0 0 0 0 0 0 0 0 
0 0 0 0 0 0 0 0 0 
0 0 0 0 0 0 0 0 0 
0 0 0 0 0 0 0 0 0 
0 0 0 0 0 0 0 0 0 
0 0 0 0 0 0 0 0 0 
0 0 0 0 0 0 0 0 0 
0 0 0 0 0 0 0 0 0 
0 0 0 0 0 0 0 0 0 
0 0 0 0 0 0 0 0 0 
0 0 0 0 0 0 0 0 0 
0 0 0 0 0 0 0 0 0 
0 0 0 0 0 0 0 0 0 
0 0 0 0 0 0 0 0 0 
0 0 0 0 0 0 0 0 0 
0 0 0 0 0 0 0 0 0 
0 0 0 0 0 0 0 0 0 
0 0 0 0 0 0 0 0 0 
0 0 0 0 0 0 0 0 0 
0 0 0 0 0 0 0 0 0 
0 0 0 0 0 0 0 0 0 
0 0 0 0 0 0 0 0 0 
0 0 0 0 0 0 0 0 0 
0 0 0 0 -1 0 0 0 0 
0 0 0 0 0 0 0 0 0 
0 0 0 0 0 0 0 0 0 
0 0 0 0 1 0 0 0 0 
0 0 0 0 0 0 0 0 0 
0 0 0 0 0 0 0 0 0 
0 0 0 0 0 0 0 0 0 
0 0 0 0 0 0 0 0 0 
0 0 0 0 0 0 0 0 0 
0 0 0 0 0 0 0 0 0 
0 0 0 0 0 0 0 0 0 
0 0 0 0 0 0 0 0 0 
0 0 0 0 0 0 0 0 0 
0 0 0 0 0 0 0 0 0 
0 0 0 0 0 0 0 0 0 
0 0 0 0 0 0 0 0 0 
0 0 0 0 0 0 0 0 0 
0 0 0 0 0 0 0 0 0 
0 0 0 0 0 0 0 0 0 
0 0 0 0 0 0 0 0 0 
0 0 0 0 0 0 0 0 0 
0 0 0 0 0 0 0 0 0 
0 0 0 0 0 0 0 0 0 
0 0 0 0 0 0 0 0 0 
0 0 0 0 0 0 0 0 0 
0 0 0 0 0 0 0 0 0 
0 0 0 0 0 0 0 0 0 
0 0 0 0 0 0 0 0 0 
0 0 0 0 0 0 0 0 0 
0 0 0 0 0 0 0 0 0 
0 0 0 0 0 0 0 0 0 
0 0 0 0 0 0 0 0 0 
0 0 0 0 0 0 0 0 0 
0 0 0 -1 0 0 0 0 0 
0 0 0 0 0 0 0 0 0 
0 0 0 0 0 0 0 0 0 
0 0 0 0 0 0 0 0 0 
0 0 0 0 0 0 0 0 0 
0 0 0 0 0 0 0 0 0 
0 0 0 0 -1 0 0 0 0 
0 0 0 0 0 0 -1 0 0 
0 0 0 0 0 0 0 0 0 
0 0 0 0 0 0 0 0 0 
0 0 0 0 0 0 0 0 0 
0 0 0 0 0 0 -1 0 0 
0 0 0 0 0 0 0 0 0 
0 0 0 0 0 0 0 0 0 
0 0 0 0 0 0 0 0 0 
-1 0 0 0 0 0 0 0 0 
0 0 0 0 0 0 0 0 0 
0 0 0 0 0 0 0 0 0 
0 0 0 0 0 0 0 0 0 
0 0 0 0 0 0 0 0 0 
0 0 0 0 0 0 0 0 0 
0 0 0 0 0 0 0 0 0 
0 0 0 0 0 0 0 0 0 
0 0 0 0 0 0 0 0 0 
0 0 0 0 0 0 0 0 0 
0 0 0 0 0 0 0 0 0 
0 0 0 -1 0 0 0 0 0 
0 0 0 0 0 0 0 0 0 
0 0 0 0 0 0 0 0 0 
0 0 0 0 0 0 0 0 0 
0 0 0 0 0 0 0 0 0 
0 0 0 0 0 0 0 0 0 
0 0 0 0 0 0 0 0 0 
0 0 0 0 0 0 0 0 0 
0 0 0 0 0 0 0 0 0 
0 0 0 0 0 0 0 0 0 
0 0 0 0 0 0 0 0 0 
0 0 0 0 0 0 0 0 0 
0 0 0 0 0 0 0 0 0 
0 0 0 0 0 0 0 0 0 
0 0 0 0 0 0 0 0 0 
0 0 0 0 0 0 0 0 0 
0 0 0 0 0 0 0 0 0 
0 0 0 0 0 0 0 0 0 
0 0 0 0 0 0 0 0 0 
0 0 0 0 -1 0 0 0 0 
0 0 0 0 0 0 0 0 0 
1 0 0 0 0 0 0 0 0 
0 0 0 0 0 0 0 0 0 
0 0 0 0 0 0 0 1 0 
0 0 0 0 0 0 0 0 0 
0 0 0 0 0 0 0 0 0 
0 0 0 0 0 0 0 0 0 
0 0 0 0 0 0 0 0 0 
0 0 0 0 0 0 0 0 0 
0 0 0 0 0 0 0 0 0 
0 0 0 0 0 0 -1 0 0 
0 0 0 0 0 0 0 0 0 
0 0 0 0 0 0 0 0 0 
0 0 0 0 0 0 0 0 0 
0 0 0 0 0 0 0 0 0 
0 0 0 0 0 0 0 0 0 
0 0 0 0 0 0 0 0 0 
0 0 0 0 0 0 0 0 0 
0 0 0 0 0 0 0 0 0 
0 0 0 0 0 0 0 0 0 
0 0 0 0 0 0 0 0 0 
0 0 0 0 0 0 0 0 0 
0 0 0 0 0 0 0 0 0 
0 0 0 0 0 0 0 0 0 
0 0 0 0 0 0 0 0 0 
0 0 0 0 0 0 0 0 0 
0 0 0 0 0 0 0 0 0 
0 0 0 0 0 0 0 0 0 
0 0 0 0 0 0 0 0 0 
0 0 0 0 0 0 0 0 0 
0 0 0 0 0 0 0 0 0 
0 0 0 0 0 0 0 0 0 
0 0 0 0 0 0 0 0 0 
0 0 0 0 0 0 0 0 0 
0 0 0 0 0 0 0 0 0 
0 0 0 0 0 0 0 0 0 
0 0 0 0 0 0 0 0 0 
0 0 0 0 0 0 0 0 0 
0 0 0 0 0 0 0 1 0 
0 0 0 0 0 0 0 0 0 
0 0 0 0 0 0 0 0 0 
0 0 0 0 0 0 0 0 0 
0 0 0 0 0 0 0 0 0 
0 0 0 0 0 0 0 0 0 
0 0 0 0 0 0 0 0 0 
0 0 0 0 0 0 0 0 0 
0 0 0 0 0 0 0 0 0 
0 0 0 0 0 0 0 0 0 
0 0 0 0 0 0 0 0 0 
0 0 0 0 0 0 0 0 0 
0 0 0 0 0 0 0 0 0 
0 0 0 0 0 0 1 0 0 
0 0 0 0 0 0 0 0 0 
0 0 0 0 0 0 0 0 0 
0 0 0 0 0 0 0 0 0 
0 0 0 0 0 0 0 0 0 
0 0 0 0 0 0 0 0 0 
0 0 0 0 0 0 0 0 0 
0 0 0 0 0 0 0 0 0 
0 0 0 0 0 0 0 0 0 
0 0 0 0 0 0 0 0 0 
0 0 0 0 0 0 0 0 0 
0 0 0 0 0 0 0 0 0 
0 0 0 0 0 0 0 0 0 
0 0 0 0 0 0 0 0 0 
0 0 0 0 0 0 1 0 0 
0 0 0 0 0 0 0 0 0 
0 0 0 0 0 0 0 0 0 
0 0 0 0 0 0 0 0 0 
0 0 0 0 0 0 0 0 0 
0 0 0 0 0 0 0 0 0 
0 0 0 0 0 0 0 0 0 
0 0 0 0 0 0 0 0 0 
0 0 0 0 0 0 0 0 0 
0 0 0 0 0 0 0 0 0 
0 0 0 0 0 0 0 0 0 
0 0 0 0 0 0 0 0 0 
0 0 0 0 0 0 0 0 0 
0 0 0 0 0 0 0 0 0 
0 0 0 0 0 0 0 0 0 
0 0 0 0 0 0 0 0 0 
0 0 0 0 0 0 0 0 0 
0 0 0 0 0 0 0 0 0 
0 0 0 0 0 0 0 0 0 
0 0 0 0 0 0 0 0 0 
0 0 0 0 0 0 0 0 0 
0 0 0 0 0 0 0 0 0 
0 0 0 0 0 0 0 0 0 
0 0 0 0 0 0 0 0 0 
0 0 0 1 0 0 0 0 0 
0 0 0 0 0 0 0 0 0 
0 0 0 0 0 0 0 0 0 
0 0 0 0 0 0 0 0 0 
0 0 0 0 0 0 0 0 0 
0 0 0 0 0 0 0 0 0 
0 0 0 0 0 0 0 0 0 
0 0 0 0 0 0 0 0 0 
0 0 0 0 0 0 0 0 0 
0 0 0 0 0 0 0 0 0 
0 0 0 0 0 0 0 0 0 
0 0 0 0 0 0 0 0 0 
0 0 0 0 0 0 0 0 0 
0 0 0 0 0 0 0 0 0 
0 0 0 0 0 0 0 0 0 
0 0 0 0 0 0 0 0 0 
0 0 0 0 0 0 0 0 0 
0 0 0 0 0 0 0 0 0 
0 0 0 0 0 0 0 0 0 
0 0 0 0 0 0 0 0 0 
0 0 0 0 0 0 0 0 0 
0 0 0 0 0 0 0 0 0 
0 0 0 0 0 0 0 0 0 
0 0 0 0 0 0 0 0 0 
0 0 0 0 0 0 0 0 0 
0 0 0 0 0 0 0 0 0 
0 0 0 0 0 0 0 0 0 
0 0 0 0 0 0 0 0 0 
0 0 0 0 0 0 0 0 0 
0 0 0 0 0 0 0 0 0 
0 0 0 0 0 0 0 0 0 
0 0 0 0 0 0 0 0 0 
0 0 0 0 0 0 0 0 0 
0 0 0 0 0 0 0 0 0 
0 0 0 0 0 0 0 0 0 
0 0 0 0 0 0 0 0 0 
0 0 0 0 0 0 0 0 0 
0 0 0 0 0 0 0 0 0 
0 0 0 0 0 0 0 0 0 
0 0 0 0 0 0 0 0 0 
0 0 0 0 0 0 0 0 0 
0 0 0 0 0 0 0 0 0 
0 0 0 0 0 0 0 0 0 
0 0 0 0 0 0 0 0 0 
0 0 0 0 0 0 0 0 0 
0 0 0 0 0 0 0 0 0 
0 0 0 0 0 0 0 0 0 
0 0 0 0 0 0 0 0 0 
0 0 0 0 0 0 0 0 0 
0 0 0 0 0 0 0 0 0 
0 0 0 0 0 0 0 0 0 
0 0 0 0 0 0 0 0 0 
0 0 0 0 0 0 0 0 0 
0 0 0 0 0 0 0 0 0 
0 0 0 0 0 0 0 0 0 
0 0 0 0 0 0 0 0 0 
0 0 0 0 0 0 0 0 0 
0 0 0 0 0 0 0 0 0 
0 0 0 0 0 0 0 0 0 
0 0 0 0 0 0 0 0 0 
0 0 0 0 0 0 0 0 0 
0 0 0 0 0 0 0 0 0 
0 0 0 0 0 0 0 0 0 
0 0 0 0 0 0 0 0 0 
0 0 0 0 0 0 0 0 0 
0 0 0 0 0 0 0 0 0 
0 0 0 0 0 0 0 0 0 
0 0 0 0 0 0 0 0 0 
0 0 0 0 0 0 0 0 0 
0 0 0 0 0 0 0 0 0 
0 0 0 0 0 0 0 0 0 
0 0 0 0 0 0 0 0 0 
0 0 0 0 0 0 0 0 0 
0 0 0 0 0 0 0 0 0 
0 0 0 0 0 0 0 0 0 
0 0 0 0 0 0 0 0 0 
0 0 0 0 0 0 0 0 0 
0 0 0 0 0 0 0 0 0 
0 0 0 0 0 0 0 0 0 
0 0 0 0 0 0 0 0 0 
0 0 0 0 0 0 0 0 0 
0 0 0 0 0 0 0 0 0 
0 0 0 0 0 0 0 0 0 
0 0 0 0 0 0 0 0 0 
0 0 0 0 0 0 0 0 0 
0 0 0 0 0 0 0 0 0 
0 0 0 0 0 0 0 0 0 
0 0 0 0 0 0 0 0 0 
0 0 0 0 0 0 0 0 0 
0 0 0 0 0 0 0 0 0 
0 0 0 0 0 0 0 0 0 
0 0 0 0 0 0 0 0 0 
0 0 0 0 0 0 0 0 0 
0 0 0 0 0 0 0 0 0 
0 0 0 0 0 0 0 0 0 
0 0 0 0 0 0 0 0 0 
0 0 0 0 0 0 0 0 0 
0 0 0 0 0 0 0 0 0 
0 0 0 0 0 0 0 0 0 
0 0 0 0 0 0 0 0 0 
0 0 0 0 0 0 0 0 0 
0 0 0 0 0 0 0 0 0 
0 0 0 0 0 0 0 0 0 
0 0 0 0 0 0 0 0 0 
0 0 0 0 0 0 0 0 0 
0 0 0 0 0 0 0 0 0 
0 0 0 0 0 0 0 0 0 
0 0 0 0 0 0 0 0 0 
0 0 0 0 0 0 0 0 0 
0 0 0 0 0 0 0 0 0 
0 0 0 0 0 0 0 0 0 
0 0 0 0 0 0 0 0 0 
0 0 0 0 0 0 0 0 0 
0 0 0 0 0 0 0 0 0 
0 0 0 0 0 0 0 0 0 
0 0 0 0 0 0 0 0 0 
0 0 0 0 0 0 0 0 0 
0 0 0 0 0 0 0 0 0 
0 0 0 0 0 0 0 0 0 
0 0 0 0 0 0 0 0 0 
0 0 0 0 0 0 0 0 0 
0 0 0 0 0 0 0 0 0 
0 0 0 0 0 0 0 0 0 
0 0 0 0 0 0 0 0 0 
0 0 0 0 0 0 0 0 0 
0 0 0 0 0 0 0 0 0 
0 0 0 0 0 0 0 0 0 
0 0 0 0 0 0 0 0 0 
0 0 0 0 0 0 0 0 0 
0 0 0 0 0 0 0 0 0 
0 0 0 0 0 0 0 0 0 
0 0 0 0 0 0 0 0 0 
0 0 0 0 0 0 0 0 0 
0 0 0 0 0 0 0 0 0 
0 0 0 0 0 0 0 0 0 
0 0 0 0 0 0 0 0 0 
0 0 0 0 0 0 0 0 0 
0 0 0 0 0 0 0 0 0 
0 0 0 0 0 0 0 0 0 
0 0 0 0 0 0 0 0 0 
0 0 0 0 0 0 0 0 0 
0 0 0 0 0 0 0 0 0 
0 0 0 0 0 0 0 0 0 
0 0 0 0 0 0 0 0 0 
0 0 0 0 0 0 0 0 0 
0 0 0 0 0 0 0 0 0 
0 0 0 0 0 0 0 0 0 
0 0 0 0 0 0 0 0 0 
0 0 0 0 0 0 0 0 0 
0 0 0 0 0 0 0 0 0 
0 0 0 0 0 0 0 0 0 
0 0 0 0 0 0 0 0 0 
0 0 0 0 0 0 0 0 0 
0 0 0 0 0 0 0 0 0 
0 0 0 0 0 0 0 0 0 
0 0 0 0 0 0 0 0 0 
0 0 0 0 0 0 0 0 0 
0 0 0 0 0 0 0 0 0 
0 0 0 0 0 0 0 0 0 
0 0 0 0 0 0 0 0 0 
0 0 0 0 0 0 0 0 0 
0 0 0 0 0 0 0 0 0 
0 0 0 0 0 0 0 0 0 
0 0 0 0 0 0 0 0 0 
0 0 0 0 0 0 0 0 0 
0 0 0 0 0 0 0 0 0 
0 0 0 0 0 0 0 0 0 
0 0 0 0 0 0 0 0 0 
0 0 0 0 0 0 0 0 0 
0 0 0 0 0 0 0 0 0 
0 0 0 0 0 0 0 0 0 
0 0 0 0 0 0 0 0 0 
0 0 0 0 0 0 0 0 0 
0 0 0 0 0 0 0 0 0 
0 0 0 0 0 0 0 0 0 
0 0 0 0 0 0 0 0 0 
0 0 0 0 0 0 0 0 0 
0 0 0 0 0 0 0 0 0 
0 0 0 0 0 0 0 0 0 
0 0 0 0 0 0 0 0 0 
0 0 0 0 0 0 0 0 0 
0 0 0 0 0 0 0 0 0 
0 0 0 0 0 0 0 0 0 
0 0 0 0 0 0 0 0 0 
0 0 0 0 0 0 0 0 0 
0 0 0 0 0 0 0 0 0 
0 0 0 0 0 0 0 0 0 
0 0 0 0 0 0 0 0 0 
0 0 0 0 0 0 0 0 0 
0 0 0 0 0 0 0 0 0 
0 0 0 0 0 0 0 0 0 
0 0 0 0 0 0 0 0 0 
0 0 0 0 0 0 0 0 0 
0 0 0 0 0 0 0 0 0 
0 0 0 0 0 0 0 0 0 
0 0 0 0 0 0 0 0 0 
0 0 0 0 0 0 0 0 0 
0 0 0 0 0 0 0 0 0 
0 0 0 0 0 0 0 0 0 
0 0 0 0 0 0 0 0 0 

v 3 1302 double
0.000104832 9.62034e-05 -1.5378e-05 3.82287e-05 -0.000116303 -5.90865e-05 -0.000187997 5.58747e-05 1.89454e-15 
-1.18456e-05 -4.02693e-05 -8.42927e-05 5.20578e-05 -0.000195052 7.99015e-06 -8.69905e-05 0.000117687 -1.25404e-05 
1.92555e-05 3.22367e-05 -8.78415e-05 6.85585e-05 -2.02604e-05 -0.000231869 0.000118161 -7.05114e-05 7.60549e-06 
0.00019841 -0.000124311 -1.92635e-05 -3.57993e-05 0.000150845 -1.88581e-05 -2.83053e-05 -2.40441e-05 -1.61368e-06 
-0.000172147 1.33564e-05 1.28395e-05 -0.000317037 -9.95197e-05 -6.61454e-05 -6.85817e-05 -0.000125169 7.1054e-08 
3.50862e-05 9.43842e-05 1.92855e-06 -2.82737e-05 -0.000205322 -9.99181e-05 9.9652e-05 2.65486e-05 4.82514e-05 
-7.78034e-05 4.73127e-05 -6.65903e-06 9.66656e-05 -3.14549e-05 -1.87422e-05 -0.000251849 4.63907e-05 -1.37183e-05 
-0.000255098 -9.34164e-05 -2.82437e-05 6.01826e-05 -0.000115094 3.71285e-07 0.000147015 -0.000197201 -5.72653e-06 
-5.24257e-05 6.06996e-09 1.20554e-05 0.000172608 3.14426e-05 -5.91323e-05 0.000191742 0.000121877 7.18885e-05 
0.000139524 -5.37703e-07 -9.48433e-06 -0.000163738 6.1863e-05 -4.1096e-05 -0.000190443 -6.24346e-05 9.36547e-06 
0.000160099 -0.000117733 4.19267e-06 -9.31581e-05 3.47921e-06 1.84821e-05 7.37741e-05 0.000156482 -4.92254e-07 
1.65915e-07 -0.00016672 1.0739e-05 -0.000137818 -6.42805e-06 -1.93253e-05 0.00012296 0.00019975 1.05084e-05 
-8.85012e-05 8.18011e-05 -5.92658e-06 -0.000154982 5.59502e-05 6.83609e-05 -0.000140749 -0.000134619 3.64889e-05 
-0.000216247 -4.079e-05 -0.000264519 0.000121905 0.000123154 1.51901e-15 -6.20387e-05 3.22297e-05 -9.15985e-06 
-1.90682e-05 -2.29428e-05 2.86017e-05 -9.23301e-05 1.39846e-05 -1.12645e-06 -8.27023e-05 -9.92361e-05 -0.000112802 
0.0001788 1.61861e-05 1.46544e-05 -0.000184413 0.000122858 4.25363e-05 -5.84425e-05 2.05577e-05 1.101e-05 
-1.08306e-05 -4.78642e-05 2.65086e-05 -9.29856e-06 0.000102742 3.50665e-06 -2.73266e-05 5.90644e-05 -4.53437e-05 
-4.18123e-05 9.09444e-05 -0.000219843 0.000141993 0.000102247 1.92265e-05 -5.39913e-05 0.000119829 3.68745e-05 
0.000103655 -4.57388e-05 5.35431e-06 -0.000175329 -0.000124488 2.27006e-15 -2.38433e-05 6.40838e-05 4.94808e-05 
-2.86674e-05 8.24709e-05 -2.31219e-05 -9.29694e-05 0.000102383 2.17939e-05 -0.000145376 -0.00010165 1.47436e-05 
-0.000120013 4.34436e-05 5.22755e-06 -8.28552e-05 0.000138311 -1.37763e-06 -4.11869e-05 3.54121e-05 -2.73672e-05 
1.42981e-05 1.11374e-05 2.33647e-05 8.01401e-05 -0.000151458 1.22932e-05 9.74657e-06 6.93959e-05 -1.01838e-05 
4.98545e-05 9.55322e-05 -7.70696e-05 7.02949e-05 3.99039e-05 -2.98138e-05 -0.000176774 -4.37065e-05 -5.66573e-05 
-0.000220294 -7.66251e-05 -7.58279e-05 -4.91892e-05 6.21945e-06 5.0299e-06 -5.32468e-06 9.60425e-05 -3.36534e-05 
5.77215e-05 -0.000166242 -5.03071e-06 0.000129217 6.91516e-05 -4.31165e-05 0.000114136 -6.77391e-05 -5.6298e-06 
-1.72193e-05 -5.60092e-05 -9.21051e-08 1.06386e-05 1.18412e-05 -2.61061e-09 -4.19358e-05 8.56997e-05 -0.000110757 
-0.000101447 2.55669e-05 1.86286e-05 -7.95256e-05 -2.78915e-05 -0.000120529 0.000162149 -2.37798e-05 -3.78253e-06 
1.99344e-05 -9.86409e-05 -2.75475e-05 2.11152e-05 5.18616e-05 -2.21041e-05 0.000152328 1.03552e-05 -1.57279e-05 
5.23755e-05 6.40512e-05 8.91621e-06 0.000113273 8.54836e-05 1.99742e-06 -6.75106e-05 -5.47576e-05 -5.69174e-06 