# vtk DataFile Version 4.0
Generated by LIGGGHTS
ASCII
DATASET POLYDATA
POINTS 676 float
-2.86983 -4.36089 2.75042 0.518694 -4.21969 2.02436 4.05029 -4.01541 2.61515 
-3.65082 -3.38597 2.57106 -1.26131 -3.54452 2.79057 1.56005 -3.14157 2.55612 
2.61323 -3.5425 2.82118 0.125219 -1.56383 2.70406 3.28485 -1.98368 2.01557 
4.21745 -1.00374 2.16299 -3.87717 -0.318466 2.77494 -2.8515 -0.799255 2.86523 
-0.701993 0.927345 2.53153 4.19726 0.746026 2.02176 2.99367 1.87399 2.46009 
-4.13001 2.146 2.1187 -2.309 2.44513 2.49714 0.395978 2.61026 2.15692 
1.38855 2.27547 2.66342 -0.596854 3.06914 2.47169 -3.14569 4.01572 2.06878 
0.729734 4.13758 2.33099 -4.39245 -4.31447 3.75977 3.03478 -4.49976 3.61069 
-2.71486 -3.18942 3.27993 0.605086 -3.76811 3.88126 -0.100007 -2.85847 3.4888 
0.836093 -2.30748 3.04011 -3.81459 -1.32984 3.31113 1.3991 -1.3347 3.03826 
2.79938 -1.95575 3.83763 4.16598 -1.88368 3.24059 -1.94206 -0.920279 3.86971 
-0.855993 -0.949301 3.02744 0.759117 -0.326288 2.98518 1.95486 -0.442233 2.90217 
-2.85263 0.237872 3.48547 -0.0347712 0.405222 3.81762 1.76398 0.540026 3.86175 
3.09254 0.403266 3.33739 -4.27519 1.05596 3.10387 -3.4893 1.95614 3.81229 
-1.95773 1.36012 3.04719 -0.934762 1.98212 3.61687 0.514418 1.71901 3.5511 
4.13347 1.60038 3.29856 3.68684 2.73017 3.08152 -4.47419 3.23216 3.1618 
1.74452 3.23358 3.5998 2.94782 3.67894 2.97428 4.23345 3.65417 3.17473 
-4.06013 4.41318 3.54272 -0.962804 4.0532 3.27329 -1.42728 -4.47504 4.43981 
1.40285 -4.2589 4.6074 4.14917 -4.41997 4.8983 -3.92389 -2.5619 3.99047 
-1.84548 -2.19817 3.95042 0.0781902 -2.09929 4.81997 4.23459 -2.97601 3.94629 
4.00029 -0.0375416 4.20973 -1.86357 0.389249 4.57086 2.39064 1.34563 4.03325 
3.53921 2.0775 4.92095 -2.78063 3.83223 3.99132 -1.3863 3.05908 4.01528 
0.472306 3.0418 4.22167 1.76649 4.40925 3.95696 -3.01497 -4.13065 5.40959 
0.46025 -4.14651 5.90218 2.13184 -4.1476 5.9402 -4.09316 -3.64865 5.59337 
-2.2072 -3.38691 4.99913 -0.614913 -3.30174 5.94796 0.864229 -3.20229 5.68517 
2.04912 -3.19568 5.01779 3.76628 -3.31576 5.60116 -4.34298 -2.5901 5.85358 
-3.24202 -2.54816 5.62976 -1.08131 -2.35817 5.40062 1.26818 -2.0897 4.95279 
2.89036 -2.63637 5.73214 4.31104 -2.10559 5.51302 -4.38409 -1.17765 5.0009 
-1.59297 -1.16854 5.86531 -0.209631 -1.18784 5.48291 2.16409 -1.37035 5.94427 
3.228 -1.20132 4.987 -3.55099 -0.38615 5.08502 -2.57339 -0.565158 5.68813 
0.686705 -0.293569 5.50071 1.69999 -0.0513624 5.80132 -4.45589 0.828845 5.82895 
-4.44297 1.86753 5.13275 -2.68747 1.31159 5.25205 0.35725 1.04419 5.90938 
1.38148 1.20338 5.39551 4.03519 1.02386 5.07609 -3.41856 2.69744 5.69611 
-1.40783 2.30095 5.61426 0.654154 2.06521 5.48558 2.2394 2.53911 5.30003 
4.19628 2.74924 5.62761 -3.40423 3.82202 5.87747 -2.22986 3.07703 5.13544 
-1.53567 3.87775 5.45662 -0.531973 3.94857 5.62894 1.81472 3.93507 5.89032 
2.88647 3.99065 5.43382 4.05386 3.87726 5.54285 -4.37972 4.14117 5.88295 
0.779639 4.19225 5.51992 -1.10306 -4.23406 6.63802 -3.38313 -1.3672 5.97874 
-0.455917 -0.2236 6.05773 2.80176 -0.036423 6.07275 3.87494 -0.472461 5.97754 
-3.45904 0.503094 6.03873 -1.1372 0.903847 6.05017 2.3348 1.28732 6.03833 
4.04343 1.74673 6.86781 -0.282212 2.39552 6.15222 3.16957 2.9705 6.0681 
-4.40534 -4.44547 7.13776 -2.71248 -4.12826 7.68045 -3.65275 -3.58305 7.85965 
-1.62063 -3.15841 7.25545 -0.189913 -3.86751 7.6418 1.08292 -3.79961 7.76076 
2.98124 -3.71561 7.14656 4.13444 -3.71435 7.45811 -4.46703 -2.97179 7.86383 
-2.879 -2.78606 7.772 -0.71201 -2.08566 7.11133 0.311035 -2.73112 7.87267 
1.3659 -2.82923 7.60996 2.44337 -2.34665 7.87985 4.14164 -2.21447 7.49396 
-4.09201 -1.89406 7.86514 -2.50451 -1.84749 7.49308 -0.274688 -1.15929 7.42572 
1.33953 -1.25795 7.62305 3.13643 -1.18467 7.58137 -3.86606 -0.560827 7.22963 
-2.08673 -0.157003 7.6595 -1.17899 -0.717647 7.47236 2.1624 -0.442815 7.45916 
-4.16463 0.61736 7.67078 -0.423074 0.487533 7.47423 0.581922 0.345406 7.91403 
1.79385 0.490052 7.58658 3.09982 0.856622 7.9225 4.46022 0.0576785 7.60807 
-3.71291 1.48262 7.0029 -2.19277 1.24584 7.04604 -0.660258 1.80028 7.58894 
1.21839 1.54541 7.59384 2.97278 1.80676 7.25356 -4.0787 2.92142 7.60358 
-3.20377 2.34284 7.83244 -1.67784 2.88772 7.39904 0.4333 2.30249 7.82337 
2.09837 2.41592 7.22436 -4.41229 3.98901 7.81395 -2.33235 3.72421 6.99786 
0.108077 3.6926 7.22159 1.29856 3.01013 7.87033 2.88194 3.90461 7.50936 
4.28804 3.27578 7.31472 -3.06268 4.41706 7.35986 -1.11972 4.22412 7.6005 
1.19471 4.32354 7.77784 4.27642 4.36265 7.62469 -1.62651 -4.33285 8.58698 
-1.4656 -2.12735 8.6519 -0.690634 -2.80793 8.61019 -4.04965 -1.06631 8.98771 
0.044931 -0.728519 8.97655 -3.12872 0.68349 9.01205 -1.49487 0.842463 8.60593 
-3.42976 -4.2455 9.74051 -2.33781 -4.12823 10.007 1.02704 -4.45466 9.70053 
2.62946 -4.24514 9.49599 -3.30001 -3.25171 9.50002 -1.83322 -3.18341 9.63778 
-0.545713 -3.85504 9.63494 0.501731 -3.57654 9.27971 1.91078 -3.19628 9.0291 
3.57133 -3.14799 9.72974 4.46733 -3.64532 9.37643 -4.46464 -2.16021 9.48688 
-2.34618 -2.1473 9.65396 0.908524 -2.40029 9.22279 4.38433 -2.36736 9.26793 
-3.50469 -1.83685 9.67344 -2.52748 -1.00118 9.54881 -0.535139 -1.54067 9.08803 
1.83383 -1.54707 9.29377 3.01137 -1.43991 9.68626 4.05553 -1.02814 9.33125 
-4.22803 -0.15766 9.72161 -1.32146 -0.760165 9.6872 1.08036 -0.645759 9.61893 
-1.96062 0.0488463 9.42995 -0.521165 0.150845 9.40701 1.84003 0.0355093 9.6576 
3.21694 0.417552 9.66338 4.40565 0.826357 9.56275 -4.09358 1.52853 9.59766 
-1.71034 1.78066 9.19417 -0.526029 1.14437 9.02965 0.529071 1.38381 9.57761 
2.58886 1.51818 9.13686 -2.58522 2.26172 9.49248 -0.191308 2.43527 9.29984 
1.39294 2.4173 9.49631 3.20144 2.76346 9.43665 4.34336 2.56541 9.462 
-4.41814 3.41137 9.44632 -3.44119 3.12284 9.29433 -2.36372 3.72735 9.15935 
-1.28861 3.036 9.61149 -0.474659 3.91307 9.16645 1.12095 3.93384 9.54499 
-3.55439 4.27696 9.14888 2.60934 4.15439 9.26668 4.17896 4.23781 9.66408 
-4.37031 -4.4062 10.4838 4.41589 -4.38604 10.8841 1.27539 -3.3641 10.8142 
-1.02252 -2.69312 10.2983 0.0178133 -2.74125 10.7275 2.54534 -2.20802 10.6184 
-1.40755 -1.72813 10.6674 0.368357 -1.81727 10.2807 1.74095 -1.14548 11.0751 
3.66797 -1.8367 10.9349 -4.44502 0.758801 10.5509 -1.24652 1.51684 10.9187 
1.64763 1.64862 10.9278 -3.6579 3.347 10.9358 -0.385313 3.3515 10.8025 
2.65935 3.15365 11.0702 4.25973 3.28708 10.833 -1.62506 4.45534 11.0531 
1.61631 4.48099 10.9722 3.28209 4.16793 10.5732 -1.80024 -4.46971 11.3819 
-0.775399 -4.15253 11.3708 -4.2242 -3.15793 11.3785 -3.18857 -3.60472 11.3413 
0.3214 -3.78122 11.0952 2.48525 -3.57702 11.2726 3.58601 -3.54007 11.3489 
-2.88228 -2.46864 11.412 -1.82161 -2.97696 11.375 -0.775582 -2.76034 11.9636 
1.40503 -2.21404 11.3548 4.43031 -2.65651 11.197 -4.44824 -1.92366 11.1732 
-3.21558 -1.22702 11.4044 -2.21844 -1.03305 11.3418 -0.372403 -1.55137 11.4031 
2.88346 -1.02821 11.2671 -3.54522 -0.195935 11.3957 -0.601509 -0.576258 11.3092 
0.481229 -0.678517 11.1963 4.35246 -0.211247 11.3457 -2.31378 0.652999 11.3846 
-0.841943 0.456573 11.2656 0.760613 0.950757 11.0757 1.96681 0.0325421 11.4228 
3.0628 0.224778 11.4121 -3.31937 1.1027 11.1016 -2.40884 1.88238 11.1395 
2.78233 1.34625 11.4023 3.95473 1.86453 11.1566 -3.98285 2.22176 11.2613 
-0.566183 2.27159 11.378 0.391698 2.75651 11.3266 2.31165 2.37456 11.991 
-1.86415 3.37671 11.2546 1.49947 3.08015 11.4008 -4.41774 4.04246 11.403 
-2.88926 4.46792 11.1376 0.0833131 4.3604 11.2914 -3.59979 -4.41508 12.239 
-0.85346 -4.1805 12.9627 0.804985 -4.24466 12.3786 3.06524 -4.32246 12.2792 
4.03388 -4.21531 12.93 -3.48488 -3.25631 12.9592 -2.17539 -3.71592 12.9471 
1.69894 -3.60086 12.7978 3.11526 -3.20989 12.905 -4.16905 -2.49172 12.8393 
-1.88402 -2.64915 12.9191 0.679281 -2.94409 12.2135 2.32293 -2.63878 12.1138 
3.19324 -2.19311 12.8103 4.48247 -2.5268 12.8547 -3.78897 -1.50652 12.702 
-2.88885 -1.03354 12.8988 -1.24359 -1.8959 12.2878 -0.313578 -1.89941 12.9824 
0.66852 -1.62627 12.5292 2.12786 -1.28646 13.0003 4.38205 -1.17805 12.3566 
-4.38262 -0.177783 12.5416 -1.5851 -0.422284 12.9738 -0.436688 -0.470933 13.0144 
0.755108 -0.667197 12.9707 3.67122 -0.487347 12.5704 -4.40959 0.925727 12.245 
-1.46158 0.722843 12.7888 0.357497 0.259719 12.9707 2.42508 0.0147207 12.9852 
4.36993 0.909648 12.9743 -3.24464 1.22741 12.8515 -2.06966 1.68966 12.6446 
0.04762 1.9025 12.7195 1.29846 1.12127 12.9269 3.17868 1.40398 13.0113 
-4.32849 2.90663 12.9466 -2.7768 2.46104 12.5166 -1.15405 2.54523 12.6028 
1.05612 2.78433 12.7598 3.7623 2.62725 12.6859 -4.14876 3.90627 12.9601 
-3.00324 3.42397 12.7943 -1.61394 3.75724 12.8222 -0.447028 3.88061 12.6439 
2.3398 3.82474 12.1955 3.8801 3.79753 12.8732 0.930522 4.04386 12.4481 
3.12572 4.45244 12.2346 -4.32603 -3.98923 13.3981 -4.35477 -3.05111 14.1482 
0.799384 -3.46943 13.833 2.39312 -3.01955 14.0246 4.32106 -3.38831 13.8131 
-3.18021 -2.24953 13.598 0.976034 -2.05343 13.9576 3.72085 -1.33456 14.0112 
1.64267 -0.45296 13.8817 2.82579 -0.602224 14.096 -4.33231 0.190842 14.0984 
-2.53071 0.283738 13.5587 -0.620382 1.313 13.9097 -1.95629 2.58724 14.0242 
-3.12006 4.31446 13.5558 -1.98134 4.42807 14.0177 -4.495 -4.20759 14.9268 
-3.34954 -4.17827 14.4982 -1.73938 -4.4346 14.2298 -0.256302 -4.17273 14.2274 
0.808126 -4.37495 14.5921 2.02427 -4.30468 14.2384 -2.59005 -3.2489 14.3017 
-1.1686 -3.61115 14.2867 3.26142 -3.83697 14.3574 -3.17777 -2.33575 15.1643 
-2.09569 -2.36953 14.3421 -1.181 -2.29451 15.0824 -0.472379 -2.86622 14.2051 
4.173 -2.46078 14.4968 -3.85608 -1.61052 14.2188 -1.52978 -1.46293 14.3415 
1.80939 -1.16273 14.9646 2.71109 -1.77727 14.3697 -3.57366 -0.635516 14.2125 
-2.45996 -0.626045 14.2715 -0.0363289 -0.775526 14.3801 3.74685 -0.133939 14.4129 
-3.21135 0.670472 14.4833 -1.1372 0.195211 14.2175 0.56949 0.254972 14.604 
1.58336 0.710768 14.2956 -4.40258 1.97099 14.3849 -2.37532 1.40719 14.4707 
0.48654 1.32164 14.47 2.6109 1.12611 14.2977 3.72086 1.24635 14.4146 
-3.379 2.1075 14.1786 -0.881744 2.24874 14.3239 0.370273 2.4239 14.4882 
[...]
POINT_DATA 676
FIELD FieldData 7
id 1 676 int
17 50 29 60 7 28 51 18 14 
43 54 15 42 46 47 52 8 13 
6 34 57 39 48 31 12 23 11 
56 27 22 59 20 19 1 26 4 
37 16 35 2 33 3 21 25 55 
36 41 9 44 5 38 58 32 88 
115 112 49 45 83 24 114 80 53 
95 10 40 96 30 62 106 89 120 
69 77 100 93 64 103 79 104 102 
70 109 67 61 85 82 78 65 117 
98 91 101 68 71 113 119 97 94 
84 74 63 81 87 118 111 90 116 
72 76 107 75 126 99 105 86 66 
108 73 110 128 122 92 161 151 127 
129 148 168 136 123 166 172 132 140 
157 160 135 164 155 147 150 159 139 
143 169 158 167 125 124 171 137 130 
153 133 146 131 163 134 142 121 173 
138 162 152 144 154 149 170 165 141 
156 145 214 174 220 224 227 190 187 
189 284 221 198 194 210 195 199 213 
197 205 212 225 180 223 217 191 204 
207 179 196 208 184 177 216 188 181 
215 193 176 203 226 218 186 183 200 
201 175 211 219 222 185 182 206 209 
178 202 192 260 231 253 248 249 241 
283 285 279 247 271 232 239 252 276 
235 278 267 268 242 244 281 262 280 
255 245 233 272 266 303 228 282 234 
274 264 254 269 258 257 230 270 250 
277 238 273 256 265 259 261 236 243 
246 240 297 229 275 251 263 237 291 
310 320 316 336 333 321 322 319 288 
312 289 318 287 302 335 323 324 330 
298 305 313 295 317 337 329 309 304 
308 301 334 331 326 299 311 294 300 
296 314 315 286 293 292 325 328 290 
327 306 307 332 346 389 343 339 344 
375 342 354 355 383 373 359 393 374 
376 382 431 349 380 377 398 364 350 
348 341 400 384 420 371 356 370 360 
440 391 368 358 378 369 338 361 421 
387 379 372 347 367 352 353 366 362 
340 388 385 390 381 345 392 357 363 
365 351 386 426 428 422 404 399 443 
405 396 417 433 432 442 439 411 402 
427 415 419 408 407 401 434 414 444 
437 435 429 394 459 412 424 418 461 
403 438 423 430 395 406 445 409 413 
436 416 397 410 441 425 468 484 446 
478 477 501 455 500 492 482 457 481 
485 456 448 460 465 488 490 462 472 
453 503 458 498 471 493 499 474 480 
475 469 470 463 449 447 452 450 479 
489 497 496 454 483 473 486 451 487 
491 495 466 494 502 464 467 476 513 
557 539 514 518 542 553 536 507 544 
533 555 538 548 528 556 510 549 515 
550 534 537 525 554 541 512 524 531 
519 543 546 504 551 545 520 532 516 
540 558 616 611 569 572 608 570 529 
505 563 581 508 568 593 535 506 564 
527 517 614 573 522 552 596 567 509 
591 609 600 574 577 617 521 598 526 
599 511 562 584 523 530 578 565 575 
547 602 615 642 643 576 669 631 589 
571 586 588 636 582 633 654 587 579 
595 610 658 675 607 651 676 594 630 
580 647 624 561 653 560 605 612 627 
640 601 619 662 629 613 559 566 583 
666 622 597 585 603 650 623 639 604 
667 606 638 590 592 659 661 672 626 
648 668 632 655 634 649 670 665 625 
618 646 664 660 635 621 641 674 671 
673 656 644 628 663 620 657 637 652 
645 
type 1 676 int
1 1 1 1 1 1 1 1 1 
1 1 1 1 1 1 1 1 1 
1 1 1 1 1 1 1 1 1 
1 1 1 1 1 1 1 1 1 
1 1 1 1 1 1 1 1 1 
1 1 1 1 1 1 1 1 1 
1 1 1 1 1 1 1 1 1 
1 1 1 1 1 1 1 1 1 
1 1 1 1 1 1 1 1 1 
1 1 1 1 1 1 1 1 1 
1 1 1 1 1 1 1 1 1 
1 1 1 1 1 1 1 1 1 
1 1 1 1 1 1 1 1 1 
1 1 1 1 1 1 1 1 1 
1 1 1 1 1 1 1 1 1 
1 1 1 1 1 1 1 1 1 
1 1 1 1 1 1 1 1 1 
1 1 1 1 1 1 1 1 1 
1 1 1 1 1 1 1 1 1 
1 1 1 1 1 1 1 1 1 
1 1 1 1 1 1 1 1 1 
1 1 1 1 1 1 1 1 1 
1 1 1 1 1 1 1 1 1 
1 1 1 1 1 1 1 1 1 
1 1 1 1 1 1 1 1 1 
1 1 1 1 1 1 1 1 1 
1 1 1 1 1 1 1 1 1 
1 1 1 1 1 1 1 1 1 
1 1 1 1 1 1 1 1 1 
1 1 1 1 1 1 1 1 1 
1 1 1 1 1 1 1 1 1 
1 1 1 1 1 1 1 1 1 
1 1 1 1 1 1 1 1 1 
1 1 1 1 1 1 1 1 1 
1 1 1 1 1 1 1 1 1 
1 1 1 1 1 1 1 1 1 
1 1 1 1 1 1 1 1 1 
1 1 1 1 1 1 1 1 1 
1 1 1 1 1 1 1 1 1 
1 1 1 1 1 1 1 1 1 
1 1 1 1 1 1 1 1 1 
1 1 1 1 1 1 1 1 1 
1 1 1 1 1 1 1 1 1 
1 1 1 1 1 1 1 1 1 
1 1 1 1 1 1 1 1 1 
1 1 1 1 1 1 1 1 1 
1 1 1 1 1 1 1 1 1 
1 1 1 1 1 1 1 1 1 
1 1 1 1 1 1 1 1 1 
1 1 1 1 1 1 1 1 1 
1 1 1 1 1 1 1 1 1 
1 1 1 1 1 1 1 1 1 
1 1 1 1 1 1 1 1 1 
1 1 1 1 1 1 1 1 1 
1 1 1 1 1 1 1 1 1 
1 1 1 1 1 1 1 1 1 
1 1 1 1 1 1 1 1 1 
1 1 1 1 1 1 1 1 1 
1 1 1 1 1 1 1 1 1 
1 1 1 1 1 1 1 1 1 
1 1 1 1 1 1 1 1 1 
1 1 1 1 1 1 1 1 1 
1 1 1 1 1 1 1 1 1 
1 1 1 1 1 1 1 1 1 
1 1 1 1 1 1 1 1 1 
1 1 1 1 1 1 1 1 1 
1 1 1 1 1 1 1 1 1 
1 1 1 1 1 1 1 1 1 
1 1 1 1 1 1 1 1 1 
1 1 1 1 1 1 1 1 1 
1 1 1 1 1 1 1 1 1 
1 1 1 1 1 1 1 1 1 
1 1 1 1 1 1 1 1 1 
1 1 1 1 1 1 1 1 1 
1 1 1 1 1 1 1 1 1 
1 
i 3 676 int
0 0 0 0 0 0 0 0 0 
0 0 0 0 0 0 0 0 0 
0 0 0 0 0 0 0 0 0 
0 0 0 0 0 0 0 0 0 
0 0 0 0 0 0 0 0 0 
0 0 0 0 0 0 0 0 0 
0 0 0 0 0 0 0 0 0 
0 0 0 0 0 0 0 0 0 
0 0 0 0 0 0 0 0 0 
0 0 0 0 0 0 0 0 0 
0 0 0 0 0 0 0 0 0 
0 0 0 0 0 0 0 0 0 
0 0 0 0 0 0 0 0 0 
0 0 0 0 0 0 0 0 0 
0 0 0 0 0 0 0 0 0 
0 0 0 0 0 0 0 0 0 
0 0 0 0 0 0 0 0 0 
0 0 0 0 0 0 0 0 0 
0 0 0 0 0 0 0 0 0 
0 0 0 0 0 0 0 0 0 
0 0 0 0 0 0 0 0 0 
0 0 0 0 0 0 0 0 0 
0 0 0 0 0 0 0 0 0 
0 0 0 0 0 0 0 0 0 
0 0 0 0 0 0 0 0 0 
0 0 0 0 0 0 0 0 0 
0 0 0 0 0 0 0 0 0 
0 0 0 0 0 0 0 0 0 
0 0 0 0 0 0 0 0 0 
0 0 0 0 0 0 0 0 0 
0 0 0 0 0 0 0 0 0 
0 0 0 0 0 0 0 0 0 
0 0 0 0 0 0 0 0 0 
0 0 0 0 0 0 0 0 0 
0 0 0 0 0 0 0 0 0 
0 0 0 0 0 0 0 0 0 
0 0 0 0 0 0 0 0 0 
0 0 0 0 0 0 0 0 0 
0 0 0 0 0 0 0 0 0 
0 0 0 0 0 0 0 0 0 
0 0 0 0 0 0 0 0 0 
0 0 0 0 0 0 0 0 0 
0 0 0 0 0 0 0 0 0 
0 0 0 0 0 0 0 0 0 
0 0 0 0 0 0 0 0 0 
0 0 0 0 0 0 0 0 0 
0 0 0 0 0 0 0 0 0 
0 0 0 0 0 0 0 0 0 
0 0 0 0 0 0 0 0 0 
0 0 0 0 0 0 0 0 0 
0 0 0 0 0 0 0 0 0 
0 0 0 0 0 0 0 0 0 
0 0 0 0 0 0 0 0 0 
0 0 0 0 0 0 0 0 0 
0 0 0 0 0 0 0 0 0 
0 0 0 0 0 0 0 0 0 
0 0 0 0 0 0 0 0 0 
0 0 0 0 0 0 0 0 0 
0 0 0 0 0 0 0 0 0 
0 0 0 0 0 0 0 0 0 
0 0 0 0 0 0 0 0 0 
0 0 0 0 0 0 0 0 0 
0 0 0 0 0 0 0 0 0 
0 0 0 0 0 0 0 0 0 
0 0 0 0 0 0 0 0 0 
0 0 0 0 0 0 0 0 0 
0 0 0 0 0 0 0 0 0 
0 0 0 0 0 0 0 0 0 
0 0 0 0 0 0 0 0 0 
0 0 0 0 0 0 0 0 0 
0 0 0 0 0 0 0 0 0 
0 0 0 0 0 0 0 0 0 
0 0 0 0 0 0 0 0 0 
0 0 0 0 0 0 0 0 0 
0 0 0 0 0 0 0 0 0 
0 0 0 0 0 0 0 0 0 
0 0 0 0 0 0 0 0 0 
0 0 0 0 0 0 0 0 0 
0 0 0 0 0 0 0 0 0 
0 0 0 0 0 0 0 0 0 
0 0 0 0 0 0 0 0 0 
0 0 0 0 0 0 0 0 0 
0 0 0 0 0 0 0 0 0 
0 0 0 0 0 0 0 0 0 
0 0 0 0 0 0 0 0 0 
0 0 0 0 0 0 0 0 0 
0 0 0 0 0 0 0 0 0 
0 0 0 0 0 0 0 0 0 
0 0 0 0 0 0 0 0 0 
0 0 0 0 0 0 0 0 0 
0 0 0 0 0 0 0 0 0 
0 0 0 0 0 0 0 0 0 
0 0 0 0 0 0 0 0 0 
0 0 0 0 0 0 0 0 0 
0 0 0 0 0 0 0 0 0 
0 0 0 0 0 0 0 0 0 
0 0 0 0 0 0 0 0 0 
0 0 0 0 0 0 0 0 0 
0 0 0 0 0 0 0 0 0 
0 0 0 0 0 0 0 0 0 
0 0 0 0 0 0 0 0 0 
0 0 0 0 0 0 0 0 0 
0 0 0 0 0 0 0 0 0 
0 0 0 0 0 0 0 0 0 
0 0 0 0 0 0 0 0 0 
0 0 0 0 0 0 0 0 0 
0 0 0 0 0 0 0 0 0 
0 0 0 0 0 0 0 0 0 
0 0 0 0 0 0 0 0 0 
0 0 0 0 0 0 0 0 0 
0 0 0 0 0 0 0 0 0 
0 0 0 0 0 0 0 0 0 
0 0 0 0 0 0 0 0 0 
0 0 0 0 0 0 0 0 0 
0 0 0 0 0 0 0 0 0 
0 0 0 0 0 0 0 0 0 
0 0 0 0 0 0 0 0 0 
0 0 0 0 0 0 0 0 0 
0 0 0 0 0 0 0 0 0 
0 0 0 0 0 0 0 0 0 
0 0 0 0 0 0 0 0 0 
0 0 0 0 0 0 0 0 0 
0 0 0 0 0 0 0 0 0 
0 0 0 0 0 0 0 0 0 
0 0 0 0 0 0 0 0 0 
0 0 0 0 0 0 0 0 0 
0 0 0 0 0 0 0 0 0 
0 0 0 0 0 0 0 0 0 
0 0 0 0 0 0 0 0 0 
0 0 0 0 0 0 0 0 0 
0 0 0 0 0 0 0 0 0 
0 0 0 0 0 0 0 0 0 
0 0 0 0 0 0 0 0 0 
0 0 0 0 0 0 0 0 0 
0 0 0 0 0 0 0 0 0 
0 0 0 0 0 0 0 0 0 
0 0 0 0 0 0 0 0 0 
0 0 0 0 0 0 0 0 0 
0 0 0 0 0 0 0 0 0 
0 0 0 0 0 0 0 0 0 
0 0 0 0 0 0 0 0 0 
0 0 0 0 0 0 0 0 0 
0 0 0 0 0 0 0 0 0 
0 0 0 0 0 0 0 0 0 
0 0 0 0 0 0 0 0 0 
0 0 0 0 0 0 0 0 0 
0 0 0 0 0 0 0 0 0 
0 0 0 0 0 0 0 0 0 
0 0 0 0 0 0 0 0 0 
0 0 0 0 0 0 0 0 0 
0 0 0 0 0 0 0 0 0 
0 0 0 0 0 0 0 0 0 
0 0 0 0 0 0 0 0 0 
0 0 0 0 0 0 0 0 0 
0 0 0 0 0 0 0 0 0 
0 0 0 0 0 0 0 0 0 
0 0 0 0 0 0 0 0 0 
0 0 0 0 0 0 0 0 0 
0 0 0 0 0 0 0 0 0 
0 0 0 0 0 0 0 0 0 
0 0 0 0 0 0 0 0 0 
0 0 0 0 0 0 0 0 0 
0 0 0 0 0 0 0 0 0 
0 0 0 0 0 0 0 0 0 
0 0 0 0 0 0 0 0 0 
0 0 0 0 0 0 0 0 0 
0 0 0 0 0 0 0 0 0 
0 0 0 0 0 0 0 0 0 
0 0 0 0 0 0 0 0 0 
0 0 0 0 0 0 0 0 0 
0 0 0 0 0 0 0 0 0 
0 0 0 0 0 0 0 0 0 
0 0 0 0 0 0 0 0 0 
0 0 0 0 0 0 0 0 0 
0 0 0 0 0 0 0 0 0 
0 0 0 0 0 0 0 0 0 
0 0 0 0 0 0 0 0 0 
0 0 0 0 0 0 0 0 0 
0 0 0 0 0 0 0 0 0 
0 0 0 0 0 0 0 0 0 
0 0 0 0 0 0 0 0 0 
0 0 0 0 0 0 0 0 0 
0 0 0 0 0 0 0 0 0 
0 0 0 0 0 0 0 0 0 
0 0 0 0 0 0 0 0 0 
0 0 0 0 0 0 0 0 0 
0 0 0 0 0 0 0 0 0 
0 0 0 0 0 0 0 0 0 
0 0 0 0 0 0 0 0 0 
0 0 0 0 0 0 0 0 0 
0 0 0 0 0 0 0 0 0 
0 0 0 0 0 0 0 0 0 
0 0 0 0 0 0 0 0 0 
0 0 0 0 0 0 0 0 0 
0 0 0 0 0 0 0 0 0 
0 0 0 0 0 0 0 0 0 
0 0 0 0 0 0 0 0 0 
0 0 0 0 0 0 0 0 0 
0 0 0 0 0 0 0 0 0 
0 0 0 0 0 0 0 0 0 
0 0 0 0 0 0 0 0 0 
0 0 0 0 0 0 0 0 0 
0 0 0 0 0 0 0 0 0 
0 0 0 0 0 0 0 0 0 
0 0 0 0 0 0 0 0 0 
0 0 0 0 0 0 0 0 0 
0 0 0 0 0 0 0 0 0 
0 0 0 0 0 0 0 0 0 
0 0 0 0 0 0 0 0 0 
0 0 0 0 0 0 0 0 0 
0 0 0 0 0 0 0 0 0 
0 0 0 0 0 0 0 0 0 
0 0 0 0 0 0 0 0 0 
0 0 0 0 0 0 0 0 0 
0 0 0 0 0 0 0 0 0 
0 0 0 0 0 0 0 0 0 
0 0 0 0 0 0 0 0 0 
0 0 0 0 0 0 0 0 0 
0 0 0 0 0 0 0 0 0 
0 0 0 0 0 0 0 0 0 
0 0 0 0 0 0 0 0 0 
0 0 0 0 0 0 0 0 0 
0 0 0 0 0 0 0 0 0 
0 0 0 0 0 0 0 0 0 
0 0 0 0 0 0 0 0 0 
0 0 0 
v 3 676 double
0 0 -0.0209389 0 0 -0.0212763 0 0 -0.0210022 
0 0 -0.0210228 0 0 -0.0209201 0 0 -0.0210297 
0 0 -0.0209057 0 0 -0.0209606 0 0 -0.0212804 
0 0 -0.0212123 0 0 -0.0209274 0 0 -0.020885 
0 0 -0.0210412 0 0 -0.0212775 0 0 -0.0210745 
0 0 -0.0212328 0 0 -0.0210572 0 0 -0.0212151 
0 0 -0.0209796 0 0 -0.0210691 0 0 -0.0212558 
0 0 -0.0211345 0 0 -0.0204606 0 0 -0.0205319 
0 0 -0.0206893 0 0 -0.0204022 0 0 -0.02059 
0 0 -0.0208027 0 0 -0.0206745 0 0 -0.0208036 
0 0 -0.0204232 0 0 -0.020708 0 0 -0.0204078 
0 0 -0.0208087 0 0 -0.0208286 0 0 -0.0208677 
0 0 -0.0205916 0 0 -0.0204328 0 0 -0.0204116 
0 0 -0.020662 0 0 -0.0207726 0 0 -0.0204353 
0 0 -0.0207994 0 0 -0.0205289 0 0 -0.0205603 
0 0 -0.0206805 0 0 -0.0207832 0 0 -0.0207452 
0 0 -0.0205371 0 0 -0.0208337 0 0 -0.0207392 
0 0 -0.0205643 0 0 -0.0206925 0 0 -0.0201318 
0 0 -0.02005 0 0 -0.0199072 0 0 -0.0203496 
0 0 -0.0203689 0 0 -0.0199457 0 0 -0.0203709 
0 0 -0.0202437 0 0 -0.0200679 0 0 -0.020329 
0 0 -0.019896 0 0 -0.0203492 0 0 -0.0203376 
0 0 -0.0202379 0 0 -0.0203658 0 0 -0.0196536 
0 0 -0.0194062 0 0 -0.0193869 0 0 -0.0195617 
0 0 -0.0198574 0 0 -0.019383 0 0 -0.0195156 
0 0 -0.0198482 0 0 -0.0195577 0 0 -0.0194307 
0 0 -0.0195434 0 0 -0.0196581 0 0 -0.0198803 
0 0 -0.0194919 0 0 -0.0196019 0 0 -0.0198565 
0 0 -0.0194248 0 0 -0.019617 0 0 -0.0193849 
0 0 -0.0198634 0 0 -0.019815 0 0 -0.0195141 
0 0 -0.0196081 0 0 -0.0194571 0 0 -0.0194432 
0 0 -0.0197913 0 0 -0.0197321 0 0 -0.0194025 
0 0 -0.0196606 0 0 -0.0198194 0 0 -0.0195101 
0 0 -0.0195512 0 0 -0.0196156 0 0 -0.0197082 
0 0 -0.0195445 0 0 -0.0194186 0 0 -0.0197899 
0 0 -0.0196301 0 0 -0.0195438 0 0 -0.0194122 
0 0 -0.0196415 0 0 -0.019587 0 0 -0.0194159 
0 0 -0.0195984 0 0 -0.0190305 0 0 -0.0193674 
0 0 -0.0193274 0 0 -0.0193197 0 0 -0.019368 
0 0 -0.019337 0 0 -0.0193312 0 0 -0.0193372 
0 0 -0.0189117 0 0 -0.0192793 0 0 -0.0193221 
0 0 -0.0187712 0 0 -0.0184854 0 0 -0.0183901 
0 0 -0.0187096 0 0 -0.0185059 0 0 -0.0184427 
0 0 -0.0187666 0 0 -0.018603 0 0 -0.0183878 
0 0 -0.0184367 0 0 -0.018785 0 0 -0.0183831 
0 0 -0.0185228 0 0 -0.0183793 0 0 -0.0185841 
0 0 -0.0183871 0 0 -0.0185846 0 0 -0.0186201 
0 0 -0.0185158 0 0 -0.0185379 0 0 -0.0187231 
0 0 -0.0184965 0 0 -0.0185955 0 0 -0.0186024 
0 0 -0.0184905 0 0 -0.0185945 0 0 -0.018361 
0 0 -0.0185351 0 0 -0.0183565 0 0 -0.0185238 
0 0 -0.0188415 0 0 -0.018819 0 0 -0.0185339 
0 0 -0.0185313 0 0 -0.0187105 0 0 -0.0185261 
0 0 -0.0184046 0 0 -0.0186341 0 0 -0.0184094 
0 0 -0.0187258 0 0 -0.0184144 0 0 -0.0188442 
0 0 -0.0187273 0 0 -0.0183844 0 0 -0.018576 
0 0 -0.0186785 0 0 -0.0186547 0 0 -0.0185278 
0 0 -0.0184336 0 0 -0.0185149 0 0 -0.0179978 
0 0 -0.0179624 0 0 -0.0179852 0 0 -0.0177781 
0 0 -0.0177843 0 0 -0.0177647 0 0 -0.0179875 
0 0 -0.0173577 0 0 -0.0172065 0 0 -0.0173803 
0 0 -0.0174954 0 0 -0.0174931 0 0 -0.0174157 
0 0 -0.0174173 0 0 -0.0176162 0 0 -0.0177552 
0 0 -0.0173638 0 0 -0.0175623 0 0 -0.0175005 
0 0 -0.0174066 0 0 -0.0176479 0 0 -0.0176228 
0 0 -0.0173956 0 0 -0.0174658 0 0 -0.0177227 
0 0 -0.0176084 0 0 -0.0173884 0 0 -0.0175875 
0 0 -0.0173684 0 0 -0.0173879 0 0 -0.0174263 
0 0 -0.0175324 0 0 -0.0175452 0 0 -0.0174045 
0 0 -0.0174013 0 0 -0.0174579 0 0 -0.0174383 
0 0 -0.0176638 0 0 -0.017755 0 0 -0.0174496 
0 0 -0.0176956 0 0 -0.0174973 0 0 -0.0176051 
0 0 -0.0174952 0 0 -0.0175286 0 0 -0.0175144 
0 0 -0.0175232 0 0 -0.0176081 0 0 -0.0176831 
0 0 -0.0174305 0 0 -0.0176792 0 0 -0.0174679 
0 0 -0.0176889 0 0 -0.0176235 0 0 -0.0174009 
0 0 -0.0169325 0 0 -0.0166989 0 0 -0.0167399 
0 0 -0.0170396 0 0 -0.0167906 0 0 -0.0168543 
0 0 -0.0168257 0 0 -0.0170497 0 0 -0.0165863 
0 0 -0.0166691 0 0 -0.0168935 0 0 -0.0166786 
0 0 -0.0166732 0 0 -0.0166685 0 0 -0.0167468 
0 0 -0.0165892 0 0 -0.0167289 0 0 -0.0165993 
0 0 -0.0166471 0 0 -0.0168806 0 0 -0.0164039 
0 0 -0.0164105 0 0 -0.0164059 0 0 -0.0164281 
0 0 -0.0165744 0 0 -0.0164692 0 0 -0.0164236 
0 0 -0.0163859 0 0 -0.016408 0 0 -0.0160522 
0 0 -0.0164201 0 0 -0.0165141 0 0 -0.0165282 
0 0 -0.0163904 0 0 -0.0164279 0 0 -0.0163912 
0 0 -0.0164724 0 0 -0.0163956 0 0 -0.0164473 
0 0 -0.0165145 0 0 -0.0164255 0 0 -0.0164023 
0 0 -0.0164733 0 0 -0.016586 0 0 -0.0163794 
0 0 -0.0163858 0 0 -0.0165707 0 0 -0.0165482 
0 0 -0.0163917 0 0 -0.016538 0 0 -0.0164758 
0 0 -0.0164062 0 0 -0.0164369 0 0 -0.0160355 
0 0 -0.0164798 0 0 -0.0163925 0 0 -0.0163913 
0 0 -0.0165493 0 0 -0.0164579 0 0 -0.015883 
0 0 -0.0154296 0 0 -0.0157966 0 0 -0.0158582 
0 0 -0.0154504 0 0 -0.0154318 0 0 -0.0154395 
0 0 -0.0155341 0 0 -0.0154662 0 0 -0.0155079 
0 0 -0.0154573 0 0 -0.0158988 0 0 -0.0159602 
0 0 -0.0155262 0 0 -0.0154981 0 0 -0.0155945 
0 0 -0.0154701 0 0 -0.0158529 0 0 -0.015417 
0 0 -0.0157028 0 0 -0.0154057 0 0 -0.0158102 
0 0 -0.015695 0 0 -0.0154225 0 0 -0.0153966 
0 0 -0.0154245 0 0 -0.015677 0 0 -0.0158794 
0 0 -0.0155398 0 0 -0.0154245 0 0 -0.0154153 
0 0 -0.0154222 0 0 -0.0155001 0 0 -0.0156305 
0 0 -0.0155834 0 0 -0.0154523 0 0 -0.0153987 
0 0 -0.0154398 0 0 -0.0157106 0 0 -0.0156567 
0 0 -0.015558 0 0 -0.0156046 0 0 -0.0154313 
0 0 -0.0155363 0 0 -0.0155187 0 0 -0.015631 
0 0 -0.0159099 0 0 -0.0154864 0 0 -0.0157533 
0 0 -0.0158858 0 0 -0.0151502 0 0 -0.0146565 
0 0 -0.014866 0 0 -0.014739 0 0 -0.0148791 
0 0 -0.0150202 0 0 -0.0147835 0 0 -0.0147479 
0 0 -0.0148338 0 0 -0.0146914 0 0 -0.0146897 
0 0 -0.0150459 0 0 -0.0148153 0 0 -0.0147393 
0 0 -0.0150478 0 0 -0.0147436 0 0 -0.0141257 
0 0 -0.0144203 0 0 -0.0146017 0 0 -0.0146034 
0 0 -0.0143563 0 0 -0.014596 0 0 -0.0145534 
0 0 -0.0145635 0 0 -0.0145158 0 0 -0.0139599 
0 0 -0.0145261 0 0 -0.0140172 0 0 -0.0146183 
0 0 -0.0144213 0 0 -0.0146092 0 0 -0.0145265 
0 0 -0.0140995 0 0 -0.0145074 0 0 -0.0146134 
0 0 -0.0145737 0 0 -0.0145004 0 0 -0.0144782 
0 0 -0.0144304 0 0 -0.0146101 0 0 -0.0143481 
0 0 -0.0145575 0 0 -0.0144971 0 0 -0.014439 
0 0 -0.0144395 0 0 -0.0145561 0 0 -0.014477 
0 0 -0.0146362 0 0 -0.0145384 0 0 -0.0144271 
0 0 -0.0145381 0 0 -0.0145098 0 0 -0.0144851 
0 0 -0.0144217 0 0 -0.0144333 0 0 -0.0144919 
0 0 -0.0144952 0 0 -0.0145931 0 0 -0.0144735 
0 0 -0.0146353 0 0 -0.0144789 0 0 -0.0146114 
0 0 -0.0135318 0 0 -0.0136089 0 0 -0.0135586 
0 0 -0.0137183 0 0 -0.0136909 0 0 -0.0134442 
0 0 -0.0136015 0 0 -0.0137292 0 0 -0.0135368 
0 0 -0.0135471 0 0 -0.0136109 0 0 -0.0135954 
0 0 -0.0136747 0 0 -0.0138485 0 0 -0.0135188 
0 0 -0.0134337 0 0 -0.0135061 0 0 -0.0137836 
0 0 -0.0134684 0 0 -0.0139073 0 0 -0.0138824 
0 0 -0.0136123 0 0 -0.013712 0 0 -0.0135094 
0 0 -0.0134559 0 0 -0.0135214 0 0 -0.0136194 
0 0 -0.0136462 0 0 -0.0133911 0 0 -0.0135417 
0 0 -0.0134816 0 0 -0.0134713 0 0 -0.0133051 
0 0 -0.0138153 0 0 -0.0136576 0 0 -0.0135783 
0 0 -0.0137112 0 0 -0.0135011 0 0 -0.0135613 
0 0 -0.0134417 0 0 -0.013474 0 0 -0.013733 
0 0 -0.0135314 0 0 -0.0138865 0 0 -0.013906 
0 0 -0.0136259 0 0 -0.0134894 0 0 -0.0134612 
0 0 -0.0126338 0 0 -0.0128643 0 0 -0.0128471 
0 0 -0.0125538 0 0 -0.0126326 0 0 -0.01255 
0 0 -0.0128467 0 0 -0.0125567 0 0 -0.0125936 
0 0 -0.0125401 0 0 -0.0128413 0 0 -0.0131411 
0 0 -0.0125405 0 0 -0.0127869 0 0 -0.0130469 
0 0 -0.0128024 0 0 -0.0128633 0 0 -0.0125166 
0 0 -0.0127262 0 0 -0.0125795 0 0 -0.0128047 
0 0 -0.0125842 0 0 -0.0131874 0 0 -0.0125301 
0 0 -0.0125248 0 0 -0.0127863 0 0 -0.0125071 
0 0 -0.0125276 0 0 -0.0126732 0 0 -0.0125271 
0 0 -0.0125202 0 0 -0.0131038 0 0 -0.0125777 
0 0 -0.012588 0 0 -0.0126206 0 0 -0.01314 
0 0 -0.0125761 0 0 -0.0125794 0 0 -0.0124862 
0 0 -0.0126813 0 0 -0.0125414 0 0 -0.0127513 
0 0 -0.0127242 0 0 -0.012469 0 0 -0.0127784 
0 0 -0.0131026 0 0 -0.0126024 0 0 -0.0126563 
0 0 -0.0125661 0 0 -0.0125162 0 0 -0.0125864 
0 0 -0.0125272 0 0 -0.0124955 0 0 -0.0125661 
0 0 -0.012673 0 0 -0.0125846 0 0 -0.0117269 
0 0 -0.0116936 0 0 -0.0117895 0 0 -0.0117107 
0 0 -0.0116327 0 0 -0.0121981 0 0 -0.0117105 
0 0 -0.0118423 0 0 -0.0119984 0 0 -0.012265 
0 0 -0.0117689 0 0 -0.0124019 0 0 -0.0116782 
0 0 -0.0117214 0 0 -0.0116107 0 0 -0.0119193 
0 0 -0.0118011 0 0 -0.0121592 0 0 -0.0116535 
0 0 -0.0121514 0 0 -0.0117881 0 0 -0.0120764 
0 0 -0.011702 0 0 -0.0118235 0 0 -0.0116149 
0 0 -0.0122656 0 0 -0.0119156 0 0 -0.0119175 
0 0 -0.0118903 0 0 -0.0119412 0 0 -0.0119386 
0 0 -0.0118037 0 0 -0.0121523 0 0 -0.0116149 
0 0 -0.0118825 0 0 -0.0117049 0 0 -0.0118277 
0 0 -0.011665 0 0 -0.0115035 0 0 -0.0108405 
0 0 -0.0110945 0 0 -0.0108618 0 0 -0.0108554 
0 0 -0.0106939 0 0 -0.010909 0 0 -0.0115738 
0 0 -0.0115306 0 0 -0.0107752 0 0 -0.0110626 
0 0 -0.0114845 0 0 -0.0110149 0 0 -0.0108333 
0 0 -0.0114937 0 0 -0.0114869 0 0 -0.0108501 
0 0 -0.0115083 0 0 -0.0115696 0 0 -0.0107443 
0 0 -0.0107713 0 0 -0.01157 0 0 -0.0114794 
0 0 -0.0110172 0 0 -0.0107568 0 0 -0.0115048 
0 0 -0.0107431 0 0 -0.0107327 0 0 -0.0107215 
0 0 -0.0107583 0 0 -0.0109963 0 0 -0.0106951 
0 0 -0.011542 0 0 -0.0107623 0 0 -0.0115136 
0 0 -0.0114324 0 0 -0.0115402 0 0 -0.0108452 
0 0 -0.0109111 0 0 -0.0115329 0 0 -0.0114985 
0 0 -0.0111565 0 0 -0.010815 0 0 -0.0113108 
0 0 -0.0115607 0 0 -0.010953 0 0 -0.0114502 
-0 -0 -0.01 -0 -0 -0.01 0 0 -0.0105682 
-0 -0 -0.01 -0 -0 -0.01 0 0 -0.0106456 
0 0 -0.0105093 0 0 -0.010518 0 0 -0.0106172 
-0 -0 -0.01 0 0 -0.0106677 -0 -0 -0.01 
-0 -0 -0.01 0 0 -0.0105345 0 0 -0.010572 
0 0 -0.0105549 0 0 -0.0105223 -0 -0 -0.01 
0 0 -0.0100539 0 0 -0.0106656 0 0 -0.0100058 
-0 -0 -0.01 0 0 -0.0105524 -0 -0 -0.01 
0 0 -0.0105635 0 0 -0.0101315 -0 -0 -0.01 
0 0 -0.0105528 -0 -0 -0.01 0 0 -0.0105601 
0 0 -0.0105975 0 0 -0.0105262 0 0 -0.0100442 
-0 -0 -0.01 0 0 -0.0104953 -0 -0 -0.01 
0 0 -0.0100726 -0 -0 -0.01 0 0 -0.0105126 
0 0 -0.0106069 0 0 -0.0105329 0 0 -0.0105052 
-0 -0 -0.01 -0 -0 -0.01 0 0 -0.0106106 
0 0 -0.0105678 0 0 -0.010653 -0 -0 -0.01 
-0 -0 -0.01 0 0 -0.0102775 0 0 -0.0106182 
0 0 -0.0100659 0 0 -0.0105827 -0 -0 -0.01 
0 0 -0.0105525 0 0 -0.0105632 0 0 -0.0102057 
-0 -0 -0.01 -0 -0 -0.01 -0 -0 -0.01 
-0 -0 -0.01 -0 -0 -0.01 -0 -0 -0.01 
-0 -0 -0.01 -0 -0 -0.01 -0 -0 -0.01 
-0 -0 -0.01 -0 -0 -0.01 -0 -0 -0.01 
-0 -0 -0.01 -0 -0 -0.01 -0 -0 -0.01 
-0 -0 -0.01 -0 -0 -0.01 -0 -0 -0.01 
-0 -0 -0.01 -0 -0 -0.01 -0 -0 -0.01 
-0 -0 -0.01 -0 -0 -0.01 -0 -0 -0.01 
-0 -0 -0.01 -0 -0 -0.01 -0 -0 -0.01 
-0 -0 -0.01 -0 -0 -0.01 -0 -0 -0.01 
-0 -0 -0.01 
f 3 676 double
0 0 -1.28413e-05 0 0 -1.28413e-05 0 0 -1.28413e-05 
0 0 -1.28413e-05 0 0 -1.28413e-05 0 0 -1.28413e-05 
0 0 -1.28413e-05 0 0 -1.28413e-05 0 0 -1.28413e-05 
0 0 -1.28413e-05 0 0 -1.28413e-05 0 0 -1.28413e-05 
0 0 -1.28413e-05 0 0 -1.28413e-05 0 0 -1.28413e-05 
0 0 -1.28413e-05 0 0 -1.28413e-05 0 0 -1.28413e-05 
0 0 -1.28413e-05 0 0 -1.28413e-05 0 0 -1.28413e-05 
0 0 -1.28413e-05 0 0 -1.28413e-05 0 0 -1.28413e-05 
0 0 -1.28413e-05 0 0 -1.28413e-05 0 0 -1.28413e-05 
0 0 -1.28413e-05 0 0 -1.28413e-05 0 0 -1.28413e-05 
0 0 -1.28413e-05 0 0 -1.28413e-05 0 0 -1.28413e-05 
0 0 -1.28413e-05 0 0 -1.28413e-05 0 0 -1.28413e-05 
0 0 -1.28413e-05 0 0 -1.28413e-05 0 0 -1.28413e-05 
0 0 -1.28413e-05 0 0 -1.28413e-05 0 0 -1.28413e-05 
0 0 -1.28413e-05 0 0 -1.28413e-05 0 0 -1.28413e-05 
0 0 -1.28413e-05 0 0 -1.28413e-05 0 0 -1.28413e-05 
0 0 -1.28413e-05 0 0 -1.28413e-05 0 0 -1.28413e-05 
0 0 -1.28413e-05 0 0 -1.28413e-05 0 0 -1.28413e-05 
0 0 -1.28413e-05 0 0 -1.28413e-05 0 0 -1.28413e-05 
0 0 -1.28413e-05 0 0 -1.28413e-05 0 0 -1.28413e-05 
0 0 -1.28413e-05 0 0 -1.28413e-05 0 0 -1.28413e-05 
0 0 -1.28413e-05 0 0 -1.28413e-05 0 0 -1.28413e-05 
0 0 -1.28413e-05 0 0 -1.28413e-05 0 0 -1.28413e-05 
0 0 -1.28413e-05 0 0 -1.28413e-05 0 0 -1.28413e-05 
0 0 -1.28413e-05 0 0 -1.28413e-05 0 0 -1.28413e-05 
0 0 -1.28413e-05 0 0 -1.28413e-05 0 0 -1.28413e-05 