/*--------------------------------*- C++ -*----------------------------------*\
| =========                 |                                                 |
| \\      /  F ield         | OpenFOAM: The Open Source CFD Toolbox           |
|  \\    /   O peration     | Version:  5.x                                   |
|   \\  /    A nd           | Web:      www.OpenFOAM.org                      |
|    \\/     M anipulation  |                                                 |
\*---------------------------------------------------------------------------*/
FoamFile
{
    version     2.0;
    format      ascii;
    class       volVectorField;
    location    "0.04";
    object      stored_U;
}
// * * * * * * * * * * * * * * * * * * * * * * * * * * * * * * * * * * * * * //

dimensions      [0 1 -1 0 0 0 0];

internalField   nonuniform List<vector> 
2250
(
(-1.31196e-10 -3.58081e-11 -0.001)
(-1.18337e-10 -3.35266e-11 -0.001)
(-9.53689e-11 -3.32576e-11 -0.001)
(-6.01352e-11 -3.28207e-11 -0.001)
(-2.04178e-11 -3.22688e-11 -0.001)
(-1.30186e-10 -1.0231e-10 -0.001)
(-1.16046e-10 -9.37625e-11 -0.001)
(-9.4867e-11 -9.21825e-11 -0.001)
(-5.9316e-11 -9.10076e-11 -0.001)
(-1.99509e-11 -8.966e-11 -0.001)
(-1.27477e-10 -1.60903e-10 -0.001)
(-1.0848e-10 -1.44942e-10 -0.001)
(-9.28274e-11 -1.4004e-10 -0.001)
(-5.79137e-11 -1.38178e-10 -0.001)
(-1.92746e-11 -1.36378e-10 -0.001)
(-1.22961e-10 -2.0087e-10 -0.001)
(-9.51982e-11 -1.84752e-10 -0.001)
(-8.81163e-11 -1.79305e-10 -0.001)
(-5.59286e-11 -1.78186e-10 -0.001)
(-1.84142e-11 -1.76613e-10 -0.001)
(-1.11447e-10 -1.63534e-10 -0.001)
(-8.70486e-11 -1.79147e-10 -0.001)
(-8.62756e-11 -1.74634e-10 -0.001)
(-5.55828e-11 -1.71982e-10 -0.001)
(-1.80422e-11 -1.70688e-10 -0.001)
(-3.82819e-10 -1.01955e-10 -0.001)
(-3.38911e-10 -9.44051e-11 -0.001)
(-2.7203e-10 -9.3445e-11 -0.001)
(-1.71579e-10 -9.21729e-11 -0.001)
(-5.79286e-11 -8.98826e-11 -0.001)
(-3.8042e-10 -2.89139e-10 -0.001)
(-3.31097e-10 -2.62667e-10 -0.001)
(-2.70345e-10 -2.58574e-10 -0.001)
(-1.68488e-10 -2.5554e-10 -0.001)
(-5.58978e-11 -2.5088e-10 -0.001)
(-3.76262e-10 -4.53796e-10 -0.001)
(-3.09065e-10 -4.02694e-10 -0.001)
(-2.65472e-10 -3.90978e-10 -0.001)
(-1.64704e-10 -3.86602e-10 -0.001)
(-5.38536e-11 -3.81123e-10 -0.001)
(-3.72334e-10 -6.0182e-10 -0.001)
(-2.683e-10 -5.1712e-10 -0.001)
(-2.54292e-10 -4.97341e-10 -0.001)
(-1.59384e-10 -4.91272e-10 -0.001)
(-5.11476e-11 -4.84615e-10 -0.001)
(-3.90797e-10 -3.91669e-10 -0.001)
(-2.04452e-10 -4.98848e-10 -0.001)
(-2.39642e-10 -4.97492e-10 -0.001)
(-1.52912e-10 -4.89789e-10 -0.001)
(-4.81369e-11 -4.8389e-10 -0.001)
(-6.95275e-10 -1.63284e-10 -0.000999999)
(-6.06836e-10 -1.53681e-10 -0.001)
(-4.82339e-10 -1.52215e-10 -0.001)
(-3.0568e-10 -1.50389e-10 -0.001)
(-1.03073e-10 -1.46578e-10 -0.001)
(-6.92474e-10 -4.6102e-10 -0.001)
(-5.96985e-10 -4.27779e-10 -0.001)
(-4.79997e-10 -4.23618e-10 -0.001)
(-3.00907e-10 -4.20438e-10 -0.001)
(-9.97593e-11 -4.1383e-10 -0.001)
(-6.90502e-10 -7.23753e-10 -0.001)
(-5.70672e-10 -6.52172e-10 -0.001)
(-4.75984e-10 -6.40459e-10 -0.001)
(-2.97292e-10 -6.36474e-10 -0.001)
(-9.7466e-11 -6.29501e-10 -0.001)
(-7.04751e-10 -1.04507e-09 -0.001)
(-5.13738e-10 -8.7287e-10 -0.001)
(-4.64368e-10 -8.22956e-10 -0.001)
(-2.91209e-10 -8.01392e-10 -0.001)
(-9.40108e-11 -7.86707e-10 -0.001)
(-8.63761e-10 -5.71936e-10 -0.001)
(-3.48564e-10 -8.0993e-10 -0.001)
(-4.04552e-10 -8.31484e-10 -0.001)
(-2.62626e-10 -8.25914e-10 -0.001)
(-8.43598e-11 -8.16824e-10 -0.001)
(-1.10392e-09 -2.19371e-10 -0.000999999)
(-9.61094e-10 -2.14674e-10 -0.000999999)
(-7.59461e-10 -2.13439e-10 -0.001)
(-4.8448e-10 -2.11612e-10 -0.001)
(-1.6423e-10 -2.07684e-10 -0.001)
(-1.10122e-09 -6.189e-10 -0.000999999)
(-9.57043e-10 -6.02991e-10 -0.001)
(-7.57867e-10 -6.01581e-10 -0.001)
(-4.80031e-10 -5.993e-10 -0.001)
(-1.61e-10 -5.92955e-10 -0.001)
(-1.09521e-09 -9.66158e-10 -0.000999999)
(-9.4568e-10 -9.21518e-10 -0.001)
(-7.57296e-10 -9.15321e-10 -0.001)
(-4.77947e-10 -9.12394e-10 -0.001)
(-1.59325e-10 -9.05997e-10 -0.001)
(-1.10182e-09 -1.39112e-09 -0.001)
(-9.06282e-10 -1.24034e-09 -0.001)
(-7.48852e-10 -1.18065e-09 -0.001)
(-4.72556e-10 -1.14762e-09 -0.001)
(-1.56385e-10 -1.12863e-09 -0.001)
(-1.30806e-09 -1.0077e-09 -0.001)
(-7.35254e-10 -1.19283e-09 -0.001)
(-6.64668e-10 -1.21674e-09 -0.001)
(-4.28267e-10 -1.21364e-09 -0.001)
(-1.4265e-10 -1.2055e-09 -0.001)
(-1.66317e-09 -2.88086e-10 -0.000999998)
(-1.45454e-09 -2.88864e-10 -0.000999999)
(-1.14982e-09 -2.87943e-10 -0.001)
(-7.36561e-10 -2.86689e-10 -0.001)
(-2.51283e-10 -2.83634e-10 -0.001)
(-1.66308e-09 -8.18773e-10 -0.000999998)
(-1.45718e-09 -8.23909e-10 -0.000999999)
(-1.14987e-09 -8.2442e-10 -0.001)
(-7.34203e-10 -8.22732e-10 -0.001)
(-2.49235e-10 -8.17361e-10 -0.001)
(-1.65083e-09 -1.26421e-09 -0.000999999)
(-1.46305e-09 -1.26661e-09 -0.000999999)
(-1.15097e-09 -1.26624e-09 -0.001)
(-7.32574e-10 -1.26304e-09 -0.001)
(-2.47992e-10 -1.25715e-09 -0.001)
(-1.62232e-09 -1.71847e-09 -0.000999999)
(-1.45937e-09 -1.65258e-09 -0.001)
(-1.14647e-09 -1.61574e-09 -0.001)
(-7.27699e-10 -1.58881e-09 -0.001)
(-2.4584e-10 -1.57299e-09 -0.001)
(-1.71461e-09 -1.7131e-09 -0.001)
(-1.36024e-09 -1.73916e-09 -0.001)
(-1.08729e-09 -1.72835e-09 -0.001)
(-6.93042e-10 -1.71857e-09 -0.001)
(-2.3531e-10 -1.71143e-09 -0.001)
(-2.42957e-09 -3.88915e-10 -0.000999998)
(-2.14597e-09 -3.90485e-10 -0.000999998)
(-1.69824e-09 -3.89124e-10 -0.000999999)
(-1.0895e-09 -3.8842e-10 -0.001)
(-3.7326e-10 -3.86242e-10 -0.001)
(-2.43383e-09 -1.11875e-09 -0.000999998)
(-2.15023e-09 -1.12894e-09 -0.000999999)
(-1.69941e-09 -1.1277e-09 -0.000999999)
(-1.08937e-09 -1.12564e-09 -0.001)
(-3.72474e-10 -1.12066e-09 -0.001)
(-2.42197e-09 -1.72394e-09 -0.000999998)
(-2.15901e-09 -1.7475e-09 -0.000999999)
(-1.69823e-09 -1.74728e-09 -0.001)
(-1.08675e-09 -1.74239e-09 -0.001)
(-3.71163e-10 -1.73557e-09 -0.001)
(-2.37228e-09 -2.23246e-09 -0.000999999)
(-2.17367e-09 -2.21886e-09 -0.001)
(-1.69444e-09 -2.20663e-09 -0.001)
(-1.08121e-09 -2.19243e-09 -0.001)
(-3.69093e-10 -2.18146e-09 -0.001)
(-2.33486e-09 -2.53867e-09 -0.001)
(-2.13332e-09 -2.46567e-09 -0.001)
(-1.67193e-09 -2.42548e-09 -0.001)
(-1.06598e-09 -2.4081e-09 -0.001)
(-3.6449e-10 -2.39968e-09 -0.001)
(-3.46748e-09 -5.32042e-10 -0.000999997)
(-3.0946e-09 -5.32948e-10 -0.000999998)
(-2.44859e-09 -5.30128e-10 -0.000999999)
(-1.57116e-09 -5.29214e-10 -0.001)
(-5.39349e-10 -5.27336e-10 -0.001)
(-3.47348e-09 -1.5431e-09 -0.000999997)
(-3.09851e-09 -1.55172e-09 -0.000999998)
(-2.4495e-09 -1.54571e-09 -0.000999999)
(-1.57239e-09 -1.54237e-09 -0.001)
(-5.39502e-10 -1.53701e-09 -0.001)
(-3.46436e-09 -2.38841e-09 -0.000999998)
(-3.10322e-09 -2.4143e-09 -0.000999999)
(-2.44411e-09 -2.4083e-09 -0.001)
(-1.56858e-09 -2.40107e-09 -0.001)
(-5.38015e-10 -2.39168e-09 -0.001)
(-3.42218e-09 -3.01255e-09 -0.000999999)
(-3.11855e-09 -3.04129e-09 -0.001)
(-2.43662e-09 -3.03528e-09 -0.001)
(-1.56068e-09 -3.02566e-09 -0.001)
(-5.34814e-10 -3.01242e-09 -0.001)
(-3.32555e-09 -3.51285e-09 -0.000999999)
(-3.12588e-09 -3.39411e-09 -0.001)
(-2.42867e-09 -3.35898e-09 -0.001)
(-1.55177e-09 -3.34226e-09 -0.001)
(-5.30657e-10 -3.33068e-09 -0.001)
(-4.8671e-09 -7.27675e-10 -0.000999996)
(-4.37116e-09 -7.29145e-10 -0.000999997)
(-3.45894e-09 -7.24351e-10 -0.000999999)
(-2.22005e-09 -7.22477e-10 -0.001)
(-7.63094e-10 -7.20666e-10 -0.001)
(-4.87077e-09 -2.11539e-09 -0.000999996)
(-4.37606e-09 -2.12826e-09 -0.000999998)
(-3.45881e-09 -2.11695e-09 -0.000999999)
(-2.22191e-09 -2.11105e-09 -0.001)
(-7.64061e-10 -2.10427e-09 -0.001)
(-4.85885e-09 -3.27477e-09 -0.000999997)
(-4.38118e-09 -3.31685e-09 -0.000999999)
(-3.44854e-09 -3.30586e-09 -0.001)
(-2.21581e-09 -3.29419e-09 -0.001)
(-7.61828e-10 -3.27978e-09 -0.001)
(-4.82293e-09 -4.08109e-09 -0.000999998)
(-4.40741e-09 -4.16117e-09 -0.001)
(-3.43654e-09 -4.16643e-09 -0.001)
(-2.2025e-09 -4.15231e-09 -0.001)
(-7.56068e-10 -4.12917e-09 -0.001)
(-4.69277e-09 -4.81947e-09 -0.000999999)
(-4.46654e-09 -4.64105e-09 -0.001)
(-3.43994e-09 -4.60935e-09 -0.001)
(-2.18679e-09 -4.59442e-09 -0.001)
(-7.46715e-10 -4.57665e-09 -0.001)
(-6.75767e-09 -9.95561e-10 -0.000999994)
(-6.08354e-09 -9.96195e-10 -0.000999996)
(-4.81785e-09 -9.89625e-10 -0.000999998)
(-3.09387e-09 -9.86375e-10 -0.001)
(-1.0647e-09 -9.84392e-10 -0.001)
(-6.75901e-09 -2.89582e-09 -0.000999995)
(-6.08905e-09 -2.9098e-09 -0.000999997)
(-4.81715e-09 -2.89292e-09 -0.000999999)
(-3.09634e-09 -2.88223e-09 -0.001)
(-1.06656e-09 -2.8723e-09 -0.001)
(-6.74227e-09 -4.46819e-09 -0.000999996)
(-6.09243e-09 -4.53405e-09 -0.000999998)
(-4.79979e-09 -4.51843e-09 -0.001)
(-3.08489e-09 -4.49761e-09 -0.001)
(-1.06233e-09 -4.4754e-09 -0.001)
(-6.69392e-09 -5.51301e-09 -0.000999998)
(-6.13965e-09 -5.65645e-09 -0.001)
(-4.78126e-09 -5.68042e-09 -0.001)
(-3.06237e-09 -5.65946e-09 -0.001)
(-1.05306e-09 -5.62662e-09 -0.001)
(-6.48714e-09 -6.61823e-09 -0.000999999)
(-6.25983e-09 -6.35528e-09 -0.001)
(-4.80315e-09 -6.2984e-09 -0.001)
(-3.04227e-09 -6.27622e-09 -0.001)
(-1.04037e-09 -6.24927e-09 -0.00100001)
(-9.31751e-09 -1.36424e-09 -0.000999992)
(-8.39742e-09 -1.35978e-09 -0.000999995)
(-6.65533e-09 -1.35173e-09 -0.000999998)
(-4.27608e-09 -1.3468e-09 -0.001)
(-1.47279e-09 -1.34387e-09 -0.001)
(-9.31896e-09 -3.97238e-09 -0.000999993)
(-8.40076e-09 -3.97032e-09 -0.000999996)
(-6.65498e-09 -3.9464e-09 -0.000999999)
(-4.27885e-09 -3.92884e-09 -0.001)
(-1.47514e-09 -3.91408e-09 -0.001)
(-9.29948e-09 -6.13262e-09 -0.000999995)
(-8.38776e-09 -6.18567e-09 -0.000999998)
(-6.62701e-09 -6.15868e-09 -0.001)
(-4.25973e-09 -6.12539e-09 -0.001)
(-1.46834e-09 -6.09463e-09 -0.001)
(-9.24157e-09 -7.54086e-09 -0.000999997)
(-8.4273e-09 -7.6969e-09 -0.001)
(-6.59543e-09 -7.72236e-09 -0.001)
(-4.22713e-09 -7.69556e-09 -0.001)
(-1.45623e-09 -7.65892e-09 -0.00100001)
(-8.95596e-09 -8.96295e-09 -0.001)
(-8.56927e-09 -8.68288e-09 -0.001)
(-6.62614e-09 -8.59151e-09 -0.00100001)
(-4.21147e-09 -8.55569e-09 -0.00100001)
(-1.44646e-09 -8.51922e-09 -0.00100001)
(-1.27909e-08 -1.86769e-09 -0.00099999)
(-1.15417e-08 -1.85596e-09 -0.000999994)
(-9.15119e-09 -1.8462e-09 -0.000999997)
(-5.88141e-09 -1.83959e-09 -0.001)
(-2.0262e-09 -1.83486e-09 -0.001)
(-1.27934e-08 -5.44207e-09 -0.000999991)
(-1.1542e-08 -5.41281e-09 -0.000999995)
(-9.15219e-09 -5.38004e-09 -0.000999998)
(-5.88469e-09 -5.35566e-09 -0.001)
(-2.02871e-09 -5.33539e-09 -0.001)
(-1.27676e-08 -8.4332e-09 -0.000999993)
(-1.15021e-08 -8.43341e-09 -0.000999997)
(-9.11214e-09 -8.38723e-09 -0.001)
(-5.85865e-09 -8.34251e-09 -0.001)
(-2.02004e-09 -8.30417e-09 -0.001)
(-1.27099e-08 -1.04645e-08 -0.000999996)
(-1.14967e-08 -1.05271e-08 -0.001)
(-9.0623e-09 -1.05182e-08 -0.001)
(-5.81846e-09 -1.04818e-08 -0.00100001)
(-2.00655e-09 -1.04421e-08 -0.00100001)
(-1.24508e-08 -1.20147e-08 -0.001)
(-1.15558e-08 -1.18209e-08 -0.001)
(-9.06748e-09 -1.17114e-08 -0.00100001)
(-5.80321e-09 -1.16636e-08 -0.00100001)
(-2.00044e-09 -1.16184e-08 -0.00100001)
(-1.75126e-08 -2.54972e-09 -0.000999986)
(-1.58198e-08 -2.53344e-09 -0.000999992)
(-1.25488e-08 -2.52123e-09 -0.000999996)
(-8.06576e-09 -2.51306e-09 -0.001)
(-2.77807e-09 -2.50558e-09 -0.001)
(-1.75171e-08 -7.42631e-09 -0.000999988)
(-1.58211e-08 -7.37856e-09 -0.000999993)
(-1.25522e-08 -7.33577e-09 -0.000999998)
(-8.07013e-09 -7.30533e-09 -0.001)
(-2.7805e-09 -7.27812e-09 -0.001)
(-1.74724e-08 -1.15481e-08 -0.000999991)
(-1.57599e-08 -1.14944e-08 -0.000999996)
(-1.25004e-08 -1.14258e-08 -0.001)
(-8.03809e-09 -1.13716e-08 -0.001)
(-2.7702e-09 -1.13248e-08 -0.00100001)
(-1.74071e-08 -1.44591e-08 -0.000999995)
(-1.56997e-08 -1.44203e-08 -0.001)
(-1.24308e-08 -1.43563e-08 -0.00100001)
(-7.99204e-09 -1.43036e-08 -0.00100001)
(-2.75578e-09 -1.42539e-08 -0.00100001)
(-1.72112e-08 -1.62239e-08 -0.001)
(-1.56571e-08 -1.60674e-08 -0.00100001)
(-1.23845e-08 -1.59576e-08 -0.00100001)
(-7.964e-09 -1.59005e-08 -0.00100001)
(-2.74807e-09 -1.58462e-08 -0.00100002)
(-2.39405e-08 -3.47544e-09 -0.000999981)
(-2.16393e-08 -3.45727e-09 -0.000999989)
(-1.71732e-08 -3.44154e-09 -0.000999995)
(-1.10365e-08 -3.4306e-09 -0.001)
(-3.79934e-09 -3.41839e-09 -0.001)
(-2.395e-08 -1.01112e-08 -0.000999984)
(-2.1646e-08 -1.00564e-08 -0.000999991)
(-1.7179e-08 -1.00027e-08 -0.000999997)
(-1.10407e-08 -9.96389e-09 -0.001)
(-3.80067e-09 -9.92586e-09 -0.001)
(-2.3874e-08 -1.57377e-08 -0.000999988)
(-2.15727e-08 -1.56568e-08 -0.000999995)
(-1.71145e-08 -1.5569e-08 -0.001)
(-1.10006e-08 -1.55042e-08 -0.00100001)
(-3.78775e-09 -1.54455e-08 -0.00100001)
(-2.3773e-08 -1.97788e-08 -0.000999994)
(-2.14786e-08 -1.96905e-08 -0.001)
(-1.70283e-08 -1.95901e-08 -0.00100001)
(-1.09485e-08 -1.95224e-08 -0.00100001)
(-3.77212e-09 -1.94573e-08 -0.00100001)
(-2.35824e-08 -2.20686e-08 -0.001)
(-2.1384e-08 -2.18678e-08 -0.00100001)
(-1.69475e-08 -2.17412e-08 -0.00100001)
(-1.09065e-08 -2.16691e-08 -0.00100002)
(-3.76029e-09 -2.16005e-08 -0.00100002)
(-3.2693e-08 -4.73876e-09 -0.000999975)
(-2.95508e-08 -4.71445e-09 -0.000999985)
(-2.34567e-08 -4.69282e-09 -0.000999994)
(-1.50688e-08 -4.67588e-09 -0.001)
(-5.18423e-09 -4.65658e-09 -0.001)
(-3.27088e-08 -1.37717e-08 -0.000999978)
(-2.95601e-08 -1.36988e-08 -0.000999988)
(-2.34623e-08 -1.36302e-08 -0.000999997)
(-1.50698e-08 -1.35773e-08 -0.001)
(-5.18337e-09 -1.3524e-08 -0.00100001)
(-3.25986e-08 -2.14291e-08 -0.000999984)
(-2.94663e-08 -2.13145e-08 -0.000999994)
(-2.33812e-08 -2.1208e-08 -0.001)
(-1.50184e-08 -2.11284e-08 -0.00100001)
(-5.16692e-09 -2.10528e-08 -0.00100001)
(-3.24487e-08 -2.69358e-08 -0.000999991)
(-2.93407e-08 -2.68185e-08 -0.001)
(-2.32787e-08 -2.66994e-08 -0.00100001)
(-1.49573e-08 -2.66195e-08 -0.00100002)
(-5.14881e-09 -2.65343e-08 -0.00100002)
(-3.21994e-08 -3.00294e-08 -0.001)
(-2.92299e-08 -2.97865e-08 -0.00100001)
(-2.31838e-08 -2.96202e-08 -0.00100002)
(-1.49061e-08 -2.95179e-08 -0.00100003)
(-5.13305e-09 -2.94205e-08 -0.00100003)
(-4.46053e-08 -6.46009e-09 -0.000999966)
(-4.0303e-08 -6.42233e-09 -0.00099998)
(-3.19886e-08 -6.39049e-09 -0.000999991)
(-2.05408e-08 -6.36412e-09 -0.001)
(-7.06336e-09 -6.33642e-09 -0.001)
(-4.46209e-08 -1.87678e-08 -0.00099997)
(-4.03087e-08 -1.86514e-08 -0.000999984)
(-3.19904e-08 -1.85565e-08 -0.000999995)
(-2.05373e-08 -1.84827e-08 -0.001)
(-7.06074e-09 -1.84099e-08 -0.00100001)
(-4.44736e-08 -2.92089e-08 -0.000999978)
(-4.01694e-08 -2.90204e-08 -0.000999991)
(-3.18826e-08 -2.88759e-08 -0.001)
(-2.04701e-08 -2.87706e-08 -0.00100001)
(-7.03953e-09 -2.8668e-08 -0.00100002)
(-4.42786e-08 -3.67668e-08 -0.000999988)
(-3.9978e-08 -3.65425e-08 -0.001)
(-3.17441e-08 -3.63704e-08 -0.00100001)
(-2.03877e-08 -3.62554e-08 -0.00100002)
(-7.01407e-09 -3.61339e-08 -0.00100003)
(-4.40261e-08 -4.07434e-08 -0.001)
(-3.97731e-08 -4.05345e-08 -0.00100001)
(-3.15977e-08 -4.03269e-08 -0.00100003)
(-2.03056e-08 -4.01803e-08 -0.00100003)
(-6.98796e-09 -4.00349e-08 -0.00100004)
(-6.08318e-08 -8.79695e-09 -0.000999954)
(-5.49339e-08 -8.74215e-09 -0.000999972)
(-4.35947e-08 -8.69399e-09 -0.000999988)
(-2.79871e-08 -8.65545e-09 -0.001)
(-9.62246e-09 -8.61786e-09 -0.00100001)
(-6.08301e-08 -2.55619e-08 -0.000999959)
(-5.49333e-08 -2.53893e-08 -0.000999978)
(-4.35896e-08 -2.52492e-08 -0.000999994)
(-2.79798e-08 -2.51441e-08 -0.00100001)
(-9.619e-09 -2.50434e-08 -0.00100001)
(-6.06172e-08 -3.98032e-08 -0.00099997)
(-5.47268e-08 -3.95183e-08 -0.000999988)
(-4.34347e-08 -3.93003e-08 -0.001)
(-2.78846e-08 -3.91458e-08 -0.00100002)
(-9.58837e-09 -3.89974e-08 -0.00100002)
(-6.03421e-08 -5.01823e-08 -0.000999984)
(-5.44336e-08 -4.98115e-08 -0.001)
(-4.32219e-08 -4.95253e-08 -0.00100002)
(-2.77563e-08 -4.93304e-08 -0.00100003)
(-9.5469e-09 -4.91441e-08 -0.00100004)
(-6.00762e-08 -5.54033e-08 -0.001)
(-5.40699e-08 -5.51376e-08 -0.00100002)
(-4.29566e-08 -5.48577e-08 -0.00100004)
(-2.76016e-08 -5.46447e-08 -0.00100005)
(-9.49754e-09 -5.44309e-08 -0.00100005)
(-8.29775e-08 -1.19772e-08 -0.000999937)
(-7.48917e-08 -1.18975e-08 -0.000999962)
(-5.94316e-08 -1.18236e-08 -0.000999984)
(-3.81554e-08 -1.17677e-08 -0.001)
(-1.31201e-08 -1.17152e-08 -0.00100001)
(-8.29408e-08 -3.48064e-08 -0.000999944)
(-7.48772e-08 -3.4563e-08 -0.00099997)
(-5.94128e-08 -3.43475e-08 -0.000999992)
(-3.81407e-08 -3.419e-08 -0.00100001)
(-1.31141e-08 -3.40438e-08 -0.00100002)
(-8.26057e-08 -5.41974e-08 -0.000999959)
(-7.45765e-08 -5.38053e-08 -0.000999984)
(-5.91746e-08 -5.34672e-08 -0.00100001)
(-3.79924e-08 -5.3224e-08 -0.00100002)
(-1.30647e-08 -5.30018e-08 -0.00100003)
(-8.21491e-08 -6.83334e-08 -0.000999978)
(-7.41512e-08 -6.78199e-08 -0.001)
(-5.88381e-08 -6.73794e-08 -0.00100002)
(-3.77837e-08 -6.70603e-08 -0.00100004)
(-1.29959e-08 -6.67757e-08 -0.00100005)
(-8.16805e-08 -7.55946e-08 -0.001)
(-7.36226e-08 -7.50383e-08 -0.00100003)
(-5.8419e-08 -7.45879e-08 -0.00100005)
(-3.75226e-08 -7.42593e-08 -0.00100006)
(-1.29104e-08 -7.39453e-08 -0.00100007)
(-1.13247e-07 -1.6324e-08 -0.000999914)
(-1.02184e-07 -1.61954e-08 -0.000999949)
(-8.10954e-08 -1.60788e-08 -0.000999978)
(-5.20706e-08 -1.59935e-08 -0.001)
(-1.79081e-08 -1.59165e-08 -0.00100001)
(-1.13164e-07 -4.74244e-08 -0.000999924)
(-1.02128e-07 -4.70542e-08 -0.000999959)
(-8.10445e-08 -4.67153e-08 -0.000999989)
(-5.20357e-08 -4.64678e-08 -0.00100001)
(-1.78944e-08 -4.62494e-08 -0.00100002)
(-1.12631e-07 -7.3811e-08 -0.000999944)
(-1.0167e-07 -7.32398e-08 -0.000999978)
(-8.06668e-08 -7.27112e-08 -0.00100001)
(-5.17963e-08 -7.2323e-08 -0.00100003)
(-1.78134e-08 -7.19885e-08 -0.00100004)
(-1.11876e-07 -9.29655e-08 -0.00099997)
(-1.01034e-07 -9.22477e-08 -0.001)
(-8.01366e-08 -9.15933e-08 -0.00100003)
(-5.14606e-08 -9.10979e-08 -0.00100006)
(-1.77018e-08 -9.06738e-08 -0.00100007)
(-1.10967e-07 -1.03149e-07 -0.001)
(-1.00298e-07 -1.02134e-07 -0.00100004)
(-7.95225e-08 -1.01383e-07 -0.00100006)
(-5.10591e-08 -1.00857e-07 -0.00100009)
(-1.75668e-08 -1.00389e-07 -0.0010001)
(-1.54662e-07 -2.22669e-08 -0.000999882)
(-1.39559e-07 -2.20505e-08 -0.00099993)
(-1.10768e-07 -2.18642e-08 -0.000999971)
(-7.11312e-08 -2.17287e-08 -0.001)
(-2.44665e-08 -2.16136e-08 -0.00100002)
(-1.5451e-07 -6.46585e-08 -0.000999896)
(-1.39414e-07 -6.40557e-08 -0.000999944)
(-1.10652e-07 -6.35203e-08 -0.000999985)
(-7.10541e-08 -6.31277e-08 -0.00100001)
(-2.44376e-08 -6.28005e-08 -0.00100003)
(-1.53677e-07 -1.00581e-07 -0.000999923)
(-1.38687e-07 -9.96701e-08 -0.00099997)
(-1.10055e-07 -9.88431e-08 -0.00100001)
(-7.06725e-08 -9.82325e-08 -0.00100004)
(-2.43081e-08 -9.77325e-08 -0.00100006)
(-1.52496e-07 -1.2658e-07 -0.00099996)
(-1.37684e-07 -1.25455e-07 -0.00100001)
(-1.09226e-07 -1.24448e-07 -0.00100005)
(-7.01446e-08 -1.23688e-07 -0.00100008)
(-2.4131e-08 -1.23065e-07 -0.00100009)
(-1.50992e-07 -1.40495e-07 -0.001)
(-1.36555e-07 -1.38958e-07 -0.00100005)
(-1.08297e-07 -1.37766e-07 -0.00100009)
(-6.95386e-08 -1.36924e-07 -0.00100012)
(-2.39269e-08 -1.36223e-07 -0.00100013)
(-2.11381e-07 -3.03683e-08 -0.000999839)
(-1.90768e-07 -3.00208e-08 -0.000999905)
(-1.51436e-07 -2.97273e-08 -0.000999961)
(-9.72575e-08 -2.95124e-08 -0.001)
(-3.3456e-08 -2.93414e-08 -0.00100002)
(-2.11104e-07 -8.81626e-08 -0.000999858)
(-1.90478e-07 -8.71875e-08 -0.000999924)
(-1.51207e-07 -8.63494e-08 -0.000999979)
(-9.71078e-08 -8.57344e-08 -0.00100002)
(-3.34025e-08 -8.52488e-08 -0.00100004)
(-2.09821e-07 -1.37099e-07 -0.000999895)
(-1.89318e-07 -1.35615e-07 -0.00099996)
(-1.50275e-07 -1.34326e-07 -0.00100001)
(-9.65126e-08 -1.33381e-07 -0.00100005)
(-3.32004e-08 -1.32639e-07 -0.00100008)
(-2.08029e-07 -1.72495e-07 -0.000999945)
(-1.87716e-07 -1.70644e-07 -0.00100001)
(-1.4899e-07 -1.69047e-07 -0.00100006)
(-9.56945e-08 -1.67876e-07 -0.0010001)
(-3.29237e-08 -1.66956e-07 -0.00100012)
(-2.05802e-07 -1.91107e-07 -0.001)
(-1.8587e-07 -1.8894e-07 -0.00100007)
(-1.47517e-07 -1.8713e-07 -0.00100012)
(-9.47594e-08 -1.85817e-07 -0.00100016)
(-3.26103e-08 -1.84779e-07 -0.00100018)
(-2.8913e-07 -4.13908e-08 -0.000999781)
(-2.60968e-07 -4.08638e-08 -0.000999871)
(-2.07203e-07 -4.04106e-08 -0.000999947)
(-1.33097e-07 -4.00773e-08 -0.001)
(-4.57898e-08 -3.98259e-08 -0.00100003)
(-2.88616e-07 -1.20173e-07 -0.000999807)
(-2.60465e-07 -1.18657e-07 -0.000999896)
(-2.06798e-07 -1.17362e-07 -0.000999973)
(-1.32834e-07 -1.16414e-07 -0.00100003)
(-4.56986e-08 -1.15697e-07 -0.00100006)
(-2.86648e-07 -1.86848e-07 -0.000999856)
(-2.58651e-07 -1.84505e-07 -0.000999945)
(-2.05359e-07 -1.82514e-07 -0.00100002)
(-1.31917e-07 -1.81063e-07 -0.00100008)
(-4.5387e-08 -1.79962e-07 -0.0010001)
(-2.83934e-07 -2.35066e-07 -0.000999924)
(-2.56145e-07 -2.32119e-07 -0.00100001)
(-2.03378e-07 -2.29611e-07 -0.00100009)
(-1.30656e-07 -2.27795e-07 -0.00100014)
(-4.49573e-08 -2.2642e-07 -0.00100017)
(-2.80707e-07 -2.59947e-07 -0.001)
(-2.53197e-07 -2.56775e-07 -0.00100009)
(-2.01049e-07 -2.54051e-07 -0.00100016)
(-1.29186e-07 -2.52046e-07 -0.00100022)
(-4.44609e-08 -2.50525e-07 -0.00100024)
(-3.95763e-07 -5.64099e-08 -0.000999701)
(-3.57275e-07 -5.56185e-08 -0.000999824)
(-2.8374e-07 -5.49271e-08 -0.00099993)
(-1.82307e-07 -5.44188e-08 -0.00100001)
(-6.27312e-08 -5.40488e-08 -0.00100005)
(-3.94847e-07 -1.63778e-07 -0.000999737)
(-3.56442e-07 -1.6148e-07 -0.00099986)
(-2.83059e-07 -1.59501e-07 -0.000999964)
(-1.81868e-07 -1.58053e-07 -0.00100004)
(-6.25798e-08 -1.56992e-07 -0.00100008)
(-3.91814e-07 -2.54577e-07 -0.000999804)
(-3.53671e-07 -2.51012e-07 -0.000999926)
(-2.80856e-07 -2.47968e-07 -0.00100003)
(-1.8046e-07 -2.45747e-07 -0.0010001)
(-6.20993e-08 -2.44112e-07 -0.00100014)
(-3.87643e-07 -3.20142e-07 -0.000999897)
(-3.49853e-07 -3.1566e-07 -0.00100002)
(-2.77825e-07 -3.11825e-07 -0.00100012)
(-1.78522e-07 -3.09033e-07 -0.00100019)
(-6.1436e-08 -3.06977e-07 -0.00100023)
(-3.82746e-07 -3.53898e-07 -0.00100001)
(-3.45355e-07 -3.48954e-07 -0.00100012)
(-2.74248e-07 -3.44775e-07 -0.00100022)
(-1.76241e-07 -3.41705e-07 -0.0010003)
(-6.06567e-08 -3.39467e-07 -0.00100033)
(-5.42065e-07 -7.69318e-08 -0.000999592)
(-4.89513e-07 -7.57184e-08 -0.000999762)
(-3.88901e-07 -7.46646e-08 -0.000999906)
(-2.49963e-07 -7.38901e-08 -0.00100001)
(-8.60316e-08 -7.334e-08 -0.00100007)
(-5.40531e-07 -2.23298e-07 -0.000999641)
(-4.8813e-07 -2.19805e-07 -0.00099981)
(-3.87779e-07 -2.16787e-07 -0.000999954)
(-2.49237e-07 -2.14572e-07 -0.00100006)
(-8.57798e-08 -2.12993e-07 -0.00100011)
(-5.35872e-07 -3.46922e-07 -0.000999733)
(-4.83919e-07 -3.41536e-07 -0.0009999)
(-3.84408e-07 -3.36896e-07 -0.00100004)
(-2.47072e-07 -3.3349e-07 -0.00100015)
(-8.50383e-08 -3.31058e-07 -0.0010002)
(-5.2944e-07 -4.35954e-07 -0.00099986)
(-4.78131e-07 -4.29195e-07 -0.00100002)
(-3.79774e-07 -4.23376e-07 -0.00100016)
(-2.44095e-07 -4.19111e-07 -0.00100027)
(-8.40187e-08 -4.1606e-07 -0.00100032)
(-5.21811e-07 -4.81959e-07 -0.00100001)
(-4.71342e-07 -4.74243e-07 -0.00100017)
(-3.7435e-07 -4.67774e-07 -0.00100031)
(-2.40613e-07 -4.63041e-07 -0.0010004)
(-8.28245e-08 -4.59699e-07 -0.00100046)
(-7.429e-07 -1.05011e-07 -0.000999444)
(-6.71251e-07 -1.0314e-07 -0.000999677)
(-5.33577e-07 -1.01527e-07 -0.000999876)
(-3.43126e-07 -1.00336e-07 -0.00100002)
(-1.18132e-07 -9.95106e-08 -0.0010001)
(-7.40428e-07 -3.04699e-07 -0.000999511)
(-6.68972e-07 -2.99344e-07 -0.000999742)
(-5.31737e-07 -2.94723e-07 -0.00099994)
(-3.41925e-07 -2.91311e-07 -0.00100008)
(-1.17715e-07 -2.88945e-07 -0.00100016)
(-7.33331e-07 -4.73103e-07 -0.000999637)
(-6.62526e-07 -4.64876e-07 -0.000999865)
(-5.26555e-07 -4.57769e-07 -0.00100006)
(-3.38579e-07 -4.52525e-07 -0.0010002)
(-1.16566e-07 -4.48885e-07 -0.00100028)
(-7.23496e-07 -5.94013e-07 -0.000999809)
(-6.53675e-07 -5.83676e-07 -0.00100003)
(-5.19442e-07 -5.7477e-07 -0.00100023)
(-3.33991e-07 -5.68221e-07 -0.00100036)
(-1.14992e-07 -5.63673e-07 -0.00100044)
(-7.11792e-07 -6.56112e-07 -0.00100001)
(-6.43284e-07 -6.44364e-07 -0.00100023)
(-5.11135e-07 -6.34415e-07 -0.00100042)
(-3.28651e-07 -6.27125e-07 -0.00100055)
(-1.13161e-07 -6.22098e-07 -0.00100063)
(-1.01881e-06 -1.43463e-07 -0.000999241)
(-9.21284e-07 -1.40606e-07 -0.000999562)
(-7.32932e-07 -1.38126e-07 -0.000999836)
(-4.71678e-07 -1.36276e-07 -0.00100004)
(-1.62465e-07 -1.35025e-07 -0.00100014)
(-1.01484e-06 -4.1616e-07 -0.000999333)
(-9.17587e-07 -4.07964e-07 -0.000999651)
(-7.29913e-07 -4.00851e-07 -0.000999923)
(-4.69689e-07 -3.95555e-07 -0.00100012)
(-1.61772e-07 -3.91969e-07 -0.00100023)
(-1.00406e-06 -6.45732e-07 -0.000999506)
(-9.07679e-07 -6.33112e-07 -0.000999819)
(-7.21901e-07 -6.22174e-07 -0.00100009)
(-4.64478e-07 -6.14051e-07 -0.00100028)
(-1.59974e-07 -6.0854e-07 -0.00100039)
(-9.89101e-07 -8.09921e-07 -0.000999742)
(-8.94081e-07 -7.94042e-07 -0.00100005)
(-7.10929e-07 -7.80331e-07 -0.00100031)
(-4.57354e-07 -7.70194e-07 -0.0010005)
(-1.57516e-07 -7.63322e-07 -0.0010006)
(-9.71354e-07 -8.93106e-07 -0.00100002)
(-8.78091e-07 -8.75279e-07 -0.00100032)
(-6.981e-07 -8.60022e-07 -0.00100057)
(-4.49066e-07 -8.48801e-07 -0.00100076)
(-1.54665e-07 -8.41231e-07 -0.00100086)
(-1.39812e-06 -1.96242e-07 -0.000998964)
(-1.26569e-06 -1.91897e-07 -0.000999405)
(-1.0082e-06 -1.88055e-07 -0.000999783)
(-6.49584e-07 -1.85144e-07 -0.00100006)
(-2.23903e-07 -1.83215e-07 -0.00100021)
(-1.39178e-06 -5.69055e-07 -0.000999089)
(-1.25974e-06 -5.56553e-07 -0.000999527)
(-1.00324e-06 -5.45542e-07 -0.000999903)
(-6.46264e-07 -5.37231e-07 -0.00100018)
(-2.22736e-07 -5.31701e-07 -0.00100033)
(-1.37536e-06 -8.82203e-07 -0.000999327)
(-1.2445e-06 -8.62908e-07 -0.000999758)
(-9.90763e-07 -8.46009e-07 -0.00100013)
(-6.38047e-07 -8.33316e-07 -0.0010004)
(-2.19874e-07 -8.24854e-07 -0.00100054)
(-1.35264e-06 -1.10498e-06 -0.000999651)
(-1.22362e-06 -1.08069e-06 -0.00100007)
(-9.73753e-07 -1.05956e-06 -0.00100043)
(-6.26888e-07 -1.04379e-06 -0.0010007)
(-2.15996e-07 -1.0333e-06 -0.00100084)
(-1.32571e-06 -1.21607e-06 -0.00100003)
(-1.19909e-06 -1.18884e-06 -0.00100044)
(-9.53928e-07 -1.16539e-06 -0.00100079)
(-6.13968e-07 -1.14806e-06 -0.00100104)
(-2.11522e-07 -1.13662e-06 -0.00100118)
(-1.91978e-06 -2.68939e-07 -0.000998582)
(-1.74081e-06 -2.62288e-07 -0.00099919)
(-1.38943e-06 -2.56264e-07 -0.000999714)
(-8.96859e-07 -2.51603e-07 -0.0010001)
(-3.0948e-07 -2.48545e-07 -0.00100031)
(-1.90974e-06 -7.79416e-07 -0.000998756)
(-1.73117e-06 -7.60318e-07 -0.000999358)
(-1.38118e-06 -7.4312e-07 -0.000999878)
(-8.91215e-07 -7.29864e-07 -0.00100026)
(-3.07468e-07 -7.21136e-07 -0.00100047)
(-1.88479e-06 -1.20688e-06 -0.000999083)
(-1.70767e-06 -1.17746e-06 -0.000999675)
(-1.36154e-06 -1.15122e-06 -0.00100018)
(-8.7803e-07 -1.13114e-06 -0.00100056)
(-3.02818e-07 -1.11793e-06 -0.00100076)
(-1.8504e-06 -1.50884e-06 -0.000999528)
(-1.67561e-06 -1.47186e-06 -0.0010001)
(-1.335e-06 -1.43926e-06 -0.0010006)
(-8.60369e-07 -1.41458e-06 -0.00100096)
(-2.96625e-07 -1.3984e-06 -0.00100116)
(-1.8096e-06 -1.6564e-06 -0.00100004)
(-1.6381e-06 -1.61484e-06 -0.0010006)
(-1.30435e-06 -1.5788e-06 -0.00100108)
(-8.40163e-07 -1.55191e-06 -0.00100143)
(-2.89574e-07 -1.53446e-06 -0.00100162)
(-2.63712e-06 -3.69427e-07 -0.000998055)
(-2.39741e-06 -3.59178e-07 -0.000998892)
(-1.91959e-06 -3.49583e-07 -0.000999621)
(-1.24277e-06 -3.41918e-07 -0.00100016)
(-4.2961e-07 -3.36902e-07 -0.00100046)
(-2.62141e-06 -1.06994e-06 -0.000998295)
(-2.3817e-06 -1.04069e-06 -0.000999125)
(-1.90564e-06 -1.01347e-06 -0.000999845)
(-1.23293e-06 -9.91823e-07 -0.00100038)
(-4.2603e-07 -9.77621e-07 -0.00100067)
(-2.58376e-06 -1.65421e-06 -0.000998749)
(-2.34525e-06 -1.60945e-06 -0.000999562)
(-1.87423e-06 -1.56837e-06 -0.00100026)
(-1.21125e-06 -1.53606e-06 -0.00100079)
(-4.18259e-07 -1.51491e-06 -0.00100107)
(-2.53209e-06 -2.06314e-06 -0.000999362)
(-2.296e-06 -2.00712e-06 -0.00100015)
(-1.83245e-06 -1.95669e-06 -0.00100083)
(-1.18283e-06 -1.91768e-06 -0.00100134)
(-4.08158e-07 -1.8923e-06 -0.0010016)
(-2.47084e-06 -2.25725e-06 -0.00100007)
(-2.23881e-06 -2.19424e-06 -0.00100083)
(-1.7849e-06 -2.13888e-06 -0.00100149)
(-1.15097e-06 -2.09697e-06 -0.00100197)
(-3.96935e-07 -2.07009e-06 -0.00100223)
(-3.62271e-06 -5.08862e-07 -0.000997322)
(-3.30687e-06 -4.92987e-07 -0.000998477)
(-2.66135e-06 -4.77348e-07 -0.000999495)
(-1.7314e-06 -4.64309e-07 -0.00100027)
(-6.00244e-07 -4.55728e-07 -0.00100069)
(-3.59834e-06 -1.47319e-06 -0.000997656)
(-3.28096e-06 -1.42825e-06 -0.000998798)
(-2.63717e-06 -1.38433e-06 -0.000999801)
(-1.71366e-06 -1.34782e-06 -0.00100056)
(-5.93642e-07 -1.3237e-06 -0.00100097)
(-3.54207e-06 -2.27356e-06 -0.000998289)
(-3.22388e-06 -2.20559e-06 -0.000999405)
(-2.5857e-06 -2.14045e-06 -0.00100038)
(-1.67674e-06 -2.08711e-06 -0.00100111)
(-5.80077e-07 -2.05196e-06 -0.0010015)
(-3.46541e-06 -2.82713e-06 -0.000999139)
(-3.14804e-06 -2.74289e-06 -0.00100022)
(-2.51896e-06 -2.66455e-06 -0.00100116)
(-1.62983e-06 -2.60187e-06 -0.00100186)
(-5.63054e-07 -2.561e-06 -0.00100223)
(-3.37507e-06 -3.07886e-06 -0.00100011)
(-3.0613e-06 -2.984e-06 -0.00100116)
(-2.44483e-06 -2.89911e-06 -0.00100206)
(-1.57886e-06 -2.83336e-06 -0.00100273)
(-5.44822e-07 -2.79152e-06 -0.00100308)
(-4.97358e-06 -7.03202e-07 -0.000996291)
(-4.57019e-06 -6.78294e-07 -0.000997885)
(-3.70837e-06 -6.51915e-07 -0.000999316)
(-2.43197e-06 -6.28817e-07 -0.00100043)
(-8.46982e-07 -6.13365e-07 -0.00100105)
(-4.93596e-06 -2.03688e-06 -0.000996758)
(-4.52649e-06 -1.9674e-06 -0.00099833)
(-3.66499e-06 -1.89448e-06 -0.000999732)
(-2.39872e-06 -1.83028e-06 -0.00100082)
(-8.34273e-07 -1.78687e-06 -0.00100142)
(-4.85324e-06 -3.13701e-06 -0.000997651)
(-4.43576e-06 -3.0339e-06 -0.000999184)
(-3.57776e-06 -2.92853e-06 -0.00100054)
(-2.3326e-06 -2.83725e-06 -0.00100157)
(-8.09114e-07 -2.77573e-06 -0.00100213)
(-4.74159e-06 -3.887e-06 -0.000998837)
(-4.31826e-06 -3.76169e-06 -0.00100032)
(-3.46871e-06 -3.63934e-06 -0.00100161)
(-2.25243e-06 -3.53633e-06 -0.00100259)
(-7.79176e-07 -3.46785e-06 -0.00100311)
(-4.6127e-06 -4.2073e-06 -0.0010002)
(-4.18811e-06 -4.06531e-06 -0.00100163)
(-3.35262e-06 -3.93571e-06 -0.00100287)
(-2.16899e-06 -3.8314e-06 -0.00100379)
(-7.4848e-07 -3.76539e-06 -0.00100427)
(-6.81493e-06 -9.74908e-07 -0.000994815)
(-6.33241e-06 -9.34554e-07 -0.000997026)
(-5.20566e-06 -8.87817e-07 -0.000999053)
(-3.45921e-06 -8.45148e-07 -0.0010007)
(-1.21325e-06 -8.15922e-07 -0.00100165)
(-6.75691e-06 -2.83358e-06 -0.000995466)
(-6.25554e-06 -2.72416e-06 -0.000997635)