/*--------------------------------*- C++ -*----------------------------------*\
| =========                 |                                                 |
| \\      /  F ield         | OpenFOAM: The Open Source CFD Toolbox           |
|  \\    /   O peration     | Version:  5.x                                   |
|   \\  /    A nd           | Web:      www.OpenFOAM.org                      |
|    \\/     M anipulation  |                                                 |
\*---------------------------------------------------------------------------*/
FoamFile
{
    version     2.0;
    format      ascii;
    class       volScalarField;
    location    "40000";
    object      p;
}
// * * * * * * * * * * * * * * * * * * * * * * * * * * * * * * * * * * * * * //

dimensions      [0 2 -2 0 0 0 0];

internalField   nonuniform List<scalar> 
2250
(
-2.69502e-10
-2.60454e-10
-2.1072e-10
-1.36523e-10
-5.57995e-11
-3.20844e-10
-3.09821e-10
-2.54987e-10
-1.75685e-10
-9.48702e-11
-4.03371e-10
-3.99813e-10
-3.40202e-10
-2.52441e-10
-1.67104e-10
-5.28185e-10
-5.20445e-10
-4.36849e-10
-3.17327e-10
-2.02578e-10
-6.85689e-10
-6.49838e-10
-5.11527e-10
-3.28035e-10
-1.61162e-10
-7.86546e-10
-7.3541e-10
-5.95123e-10
-3.88774e-10
-1.34615e-10
-9.01119e-10
-8.51526e-10
-7.04428e-10
-4.91788e-10
-2.53138e-10
-1.12379e-09
-1.0914e-09
-9.34463e-10
-7.07178e-10
-4.76865e-10
-1.43812e-09
-1.39239e-09
-1.17925e-09
-8.88237e-10
-6.19876e-10
-1.80957e-09
-1.68801e-09
-1.35576e-09
-9.47511e-10
-6.09712e-10
-1.23538e-09
-1.12778e-09
-9.42107e-10
-6.58752e-10
-2.91769e-10
-1.36026e-09
-1.27286e-09
-1.09338e-09
-8.17686e-10
-5.03346e-10
-1.66006e-09
-1.59572e-09
-1.40481e-09
-1.12152e-09
-8.38421e-10
-2.03301e-09
-1.94619e-09
-1.69247e-09
-1.36147e-09
-1.07942e-09
-2.38954e-09
-2.21598e-09
-1.86221e-09
-1.46627e-09
-1.18152e-09
-1.5913e-09
-1.47066e-09
-1.31137e-09
-1.05124e-09
-7.1779e-10
-1.6992e-09
-1.6217e-09
-1.47721e-09
-1.23438e-09
-9.50917e-10
-1.97764e-09
-1.91374e-09
-1.7507e-09
-1.49758e-09
-1.23945e-09
-2.23285e-09
-2.13318e-09
-1.92841e-09
-1.66514e-09
-1.43872e-09
-2.32522e-09
-2.16715e-09
-1.94878e-09
-1.72141e-09
-1.54442e-09
-1.93961e-09
-1.87032e-09
-1.77337e-09
-1.57865e-09
-1.32781e-09
-2.03001e-09
-2.00023e-09
-1.90431e-09
-1.70416e-09
-1.45896e-09
-2.18229e-09
-2.13327e-09
-2.01103e-09
-1.80223e-09
-1.5701e-09
-2.17396e-09
-2.07815e-09
-1.96459e-09
-1.81255e-09
-1.66754e-09
-1.8614e-09
-1.77866e-09
-1.76499e-09
-1.76197e-09
-1.77749e-09
-2.33013e-09
-2.33184e-09
-2.25364e-09
-2.06801e-09
-1.84439e-09
-2.39912e-09
-2.39977e-09
-2.29493e-09
-2.0861e-09
-1.84641e-09
-2.36306e-09
-2.31329e-09
-2.19452e-09
-2.01111e-09
-1.81181e-09
-2.07843e-09
-2.00145e-09
-1.95756e-09
-1.90353e-09
-1.85371e-09
-1.48198e-09
-1.50556e-09
-1.63647e-09
-1.8032e-09
-2.01996e-09
-2.69456e-09
-2.71808e-09
-2.59057e-09
-2.36658e-09
-2.14201e-09
-2.7233e-09
-2.6992e-09
-2.53728e-09
-2.30877e-09
-2.09387e-09
-2.53485e-09
-2.46429e-09
-2.3206e-09
-2.14953e-09
-1.9825e-09
-2.14013e-09
-2.08757e-09
-2.03953e-09
-1.98701e-09
-1.92332e-09
-1.60741e-09
-1.67719e-09
-1.74741e-09
-1.83679e-09
-1.94627e-09
-2.89135e-09
-2.86743e-09
-2.67763e-09
-2.43732e-09
-2.23003e-09
-2.87043e-09
-2.79065e-09
-2.5928e-09
-2.37616e-09
-2.17125e-09
-2.65884e-09
-2.5702e-09
-2.40211e-09
-2.21414e-09
-1.99762e-09
-2.3909e-09
-2.34342e-09
-2.20323e-09
-2.01913e-09
-1.76374e-09
-2.21933e-09
-2.2005e-09
-2.0121e-09
-1.78887e-09
-1.49775e-09
-2.83051e-09
-2.73837e-09
-2.53298e-09
-2.30159e-09
-2.05051e-09
-2.78878e-09
-2.67867e-09
-2.493e-09
-2.27624e-09
-1.9839e-09
-2.68857e-09
-2.59787e-09
-2.40645e-09
-2.14837e-09
-1.78743e-09
-2.67084e-09
-2.58954e-09
-2.32275e-09
-1.96125e-09
-1.47608e-09
-2.85929e-09
-2.67703e-09
-2.24618e-09
-1.74502e-09
-1.11854e-09
-2.54892e-09
-2.43093e-09
-2.24298e-09
-1.98021e-09
-1.59193e-09
-2.54299e-09
-2.44605e-09
-2.27041e-09
-1.9839e-09
-1.52722e-09
-2.59028e-09
-2.49591e-09
-2.26013e-09
-1.88557e-09
-1.34461e-09
-2.75066e-09
-2.60869e-09
-2.24853e-09
-1.74785e-09
-1.0826e-09
-3.05691e-09
-2.77542e-09
-2.27169e-09
-1.63837e-09
-8.20884e-10
-2.15753e-09
-2.06006e-09
-1.85309e-09
-1.4781e-09
-9.13732e-10
-2.21876e-09
-2.13513e-09
-1.904e-09
-1.473e-09
-8.2082e-10
-2.32996e-09
-2.20389e-09
-1.88914e-09
-1.37005e-09
-6.34358e-10
-2.4969e-09
-2.29789e-09
-1.88328e-09
-1.26555e-09
-4.22345e-10
-2.70124e-09
-2.42576e-09
-1.93424e-09
-1.18617e-09
-1.74001e-10
-1.71768e-09
-1.62885e-09
-1.3223e-09
-7.70329e-10
3.03235e-12
-1.81544e-09
-1.69495e-09
-1.33682e-09
-7.24632e-10
1.24259e-10
-1.87581e-09
-1.69035e-09
-1.27665e-09
-6.21565e-10
2.59706e-10
-1.9395e-09
-1.70513e-09
-1.24901e-09
-5.40468e-10
4.14243e-10
-1.99691e-09
-1.75867e-09
-1.25216e-09
-4.00484e-10
7.44554e-10
-1.19465e-09
-1.05488e-09
-6.00192e-10
1.29397e-10
1.09452e-09
-1.26817e-09
-1.06485e-09
-5.6768e-10
1.85971e-10
1.12827e-09
-1.24292e-09
-9.98696e-10
-5.05649e-10
2.1498e-10
1.08891e-09
-1.22635e-09
-9.79882e-10
-4.98791e-10
2.20904e-10
1.12528e-09
-1.22637e-09
-1.00655e-09
-4.81528e-10
3.58178e-10
1.46296e-09
-5.43669e-10
-3.08073e-10
2.65801e-10
1.09053e-09
2.09782e-09
-5.65705e-10
-2.79674e-10
2.97758e-10
1.08753e-09
1.97489e-09
-5.23289e-10
-2.44914e-10
2.78841e-10
9.88265e-10
1.77471e-09
-5.37895e-10
-2.95262e-10
1.90999e-10
8.78906e-10
1.6976e-09
-6.11594e-10
-3.93834e-10
1.29192e-10
9.04279e-10
1.93726e-09
1.86123e-10
5.14024e-10
1.12947e-09
1.94039e-09
2.84632e-09
1.90465e-10
5.24004e-10
1.10155e-09
1.84614e-09
2.64956e-09
1.44622e-10
4.30611e-10
9.47891e-10
1.642e-09
2.42665e-09
-1.41248e-11
2.24439e-10
7.23302e-10
1.4323e-09
2.28526e-09
-2.46911e-10
-1.07003e-11
5.24067e-10
1.30585e-09
2.38953e-09
8.44284e-10
1.22668e-09
1.82263e-09
2.57767e-09
3.38595e-09
8.23153e-10
1.16135e-09
1.69989e-09
2.41033e-09
3.2206e-09
6.18731e-10
8.95686e-10
1.41128e-09
2.14888e-09
3.04655e-09
2.69804e-10
5.18302e-10
1.05888e-09
1.85717e-09
2.83282e-09
-1.15159e-10
1.53154e-10
7.14521e-10
1.55958e-09
2.75723e-09
1.24286e-09
1.63494e-09
2.22057e-09
2.99827e-09
3.8808e-09
1.14276e-09
1.46131e-09
2.00642e-09
2.79637e-09
3.7924e-09
7.79093e-10
1.05488e-09
1.62602e-09
2.49121e-09
3.58385e-09
2.82639e-10
5.63568e-10
1.17663e-09
2.08919e-09
3.19871e-09
-2.05836e-10
9.28069e-11
6.75845e-10
1.57727e-09
2.84895e-09
1.22534e-09
1.61536e-09
2.2947e-09
3.28153e-09
4.5421e-09
1.02156e-09
1.35354e-09
2.03407e-09
3.07297e-09
4.43719e-09
5.72482e-10
8.99403e-10
1.61368e-09
2.677e-09
3.99058e-09
3.0666e-11
3.7769e-10
1.08264e-09
2.09774e-09
3.33136e-09
-5.10601e-10
-1.75277e-10
4.14686e-10
1.35314e-09
2.7111e-09
7.17892e-10
1.17092e-09
2.10469e-09
3.48418e-09
5.28018e-09
4.50071e-10
8.92965e-10
1.84337e-09
3.23492e-09
4.96549e-09
2.29857e-11
4.77896e-10
1.40008e-09
2.6922e-09
4.21899e-09
-4.69836e-10
-2.47472e-11
7.84255e-10
1.91637e-09
3.32702e-09
-9.92308e-10
-6.25876e-10
-1.84923e-11
9.91669e-10
2.48727e-09
-2.8795e-10
3.59883e-10
1.68928e-09
3.5605e-09
5.8223e-09
-5.3351e-10
1.27076e-10
1.4277e-09
3.21988e-09
5.3323e-09
-8.81915e-10
-2.45359e-10
9.36545e-10
2.55556e-09
4.4861e-09
-1.31934e-09
-7.65019e-10
2.22147e-10
1.6252e-09
3.41149e-09
-1.82596e-09
-1.4334e-09
-6.64659e-10
5.54711e-10
2.16408e-09
-1.86602e-09
-8.79567e-10
9.81974e-10
3.51134e-09
6.45368e-09
-2.02535e-09
-1.06485e-09
6.94983e-10
3.09509e-09
5.9578e-09
-2.32452e-09
-1.46694e-09
1.10659e-10
2.32858e-09
5.06185e-09
-2.78702e-09
-2.08924e-09
-7.32403e-10
1.20974e-09
3.66449e-09
-3.40758e-09
-2.87306e-09
-1.70418e-09
-8.17403e-11
1.91401e-09
-4.31971e-09
-2.8556e-09
-2.14443e-10
3.39945e-09
7.69186e-09
-4.37909e-09
-3.0205e-09
-5.4259e-10
2.90949e-09
7.07557e-09
-4.65366e-09
-3.48017e-09
-1.23861e-09
1.95059e-09
5.86413e-09
-5.12858e-09
-4.15511e-09
-2.19594e-09
5.33534e-10
3.95936e-09
-5.78449e-09
-4.91378e-09
-3.26891e-09
-1.08554e-09
1.91661e-09
-8.26301e-09
-6.15028e-09
-2.2952e-09
3.07098e-09
9.50144e-09
-8.2084e-09
-6.2807e-09
-2.65077e-09
2.45147e-09
8.55587e-09
-8.3251e-09
-6.64273e-09
-3.37077e-09
1.22356e-09
6.75568e-09
-8.50747e-09
-7.06804e-09
-4.31216e-09
-5.37064e-10
4.13696e-09
-8.68995e-09
-7.48296e-09
-5.43203e-09
-2.56883e-09
1.51018e-09
-1.46235e-08
-1.15936e-08
-5.86957e-09
2.14182e-09
1.16924e-08
-1.43505e-08
-1.15581e-08
-6.15754e-09
1.39494e-09
1.03602e-08
-1.39296e-08
-1.14564e-08
-6.68112e-09
-7.07613e-11
7.77005e-09
-1.32671e-08
-1.12074e-08
-7.38286e-09
-2.12809e-09
4.1804e-09
-1.24431e-08
-1.09976e-08
-8.34963e-09
-4.57854e-09
3.33495e-10
-2.46757e-08
-2.02615e-08
-1.17142e-08
2.03713e-10
1.4316e-08
-2.38919e-08
-1.97571e-08
-1.17231e-08
-5.81232e-10
1.25605e-08
-2.23079e-08
-1.86653e-08
-1.17083e-08
-2.14059e-09
9.11032e-09
-2.01096e-08
-1.72204e-08
-1.17965e-08
-4.32331e-09
4.49027e-09
-1.77788e-08
-1.58798e-08
-1.21597e-08
-7.00286e-09
-6.30561e-10
-4.02589e-08
-3.37057e-08
-2.09772e-08
-3.31694e-09
1.75144e-08
-3.84166e-08
-3.22514e-08
-2.03776e-08
-3.97559e-09
1.53576e-08
-3.47741e-08
-2.94317e-08
-1.92795e-08
-5.30224e-09
1.11555e-08
-3.00219e-08
-2.58973e-08
-1.80736e-08
-7.26273e-09
5.49654e-09
-2.50455e-08
-2.2357e-08
-1.71333e-08
-9.87895e-09
-1.03499e-09
-6.43196e-08
-5.45509e-08
-3.56993e-08
-9.55711e-09
2.14199e-08
-6.05722e-08
-5.14428e-08
-3.39627e-08
-9.76451e-09
1.89353e-08
-5.34983e-08
-4.56975e-08
-3.08395e-08
-1.02843e-08
1.40415e-08
-4.44428e-08
-3.84943e-08
-2.7133e-08
-1.13856e-08
7.21763e-09
-3.48452e-08
-3.10681e-08
-2.36844e-08
-1.34229e-08
-1.21623e-09
-1.01767e-07
-8.72967e-08
-5.94196e-08
-2.06663e-08
2.56569e-08
-9.48075e-08
-8.13873e-08
-5.56168e-08
-1.98234e-08
2.29211e-08
-8.1954e-08
-7.05856e-08
-4.87601e-08
-1.84889e-08
1.75126e-08
-6.55341e-08
-5.69123e-08
-4.03057e-08
-1.73773e-08
9.79272e-09
-4.8196e-08
-4.26553e-08
-3.19885e-08
-1.74987e-08
-3.64534e-10
-1.60529e-07
-1.39251e-07
-9.79249e-08
-4.04573e-08
2.89436e-08
-1.4819e-07
-1.28533e-07
-9.04321e-08
-3.74957e-08
2.62586e-08
-1.25428e-07
-1.08871e-07
-7.67764e-08
-3.23032e-08
2.10565e-08
-9.62741e-08
-8.37692e-08
-5.95545e-08
-2.63491e-08
1.33369e-08
-6.56677e-08
-5.76428e-08
-4.23367e-08
-2.19053e-08
2.1957e-09
-2.52958e-07
-2.22001e-07
-1.60419e-07
-7.55226e-08
2.94108e-08
-2.31619e-07
-2.03018e-07
-1.46505e-07
-6.84561e-08
2.74651e-08
-1.919e-07
-1.67981e-07
-1.20803e-07
-5.58113e-08
2.371e-08
-1.4091e-07
-1.23063e-07
-8.78514e-08
-4.02614e-08
1.77197e-08
-8.82306e-08
-7.7123e-08
-5.52177e-08
-2.6755e-08
6.95992e-09
-3.97941e-07
-3.54233e-07
-2.61095e-07
-1.3788e-07
2.53099e-08
-3.61896e-07
-3.21144e-07
-2.36409e-07
-1.22739e-07
2.49147e-08
-2.93513e-07
-2.5985e-07
-1.9004e-07
-9.64962e-08
2.41632e-08
-2.05354e-07
-1.80792e-07
-1.28807e-07
-6.24245e-08
2.37849e-08
-1.17979e-07
-1.02924e-07
-7.09369e-08
-3.23592e-08
1.59102e-08
-6.23396e-07
-5.67709e-07
-4.1928e-07
-2.53245e-07
1.93e-08
-5.64733e-07
-5.10144e-07
-3.78188e-07
-2.20582e-07
1.95721e-08
-4.4851e-07
-4.04563e-07
-2.9824e-07
-1.70383e-07
2.15148e-08
-2.95479e-07
-2.65526e-07
-1.83505e-07
-1.00039e-07
3.52407e-08
-1.5849e-07
-1.40049e-07
-8.98671e-08
-4.16141e-08
3.16426e-08
-9.68205e-07
-9.20869e-07
-6.52429e-07
-4.84971e-07
3.27347e-08
-8.78717e-07
-8.18152e-07
-5.91904e-07
-4.0776e-07
2.59392e-08
-6.84751e-07
-6.40431e-07
-4.65977e-07
-3.17517e-07
1.95395e-08
-4.08016e-07
-3.89705e-07
-2.33219e-07
-1.72356e-07
7.0454e-08
-2.21955e-07
-2.07752e-07
-1.1592e-07
-7.08581e-08
5.93397e-08
-1.48879e-06
-1.5176e-06
-9.79794e-07
-9.58683e-07
1.05239e-07
-1.36184e-06
-1.32687e-06
-8.98242e-07
-7.63834e-07
7.28086e-08
-1.05297e-06
-1.04425e-06
-7.41905e-07
-6.28252e-07
1.72096e-08
-5.0909e-07
-5.65165e-07
-2.01828e-07
-3.1038e-07
1.95558e-07
-3.48121e-07
-3.60928e-07
-1.77504e-07
-1.72079e-07
1.06662e-07
-2.2707e-06
-2.51341e-06
-1.47447e-06
-1.85979e-06
2.7079e-07
-2.09824e-06
-2.13604e-06
-1.36124e-06
-1.36135e-06
1.62477e-07
-1.63973e-06
-1.72888e-06
-1.24834e-06
-1.2421e-06
-5.40707e-08
-5.49612e-07
-7.97851e-07
8.13427e-10
-5.16755e-07
5.3242e-07
-5.99282e-07
-6.664e-07
-3.37679e-07
-4.22249e-07
1.71058e-07
-3.34079e-06
-4.09378e-06
-2.25303e-06
-3.46255e-06
6.43359e-07
-3.15569e-06
-3.33203e-06
-2.14797e-06
-2.30019e-06
2.33695e-07
-2.4963e-06
-2.72362e-06
-2.15149e-06
-2.28781e-06
-3.27193e-07
-4.48926e-07
-1.09783e-06
1.98391e-07
-5.6739e-07
9.72268e-07
-9.72041e-07
-1.11391e-06
-6.44964e-07
-8.47952e-07
2.92885e-07
-3.23573e-06
-5.6961e-06
-3.38024e-06
-6.25253e-06
1.68668e-06
-3.84679e-06
-4.41556e-06
-3.2872e-06
-3.73971e-06
6.91405e-08
-2.59981e-06
-2.73903e-06
-3.29811e-06
-3.79389e-06
-9.41189e-07
5.57208e-07
-6.75089e-07
1.13221e-06
-6.94191e-07
1.71481e-06
-5.88854e-07
-7.47281e-07
-8.13493e-07
-1.52279e-06
3.59626e-07
-1.58925e-05
-1.83775e-05
-1.44783e-05
-1.73979e-05
-9.77922e-06
-1.53821e-05
-1.69981e-05
-1.47697e-05
-1.46978e-05
-8.69295e-06
-1.57985e-05
-1.69451e-05
-1.45138e-05
-1.40234e-05
-7.85944e-06
-1.03917e-05
-1.20042e-05
-7.26306e-06
-9.09459e-06
-3.58542e-06
-1.04897e-05
-1.09901e-05
-7.42113e-06
-7.04125e-06
-1.247e-06
1.05453e-05
-2.36074e-06
3.08745e-06
-1.0994e-05
2.796e-05
2.09287e-06
-6.30539e-07
-9.73028e-07
1.6621e-06
6.84669e-06
8.28855e-06
1.16379e-05
-2.51745e-06
1.23807e-06
5.18491e-06
1.92614e-05
1.4662e-05
1.92857e-05
8.11973e-06
1.91819e-05
1.05625e-05
1.2842e-05
6.04925e-06
4.44462e-06
8.41222e-06
-3.13216e-05
-4.43446e-05
-4.64634e-05
-5.02561e-05
-5.24343e-05
-2.89661e-05
-4.70034e-05
-5.10091e-05
-5.14861e-05
-2.81399e-05
-4.67583e-05
-5.65062e-05
-4.61477e-05
-4.61138e-05
-2.30191e-05
-4.10688e-05
-4.16632e-05
-3.55709e-05
-3.21564e-05
-2.32961e-05
-1.77441e-05
-1.91224e-05
-1.26177e-05
-1.6295e-05
6.66966e-06
3.75967e-05
-4.39375e-05
-5.12441e-05
-7.74078e-05
0.000135118
-2.80493e-05
-6.41855e-05
-6.35946e-05
-2.4075e-05
-9.09204e-05
-1.92287e-05
4.83793e-05
-6.57935e-05
-2.59733e-05
7.51284e-06
2.5713e-05
6.69457e-06
2.84459e-05
-3.7912e-05
7.376e-05
4.50933e-06
5.09254e-05
-2.66639e-05
-2.49946e-05
-3.12191e-05
0.000778867
0.000877867
0.000481704
0.000771594
0.000603342
0.000940925
0.000804891
0.000966013
0.000603691
0.00068359
0.000842449
0.000761598
0.00066766
0.00049706
0.00072106
0.000744218
0.0006709
0.000538174
0.000658279
0.000392007
0.000905443
0.000827033
0.000919855
0.000544886
0.000486607
0.00105171
0.00153752
0.00141332
0.00118048
0.000892061
0.00146296
0.00130548
0.00157356
0.00119247
0.00115903
0.00141291
0.00138591
0.00148337
0.000960744
0.00131674
0.0015542
0.00105212
0.000955669
0.0010859
0.000770573
0.0014006
0.00117181
0.00115946
0.00139621
0.001491
0.00182434
0.0017911
0.00195247
0.0018986
0.00192506
0.00170943
0.00177048
0.00214515
0.00164611
0.00170249
0.00187951
0.0018543
0.00201092
0.00238329
0.00161184
0.00196507
0.00194317
0.00166672
0.00192096
0.00198804
0.00243009
0.00195432
0.0016648
0.00247936
0.00168315
0.00225003
0.00206657
0.00245765
0.00303457
0.00327998
0.00230775
0.00288372
0.00248653
0.00295655
0.00331814
0.0020743
0.00204909
0.00249477
0.00315201
0.00260242
0.00210169
0.00233462
0.00262864
0.00284124
0.00261262
0.00225418
0.00224235
0.0031393
0.00268069
0.00240679
0.00344001
0.00390805
0.00318867
0.00357111
0.00359154
0.0033318
0.00379215
0.00310535
0.00352336
0.00364907
0.00283635
0.00310961
0.00316114
0.00338746
0.00339233
0.00264705
0.00302659
0.00309337
0.00359468
0.00327152
0.00299103
0.0029297
0.00310113
0.00277105
0.00389473
0.00433629
0.00421265
0.00355832
0.00391298
0.00371585
0.00388869
0.00414735
0.00381203
0.00392033
0.00388475
0.00425999
0.00410187
0.00354518
0.00377883
0.00361878
0.00375491
0.00386689
0.00372082
0.00392373
0.00402779
0.00381184
0.00389787
0.00343579
0.00400733
0.00398092
0.00469095
0.00478952
0.00453296
0.00444784
0.0043356
0.00461065
0.00457845
0.00407473
0.0043426
0.00441022
0.00477618
0.00475994
0.00494721
0.00443166
0.00424611
0.00449492
0.00455288
0.00447442
0.00431232
0.00438688
0.00384668
0.00456483
0.00454347
0.00464104
0.0043576
0.00542636
0.00510028
0.00557594
0.00532267
0.00498351
0.0053867
0.00492608
0.0049008
0.00497084
0.00488207
0.0056088
0.00519591
0.00509396
0.00504825
0.00511615
0.00594793
0.00526198
0.00521584
0.0049879
0.00480445
0.00544669
0.00516703
0.00505559
0.00497962
0.00533035
0.00550434
0.00535198
0.00555821
0.0054178
0.00544902
0.00559095
0.00534356
0.00618052
0.00558665
0.0052097
0.00558029
0.00555681
0.00533256
0.00569703
0.00544707
0.0056512
0.00561347
0.00563825
0.00567711
0.00564232
0.00556129
0.00568399
0.0054596
0.00583932
0.00598497
0.00572667
0.00637001
0.00634339
0.006235
0.00605952
0.00622661
0.00627747
0.00635226
0.00631292
0.00630875
0.0057772
0.00617528
0.00616174
0.0063366
0.00597916
0.00595555
0.00620189
0.00597509
0.00619521
0.00613253
0.00660368
0.00618653
0.0059653
0.00609465
0.00612777
0.00645508
0.00647053
0.00645028
0.00647857
0.0064312
0.00645968
0.0064339
0.00643246
0.00646035
0.00644826
0.00646278
0.00645584
0.00644874
0.00645468
0.00641055
0.00644089
0.00643714
0.0064166
0.0064325
0.00639921
0.00646911
0.00645113
0.00637411
0.00635375
0.00638405
0.00638316
0.00637616
0.00638127
0.00634395
0.00637568
0.0063727
0.00638442
0.00638058
0.00636761
0.00637269
0.00637646
0.00636796
0.00636869
0.00635288
0.00637257
0.00637928
0.00637695
0.00639107
0.0063732
0.00638327
0.00640233
0.00639773
0.00639825
0.00638201
0.00639246
0.00640154
0.00639807
0.00639833
0.00638962
0.00638344
0.00639854
0.00639359
0.00639294
0.00638742
0.00638292
0.00640191
0.00639569
0.00638973
0.00638155
0.00638402
0.00639362
0.00639305
0.00638786
0.00637841
0.00637945
0.0064018
0.00639517
0.00638727
0.00637268
0.00637681
0.00638691
0.00638408
0.00638473
0.00637506
0.00638045
0.00638572
0.00638519
0.00638461
0.00637819
0.00637968
0.0063877
0.00638488
0.00638657
0.00637754
0.00638103
0.00638695
0.0063848
0.00638622
0.00637974
0.00638197
0.00639268
0.00639018
0.00638955
0.00638326
0.00638365
0.00638613
0.00638418
0.00638414
0.00637867
0.00637966
0.00638541
0.00638422
0.00638368
0.00637946
0.00637955
0.00638699
0.00638492
0.00638512
0.00637958
0.00638062
0.00638597
0.00638453
0.00638485
0.00638065
0.0063812
0.0063894
0.00638762
0.0063873
0.00638271
0.00638268
0.00638452
0.00638344
0.00638291
0.00637975
0.00637952
0.00638431
0.00638348
0.00638286
0.00638021
0.00637966
0.00638532
0.00638416
0.00638384
0.00638066
0.00638044
0.00638499
0.00638411
0.00638396
0.00638138
0.0063811
0.00638717
0.00638603
0.0063857
0.00638293
0.00638236
0.00638356
0.00638294
0.00638226
0.00638049
0.0063797
0.00638354
0.00638302
0.00638236
0.00638077
0.00637993
0.0063842
0.00638355
0.00638301
0.00638123
0.00638048
0.00638422
0.00638366
0.00638333
0.00638181
0.00638112
0.00638574
0.00638508
0.00638451
0.00638287
0.00638208
0.00638296
0.00638259
0.00638198
0.00638093
0.00638007
0.006383
0.00638266
0.00638211
0.00638113
0.00638027
0.00638352
0.00638312
0.00638254
0.0063815
0.00638068
0.00638364
0.0063833
0.00638291
0.00638199
0.00638122
0.00638461
0.00638421
0.00638368
0.0063827
0.00638194
0.0063826
0.00638234
0.00638187
0.00638119
0.00638047
0.00638267
0.00638243
0.00638199
0.00638133
0.00638063
0.006383
0.00638274
0.00638229
0.00638162
0.00638094
0.00638322
0.006383
0.00638263
0.00638201
0.00638136
0.0063838
0.00638355
0.00638314
0.00638252
0.00638189
0.00638235
0.00638217
0.00638183
0.00638135
0.00638081
0.00638244
0.00638226
0.00638193
0.00638147
0.00638094
0.00638265
0.00638247
0.00638214
0.00638169
0.00638117
0.00638289
0.00638273
0.00638243
0.00638199
0.00638149
0.00638325
0.00638309
0.00638279
0.00638236
0.00638188
0.00638219
0.00638206
0.00638182
0.00638148
0.00638108
0.00638227
0.00638214
0.0063819
0.00638156
0.00638117
0.00638242
0.00638229
0.00638206
0.00638173
0.00638135
0.00638262
0.0063825
0.00638227
0.00638196
0.00638159
0.00638288
0.00638276
0.00638254
0.00638224
0.00638188
0.00638209
0.006382
0.00638182
0.00638157
0.00638129
0.00638215
0.00638205
0.00638188
0.00638164
0.00638135
0.00638226
0.00638217
0.006382
0.00638176
0.00638148
0.00638242
0.00638233
0.00638216
0.00638193
0.00638166
0.00638261
0.00638252
0.00638236
0.00638214
0.00638188
0.00638202
0.00638195
0.00638182
0.00638165
0.00638144
0.00638206
0.006382
0.00638187
0.00638169
0.00638149
0.00638215
0.00638208
0.00638196
0.00638179
0.00638158
0.00638227
0.0063822
0.00638208
0.00638191
0.00638172
0.00638241
0.00638235
0.00638223
0.00638207
0.00638188
0.00638197
0.00638192
0.00638183
0.0063817
0.00638155
0.006382
0.00638196
0.00638186
0.00638174
0.00638159
0.00638207
0.00638202
0.00638193
0.0063818
0.00638166
0.00638216
0.00638211
0.00638202
0.0063819
0.00638176
0.00638226
0.00638222
0.00638213
0.00638201
0.00638187
0.00638194
0.0063819
0.00638183
0.00638174
0.00638163
0.00638196
0.00638193
0.00638186
0.00638177
0.00638166
0.00638201
0.00638198
0.00638191
0.00638182
0.00638171
0.00638208
0.00638204
0.00638198
0.00638189
0.00638178
0.00638216
0.00638212
0.00638206
0.00638197
0.00638187
0.00638192
0.00638189
0.00638184
0.00638177
0.00638169
0.00638193
0.00638191
0.00638186
0.00638179
0.00638171
0.00638197
0.00638194
0.0063819
0.00638183
0.00638175
0.00638202
0.00638199
0.00638195
0.00638188
0.00638181
0.00638208
0.00638205
0.00638201
0.00638194
0.00638187
0.0063819
0.00638188
0.00638185
0.0063818
0.00638174
0.00638191
0.0063819
0.00638186
0.00638181
0.00638175
0.00638194
0.00638192
0.00638189
0.00638184
0.00638178
0.00638198
0.00638196
0.00638192
0.00638188
0.00638182
0.00638202
0.006382
0.00638197
0.00638192
0.00638187
0.00638189
0.00638188
0.00638185
0.00638181
0.00638177
0.0063819
0.00638189
0.00638186
0.00638182
0.00638178
0.00638192
0.00638191
0.00638188
0.00638184
0.0063818
0.00638195
0.00638193
0.00638191
0.00638187
0.00638183
0.00638198
0.00638196
0.00638194
0.00638191
0.00638187
0.00638188
0.00638187
0.00638185
0.00638183
0.0063818
0.00638189
0.00638188
0.00638186
0.00638183
0.0063818
0.0063819
0.00638189
0.00638188
0.00638185
0.00638182
0.00638192
0.00638191
0.0063819
0.00638187
0.00638184
0.00638195
0.00638194
0.00638192
0.00638189
0.00638187
0.00638188
0.00638187
0.00638186
0.00638184
0.00638181
0.00638188
0.00638187
0.00638186
0.00638184
0.00638182
0.00638189
0.00638189
0.00638187
0.00638185
0.00638183
0.00638191
0.0063819
0.00638189
0.00638187
0.00638185
0.00638192
0.00638192
0.0063819
0.00638189
0.00638187
0.00638187
0.00638187
0.00638186
0.00638184
0.00638183
0.00638188
0.00638187
0.00638186
0.00638185
0.00638183
0.00638188
0.00638188
0.00638187
0.00638186
0.00638184
0.0063819
0.00638189
0.00638188
0.00638187
0.00638185
0.00638191
0.0063819
0.00638189
0.00638188
0.00638187
0.00638187
0.00638187
0.00638186
0.00638185
0.00638184
0.00638187
0.00638187
0.00638186
0.00638185
0.00638184
0.00638188
0.00638187
0.00638187
0.00638186
0.00638185
0.00638189
0.00638188
0.00638188
0.00638187
0.00638186
0.0063819
0.00638189
0.00638189
0.00638188
0.00638186
0.00638187
0.00638186
0.00638186
0.00638185
0.00638184
0.00638187
0.00638187
0.00638186
0.00638186
0.00638185
0.00638187
0.00638187
0.00638187
0.00638186
0.00638185
0.00638188
0.00638188
0.00638187
0.00638187
0.00638186
0.00638189
0.00638188
0.00638188
0.00638187
0.00638186
0.00638187
0.00638186
0.00638186
0.00638186
0.00638185
0.00638187
0.00638187
0.00638186
0.00638186
0.00638185
0.00638187
0.00638187
0.00638187
0.00638186
0.00638185
0.00638188
0.00638187
0.00638187
0.00638186
0.00638186
0.00638188
0.00638188
0.00638187
0.00638187
0.00638186
0.00638186
0.00638186
0.00638186
0.00638186
0.00638185
0.00638187
0.00638186
0.00638186
0.00638186
0.00638185
0.00638187
0.00638187
0.00638186
0.00638186
0.00638186
0.00638187
0.00638187
0.00638187
0.00638186
0.00638186
0.00638187
0.00638187
0.00638187
0.00638187
0.00638186
0.00638186
0.00638186
0.00638186
0.00638186
0.00638185
0.00638186
0.00638186
0.00638186
0.00638186
0.00638186
0.00638187
0.00638186
0.00638186
0.00638186
0.00638186
0.00638187
0.00638187
0.00638187
0.00638186
0.00638186
0.00638187
0.00638187
0.00638187
0.00638187
0.00638186
0.00638186
0.00638186
0.00638186
0.00638186
0.00638186
0.00638186
0.00638186
0.00638186
0.00638186
0.00638186
0.00638186
0.00638186
0.00638186
0.00638186
0.00638186
0.00638187
0.00638187
0.00638186
0.00638186
0.00638186
0.00638187
0.00638187
0.00638187
0.00638186
0.00638186
0.00638186
0.00638186
0.00638186
0.00638186
0.00638186
0.00638186
0.00638186
0.00638186
0.00638186
0.00638186
0.00638186
0.00638186
0.00638186
0.00638186
0.00638186
0.00638186
0.00638186
0.00638186
0.00638186
0.00638186
0.00638187
0.00638187
0.00638187
0.00638186
0.00638186
0.00638186
0.00638186
0.00638186
0.00638186
0.00638186
0.00638186
0.00638186
0.00638186
0.00638186
0.00638186
0.00638186
0.00638186
0.00638186
0.00638186
0.00638186
0.00638186
0.00638186
0.00638186
0.00638186
0.00638186
0.00638187
0.00638187
0.00638186
0.00638186
0.00638186
0.00638186
0.00638186
0.00638186
0.00638186
0.00638186
0.00638186
0.00638186
0.00638186
0.00638186
0.00638186
0.00638186
0.00638186
0.00638186
0.00638186
0.00638186
0.00638186
0.00638186
0.00638186
0.00638186
0.00638186
0.00638186
0.00638186
0.00638186
0.00638186
0.00638186
0.00638186
0.00638186
0.00638186
0.00638186
0.00638186
0.00638186
0.00638186
0.00638186
0.00638186
0.00638186
0.00638186
0.00638186
0.00638186
0.00638186
0.00638186
0.00638186
0.00638186
0.00638186
0.00638186
0.00638186
0.00638186
0.00638186
0.00638186
0.00638186
0.00638186
0.00638186
0.00638186
0.00638186
0.00638186
0.00638186
0.00638186
0.00638186
0.00638186
0.00638186
0.00638186
0.00638186
0.00638186
0.00638186
0.00638186
0.00638186
0.00638186
0.00638186
0.00638186
0.00638186
0.00638186
0.00638186
0.00638186
0.00638186
0.00638186
0.00638186
0.00638186
0.00638186
0.00638186
0.00638186
0.00638186
0.00638186
0.00638186
0.00638186
0.00638186
0.00638186
0.00638186
0.00638186
0.00638186
0.00638186
0.00638186
0.00638186
0.00638186
0.00638186
0.00638186
0.00638186
0.00638186
0.00638186
0.00638186
0.00638186
0.00638186
0.00638186
0.00638186
0.00638186
0.00638186
0.00638186
0.00638186
0.00638186
0.00638186
0.00638186
0.00638186
0.00638186
0.00638186
0.00638186
0.00638186
0.00638186
0.00638186
0.00638186
0.00638186
0.00638186
0.00638186
0.00638186
0.00638186
0.00638186
0.00638186
0.00638186
0.00638186
0.00638186
0.00638186
0.00638186
0.00638186
0.00638186
0.00638186
0.00638186
0.00638186
0.00638186
0.00638186
0.00638186
0.00638186
0.00638186
0.00638186
0.00638186
0.00638187
0.00638186
0.00638186
0.00638186
0.00638187
0.00638187
0.00638187
0.00638186
0.00638186
0.00638187
0.00638187
0.00638187
0.00638186
0.00638186
0.00638187
0.00638187
0.00638187
0.00638187
0.00638186
0.00638187
0.00638187
0.00638187
0.00638187
0.00638186
0.00638187
0.00638187
0.00638187
0.00638187
0.00638187
0.00638187
0.00638187
0.00638187
0.00638187
0.00638187
0.00638187
0.00638187
0.00638187
0.00638187
0.00638186
0.00638187
0.00638187
0.00638187
0.00638187
0.00638186
0.00638187
0.00638187
0.00638187
0.00638187
0.00638187
0.00638187
0.00638187
0.00638187
0.00638187
0.00638187
0.00638187
0.00638187
0.00638187
0.00638187
0.00638187
0.00638187
0.00638187
0.00638187
0.00638187
0.00638186
0.00638187
0.00638187
0.00638187
0.00638187
0.00638187
0.00638187
0.00638187
0.00638187
0.00638187
0.00638187
0.00638187
0.00638187
0.00638187
0.00638186
0.00638186
0.00638187
0.00638187
0.00638186
0.00638186
0.00638186
0.00638187
0.00638187
0.00638187
0.00638187
0.00638187
0.00638187
0.00638187
0.00638187
0.00638187
0.00638187
0.00638187
0.00638187
0.00638187
0.00638187
0.00638186
0.00638187
0.00638187
0.00638186
0.00638186
0.00638186
0.00638186
0.00638186
0.00638186
0.00638186
0.00638186
)
;

boundaryField
{
    inlet
    {
        type            zeroGradient;
    }
    outlet
    {
        type            fixedValue;
        value           uniform 0;
    }
    repeat_boundary
    {
        type            zeroGradient;
    }
    procBoundary0to1
    {
        type            processor;
        value           nonuniform List<scalar> 
450
(
-1.24478e-11
-4.38285e-11
-1.11258e-10
-1.57937e-10
-1.51139e-10
-1.48654e-11
-1.12982e-10
-3.25851e-10
-4.9901e-10
-5.81577e-10
-1.09267e-10
-2.94923e-10
-6.17841e-10
-8.85989e-10
-1.07035e-09
-4.87638e-10
-7.09539e-10
-9.99701e-10
-1.22715e-09
-1.3737e-09
-1.05757e-09
-1.20105e-09
-1.33398e-09
-1.4567e-09
-1.5711e-09
-1.5281e-09
-1.56319e-09
-1.55262e-09
-1.59999e-09
-1.71661e-09
-1.76489e-09
-1.74893e-09
-1.64677e-09
-1.57366e-09
-1.50383e-09
-1.75415e-09
-1.70444e-09
-1.52726e-09
-1.30019e-09
-9.99024e-10
-1.43407e-09
-1.3462e-09
-1.13948e-09
-8.61477e-10
-5.83076e-10
-8.31293e-10
-7.33098e-10
-5.41035e-10
-2.99368e-10
-1.38672e-10
-5.48182e-11
5.42556e-11
2.28253e-10
4.21277e-10
5.7722e-10
8.95402e-10
1.00738e-09
1.0969e-09
1.17448e-09
1.26409e-09
1.97368e-09
1.99077e-09
1.8931e-09
1.79114e-09
1.63415e-09
2.95647e-09
2.82418e-09
2.57813e-09
2.35115e-09
1.93085e-09
3.71988e-09
3.51935e-09
3.26628e-09
3.00412e-09
2.47308e-09
4.33521e-09
4.1608e-09
3.9595e-09
3.66083e-09
3.1279e-09
4.97495e-09
4.85909e-09
4.60064e-09
4.09994e-09
3.37895e-09
5.86959e-09
5.71999e-09
5.19431e-09
4.31954e-09
3.17207e-09
6.97619e-09
6.60543e-09
5.76418e-09
4.59973e-09
3.12823e-09
8.10442e-09
7.51978e-09
6.49784e-09
5.07252e-09
3.1596e-09
9.66272e-09
9.00623e-09
7.73358e-09
5.73257e-09
2.87047e-09
1.23088e-08
1.14721e-08
9.66347e-09
6.86254e-09
2.98672e-09
1.62159e-08
1.4931e-08
1.23236e-08
8.53552e-09
3.52089e-09
2.1609e-08
1.96441e-08
1.59077e-08
1.06297e-08
3.7798e-09
2.91196e-08
2.62666e-08
2.10629e-08
1.38287e-08
4.76503e-09
3.95581e-08
3.57316e-08
2.87691e-08
1.90553e-08
7.16641e-09
5.41417e-08
4.92298e-08
3.99974e-08
2.69142e-08
1.09279e-08
7.44908e-08
6.80605e-08
5.57967e-08
3.83748e-08
1.71309e-08
1.02343e-07
9.38273e-08
7.76657e-08
5.47811e-08
2.66221e-08
1.39425e-07
1.28546e-07
1.07519e-07
7.80265e-08
4.0943e-08
1.86045e-07
1.73457e-07
1.46924e-07
1.10696e-07
6.27956e-08
2.32893e-07
2.23701e-07
1.9354e-07
1.54647e-07
9.47098e-08
2.38162e-07
2.52377e-07
2.28338e-07
2.06042e-07
1.35091e-07
1.19689e-07
2.13153e-07
2.01823e-07
2.48493e-07
1.5873e-07
-2.41738e-07
9.86169e-08
6.20025e-08
2.96719e-07
1.11214e-07
-9.89404e-07
-1.32878e-08
-1.61109e-07
7.49483e-07
8.03291e-08
-1.74624e-06
6.2069e-07
-1.48786e-07
7.87089e-07
2.61052e-07
-1.1748e-05
-9.54365e-06
-7.44899e-06
-2.80645e-06
-2.88411e-06
1.47733e-06
1.66725e-05
1.52542e-05
3.89223e-06
9.05677e-06
-3.17147e-05
-2.77371e-05
-2.50937e-05
5.14094e-06
-8.74824e-06
-5.01417e-05