/*--------------------------------*- C++ -*----------------------------------*\
| =========                 |                                                 |
| \\      /  F ield         | OpenFOAM: The Open Source CFD Toolbox           |
|  \\    /   O peration     | Version:  5.x                                   |
|   \\  /    A nd           | Web:      www.OpenFOAM.org                      |
|    \\/     M anipulation  |                                                 |
\*---------------------------------------------------------------------------*/
FoamFile
{
    version     2.0;
    format      ascii;
    class       surfaceScalarField;
    location    "40000";
    object      phi;
}
// * * * * * * * * * * * * * * * * * * * * * * * * * * * * * * * * * * * * * //

dimensions      [0 3 -1 0 0 0 0];

internalField   nonuniform List<scalar> 
5825
(
-5.88562e-06
8.67335e-05
-1000
-3.5687e-05
8.07823e-05
-1000
-4.84452e-05
8.1688e-05
-1000
-6.02605e-05
7.80287e-05
-1000
7.19744e-05
-1000
-4.24977e-06
0.000139815
-1000
-3.52676e-05
0.000142318
-1000
-5.14169e-05
0.000143435
-1000
-6.50322e-05
0.000138261
-1000
0.000138549
-1000
-1.49548e-07
0.000195479
-1000
-3.81394e-05
0.000190588
-1000
-5.54854e-05
0.000183825
-1000
-6.47926e-05
0.000177754
-1000
0.000170693
-1000
-1.14076e-07
0.00024361
-999.999
-4.3508e-05
0.000226469
-999.999
-6.13295e-05
0.000212165
-999.999
-6.60845e-05
0.000202957
-999.999
0.00018914
-1000
-5.52814e-06
-999.999
-5.00031e-05
-999.999
-7.80878e-05
-999.999
-8.44329e-05
-999.999
-999.999
-3.47264e-05
0.00022104
-1000
-9.74257e-05
0.00021943
-1000
-0.000133477
0.000223012
-1000
-0.00018331
0.000212993
-1000
0.000201655
-1000
-3.13414e-05
0.000404389
-1000
-0.000100682
0.000406791
-1000
-0.000145252
0.00040379
-1000
-0.000187639
0.000393256
-1000
0.000397067
-1000
-1.9746e-05
0.000554205
-1000
-0.000106968
0.00054219
-1000
-0.000156208
0.000523688
-1000
-0.000183659
0.000508341
-1000
0.000504285
-1000
-2.23674e-05
0.000668306
-999.999
-0.000121012
0.000641722
-999.999
-0.000172804
0.000612552
-1000
-0.000176686
0.000590247
-1000
0.000580616
-1000
-4.98646e-05
-999.999
-0.000150001
-999.999
-0.000192112
-999.999
-0.000195986
-999.999
-999.999
-8.7524e-05
0.000349576
-1000
-0.000157757
0.000360585
-1000
-0.000244903
0.000361944
-1000
-0.000325538
0.000354277
-1000
0.000354072
-1000
-7.90275e-05
0.000683939
-1000
-0.000162522
0.000681513
-1000
-0.000259689
0.000671493
-1000
-0.000322783
0.000656167
-1000
0.00067123
-1000
-7.42246e-05
0.000921011
-1000
-0.000186599
0.00090446
-1000
-0.000279201
0.000881318
-1000
-0.000305917
0.000859858
-1000
0.000884338
-1000
-8.00565e-05
0.00107739
-1000
-0.000209907
0.00104996
-1000
-0.00028468
0.0010126
-1000
-0.000281875
0.000998619
-1000
0.00101342
-1000
-0.000120645
-999.999
-0.00025092
-999.999
-0.000296849
-999.999
-0.000262622
-999.999
-999.999
-0.000150019
0.000499135
-1000
-0.000246329
0.000515711
-1000
-0.000369185
0.000512764
-1000
-0.000447915
0.000510619
-1000
0.000520002
-1000
-0.000134085
0.000986071
-1000
-0.000251482
0.000977921
-1000
-0.00037849
0.000958443
-1000
-0.000425164
0.00093932
-1000
0.000959628
-1000
-0.000141105
0.00131492
-1000
-0.00027286
0.00129395
-1000
-0.000388971
0.00127403
-1000
-0.000412361
0.00125369
-1000
0.00129692
-1000
-0.00016008
0.00150657
-1000
-0.000306736
0.00148001
-1000
-0.000391164
0.00145067
-1000
-0.000405919
0.00143737
-1000
0.00142761
-1000
-0.000196807
-999.999
-0.000332573
-999.999
-0.000365478
-999.999
-0.000407205
-999.999
-1000
-0.000211822
0.000692723
-1000
-0.000357311
0.000706954
-1000
-0.000520317
0.000703776
-1000
-0.000589404
0.000699926
-1000
0.000704765
-1000
-0.00020013
0.00134102
-1000
-0.000367028
0.00132394
-1000
-0.000526136
0.0013062
-1000
-0.000591912
0.00129614
-1000
0.00131909
-1000
-0.00021582
0.00178848
-1000
-0.000386126
0.00177017
-1000
-0.000528866
0.00176317
-1000
-0.000577404
0.00176439
-1000
0.00181767
-1000
-0.000237906
0.00202371
-1000
-0.000398401
0.00201777
-1000
-0.000514642
0.00202123
-1000
-0.000554354
0.00202452
-1000
0.0020163
-1000
-0.000254496
-999.999
-0.000398123
-999.999
-0.000455327
-999.999
-0.000562455
-999.999
-1000
-0.000281577
0.000963048
-1000
-0.000533369
0.000966558
-1000
-0.000753566
0.000960158
-1000
-0.000851818
0.000957806
-1000
0.000958465
-1000
-0.000279947
0.00180561
-1000
-0.000542095
0.00178753
-1000
-0.000755442
0.00178124
-1000
-0.000854766
0.00179088
-1000
0.00182583
-1000
-0.00030248
0.00243541
-1000
-0.000549019
0.00243051
-1000
-0.000741762
0.00244586
-1000
-0.000825467
0.00247331
-1000
0.00253903
-1000
-0.000313488
0.00277813
-1000
-0.000534273
0.00280847
-1000
-0.000705494
0.00284733
-1000
-0.000785208
0.00288865
-1000
0.00293277
-1000
-0.00029826
-999.999
-0.000503563
-999.999
-0.000628116
-999.999
-0.000722013
-999.999
-1000
-0.000383582
0.0013303
-1000
-0.000788879
0.00131888
-1000
-0.00110296
0.00131106
-1000
-0.00127569
0.00131369
-1000
0.00132254
-1000
-0.000400318
0.0024581
-1000
-0.000798603
0.00244733
-1000
-0.00110209
0.00245743
-1000
-0.00126971
0.0024889
-1000
0.0025397
-1000
-0.000417335
0.00336842
-1000
-0.000788734
0.00338171
-1000
-0.00107049
0.00341233
-1000
-0.00121966
0.00345214
-1000
0.0034989
-1000
-0.000410736
0.00392696
-1000
-0.000756784
0.00397516
-1000
-0.00102226
0.00401888
-1000
-0.0011567
0.00406683
-1000
0.00417179
-1000
-0.00037842
-999.998
-0.000722518
-999.999
-0.000973065
-999.999
-0.00108964
-999.999
-1000
-0.000550406
0.00181923
-1000
-0.00113773
0.00179915
-1000
-0.00157944
0.00179332
-1000
-0.00185371
0.00180141
-1000.01
0.00182737
-1000.01
-0.000577931
0.00337987
-1000
-0.00114604
0.00338344
-1000
-0.00157422
0.00340405
-1000
-0.00183593
0.00344029
-1000
0.00349169
-1000.01
-0.000582113
0.00468689
-1000
-0.00112638
0.00471507
-1000
-0.00153881
0.00473811
-1000
-0.00179001
0.00476015
-1000
0.0047733
-1000
-0.000564518
0.00556197
-1000
-0.00110348
0.00560016
-1000
-0.00151292
0.00560681
-1000
-0.0017504
0.00562093
-1000
0.00568799
-1000
-0.000536611
-999.998
-0.00109663
-999.998
-0.00150536
-999.999
-0.00167977
-1000
-1000
-0.000792026
0.00246706
-1000.01
-0.00158059
0.00245136
-1000.01
-0.00218083
0.00245181
-1000.01
-0.00256877
0.00246297
-1000.01
0.00249189
-1000.01
-0.000816358
0.00465227
-1000.01
-0.0015849
0.00467035
-1000.01
-0.00217386
0.00468547
-1000.01
-0.00255276
0.00470053
-1000.01
0.00472647
-1000.01
-0.000809028
0.00647996
-1000
-0.00157085
0.00651253
-1000
-0.00215733
0.00650551
-1000
-0.00253527
0.00648263
-1000.01
0.00647053
-1000.01
-0.000792386
0.00774391
-1000
-0.0015817
0.00775348
-1000
-0.00218059
0.00770419
-1000
-0.00255563
0.0076507
-1000
0.0076189
-1000
-0.0007959
-999.998
-0.00162034
-999.998
-0.00220833
-999.999
-0.00252607
-1000
-1000
-0.00110766
0.00333724
-1000.01
-0.00213191
0.0033379
-1000.01
-0.00293254
0.00334249
-1000.01
-0.00345011
0.00334771
-1000.01
0.00335399
-1000.01
-0.001119
0.00636418
-1000.01
-0.00213484
0.0063877
-1000.01
-0.00293469
0.00638235
-1000.01
-0.00345704
0.00636042
-1000.01
0.00634234
-1000.01
-0.00110987
0.0088482
-1000
-0.00214172
0.00887047
-1000.01
-0.00295277
0.00882761
-1000.01
-0.00348242
0.008756
-1000.01
0.0087164
-1000.01
-0.00111018
0.0105455
-1000
-0.00219127
0.0105202
-1000
-0.00302148
0.010433
-1000
-0.003563
0.0103153
-1000
0.010175
-1000.01
-0.00115557
-999.998
-0.00226832
-999.998
-0.00307067
-999.999
-0.00361654
-1000
-1000
-0.00149976
0.00452257
-1000.01
-0.00284591
0.00453696
-1000.01
-0.00391839
0.00453763
-1000.01
-0.00460745
0.00452702
-1000.01
0.0044984
-1000.02
-0.00150155
0.00863924
-1000.01
-0.00285586
0.0086561
-1000.01
-0.00393898
0.00862765
-1000.01
-0.00464934
0.0085762
-1000.01
0.00851563
-1000.01
-0.00150474
0.0119524
-1000.01
-0.00288553
0.0119569
-1000.01
-0.00398681
0.0118939
-1000.01
-0.00471387
0.0117988
-1000.01
0.0117148
-1000.01
-0.00152982
0.0141334
-1000
-0.00295388
0.0140974
-1000
-0.00407866
0.0140068
-1000
-0.00483334
0.0138604
-1000.01
0.0136503
-1000.01
-0.00159684
-999.998
-0.00304194
-999.998
-0.00416889
-999.999
-0.00498206
-1000
-1000
-0.00200353
0.00613798
-1000.02
-0.00381747
0.00615359
-1000.02
-0.00526636
0.00614342
-1000.02
-0.00620414
0.00611778
-1000.02
0.00607097
-1000.02
-0.00201079
0.0116811
-1000.01
-0.00383986
0.0116889
-1000.01
-0.00530463
0.0116528
-1000.02
-0.00626595
0.0115998
-1000.02
0.0115328
-1000.02
-0.0020308
0.0160912
-1000.01
-0.00387669
0.0160909
-1000.01
-0.00535664
0.0160387
-1000.01
-0.00633423
0.0159606
-1000.01
0.0158565
-1000.02
-0.00206945
0.0189058
-1000
-0.00393207
0.0189008
-1000
-0.00543583
0.0188391
-1000.01
-0.00644831
0.0187163
-1000.01
0.0185151
-1000.01
-0.00211937
-999.997
-0.00399496
-999.997
-0.00554041
-999.999
-0.00658413
-1000
-1000
-0.00269468
0.0083338
-1000.02
-0.00516257
0.00834196
-1000.02
-0.00712557
0.0083245
-1000.02
-0.0084072
0.00829803
-1000.03
0.00827308
-1000.03
-0.00271598
0.0158144
-1000.02
-0.00519434
0.0158261
-1000.02
-0.00716921
0.0158042
-1000.02
-0.00845422
0.015777
-1000.02
0.0157487
-1000.03
-0.0027414
0.0217484
-1000.01
-0.00521778
0.0217695
-1000.01
-0.00719732
0.0217501
-1000.02
-0.00848413
0.0217158
-1000.02
0.021653
-1000.02
-0.00277137
0.0255043
-1000
-0.00523984
0.0255526
-1000.01
-0.007234
0.0255335
-1000.01
-0.00854512
0.0254733
-1000.01
0.0253305
-1000.01
-0.00278183
-999.995
-0.00525977
-999.996
-0.00728825
-999.998
-0.00862941
-1000
-1000
-0.00366442
0.0113199
-1000.03
-0.00700792
0.0113276
-1000.03
-0.00965869
0.0113148
-1000.03
-0.0113779
0.0113032
-1000.04
0.0113177
-1000.04
-0.00369321
0.0214945
-1000.02
-0.00703938
0.0215281
-1000.03
-0.00969395
0.0215258
-1000.03
-0.0113942
0.0215248
-1000.03
0.0215311
-1000.04
-0.00370942
0.0295712
-1000.02
-0.00704403
0.0296298
-1000.02
-0.0096961
0.0296339
-1000.02
-0.0113912
0.0296314
-1000.02
0.0295992
-1000.03
-0.00371968
0.0347121
-1000.01
-0.00704278
0.0348036
-1000.01
-0.00970115
0.0348056
-1000.01
-0.0114243
0.0347843
-1000.01
0.034632
-1000.02
-0.00370703
-999.993
-0.0070388
-999.994
-0.0097155
-999.997
-0.0115119
-1000
-1000
-0.00500276
0.0153938
-1000.04
-0.0095055
0.015419
-1000.04
-0.0130747
0.0154186
-1000.04
-0.0153512
0.0154215
-1000.05
0.0154433
-1000.05
-0.0050254
0.0293036
-1000.03
-0.00953052
0.0293676
-1000.04
-0.0131031
0.0293683
-1000.04
-0.0153684
0.0293623
-1000.04
0.0293478
-1000.05
-0.00502957
0.0403487
-1000.02
-0.00953299
0.0404418
-1000.02
-0.0131096
0.0404364
-1000.03
-0.0153863
0.0404161
-1000.03
0.0403471
-1000.04
-0.00503062
0.0474217
-1000.01
-0.00954179
0.0475367
-1000.01
-0.0131319
0.0475221
-1000.01
-0.0154617
0.047469
-1000.02
0.0472107
-1000.02
-0.00502441
-999.99
-0.00955488
-999.992
-0.0131754
-999.996
-0.0156765
-1000
-1000.01
-0.00681088
0.0209664
-1000.05
-0.0128736
0.0210224
-1000.06
-0.0176908
0.0210297
-1000.06
-0.0207418
0.0210283
-1000.07
0.0210068
-1000.07
-0.00681972
0.0399849
-1000.05
-0.0128987
0.0400773
-1000.05
-0.0177346
0.0400573
-1000.05
-0.0208141
0.0400116
-1000.06
0.0399329
-1000.07
-0.0068211
0.0550785
-1000.03
-0.0129226
0.0551968
-1000.03
-0.0177809
0.0551527
-1000.04
-0.0208931
0.0550736
-1000.04
0.0549362
-1000.05
-0.00683112
0.0647695
-1000.01
-0.0129705
0.064904
-1000.01
-0.0178614
0.0648515
-1000.02
-0.0210346
0.0647357
-1000.02
0.0643915
-1000.03
-0.00684703
-999.986
-0.0130252
-999.989
-0.0179707
-999.994
-0.0213492
-1000
-1000.01
-0.00923044
0.02859
-1000.07
-0.0174399
0.0286758
-1000.08
-0.0239797
0.0286754
-1000.08
-0.0281589
0.0286451
-1000.09
0.0285622
-1000.1
-0.00923258
0.0545299
-1000.06
-0.0174842
0.0546461
-1000.07
-0.0240686
0.0545909
-1000.07
-0.0283106
0.0544926
-1000.08
0.0543608
-1000.09
-0.00924377
0.075114
-1000.04
-0.0175441
0.0752542
-1000.05
-0.0241681
0.0751623
-1000.05
-0.0284411
0.0750193
-1000.06
0.0748396
-1000.07
-0.00927743
0.0883488
-1000.01
-0.0176397
0.0885114
-1000.02
-0.0243114
0.0884198
-1000.02
-0.0286192
0.088255
-1000.03
0.0879077
-1000.04
-0.0093199
-999.982
-0.0177374
-999.985
-0.0244761
-999.992
-0.0289448
-1000
-1000.01
-0.012484
0.0389945
-1000.1
-0.0236679
0.0390975
-1000.1
-0.0325787
0.0390714
-1000.11
-0.0383332
0.0390011
-1000.12
0.038887
-1000.14
-0.0125006
0.0742969
-1000.08
-0.0237545
0.0744348
-1000.09
-0.0327296
0.0743421
-1000.1
-0.0385409
0.0742025
-1000.11
0.0740529
-1000.12
-0.0125349
0.102335
-1000.06
-0.0238527
0.102503
-1000.06
-0.0328712
0.10237
-1000.07
-0.0386905
0.102181
-1000.08
0.101975
-1000.1
-0.0126023
0.120399
-1000.02
-0.0239891
0.120598
-1000.02
-0.0330597
0.120466
-1000.03
-0.0388898
0.120255
-1000.05
0.119911
-1000.06
-0.0126821
-999.975
-0.0241306
-999.98
-0.0332759
-999.989
-0.0392173
-1000
-1000.02
-0.0169107
0.0531444
-1000.14
-0.0321779
0.0532517
-1000.14
-0.0443036
0.0531937
-1000.15
-0.0521215
0.0530977
-1000.17
0.0529916
-1000.19
-0.0169664
0.101149
-1000.12
-0.0323184
0.101315
-1000.12
-0.0445099
0.101193
-1000.13
-0.0523548
0.101029
-1000.15
0.100864
-1000.17
-0.0170337
0.139335
-1000.08
-0.0324476
0.13955
-1000.08
-0.044677
0.139385
-1000.1
-0.0525193
0.139161
-1000.11
0.138901
-1000.13
-0.0171382
0.163994
-1000.03
-0.0326165
0.164244
-1000.03
-0.0448991
0.16406
-1000.05
-0.0527689
0.163778
-1000.06
0.163376
-1000.08
-0.0172688
-999.967
-0.0328145
-999.973
-0.0451882
-999.985
-0.0531607
-1000
-1000.02
-0.0229839
0.0723383
-1000.18
-0.0437882
0.072456
-1000.19
-0.0602381
0.0723804
-1000.21
-0.0707352
0.0722822
-1000.23
0.0721816
-1000.26
-0.0230876
0.137637
-1000.16
-0.0439756
0.137857
-1000.17
-0.0604866
0.137717
-1000.18
-0.0710094
0.137531
-1000.2
0.137323
-1000.23
-0.0231845
0.189661
-1000.11
-0.0441248
0.189958
-1000.12
-0.060675
0.18976
-1000.13
-0.0712149
0.189497
-1000.15
0.189159
-1000.18
-0.0233204
0.223329
-1000.04
-0.0443299
0.223664
-1000.05
-0.0609344
0.223406
-1000.06
-0.0715359
0.223031
-1000.08
0.222555
-1000.11
-0.0235032
-999.955
-0.0446069
-999.964
-0.0613184
-999.98
-0.0720053
-1000
-1000.03
-0.0313201
0.0983641
-1000.25
-0.0596091
0.0985283
-1000.26
-0.0819081
0.0984579
-1000.29
-0.0960308
0.0983667
-1000.32
0.0982589
-1000.35
-0.0314559
0.187236
-1000.22
-0.0598311
0.187557
-1000.23
-0.0822018
0.187406
-1000.25
-0.0963753
0.187198
-1000.28
0.186946
-1000.31
-0.0315647
0.258137
-1000.15
-0.0599935
0.258563
-1000.16
-0.0824116
0.258314
-1000.18
-0.0966218
0.257998
-1000.21
0.257585
-1000.25
-0.0317266
0.30413
-1000.05
-0.0602522
0.304591
-1000.06
-0.0827222
0.304219
-1000.09
-0.097011
0.303715
-1000.12
0.30312
-1000.15
-0.0319638
-999.94
-0.0606458
-999.952
-0.0832341
-999.974
-0.0975945
-1000
-1000.04
-0.0427264
0.133677
-1000.34
-0.0811936
0.133941
-1000.36
-0.111463
0.133895
-1000.39
-0.130573
0.133825
-1000.43
0.133756
-1000.48
-0.042869
0.25463
-1000.29
-0.0814455
0.255112
-1000.31
-0.111806
0.254964
-1000.34
-0.130961
0.254755
-1000.38
0.254503
-1000.43
-0.0429695
0.351267
-1000.2
-0.0816069
0.351875
-1000.22
-0.112011
0.351561
-1000.25
-0.131204
0.351166
-1000.29
0.350649
-1000.34
-0.043161
0.414161
-1000.07
-0.0819316
0.414788
-1000.09
-0.112393
0.414239
-1000.12
-0.131694
0.413505
-1000.16
0.412576
-1000.21
-0.0434823
-999.919
-0.0825033
-999.935
-0.113127
-999.966
-0.132604
-1000.01
-1000.06
-0.0583229
0.181567
-1000.47
-0.110727
0.181987
-1000.49
-0.151857
0.182
-1000.53
-0.177693
0.182011
-1000.59
0.182065
-1000.65
-0.0584543
0.346062
-1000.4
-0.110992
0.346781
-1000.42
-0.152213
0.34669
-1000.46
-0.178065
0.34656
-1000.52
0.346383
-1000.59
-0.0585214
0.477766
-1000.27
-0.111094
0.47863
-1000.3
-0.152329
0.478274
-1000.34
-0.17822
0.477807
-1000.39
0.477176
-1000.46
-0.0587404
0.563896
-1000.1
-0.111456
0.564737
-1000.12
-0.152771
0.563964
-1000.16
-0.178813
0.562906
-1000.22
0.561479
-1000.28
-0.0591883
-999.891
-0.112257
-999.914
-0.15382
-999.955
-0.180214
-1000.01
-1000.08
-0.0797337
0.246353
-1000.63
-0.151286
0.247003
-1000.66
-0.207184
0.247176
-1000.72
-0.241972
0.24741
-1000.8
0.247692
-1000.89
-0.0798274
0.469799
-1000.54
-0.151485
0.470894
-1000.57
-0.207441
0.471011
-1000.63
-0.242257
0.471148
-1000.71
0.471247
-1000.8
-0.079792
0.649268
-1000.37
-0.151369
0.650533
-1000.4
-0.207268
0.650246
-1000.46
-0.242107
0.649823
-1000.54
0.649232
-1000.63
-0.0799897
0.767426
-1000.14
-0.151656
0.768578
-1000.17
-0.207644
0.767581
-1000.22
-0.242628
0.766188
-1000.3
0.764313
-1000.39
-0.0805838
-999.856
-0.152685
-999.886
-0.209015
-999.942
-0.244465
-1000.02
-1000.11
-0.109336
0.333646
-1000.86
-0.207257
0.334688
-1000.9
-0.28326
0.335264
-1000.98
-0.330003
0.336021
-1001.09
0.336832
-1001.21
-0.109296
0.636739
-1000.74
-0.207174
0.638487
-1000.78
-0.283149
0.639159
-1000.86
-0.32994
0.640001
-1000.97
0.64088
-1001.09
-0.10897
0.88125
-1000.51
-0.206481
0.883194
-1000.55
-0.282224
0.883239
-1000.63
-0.328957
0.883187
-1000.73
0.883015
-1000.85
-0.108998
1.0437
-1000.19
-0.20642
1.04533
-1000.23
-0.282178
1.04413
-1000.31
-0.329002
1.04239
-1000.41
1.04008
-1000.53
-0.109722
-999.809
-0.207649
-999.851
-0.283869
-999.928
-0.331248
-1000.03
-1000.15
-0.150609
0.450691
-1001.16
-0.285024
0.452473
-1001.22
-0.388488
0.453979
-1001.33
-0.451178
0.455941
-1001.48
0.45806
-1001.65
-0.15017
0.861075
-1001
-0.284159
0.86402
-1001.06
-0.387363
0.866009
-1001.17
-0.450025
0.868561
-1001.32
0.871341
-1001.48
-0.149122
1.19409
-1000.69
-0.282096
1.19722
-1000.75
-0.384631
1.19819
-1000.86
-0.447029
1.19931
-1001
1.20042
-1001.17
-0.14864
1.41804
-1000.27
-0.281062
1.42043
-1000.32
-0.383327
1.4191
-1000.43
-0.445682
1.4171
-1000.57
1.41449
-1000.73
-0.149436
-999.751
-0.282399
-999.808
-0.385235
-999.912
-0.448171
-1000.05
-1000.21
-0.208721
0.606648
-1001.55
-0.394112
0.60987
-1001.64
-0.535192
0.613433
-1001.8
-0.619005
0.618071
-1002.02
0.623166
-1002.26
-0.207283
1.16085
-1001.34
-0.391362
1.16606
-1001.43
-0.531604
1.17103
-1001.59
-0.615112
1.17749
-1001.79
1.18461
-1002.03
-0.204582
1.61414
-1000.94
-0.386192
1.6194
-1001.02
-0.524773
1.62263
-1001.17
-0.607535
1.62673
-1001.37
1.63118
-1001.59
-0.202852
1.92401
-1000.37
-0.382799
1.92755
-1000.45
-0.520303
1.92642
-1000.59
-0.602648
1.92467
-1000.78
1.92247
-1001
-0.203583
-999.681
-0.383918
-999.758
-0.521875
-999.9
-0.604643
-1000.09
-1000.3
-0.291556
0.812643
-1002.08
-0.549215
0.818673
-1002.21
-0.741887
0.826701
-1002.44
-0.853539
0.837068
-1002.74
0.848579
-1003.08
-0.287869
1.55806
-1001.8
-0.542188
1.56768
-1001.93
-0.732763
1.57926
-1002.15
-0.843432
1.5943
-1002.44
1.61092
-1002.77
-0.281514
2.17443
-1001.28
-0.53016
2.18362
-1001.39
-0.716945
2.19202
-1001.6
-0.82586
2.20306
-1001.87
2.21516
-1002.17
-0.27698
2.60529
-1000.53
-0.521401
2.61067
-1000.63
-0.705203
2.61052
-1000.83
-0.812903
2.61032
-1001.08
2.61001
-1001.37
-0.277322
-999.6
-0.521486
-999.706
-0.705113
-999.897
-0.812879
-1000.15
-1000.43
-0.411408
1.08135
-1002.75
-0.774023
1.09282
-1002.94
-1.03707
1.1105
-1003.29
-1.18598
1.13282
-1003.73
1.15798
-1004.22
-0.402948
2.07772
-1002.4
-0.75754
2.0961
-1002.57
-1.01604
2.12218
-1002.9
-1.1623
2.15571
-1003.32
2.19269
-1003.78
-0.388669
2.91449
-1001.72
-0.730488
2.93118
-1001.88
-0.980859
2.95093
-1002.18
-1.12336
2.97724
-1002.55
3.00609
-1002.97
-0.378055
3.51786
-1000.75
-0.70999
3.52624
-1000.9
-0.95322
3.52885
-1001.16
-1.09288
3.53286
-1001.5
3.53784
-1001.88
-0.377297
-999.519
-0.707257
-999.661
-0.94881
-999.92
-1.08747
-1000.25
-1000.61
-0.587237
1.42588
-1003.59
-1.10919
1.44749
-1003.86
-1.46477
1.48635
-1004.42
-1.66907
1.53272
-1005.05
1.58747
-1005.83
-0.569371
2.74399
-1003.14
-1.0719
2.78023
-1003.4
-1.41926
2.83846
-1003.91
-1.61572
2.91131
-1004.5
2.99217
-1005.19
-0.537905
3.87744
-1002.32
-1.01164
3.90857
-1002.54
-1.34273
3.95248
-1002.96
-1.53096
4.01181
-1003.46
4.07687
-1004.05
-0.514518
4.73309
-1001.09
-0.966333
4.74606
-1001.28
-1.28087
4.75512
-1001.65
-1.46289
4.76805
-1002.07
4.78598
-1002.58
-0.511645
-999.452
-0.957236
-999.639
-1.26766
-999.994
-1.44494
-1000.41
-1000.88
-0.84483
1.85866
-1004.6
-1.63127
1.89632
-1004.97
-2.0872
1.9839
-1005.94
-2.40442
2.07394
-1006.81
2.19744
-1008.17
-0.811761
3.56924
-1004.04
-1.54758
3.64279
-1004.42
-1.99645
3.77467
-1005.25
-2.28407
3.93011
-1006.07
4.10849
-1007.21
-0.742537
5.09913
-1003.11
-1.41184
5.15818
-1003.39
-1.83205
5.25127
-1004.02
-2.09892
5.3829
-1004.65
5.52626
-1005.54
-0.693066
6.34583
-1001.65
-1.31633
6.36395
-1001.87
-1.69548
6.38682
-1002.41
-1.95056
6.41294
-1002.85
6.46069
-1003.56
-0.688503
-999.412
-1.29464
-999.645
-1.67084
-1000.15
-1.90632
-1000.62
-1001.27
-1.20529
2.39547
-1005.79
-2.50316
2.4417
-1006.11
-2.9593
2.65519
-1008.14
-3.6194
2.79741
-1008.95
3.1079
-1011.9
-1.16051
4.523
-1005.01
-2.3127
4.67873
-1005.5
-2.80482
4.99104
-1007.09
-3.3392
5.31378
-1008.05
5.72527
-1010.31
-1.00489
6.57022
-1004.15
-1.99578
6.68531
-1004.4
-2.45606
6.86599
-1005.43
-2.9267
7.17006
-1006.03
7.48474
-1007.62
-0.902279
8.50775
-1002.68
-1.80748
8.52215
-1002.8
-2.14667
8.5784
-1003.78
-2.6054
8.59796
-1003.82
8.71752
-1005.04
-0.907558
-999.32
-1.76129
-999.554
-2.13793
-1000.38
-2.51278
-1000.74
-1001.81
-1.6859
3.08127
-1007.18
-4.08812
3.03558
-1006.75
-4.14004
3.63725
-1011.73
-5.80333
3.6807
-1010.97
4.603
-1018.49
-1.66527
5.45886
-1005.72
-3.66154
5.80547
-1006.27
-3.90213
6.6068
-1009.82
-5.1541
7.22478
-1010.34
8.24895
-1015.5
-1.28586
8.1195
-1005.53
-2.87354
8.35565
-1005.36
-3.1623
8.62217
-1007.16
-4.23182
9.4014
-1007.14
10.0792
-1010.54
-1.08493
11.5473
-1005.03
-2.54699
11.4992
-1004.48
-2.44585
11.6787
-1006.94
-3.52653
11.5271
-1004.86
11.855
-1007.68
-1.14582
-998.644
-2.44546
-998.715
-2.60186
-1000.29
-3.39267
-1000.01
-1002.52
-2.3598
4.0161
-1008.84
-7.01685
3.45272
-1005.54
-5.97503
5.31236
-1018.08
-9.73478
4.43797
-1011.64
7.36297
-1030.75
-2.5187
6.05976
-1005.25
-6.21985
6.78775
-1005.91
-5.62005
8.95197
-1014.06
-8.3035
9.96636
-1013.19
12.6097
-1024.53
-1.48112
9.33052
-1007.31
-4.08475
9.85149
-1005.82
-3.98973
10.1164
-1008.42
-6.36642
11.9519
-1006.75
13.2793
-1013.9
-1.21533
16.1448
-1010.62
-3.64565
15.8258
-1008.02
-2.3372
16.4144
-1014.55
-4.70128
15.5629
-1006.11
16.5771
-1013.15
-1.40732
-995.77
-3.45548
-995.486
-3.14417
-998.356
-4.90796
-996.351
-1003.42
-3.2879
5.49342
-1011.05
-12.2342
2.97768
-999.575
-9.12602
8.62351
-1029.81
-16.7188
4.67051
-1008.72
13.068
-1054.48
-4.33658
5.58704
-1001
-11.1908
6.89264
-1002.97
-8.90355
12.3568
-1020.08
-13.4863
14.0572
-1017.99
20.7581
-1039.91
-1.26413
9.88362
-1010.35
-5.05504
10.9915
-1006.13
-5.00907
11.1568
-1007.26
-9.75414
14.9515
-1002.9
17.1804
-1015.7
-1.31962
23.2286
-1022.65
-4.98813
22.1828
-1015.55
-1.60381
23.3722
-1030.15
-5.50908
21.0881
-1008.34
24.0352
-1023.66
-1.77108
-987.478
-4.69771
-987.317
-4.1351
-991.387
-7.92262
-985.496
-1005.01
-4.25365
8.61017
-1015.4
-21.4848
0.486909
-982.83
-14.856
16.2946
-1052.74
-29.527
3.32863
-997.379
26.55
-1103.31
-8.65738
1.04298
-984.779
-21.0671
2.5207
-992.592
-15.7023
16.9283
-1026.08
-22.0567
19.8586
-1028.16
36.5469
-1064.06
0.34275
9.20727
-1018.85
-3.53123
11.6317
-1011.37
-5.71106
11.2411
-999.396
-15.0717
19.5938
-993.272
21.9381
-1010.58
-1.30918
34.4628
-1046.6
-5.84894
31.8028
-1031.18
2.77285
32.4845
-1060.01
-4.06352
28.3322
-1010.24
34.8867
-1042.84
-2.4023
-966.818
-5.44831
-970.58
-6.19326
-972.823
-14.7572
-958.589
-1011.59
-2.25609
19.1383
-1032.28
-34.6971
-9.2743
-941.115
-25.2258
34.9149
-1097.12
-53.949
-2.472
-966.184
61.9363
-1211.85
-17.7573
-13.9461
-933.938
-39.3078
-13.2041
-967.111
-29.6523
23.5578
-1024.38
-36.4178
27.7606
-1051.63
67.7525
-1092.9
5.75942
7.11435
-1045.67
9.00418
13.0206
-1040.84
-3.36061
8.96544
-972.438
-22.8477
29.1404
-975.164
24.9832
-982.72
-0.170305
53.5883
-1092.9
-3.00425
48.1523
-1063.48
16.2223
43.5388
-1113.81
0.716321
37.3934
-1002.99
49.1374
-1081.48
-3.97409
-917.087
-1.55326
-942.505
-10.2937
-925.705
-31.9346
-895.902
-1040.69
-33.0237
9.45313
-1008.71
-108.219
-19.8596
-846.059
-53.8844
86.3449
-1237.8
-61.2662
-8.64428
-950.158
83.9582
-1394.9
-44.2384
-45.4855
-834.76
-104.144
-32.2422
-894.823
-78.8365
34.2534
-997.593
-54.4658
44.3478
-1128.99
100.473
-1181.82
16.7026
-3.95136
-1103.91
-9.78069
2.51804
-1049.11
-25.3473
-6.47069
-916.147
-52.2439
42.8688
-946.789
11.5584
-935.246
-7.70384
86.0839
-1175.23
-30.4128
61.7105
-1099.96
15.492
41.5253
-1207.71
-15.1902
49.3439
-978.783
42.8124
-1143.19
-17.3522
-818.43
-41.221
-866.562
-54.9867
-847.678
-93.0545
-807.702
-1204.8
112.767
138.486
-1259.97
-21.761
-133.701
-577.829
-96.9322
190.757
-1353.39
-280.86
-149.922
-616.308
501.359
-2196.51
-115.04
-184.055
-397.178
-135.042
-245.291
-763.231
-106.846
55.3255
-890.357
-88.2833
51.5947
-1349.07
313.594
-942.264
69.7539
-18.1782
-1339.54
251.682
39.8704
-1516.2
101.555
-20.3628
-690.332
-24.1596
145.288
-914.767
7.63735
-600.185
41.2215
207.043
-1441.67
69.4906
203.257
-1291.61
175.383
80.2917
-1414.26
76.2493
69.3271
-803.688
165.313
-1476.89
-10.3341
-406.751
147.284
-837.924
48.1847
-436.6
-96.1291
-307.223
-1410.37
-262.423
-119.539
-878.005
-515.009
14.8992
-340.142
-72.7053
431.064
-2226.76
114.687
42.7846
-846.484
-11.2795
-2243.74
-82.149
-178.667
-255.901
-323.332
-33.8994
-473.25
-357.001
113.397
-539.02
-123.367
192.866
-1732.79
226.389
-1696.65
141.862
-15.8441
-1644.23
-133.974
-67.6031
-1206.66
-161.564
-103.687
-445.658
-168.416
71.7043
-786.753
-144.254
-369.686
-25.4234
192.682
-1624.78
-132.481
1.44822
-1253.61
-20.6814
-87.6979
-1542.05
-171.889
85.6843
-666.462
-243.399
-1319.11
-71.7791
-243.989
-284.33
-573.095
-433.761
-207.383
-570.54
-254.839
-2546.99
-0.393287
0.212805
-877.825
23.6433
0.604807
-364.784
-26.0615
24.2203
-2201.27
-175.35
-125.689
-571.507
448.204
-3038.14
-4.80598
-20.1749
-230.708
-1.59206
-6.66069
-469.198
18.0449
-1.73385
-532.703
52.3591
-18.9355
-1873.86
146.172
-1258.81
-47.7063
-36.077
-1580.62
17.5126
36.1615
-1314.71
-2.5153
-18.1933
-409.171
-23.278
51.3437
-836.269
-24.1025
-148.238
25.6785
30.3771
-1716.91
24.4442
16.0641
-1232.27
84.0824
24.492
-1644.37
5.70172
29.5441
-566.281
363.79
-1955.48
-0.0555043
-195.134
0.00484756
-566.807
-14.9549
-8.30963
4.00798
-208.315
-2481.74
-30.8935
-172.905
-674.026
325.03
101.61
-822.317
1.16999
-402.093
-1475.32
150.541
136.402
-857.28
-175.307
-2774.3
66.1823
134.183
-603.978
2.65272
280.882
-584.941
330.627
122.49
-1385.26
84.971
208.791
-1700.59
1.82566
-1344.95
262.72
184.902
-1894.06
169.514
305.072
-1245.69
85.8579
135.724
-338.75
-53.7125
-40.1878
-447.72
341.791
-621.174
206.469
-54.3915
-1684.09
184.767
1.92348
-907.423
-30.7204
-56.8362
-1236.32
-166.335
22.2262
-493.08
81.0554
-1443.59
98.2231
-186.51
35.2519
-542.663
0.291716
-394.647
-6.93716
-19.4847
-2169.75
-175.812
-202.75
-295.465
12.1505
205.198
-1215.48
436.293
-127.187
-1772.27
434.732
92.707
-948.425
-704.307
-1332.21
116.467
-135.127
-788.068
-42.7869
32.0846
-252.574
522.023
31.625
-2108.88
-195.615
147.825
-1038.07
-497.008
-1294.88
34.3659
-103.275
-1960.27
-7.28687
127.572
-1299.52
40.9194
212.842
-568.173
-133.767
-68.1267
-57.0815
238.546
-1533.38
517.915
31.6092
-2336.88
106.503
43.2797
-411.719
-81.8242
-33.3746
-801.778
29.7016
-105.222
-567.51
-323.619
-13.0827
-0.217314
-15.3256
-64.8567
-432.871
-99.6435
-350.235
-199.85
-30.6497
-2381.65
-83.7163
108.147
-319.896
-488.525
22.0046
-832.674
-108.228
-349.21
-1803.36
-69.6999
-17.3562
-969.598
107.108
-1412.6
-59.8844
-196.774
-423.262
-27.1501
-171.477
-91.8267
409.682
203.456
-3098.38
41.824
-185.712
-501.856
-112.464
-165.437
-280.106
-938.724
-938.216
-445.43
-124.075
-1181.6
-214.629
306.631
-902.148
-60.6063
40.5795
-437.396
-226.999
-1012.36
-33.4073
-793.109
-2449.09
25.9657
-37.4661
-557.701
-75.1297
16.9077
-410.96
-26.3079
-48.5013
-527.252
-304.594
-18.1887
89.9814
-1439.75
62.2385
-312.874
-9.44115
-21.2817
584.674
-888.106
-1492.18
29.9852
-1.4592
-348.422
-359.096
-137.417
-306.176
-947.894
-76.2445
-1138.32
-388.204
75.1109
-1604.4
27.6606
-1891.72
-28.034
104.92
-501.607
-140.871
47.2094
-163.616
-392.133
-84.7673
-2838.59
-3.3786
7.26915
-822.769
3.74549
-581.088
-58.4325
-165.008
-609.856
-303.923
-170.056
-718.847
-590.46
-56.2202
-644.158
44.0515
253.279
-1317.92
1.00474
-715.506
-693.482
-530.131
-1390.49
-288.209
-75.7788
-1057.25
-34.495
-16.4322
-704.461
-2.21333
119.434
-425.688
2.38871
-26.3487
-129.797
-1739.56
-65.8114
-117.915
584.521
-1325.78
501.61
-684.129
-26.1866
-47.7653
110.792
-411.449
151.536
20.0042
-525.482
-460.267
50.8859
-577.401
-220.546
217.457
-2061.58
-199.385
-1985.12
-194.658
158.457
-354.614
188.143
342.244
-868.656
-659.296
-7.82598
-1932.44
-407.495
288.407
-1145.52
453.727
-1973.85
-99.648
3.23946
-354.991
-96.4875
165.256
-545.019
-550.739
-8.10477
-189.627
-402.141
-52.4246
-1125.68
182.214
-1114.26
-259.786
-79.6766
-1047.79
-253.612
22.9419
-921.111
-335.311
231.717
-862.584
-1.27146
7.02968
-819.182
-3.01
-15.3361
-4.95855
-1701.8
41.4385
-100.427
203.965
-1722.35
-9.57699
-254.77
-512.872
231.518
89.7581
-732.725
332.964
179.456
-806.384
-189.573
-13.1236
-41.7405
-39.1308
22.7666
-2234.79
-23.7291
-1875.23
-18.9165
-31.8723
-214.067
611.371
65.0889
-1384.58
142.471
115.477
-1592.14
-96.6938
12.6634
-896.25
281.033
-2272.16
28.425
197.114
-612.401
1.39652
76.0659
-528.967
-22.6066
-9.99911
-40.1475
157.025
-240.491
-1052.16
-112.845
-659.361
-23.495
-195.424
-631.754
49.9387
30.8332
-949.312
-237.061
68.0265
-653.61
-139.12
-238.378
-919.236
30.3482
-567.925
-75.7179
-1621.25
33.9815
-487.085
-213.085
-1248.59
289.941
-1376.58
-952.245
-97.7687
4.15269
-639.109
33.043
72.7097
-1009.91
78.1287
9.38554
-96.2117
177.446
56.3417
-2390.44
-75.4999
-1592.94
135.283
-54.0892
-291.108
465.943
-127.352
-1515.17
-244.592
-241.522
-630.703
-129.266
8.91941
-964.154
36.155
-2482.54
-2.62913
232.559
-896.42
-52.4167
59.1657
-665.697
356.934
126.565
-817.585
271.794
72.4141
-1030.52
-82.5204
-264.38
-40.721
183.79
-542.264
106.634
143.593
-1181.09
81.6924
131.957
-634.06
66.0383
-300.103
-531.065
-65.6389
-808.779
-271.497
-103.998
-101.314
-745.904
154.197
-1586.48
475.268
-1878.49
-511.584
67.1219
-0.244228
-705.986
-150.737
54.7757
-846.822
451.269
36.9421
-735.159
637.048
362.171
-2938.39
-247.747
-602.129
411.388
-101.936
-600.804
260.004
-279.976
-1029.04
-0.720461
-270.364
-62.6731
469.87
-7.38541
-1065.19
-499.75
-2134.69
210.033
-120.351