/*--------------------------------*- C++ -*----------------------------------*\
  =========                 |
  \\      /  F ield         | OpenFOAM: The Open Source CFD Toolbox
   \\    /   O peration     | Website:  https://openfoam.org
    \\  /    A nd           | Version:  9
     \\/     M anipulation  |
\*---------------------------------------------------------------------------*/
FoamFile
{
    format      ascii;
    class       volScalarField;
    location    "7000";
    object      p;
}
// * * * * * * * * * * * * * * * * * * * * * * * * * * * * * * * * * * * * * //

dimensions      [0 2 -2 0 0 0 0];

internalField   nonuniform List<scalar> 
720
(
-814.293
-640.653
-825.479
-662.182
-1507.77
-1174.59
-1526.92
-1222.13
-1813.65
-1324.48
-1835.65
-1406.02
-1964.72
-1634.07
-1987.03
-1697.78
-1981.92
-2047.52
-2003.97
-2129.86
-1939.58
-2487.34
-1962.34
-2372.5
-2150.08
-2694.71
-1925.42
-2409.48
-2383.92
-2709.68
-1902.28
-2329.83
-2444.37
-2617.47
-2119.36
-2269.58
-2379.94
-2542.04
-2337.8
-2389.43
-2328.18
-2685.94
-2382.92
-2538.39
-2321.09
-2852.84
-2299.94
-2563.13
-2547.01
-2880.82
-2237.45
-2514.29
-2764.53
-2823.31
-2214.74
-2483.58
-2818.04
-2772.98
-2421.05
-2541.28
-2756.97
-2755.88
-2662.13
-2676.75
-2721.62
-2745.62
-2725.2
-2745.67
-2724.12
-2721.21
-2642.33
-2734.1
-2733.5
-2699.27
-2723.98
-2705.41
-2729.07
-2882.53
-2876.53
-2742.88
-2721.3
-3088.08
-2904.06
-2998.14
-2788.75
-3135.93
-2843.29
-3243.7
-2887.76
-3051.44
-2978.87
-3334.47
-2903.85
-3007.17
-3156.75
-3296.7
-2865.87
-2994.08
-3191.53
-3254.54
-2839.87
-3194.34
-3121.18
-3246.08
-3043.05
-3417.94
-3068.26
-3246.45
-3257.43
-3464.55
-3049.68
-3235.66
-3303.72
-3383.61
-3034.91
-3224.79
-3213.16
-3362.01
-3005.98
-3218.28
-3167.54
-3350.71
-2973.75
-3292.92
-3162.76
-3524.88
-3126.54
-3397.22
-3153.62
-3739.47
-3305.99
-3419.65
-3398.05
-3797.61
-3341.59
-3375.67
-3651.37
-3856.52
-3242.11
-3517.85
-3842.36
-4007.75
-3335.23
-3707.01
-4002.63
-4061.32
-3734.64
-3940.67
-4048.81
-4033.56
-4162.3
-4163.17
-3978.16
-4026.14
-4397.54
-4333.05
-4129.58
-4255.99
-4442.96
-4475.55
-4343.97
-4489.6
-4531.27
-4502.39
-4430.08
-4549
-4666.3
-4441.76
-4439.79
-4482.4
-4698.08
-4389.25
-4419.28
-4447.63
-4787.03
-4367.55
-4404.89
-4550.96
-4915.27
-4562.4
-4554.09
-4685.52
-4946.72
-4765.96
-4717.64
-4717.45
-4905.25
-4801.74
-4754.47
-4691.51
-4875.22
-4912.07
-4688.25
-4674.22
-4868.25
-5099.21
-4651.82
-4667.32
-4862.73
-5136.48
-4643.04
-4919.88
-4845.96
-5052.81
-4630.25
-5190.64
-4831.27
-5053.99
-4607.63
-5259.37
-4818.83
-5041.93
-4579.74
-5167.22
-4804.89
-5128.22
-4554.09
-5158.16
-4791.17
-5291.68
-4520.81
-5167.64
-4965.24
-5331.04
-4620.77
-5156.37
-5165.1
-5459.81
-4751.11
-5422.04
-5217.48
-5696.24
-4823.68
-5702.44
-5173.33
-5798.15
-4977.83
-5778.45
-5220.02
-5743.58
-5201.73
-5696.92
-5233.27
-5730.36
-5476.72
-5945.71
-5177.54
-5819.44
-5613.91
-6239.1
-5267.13
-5923.03
-5613.95
-6321.72
-5384.84
-6068.4
-5612.86
-6269.25
-5394.43
-6463.65
-5878.38
-6249.29
-5321.77
-6746.56
-6190.21
-6271.97
-5402.1
-6808.17
-6469.9
-6276.63
-5804.36
-6771.17
-6746.28
-6574
-6223.4
-7043.52
-7030.29
-6946.27
-6613.42
-7335.59
-7317.45
-7080.99
-6981.44
-7425.67
-7606.23
-6996.76
-7334.34
-7368.99
-7897.65
-7184.2
-7674.69
-7352.98
-8193.24
-7453.27
-8004.39
-7378.2
-8495.57
-7512.18
-8329.29
-7382.66
-8805.2
-7403.64
-8652.25
-7380.08
-9126.68
-7535.01
-8976.31
-7544.77
-9461.33
-8291.21
-9305.82
-7757.84
-9806.34
-8700.81
-9646.63
-7787.47
-10169.9
-8729.57
-10003.2
-8020.99
-10554.6
-8829.12
-10373.1
-8313.93
-10957.3
-9309.91
-10773.4
-8538.99
-11380.6
-9812.62
-11194.9
-9196.38
-11819.4
-10488.9
-11634.7
-9980.95
-12271.1
-11212.7
-12088.4
-10731
-12733.1
-11913
-12554.5
-11448.8
-13203.6
-12594.4
-13030.8
-12156.1
-13680.9
-13269.4
-13516
-12853.6
-14163.5
-13936.1
-14008.8
-13545.2
-14650
-14596
-14507.4
-14230.9
-15139
-15248.5
-15011.4
-14914.4
-15629.3
-15894.4
-15518.3
-15594.8
-16119.2
-16532.7
-16024.7
-16279.7
-16608.5
-17163.6
-16523.3
-16963
-17094.6
-17786
-16974.4
-17659
-17580
-18397.9
-17345.3
-18326.4
-18060.7
-19001.7
-17637.3
-19013.7
-18544.6
-19585.8
-17878.6
-19405.9
-19017.1
-20177.5
-18122.2
-19502.6
-19488
-20726.4
-18409.1
-19439.3
-19945.9
-21318.4
-18749.6
-19408.1
-20385.6
-21735.9
-19116.3
-19431.1
-20819.3
-22076.6
-19468.2
-19595.9
-21293.4
-22242.5
-19803.2
-20125.7
-21765.9
-22279.5
-20136.7
-20801.5
-22141.5
-22449.8
-20471
-21396.5
-22428.8
-22753.4
-20795.5
-21867.8
-22670.7
-23006
-21114.4
-22263.1
-22876.7
-23213.1
-21424.7
-22587.1
-23047.2
-23303.4
-21728.7
-22855.6
-23190
-23317.7
-22028.6
-23063.3
-23306.1
-23319.2
-22319
-23228.3
-23392.9
-23324.5
-22606.9
-23345.8
-23499.6
-23348.6
-22890.8
-23472.7
-23625.4
-23418.9
-23178.2
-23608.5
-23757.6
-23495.8
-23469
-23744.5
-23936.4
-23499
-23770.7
-23925.1
-24174.2
-23520.1
-24081.7
-24160.2
-24463.2
-23648
-24402.8
-24446.1
-24780.1
-23927.1
-24734.5
-24760
-25113.3
-24295
-25071.1
-25088.3
-25456.1
-24741.9
-25416.9
-25426.8
-25797.9
-25278.2
-25761.8
-25762.3
-26123
-25775.5
-26115.4
-26081.6
-26438.7
-26021.1
-26467.2
-26387.6
-26767.7
-26358.9
-26830.9
-26704.9
-27109.1
-26673.2
-27199.2
-27034.1
-27469.4
-26773.3
-27586.3
-27377.1
-27865.8
-27093.3
-27984.7
-27758.3
-28274.3
-27593.7
-28403
-28147.4
-28711.8
-28125.6
-28836
-28567.1
-29164.7
-28513.2
-29282.6
-28992.9
-29629.4
-28681
-29743.2
-29429.6
-30129.9
-29155.6
-30212.6
-29895.3
-30660
-29630.8
-30694.7
-30394.5
-31226.5
-29555
-31183.4
-30932.2
-31804.8
-29674.5
-31679
-31477.9
-32390.2
-30341.4
-32177.7
-32033.8
-32975.7
-31673.2
-32677.1
-32585.2
-33559.5
-32912.9
-33176
-33139.1
-34134.9
-34175.3
-33673.5
-33679.7
-34707.8
-35349.2
-34166.4
-34219.9
-35284.5
-36399.5
-34654.1
-34766.8
-35866
-37320.2
-35133.2
-35315.4
-36451.8
-38117.5
-35601.1
-35864.1
-37021
-38796
-36057.4
-36405.9
-37569.8
-39362.4
-36498.2
-36940.5
-38057.7
-39832.2
-36925.1
-37461
-38250.2
-40213.9
-37333.5
-37961.9
-38186.4
-40517.1
-37724
-38437.8
-38211.3
-40757.5
-38109
-38886.2
-38634.3
-40951.8
-38496.3
-39308.6
-39102.8
-41123.9
-38884
-39699.3
-39533.6
-41290.7
-39268.1
-40054.6
-39929.8
-41470.7
-39650.1
-40372.7
-40292.5
-41665.3
-40029.5
-40655.9
-40628.4
-41851.6
-40411
-40908.2
-40938.3
-41853.3
-40794.9
-41145.2
-41210.7
-41757.9
-41189.9
-41369.1
-41463.8
-41756
-41597.1
-41589.7
-41716.9
-41857.9
-42029
-41816.4
-41978.7
-41952.1
-42483.9
-42053.3
-42253.8
-42002.8
-42970.3
-42311.1
-42542.8
-42163.3
-43477.2
-42571.8
-42839.2
-42373.9
-44013.1
-42789.8
-43144.5
-42432.8
-44556.1
-42907.5
-43457.4
-42500.3
-45126.3
-43027.9
-43775
-42632.4
-45688.3
-43242.9
-44092.1
-42722.1
-46279.9
-43445.7
-44379.4
-42818.8
-46882.6
-43616.2
-44595.7
-42979.3
-47588
-43753.9
-44741.5
-43036.7
-48323.7
-43876.7
-44840.7
-42987.8
-49172.3
-44008.7
-44894.4
-42850.5
-49960.3
-44210.4
-44967.4
-42695.2
-50861.1
-44479.2
-44904.7
-42551.7
-51342.6
-44808.9
-44742.9
-42399.6
-51169.3
-45054.4
-44725.8
-42297.9
-50656.2
-45175
-44782
-42310.8
-50983.6
-45235.7
-44827.8
-42317.6
-51312.3
-45281.8
)
;

boundaryField
{
    inlet
    {
        type            zeroGradient;
    }
    outlet
    {
        type            fixedValue;
        value           uniform 0;
    }
    repeat_boundary
    {
        type            zeroGradient;
    }
}


// ************************************************************************* //
