/*--------------------------------*- C++ -*----------------------------------*\
  =========                 |
  \\      /  F ield         | OpenFOAM: The Open Source CFD Toolbox
   \\    /   O peration     | Website:  https://openfoam.org
    \\  /    A nd           | Version:  9
     \\/     M anipulation  |
\*---------------------------------------------------------------------------*/
FoamFile
{
    format      ascii;
    class       volVectorField;
    location    "7000";
    object      stored_U;
}
// * * * * * * * * * * * * * * * * * * * * * * * * * * * * * * * * * * * * * //

dimensions      [0 1 -1 0 0 0 0];

internalField   nonuniform List<vector> 
720
(
(-0.0668235 -0.0796516 53.1699)
(-0.0677976 0.128179 53.9194)
(0.139175 -0.0801311 52.5668)
(0.139988 0.126956 54.7376)
(0.184884 -0.0779206 57.7047)
(0.192847 0.161507 58.9315)
(0.425753 -0.0784856 57.1638)
(0.428232 0.159828 59.8998)
(0.145301 -0.0758359 55.9576)
(0.345316 0.198313 58.2095)
(0.375315 -0.0765048 55.2705)
(0.612055 0.19565 59.2124)
(0.148275 -0.0991623 52.7626)
(0.161074 0.233193 57.1795)
(0.437717 -0.10053 52.1208)
(0.469295 0.230446 58.2772)
(-0.695527 -0.166596 56.9599)
(-0.192582 0.274144 56.7223)
(-0.188574 -0.169805 55.6932)
(0.17034 0.272694 57.9206)
(-1.02789 -0.173741 55.4826)
(-0.55935 0.306575 56.6819)
(-0.544996 -0.185116 55.3235)
(-0.118614 0.306019 57.9653)
(-0.772911 -0.204051 55.8189)
(-0.674873 0.348439 56.7182)
(-0.217063 -0.19384 55.8478)
(-0.102062 0.347275 59.9135)
(-0.445409 -0.18727 55.8109)
(-0.616475 0.578604 56.5175)
(0.147261 -0.137411 52.1931)
(0.0451009 0.163767 54.5385)
(-0.650707 -0.128476 56.1628)
(-0.632014 0.946329 57.947)
(0.395195 -0.0240421 55.0901)
(0.368034 0.963754 59.5276)
(-0.482741 -0.0828735 56.2092)
(-0.285639 0.676888 52.8557)
(0.519343 0.0352191 56.3107)
(0.491923 1.19663 59.2782)
(-0.211666 -0.000857029 53.2025)
(-0.688779 0.887761 56.971)
(0.461874 0.104737 52.1271)
(0.561541 1.26099 58.6762)
(-0.868772 -0.553277 57.3447)
(-0.993141 0.772506 58.0454)
(0.435546 -0.454062 55.0748)
(0.539465 1.09325 59.0386)
(-1.11348 -0.848462 57.0329)
(-0.604501 0.52264 52.2922)
(0.363067 -0.817052 54.5289)
(0.45134 0.810786 58.6094)
(-1.11023 -0.865483 56.5191)
(-0.669478 0.569309 58.2244)
(0.535608 -0.87531 54.7646)
(0.556864 0.767371 59.3704)
(-0.702779 -0.696006 57.5625)
(-0.15671 0.239061 52.3686)
(0.522631 -0.477463 53.5853)
(0.68468 0.609744 59.2141)
(-0.225885 -0.47286 54.9889)
(-0.0486769 -0.0990911 56.1173)
(0.203887 -0.273448 53.5207)
(0.635359 0.387503 59.312)
(-0.31988 -0.30951 57.4476)
(-0.236022 -0.0843272 55.8636)
(0.229585 -0.18728 51.5991)
(0.290773 0.302197 60.3085)
(-0.399589 -0.0540947 57.1914)
(-0.251904 -0.106461 56.0275)
(-0.313239 0.235997 54.902)
(0.122452 0.188358 57.5172)
(-0.365649 0.0994464 58.238)
(0.0036231 0.0427932 52.9262)
(-0.42792 0.424131 54.5087)
(-0.0425356 0.259215 59.7095)
(-0.00452488 0.0618225 54.0413)
(0.0467829 0.0157854 55.5346)
(-0.322346 0.141166 53.8429)
(0.04424 0.25605 59.652)
(-0.104102 -0.360056 57.7307)
(-0.0203899 -0.0451838 55.6987)
(-0.00204395 -0.376181 54.8226)
(0.199229 0.124572 59.2974)
(-0.253987 -0.486687 57.6797)
(-0.209283 -0.166593 55.0262)
(0.064626 -0.194762 51.4491)
(0.187796 0.0107439 59.2271)
(-0.474153 -0.566568 57.0353)
(-0.352488 -0.227565 55.0794)
(-0.261358 -0.144706 54.4601)
(0.105627 0.0709973 59.1011)
(-0.502102 -0.581996 58.6163)
(-0.301406 -0.0827622 54.7262)
(-0.321889 -0.0336866 55.1805)
(0.0779888 0.115812 59.2476)
(-0.0920044 -0.232393 54.0819)
(-0.415067 -0.093967 56.0655)
(-0.171652 -0.202216 52.7946)
(-0.0155623 0.101901 59.126)
(-0.550708 -0.203164 58.4226)
(-0.402334 -0.103473 54.4116)
(-0.386186 -0.246252 53.7022)
(-0.366767 0.0038724 61.0107)
(-0.343845 0.145513 58.0542)
(-0.141357 -0.510454 51.8194)
(-0.627937 -0.0492363 51.9881)
(-0.459277 -0.406087 55.4463)
(-0.374321 0.355635 57.4406)
(0.784793 -1.25842 57.1161)
(-1.27924 0.738115 55.1839)
(-0.972479 -0.895233 61.0462)
(-0.369128 0.428466 58.468)
(0.997623 -1.16402 55.273)
(-1.22916 1.02762 54.8504)
(-0.828144 -0.978494 56.6412)
(0.122884 0.229547 53.9941)
(0.325921 -0.397187 56.7598)
(-0.956086 0.836466 55.3543)
(-0.712466 -0.611009 59.0355)
(0.282458 0.223277 57.9249)
(-0.0578424 -0.292226 52.4451)
(-0.56199 0.200984 53.1268)
(-0.640484 -0.424713 58.7502)
(0.464568 0.327963 57.5517)
(0.525074 -1.00057 56.2808)
(-0.624504 0.118827 54.332)
(-0.780589 -0.637686 57.6654)
(0.672148 0.884929 57.7968)
(0.76301 -1.38419 56.4173)
(-1.14575 0.442902 55.5605)
(-1.12365 -0.800636 58.1962)
(0.383572 0.68114 55.8239)
(0.928522 -1.33905 55.6742)
(-1.45274 0.870151 55.281)
(-1.53518 -1.39775 57.0628)
(0.244514 0.118527 54.1943)
(0.562523 -0.906795 56.3577)
(-1.43247 0.87555 55.6145)
(-1.64483 -1.54155 57.2811)
(-0.336464 -0.898502 57.0902)
(-0.0266726 -1.53197 56.8034)
(-1.55612 0.181724 55.4005)
(-1.78466 -1.74249 57.9934)
(-0.726035 -1.36685 58.2555)
(-0.11818 -1.19946 54.8071)
(-1.62845 -0.380577 55.7798)
(-1.26856 -1.23981 55.0786)
(-0.49576 -0.615538 55.4463)
(-0.310346 -1.27664 58.0577)
(-1.42396 -0.706341 55.7805)
(-0.412986 -0.508006 54.3049)
(-0.409876 -0.61223 57.2511)
(-0.0407842 -0.71879 54.6704)
(-1.11276 -0.944835 55.7002)
(0.371368 -0.364236 57.1455)
(-0.28999 -1.08796 57.1677)
(-0.134142 -1.07693 57.088)
(-0.877434 -1.21526 56.6841)
(0.16463 -0.674507 58.0578)
(-0.392399 -1.30589 57.2983)
(-0.182641 -1.2158 57.445)
(-0.505691 -0.896903 54.8732)
(-0.354751 -0.774751 52.845)
(-0.379087 -0.993507 57.5298)
(-0.0689282 -1.05732 55.7187)
(-0.234556 -0.515741 52.4733)
(-0.585594 -0.826364 56.3885)
(-0.101256 -0.614469 57.1936)
(-0.123183 -1.19074 57.0695)
(-0.504268 0.185335 57.034)
(-0.556906 -0.579648 55.969)
(-0.0488878 -0.413998 58.9725)
(0.0588099 -0.976834 56.8072)
(-0.93069 0.477623 56.5289)
(-0.981138 -0.791071 56.2478)
(-0.0600206 -0.375514 54.413)
(-0.0190754 -1.08845 57.0891)
(-1.53329 0.0596304 55.6921)
(-0.839902 -0.86795 54.6617)
(-0.507796 -0.824729 58.4509)
(-0.265708 -0.834318 58.4752)
(-1.14496 -0.523437 57.3303)
(-0.443941 -0.611993 51.4602)
(-0.574268 -0.873342 59.5402)
(-0.14794 -0.631832 53.759)
(-0.523374 -0.364792 52.2067)
(-0.0953973 -0.243067 57.6985)
(-0.364355 -0.564607 55.3159)
(-0.14206 -0.323851 58.5317)
(-0.292949 -0.271567 58.9542)
(-0.0597679 -0.0508171 55.1149)
(-0.394642 -0.389421 58.4662)
(-0.186113 -0.240476 56.7949)
(-0.538919 -0.236727 52.7516)
(-0.0887264 -0.201391 51.3316)
(-0.556548 -0.415238 58.3603)
(-0.358896 0.449753 58.0692)
(0.0386719 0.0205537 58.3903)
(0.172706 0.396758 57.3635)
(-0.633062 -0.235379 59.5347)
(-0.24799 0.510005 56.1121)
(-0.29408 0.108479 52.9649)
(0.212099 0.48362 54.1678)
(-0.245839 -0.156522 54.6606)
(0.0236771 0.0228701 53.4105)
(0.191521 0.471225 58.271)
(0.756674 1.14913 55.713)
(0.282735 0.0126657 60.8665)
(0.618585 -0.401974 58.1264)
(-0.282941 0.389769 52.6978)
(0.532345 0.691669 54.6401)
(0.301431 -0.256098 54.8936)
(0.594446 -0.357079 57.502)
(-0.124946 0.52733 58.0128)
(0.365361 0.440847 55.2893)
(-0.02058 -0.107935 60.3327)
(0.133991 0.572229 57.9882)
(-0.383045 0.495715 53.3529)
(0.383605 0.738325 57.1721)
(-0.0702242 -0.201681 55.2475)
(-0.065821 0.58308 53.166)
(-0.284981 0.598639 56.2016)
(-0.139322 0.321972 51.9972)
(-0.203432 -0.297034 58.3332)
(-0.0390287 0.597671 58.4064)
(0.0259855 0.555904 56.233)
(0.245811 0.705345 56.4187)
(-0.174621 -0.395636 58.3536)
(0.106326 0.337703 56.6658)
(0.0135946 0.450908 55.475)
(0.378853 0.57153 56.4323)
(0.153206 -0.496049 57.5658)
(0.105149 0.334882 52.7271)
(0.142895 0.42948 55.5528)
(0.459183 0.348846 57.3045)
(0.560994 -0.445275 57.6441)
(1.5387 0.0449823 59.7975)
(0.465385 0.383497 56.5422)
(0.228387 0.437723 52.2546)
(1.3919 -0.2746 57.1671)
(1.23115 0.260707 54.2085)
(0.446696 0.55114 52.7776)
(1.04321 -0.0276005 56.935)
(1.88535 -0.0831777 57.1554)
(2.27691 -0.363546 57.5028)
(0.981804 1.02284 56.0181)
(1.19187 -0.215468 56.605)
(2.34703 0.103015 56.6707)
(2.58814 -0.5255 58.6307)
(1.12541 1.26588 55.8253)
(1.13318 -0.676307 56.7385)
(2.90343 0.236814 57.2519)
(2.46582 -0.339734 55.9062)
(1.23327 1.19547 55.2282)
(0.998985 -0.717838 56.204)
(2.30369 0.000528249 55.1432)
(3.29948 -0.683724 60.4293)
(1.60559 0.955364 56.1012)
(1.07084 0.00560034 55.6975)
(1.651 -0.364377 54.8579)
(2.1389 0.255735 54.956)
(1.70977 0.973604 53.9246)
(1.304 0.789578 53.6557)
(1.14171 -0.481771 55.0907)
(3.35515 0.544352 60.7859)
(1.42677 0.676939 54.2217)
(2.65222 1.59968 59.7786)
(0.778145 -0.423018 54.8802)
(2.67087 0.911023 57.9859)
(0.980784 0.515239 54.384)
(2.10095 1.49901 54.9381)
(0.457602 -0.314446 54.5955)
(3.05828 0.984106 59.0609)
(0.560759 0.430069 54.1657)
(2.58855 1.55609 58.0102)
(0.089087 -0.178467 54.4127)
(2.95315 0.890494 59.2172)
(0.190311 0.431391 53.8788)
(2.76936 1.97945 60.3563)
(-0.307745 -0.0264666 54.2913)
(1.93332 1.91129 60.2261)
(-0.1373 0.467381 53.7391)
(1.66835 1.59632 54.5845)
(-0.543405 0.129112 54.2211)
(0.911795 1.12391 55.0279)
(-0.474523 0.513191 53.642)
(1.76179 2.02494 60.0188)
(-0.765841 0.276414 54.2475)
(-0.10594 1.82651 59.3469)
(-0.718483 0.586946 53.6455)
(1.25222 2.30548 59.427)
(-1.13569 0.393102 54.3211)
(-0.792339 2.03292 60.4474)
(-1.02707 0.632195 53.6843)
(1.15604 2.70417 61.0244)
(-1.51991 0.483721 54.4632)
(-0.863249 1.51139 55.0419)
(-1.24714 0.704293 53.756)
(0.40793 2.24707 55.5276)
(-1.64571 0.539576 54.6004)
(-1.4261 1.44351 58.1038)
(-1.41075 0.745853 53.9474)
(-0.770332 2.5703 60.6533)
(-1.77434 0.608965 54.7944)
(-1.463 0.874744 56.0672)
(-1.70269 0.802169 54.1819)
(-1.40398 2.40521 60.4902)
(-1.81239 0.667527 54.9558)
(-1.46393 0.346934 55.9797)
(-2.1148 0.848256 54.5218)
(-2.19296 1.92426 61.3349)
(-1.85088 0.726047 55.1214)
(-1.48327 -0.0637514 55.5961)
(-2.53897 0.899195 54.8946)
(-2.28529 1.07458 56.6859)
(-1.84378 0.800276 55.2761)
(-1.46379 -0.231405 56.0198)
(-2.62222 0.942729 55.3221)
(-2.74253 0.376856 58.9029)
(-1.89782 0.871316 55.4136)
(-1.60129 -0.0864352 55.4561)
(-2.66032 1.02979 55.771)
(-2.73811 0.243857 59.1359)
(-1.9325 0.914329 55.5475)
(-1.6001 -0.0502582 55.2979)
(-2.64105 1.08748 56.176)
(-2.62132 0.391957 57.4387)
(-2.04178 0.953129 55.6819)
(-1.77573 0.224495 55.1735)
(-2.63722 1.22624 56.6258)
(-2.44679 0.63155 57.3846)
(-2.13982 0.959425 55.7971)
(-1.85191 0.419218 54.9492)
(-2.54475 1.29342 56.9887)
(-2.2219 0.993201 57.2387)
(-2.32716 0.973846 55.944)
(-2.0419 0.736158 54.7033)
(-2.56414 1.45647 57.4128)
(-2.11982 1.3327 57.0339)
(-2.51807 0.989249 56.0555)
(-2.23018 0.987358 54.3651)
(-2.51217 1.5169 57.735)
(-2.07398 1.68849 56.7935)
(-2.75464 1.00618 56.2253)
(-2.46656 1.30513 54.049)
(-2.63078 1.71483 58.1646)
(-2.02309 1.94266 56.6326)
(-3.04325 1.07861 56.3526)
(-2.75779 1.6186 53.5985)
(-2.62328 1.76574 58.4709)
(-2.02025 2.25437 56.5179)
(-3.29943 1.10999 56.5526)
(-3.0438 1.93592 53.1917)
(-2.80147 1.97125 58.9121)
(-2.00434 2.47179 56.4245)
(-3.68421 1.25402 56.7062)
(-3.44499 2.33658 52.6145)
(-2.84571 1.98367 59.2415)
(-2.07255 2.81941 56.3776)
(-3.96252 1.30279 56.9564)
(-3.84079 2.70457 52.0946)
(-3.07774 2.20537 59.6771)
(-2.13997 3.09742 56.3393)
(-4.44312 1.50618 57.1414)
(-4.34523 3.18457 51.3584)
(-3.1193 2.14832 60.0871)
(-2.29186 3.52195 56.3708)
(-4.80434 1.57543 57.4773)
(-4.90432 3.65903 50.6922)
(-3.38912 2.4101 60.4877)
(-2.47562 3.9205 56.3833)
(-5.3756 1.82518 57.6976)
(-5.51079 4.24851 49.7395)
(-3.44584 2.31045 61.0316)
(-2.694 4.41516 56.5106)
(-5.87675 1.90574 58.1648)
(-6.28303 4.89198 48.896)
(-3.77271 2.67301 61.3861)
(-3.00863 4.96026 56.5605)
(-6.63733 2.28289 58.4213)
(-7.02052 5.65671 47.6404)
(-3.79798 2.51579 62.0898)
(-3.31732 5.57763 56.8559)
(-7.26104 2.27947 59.0782)
(-8.17193 6.57969 46.5411)
(-4.22653 3.02089 62.4397)
(-3.72865 6.27662 56.8234)
(-8.36363 2.95518 59.4037)
(-9.20867 7.74274 44.9251)
(-4.22854 2.81085 63.2779)
(-4.08074 7.01577 57.6051)
(-9.23974 2.77633 60.2719)
(-11.067 9.0948 43.2901)
(-4.80102 3.44356 63.6975)
(-4.70836 8.02042 56.5194)
(-10.5744 3.81833 60.909)
(-12.5042 10.8362 41.3067)
(-4.88401 3.2247 64.6535)
(-5.03855 8.90837 59.3004)
(-12.0229 3.62027 61.4494)
(-16.1796 13.1903 37.851)
(-5.57964 3.85638 65.2259)
(-5.77713 10.2103 57.9076)
(-13.7351 4.55899 63.7428)
(-18.0041 15.481 37.4935)
(-5.8632 3.62688 66.3372)
(-6.2071 10.8575 60.9464)
(-16.1285 4.97766 64.6925)
(-27.1399 20.6422 30.7074)
(-6.49591 4.11429 67.07)
(-7.43988 12.8012 59.945)
(-20.8165 7.87172 66.3058)
(-37.833 29.7976 32.9815)
(-6.89965 4.00808 68.5846)
(-12.4079 16.6967 61.3784)
(-23.3922 10.5005 69.5604)
(-27.1202 38.4205 25.5278)
(-7.27899 4.04048 69.7973)
(-13.5627 22.3376 63.1194)
(-25.6698 11.2103 72.3837)
(1.7655 18.843 10.5846)
(-7.52256 3.8921 71.7821)
(-13.9762 25.7598 66.6767)
(-28.0984 11.5927 72.8932)
(12.2705 4.24081 10.0392)
(-7.17652 3.42808 73.2817)
(-13.3097 28.8599 68.0246)
(-29.8639 11.4998 73.3862)
(20.8126 -9.47056 7.23971)
(-7.24741 3.44376 74.954)
(-12.7961 31.2506 68.9789)
(-31.7211 11.1884 73.0136)
(25.4804 -18.7914 3.70994)
(-6.75913 2.94315 76.4893)
(-11.353 33.3076 69.1966)
(-33.6582 11.1171 73.3115)
(24.6449 -23.6604 3.25749)
(-6.8815 3.17565 77.8438)
(-10.999 35.6054 69.2805)
(-35.7084 11.0528 73.0944)
(19.5115 -20.8225 8.41003)
(-6.47424 2.93741 79.4177)
(-10.2265 37.8953 69.6211)
(-37.7718 11.1585 73.7206)
(21.852 -23.7558 5.64575)
(-6.49999 3.11689 80.7042)
(-9.70691 40.4405 69.6004)
(-39.7332 11.2539 73.6878)
(30.1225 -33.1687 -8.56707)
(-6.29568 3.24219 82.1895)
(-9.07886 42.4836 70.2308)
(-41.7279 11.5169 74.1062)
(30.179 -33.8144 -1.15302)
(-6.18614 3.25092 83.5698)
(-8.22388 44.7227 69.8721)
(-43.6073 12.001 73.8935)
(33.9406 -37.9724 -5.16352)
(-6.17529 3.71316 84.8661)
(-7.80545 46.6749 70.5133)
(-45.5735 12.4046 73.8814)
(37.1732 -41.265 -5.50054)
(-6.11557 3.78446 86.4329)
(-7.03573 48.8742 69.822)
(-47.3367 13.0965 73.4753)
(36.8254 -40.6889 -9.21158)
(-6.18331 4.40902 87.6008)
(-6.53069 50.9375 70.3119)
(-49.1843 13.5587 73.3576)
(34.9471 -38.3066 -4.15064)
(-6.06925 4.5331 89.3744)
(-5.9352 53.2298 69.8677)
(-50.8032 14.5404 73.1961)
(35.4423 -38.9941 -9.19908)
(-6.25122 5.21423 90.4791)
(-5.3614 55.4008 70.6588)
(-52.2509 14.8879 72.9828)
(35.945 -39.6496 -10.8665)
(-6.02448 5.24779 92.4275)
(-4.50095 57.1846 70.415)
(-53.9938 15.9446 72.9797)
(36.0336 -39.9245 -13.2673)
(-5.96003 5.55905 93.5197)
(-3.60511 59.4784 71.5278)
(-55.2919 16.1516 72.7972)
(36.9495 -41.0328 -15.1097)
(-5.44327 5.26538 95.4369)
(-2.38894 60.9448 71.5487)
(-56.8393 17.0878 72.8313)
(38.8709 -43.0907 -15.7405)
(-5.37619 5.31011 96.5031)
(-1.08077 62.8601 72.9246)
(-57.976 17.2379 72.7802)
(40.8741 -45.1128 -16.2182)
(-5.1647 5.19756 98.2018)
(0.317812 63.9104 73.2618)
(-59.0522 17.797 72.5826)
(43.1292 -47.2903 -24.1626)
(-5.80183 5.83891 99.3204)
(1.9389 65.0996 74.6461)
(-59.9327 17.7211 72.4546)
(42.9137 -47.1819 -24.5172)
(-6.92284 6.93813 100.821)
(3.45359 65.6779 75.0262)
(-60.5857 17.7591 72.0173)
(43.2707 -47.5848 -28.3984)
(-8.96076 8.79316 102.217)
(5.17249 66.3468 76.3379)
(-61.0305 17.2223 71.715)
(40.934 -45.3602 -25.9395)
(-11.5912 11.0662 103.71)
(6.82261 66.4008 76.6931)
(-61.6287 16.7462 71.3153)
(40.7149 -45.2375 -28.5004)
(-14.6578 13.5614 105.597)
(8.63432 66.9787 77.9721)
(-62.1871 15.641 70.8844)
(41.5152 -46.0538 -30.1276)
(-17.9661 15.9835 107.219)
(10.655 67.1121 78.421)
(-62.7677 14.4815 70.3892)
(39.898 -44.4716 -31.9155)
(-21.1079 18.1533 109.53)
(12.7284 67.5525 79.3532)
(-63.0534 12.8278 70.0154)
(41.1855 -45.6054 -43.7924)
(-24.0977 19.7718 111.272)
(15.1621 67.477 80.0877)
(-62.8557 11.3698 69.5554)
(40.0625 -44.812 -33.5759)
(-26.5417 21.0005 113.655)
(17.1599 67.2334 80.6846)
(-61.9952 9.61067 69.3617)
(41.2465 -45.8748 -37.3806)
(-28.6408 21.4576 115.452)
(19.6351 66.2453 81.7421)
(-60.6826 8.19599 68.8049)
(42.6232 -46.9648 -50.4351)
(-30.0649 21.678 117.57)
(21.1692 65.018 81.9374)
(-58.5423 6.67028 68.5468)
(40.8617 -45.6154 -43.8433)
(-31.1101 21.1332 119.334)
(23.1577 62.9109 82.9701)
(-55.8746 5.56112 67.9615)
(41.2124 -45.9278 -48.2486)
(-31.4781 20.5081 121.053)
(23.9224 60.3532 82.9854)
(-52.4672 4.36655 67.5078)
(40.1061 -45.1303 -48.2973)
(-31.6049 19.4017 122.642)
(25.0346 56.9963 83.6146)
(-48.6579 3.57232 66.8226)
(39.0096 -43.9868 -49.9837)
(-31.2067 18.2388 124.013)
(25.0148 53.319 83.6208)
(-44.6688 2.7379 66.3321)
(37.6556 -42.836 -50.1129)
(-30.692 16.9299 125.358)
(25.1655 48.6802 83.7627)
(-39.6548 1.84522 65.2734)
(36.19 -41.3547 -50.4693)
(-29.889 15.6041 126.439)
(24.6921 43.3848 83.4757)
(-34.9422 0.891207 64.6142)
(34.6495 -39.9909 -50.0842)
(-29.0792 14.4433 127.552)
(24.2144 37.4079 83.074)
(-29.5022 -0.0713281 63.4487)
(33.0207 -38.4525 -49.3369)
(-28.2255 13.2688 128.355)
(23.4994 31.1624 82.417)
(-24.9312 -1.09861 62.5569)
(31.3571 -36.9413 -48.2477)
(-27.5982 12.454 129.264)
(22.7864 24.6788 81.5428)
(-19.7943 -2.01026 61.2685)
(29.6164 -35.2851 -46.4744)
(-27.1905 11.7104 129.869)
(22.1373 18.1227 80.3132)
(-16.2033 -2.97136 60.2864)
(27.9474 -33.6961 -44.7432)
(-27.2049 11.3539 130.621)
(21.5709 11.6495 78.9914)
(-11.8673 -3.77851 58.5749)
(26.2785 -32.036 -42.0995)
(-27.5923 11.1724 131.175)
(21.2369 5.10881 77.128)
(-9.31806 -4.52796 58.2489)
(24.8706 -30.6139 -39.939)
(-28.4019 11.2823 131.84)
(21.0423 -1.28342 75.3739)
(-7.37969 -5.10035 54.4842)
(23.5441 -29.1594 -36.5759)
(-29.5722 11.524 132.477)
(21.1474 -7.67856 72.9172)
(-5.12421 -5.73231 56.8979)
(22.6307 -28.1294 -33.82)
(-31.0256 11.8933 133.164)
(21.4668 -13.7669 70.6352)
(-4.53317 -5.84581 53.9368)
(21.5983 -26.9926 -29.9029)
(-32.6599 12.3303 133.925)
(22.0786 -19.3565 67.5895)
(-5.28721 -5.87694 51.9033)
(20.8914 -26.2905 -26.9575)
(-34.4268 12.9742 134.742)
(23.0237 -23.9626 64.7573)
(-8.00572 -5.83895 51.0895)
(20.2073 -25.7504 -23.1082)
(-36.243 13.8182 135.659)
(24.4006 -27.0678 61.4188)
(-11.7679 -5.51844 50.425)
(20.278 -25.8673 -20.2213)
(-38.0528 15.2315 136.625)
(26.387 -28.2244 58.3085)
(-15.8382 -5.17109 49.4585)
(19.9598 -26.5636 -16.9985)
(-39.8019 17.2373 137.679)
(29.0122 -26.6968 54.9706)
(-19.7428 -4.70793 48.6635)
(19.9838 -26.8514 -14.8536)
(-41.4331 20.1113 138.826)
(32.3235 -22.4352 52.1814)
(-23.3061 -4.37663 47.8894)
(19.618 -27.0156 -12.4947)
(-42.8304 23.5973 140.034)
(35.7234 -15.7469 49.4246)
(-26.4884 -4.02606 47.2862)
(19.6129 -27.847 -9.22841)
(-43.8162 27.8034 141.413)
(38.9109 -6.61798 47.2822)
(-29.2063 -3.9729 46.3737)
(20.1636 -30.2538 -11.4407)
(-44.2315 32.2444 142.828)
(41.4005 3.88056 45.7412)
(-31.4419 -4.18488 45.6374)
(20.7056 -31.1433 -9.15268)
(-43.8068 36.8833 144.525)
(42.4902 14.8716 44.8026)
(-33.2828 -4.90473 44.4987)
(20.48 -31.3711 -11.3294)
(-42.4089 41.0934 146.192)
(41.8797 24.311 44.2481)
(-34.542 -6.22066 43.5626)
(18.9477 -29.9887 -12.8653)
(-39.7343 44.7263 148.274)
(39.6465 31.4672 43.9721)
(-35.3412 -8.10744 42.2762)
(17.2918 -28.4843 -8.43716)
(-35.6648 47.1114 150.087)
(36.2623 36.4484 44.4545)
(-35.5827 -10.8313 41.798)
(18.7945 -29.7023 -11.894)
(-29.9814 48.0677 152.298)
(32.9094 39.4873 43.4406)
(-35.3 -13.9949 40.1963)
(20.9684 -31.4916 -18.21)
(-22.7248 46.9594 153.669)
(29.1449 40.4741 47.7501)
(-33.86 -17.2715 40.3047)
(20.6257 -30.9961 -19.092)
(-14.1245 43.6168 155.288)
(27.0124 40.1771 46.4781)
(-30.5564 -19.2441 39.1196)
(19.4041 -29.7113 -15.0186)
(-4.54099 37.5355 155.329)
(25.7249 35.8545 47.5148)
(-23.2406 -20.5516 39.367)
(21.6829 -31.4069 -19.584)
(5.28993 28.973 155.591)
(26.3324 28.2057 49.5853)
(-12.6997 -20.6569 38.6371)
(23.3603 -32.6208 -20.1639)
(14.906 18.1214 153.301)
(28.7127 18.2773 50.4227)
(-1.22004 -22.0165 39.5712)
(22.5816 -32.2924 -16.4537)
(23.5242 6.20161 151.678)
(31.03 6.98237 52.5486)
(9.832 -24.5082 38.4761)
(22.7987 -32.1934 -15.0638)
(30.9512 -6.22327 146.649)
(33.9343 -4.33569 53.1063)
(18.689 -28.1974 39.4667)
(21.8338 -32.4555 -9.70883)
(36.675 -18.02 143.456)
(34.8817 -15.7959 55.2111)
(25.9711 -32.5197 39.283)
(21.2641 -31.5812 -6.56969)
(40.6811 -28.7566 135.39)
(35.3513 -24.4628 55.0131)
(30.7997 -36.9196 40.9828)
(18.1149 -31.6114 -0.995514)
(42.605 -37.2042 131.964)
(33.2668 -32.9596 56.306)
(32.711 -37.3101 42.5183)
(17.4843 -28.8003 3.28264)
(43.5181 -44.5382 120.443)
(30.6189 -36.0713 56.3761)
(33.6655 -39.4867 43.8515)
(12.8307 -29.698 6.4557)
(40.8601 -46.538 119.889)
(24.6455 -39.113 57.7039)
(32.1684 -36.4615 47.32)
(15.3532 -29.502 12.3613)
(39.4209 -49.4545 106.502)
(21.8693 -37.2491 55.3948)
(30.8934 -35.4613 47.4331)
(10.5423 -26.3373 14.9747)
(32.9115 -45.1084 107.663)
(9.92082 -36.2468 56.7384)
(27.3793 -32.1125 49.6343)
(10.0903 -22.7557 20.5771)
(28.7813 -42.6741 98.4522)
(9.37897 -28.8707 52.3508)
(22.5419 -20.5573 52.3223)
(1.69761 -15.2485 22.3084)
(20.859 -35.008 99.0656)
(-7.87764 -22.5931 54.2766)
)
;

boundaryField
{
    inlet
    {
        type            calculated;
        value           nonuniform List<vector> 4((22.5419 -20.5573 52.3223) (20.859 -35.008 99.0656) (1.69761 -15.2485 22.3084) (-7.87764 -22.5931 54.2766));
    }
    outlet
    {
        type            calculated;
        value           nonuniform List<vector> 4((-0.0668235 -0.0796516 53.1699) (0.139175 -0.0801311 52.5668) (-0.0677976 0.128179 53.9194) (0.139988 0.126956 54.7376));
    }
    repeat_boundary
    {
        type            calculated;
        value           nonuniform List<vector> 
1440
(
(-0.0668235 0 53.1699)
(0.184884 0 57.7047)
(0.145301 0 55.9576)
(0.148275 0 52.7626)
(-0.695527 0 56.9599)
(-1.02789 0 55.4826)
(-0.772911 0 55.8189)
(-0.445409 0 55.8109)
(-0.650707 0 56.1628)
(-0.482741 0 56.2092)
(-0.211666 0 53.2025)
(-0.868772 0 57.3447)
(-1.11348 0 57.0329)
(-1.11023 0 56.5191)
(-0.702779 0 57.5625)
(-0.225885 0 54.9889)
(-0.31988 0 57.4476)
(-0.399589 0 57.1914)
(-0.365649 0 58.238)
(-0.00452488 0 54.0413)
(-0.104102 0 57.7307)
(-0.253987 0 57.6797)
(-0.474153 0 57.0353)
(-0.502102 0 58.6163)
(-0.0920044 0 54.0819)
(-0.550708 0 58.4226)
(-0.343845 0 58.0542)
(-0.374321 0 57.4406)
(-0.369128 0 58.468)
(0.122884 0 53.9941)
(0.282458 0 57.9249)
(0.464568 0 57.5517)
(0.672148 0 57.7968)
(0.383572 0 55.8239)
(0.244514 0 54.1943)
(-0.336464 0 57.0902)
(-0.726035 0 58.2555)
(-0.49576 0 55.4463)
(-0.409876 0 57.2511)
(-0.28999 0 57.1677)
(-0.392399 0 57.2983)
(-0.379087 0 57.5298)
(-0.101256 0 57.1936)
(-0.0488878 0 58.9725)
(-0.0600206 0 54.413)
(-0.507796 0 58.4509)
(-0.574268 0 59.5402)
(-0.364355 0 55.3159)
(-0.394642 0 58.4662)
(-0.556548 0 58.3603)
(-0.633062 0 59.5347)
(-0.245839 0 54.6606)
(0.282735 0 60.8665)
(0.301431 0 54.8936)
(-0.02058 0 60.3327)
(-0.0702242 0 55.2475)
(-0.203432 0 58.3332)
(-0.174621 0 58.3536)
(0.153206 0 57.5658)
(0.560994 0 57.6441)
(1.3919 0 57.1671)
(1.88535 0 57.1554)
(2.34703 0 56.6707)
(2.90343 0 57.2519)
(2.30369 0 55.1432)
(1.651 0 54.8579)
(1.14171 0 55.0907)
(0.778145 0 54.8802)
(0.457602 0 54.5955)
(0.089087 0 54.4127)
(-0.307745 0 54.2913)
(-0.543405 0 54.2211)
(-0.765841 0 54.2475)
(-1.13569 0 54.3211)
(-1.51991 0 54.4632)
(-1.64571 0 54.6004)
(-1.77434 0 54.7944)
(-1.81239 0 54.9558)
(-1.85088 0 55.1214)
(-1.84378 0 55.2761)
(-1.89782 0 55.4136)
(-1.9325 0 55.5475)
(-2.04178 0 55.6819)
(-2.13982 0 55.7971)
(-2.32716 0 55.944)
(-2.51807 0 56.0555)
(-2.75464 0 56.2253)
(-3.04325 0 56.3526)
(-3.29943 0 56.5526)
(-3.68421 0 56.7062)
(-3.96252 0 56.9564)
(-4.44312 0 57.1414)
(-4.80434 0 57.4773)
(-5.3756 0 57.6976)
(-5.87675 0 58.1648)
(-6.63733 0 58.4213)
(-7.26104 0 59.0782)
(-8.36363 0 59.4037)
(-9.23974 0 60.2719)
(-10.5744 0 60.909)
(-12.0229 0 61.4494)
(-13.7351 0 63.7428)
(-16.1285 0 64.6925)
(-20.8165 0 66.3058)
(-23.3922 0 69.5604)
(-25.6698 0 72.3837)
(-28.0984 0 72.8932)
(-29.8639 0 73.3862)
(-31.7211 0 73.0136)
(-33.6582 0 73.3115)
(-35.7084 0 73.0944)
(-37.7718 0 73.7206)
(-39.7332 0 73.6878)
(-41.7279 0 74.1062)
(-43.6073 0 73.8935)
(-45.5735 0 73.8814)
(-47.3367 0 73.4753)
(-49.1843 0 73.3576)
(-50.8032 0 73.1961)
(-52.2509 0 72.9828)
(-53.9938 0 72.9797)
(-55.2919 0 72.7972)
(-56.8393 0 72.8313)
(-57.976 0 72.7802)
(-59.0522 0 72.5826)
(-59.9327 0 72.4546)
(-60.5857 0 72.0173)
(-61.0305 0 71.715)
(-61.6287 0 71.3153)
(-62.1871 0 70.8844)
(-62.7677 0 70.3892)
(-63.0534 0 70.0154)
(-62.8557 0 69.5554)
(-61.9952 0 69.3617)
(-60.6826 0 68.8049)
(-58.5423 0 68.5468)
(-55.8746 0 67.9615)
(-52.4672 0 67.5078)
(-48.6579 0 66.8226)
(-44.6688 0 66.3321)
(-39.6548 0 65.2734)
(-34.9422 0 64.6142)
(-29.5022 0 63.4487)
(-24.9312 0 62.5569)
(-19.7943 0 61.2685)
(-16.2033 0 60.2864)
(-11.8673 0 58.5749)
(-9.31806 0 58.2489)
(-7.37969 0 54.4842)
(-5.12421 0 56.8979)
(-4.53317 0 53.9368)
(-5.28721 0 51.9033)
(-8.00572 0 51.0895)
(-11.7679 0 50.425)
(-15.8382 0 49.4585)
(-19.7428 0 48.6635)
(-23.3061 0 47.8894)
(-26.4884 0 47.2862)
(-29.2063 0 46.3737)
(-31.4419 0 45.6374)
(-33.2828 0 44.4987)
(-34.542 0 43.5626)
(-35.3412 0 42.2762)
(-35.5827 0 41.798)
(-35.3 0 40.1963)
(-33.86 0 40.3047)
(-30.5564 0 39.1196)
(-23.2406 0 39.367)
(-12.6997 0 38.6371)
(-1.22004 0 39.5712)
(9.832 0 38.4761)
(18.689 0 39.4667)
(25.9711 0 39.283)
(30.7997 0 40.9828)
(32.711 0 42.5183)
(33.6655 0 43.8515)
(32.1684 0 47.32)
(30.8934 0 47.4331)
(27.3793 0 49.6343)
(22.5419 0 52.3223)
(-0.0677976 0 53.9194)
(0.192847 0 58.9315)
(0.345316 0 58.2095)
(0.161074 0 57.1795)
(-0.192582 0 56.7223)
(-0.55935 0 56.6819)
(-0.674873 0 56.7182)
(-0.616475 0 56.5175)
(-0.632014 0 57.947)
(-0.285639 0 52.8557)
(-0.688779 0 56.971)
(-0.993141 0 58.0454)
(-0.604501 0 52.2922)
(-0.669478 0 58.2244)
(-0.15671 0 52.3686)
(-0.0486769 0 56.1173)
(-0.236022 0 55.8636)
(-0.251904 0 56.0275)
(0.0036231 0 52.9262)
(0.0467829 0 55.5346)
(-0.0203899 0 55.6987)
(-0.209283 0 55.0262)
(-0.352488 0 55.0794)
(-0.301406 0 54.7262)
(-0.415067 0 56.0655)
(-0.402334 0 54.4116)
(-0.141357 0 51.8194)
(0.784793 0 57.1161)
(0.997623 0 55.273)
(0.325921 0 56.7598)
(-0.0578424 0 52.4451)
(0.525074 0 56.2808)
(0.76301 0 56.4173)
(0.928522 0 55.6742)
(0.562523 0 56.3577)
(-0.0266726 0 56.8034)
(-0.11818 0 54.8071)
(-0.310346 0 58.0577)
(-0.0407842 0 54.6704)
(-0.134142 0 57.088)
(-0.182641 0 57.445)
(-0.0689282 0 55.7187)
(-0.123183 0 57.0695)
(0.0588099 0 56.8072)
(-0.0190754 0 57.0891)
(-0.265708 0 58.4752)
(-0.14794 0 53.759)
(-0.14206 0 58.5317)
(-0.186113 0 56.7949)
(-0.358896 0 58.0692)
(-0.24799 0 56.1121)
(0.0236771 0 53.4105)
(0.618585 0 58.1264)
(0.594446 0 57.502)
(0.133991 0 57.9882)
(-0.065821 0 53.166)
(-0.0390287 0 58.4064)
(0.106326 0 56.6658)
(0.105149 0 52.7271)
(1.5387 0 59.7975)
(1.23115 0 54.2085)
(2.27691 0 57.5028)
(2.58814 0 58.6307)
(2.46582 0 55.9062)
(3.29948 0 60.4293)
(2.1389 0 54.956)
(3.35515 0 60.7859)
(2.67087 0 57.9859)
(3.05828 0 59.0609)
(2.95315 0 59.2172)
(1.93332 0 60.2261)
(0.911795 0 55.0279)
(-0.10594 0 59.3469)
(-0.792339 0 60.4474)
(-0.863249 0 55.0419)
(-1.4261 0 58.1038)
(-1.463 0 56.0672)
(-1.46393 0 55.9797)
(-1.48327 0 55.5961)
(-1.46379 0 56.0198)
(-1.60129 0 55.4561)
(-1.6001 0 55.2979)
(-1.77573 0 55.1735)
(-1.85191 0 54.9492)
(-2.0419 0 54.7033)
(-2.23018 0 54.3651)
(-2.46656 0 54.049)
(-2.75779 0 53.5985)
(-3.0438 0 53.1917)
(-3.44499 0 52.6145)
(-3.84079 0 52.0946)
(-4.34523 0 51.3584)
(-4.90432 0 50.6922)
(-5.51079 0 49.7395)
(-6.28303 0 48.896)
(-7.02052 0 47.6404)
(-8.17193 0 46.5411)
(-9.20867 0 44.9251)
(-11.067 0 43.2901)
(-12.5042 0 41.3067)
(-16.1796 0 37.851)
(-18.0041 0 37.4935)
(-27.1399 0 30.7074)
(-37.833 0 32.9815)
(-27.1202 0 25.5278)
(1.7655 0 10.5846)
(12.2705 0 10.0392)
(20.8126 0 7.23971)
(25.4804 0 3.70994)
(24.6449 0 3.25749)
(19.5115 0 8.41003)
(21.852 0 5.64575)
(30.1225 0 -8.56707)
(30.179 0 -1.15302)
(33.9406 0 -5.16352)
(37.1732 0 -5.50054)
(36.8254 0 -9.21158)
(34.9471 0 -4.15064)
(35.4423 0 -9.19908)
(35.945 0 -10.8665)
(36.0336 0 -13.2673)
(36.9495 0 -15.1097)
(38.8709 0 -15.7405)
(40.8741 0 -16.2182)
(43.1292 0 -24.1626)
(42.9137 0 -24.5172)
(43.2707 0 -28.3984)
(40.934 0 -25.9395)
(40.7149 0 -28.5004)
(41.5152 0 -30.1276)
(39.898 0 -31.9155)
(41.1855 0 -43.7924)
(40.0625 0 -33.5759)
(41.2465 0 -37.3806)
(42.6232 0 -50.4351)
(40.8617 0 -43.8433)
(41.2124 0 -48.2486)
(40.1061 0 -48.2973)
(39.0096 0 -49.9837)
(37.6556 0 -50.1129)
(36.19 0 -50.4693)
(34.6495 0 -50.0842)
(33.0207 0 -49.3369)
(31.3571 0 -48.2477)
(29.6164 0 -46.4744)
(27.9474 0 -44.7432)
(26.2785 0 -42.0995)
(24.8706 0 -39.939)
(23.5441 0 -36.5759)
(22.6307 0 -33.82)
(21.5983 0 -29.9029)
(20.8914 0 -26.9575)
(20.2073 0 -23.1082)
(20.278 0 -20.2213)
(19.9598 0 -16.9985)
(19.9838 0 -14.8536)
(19.618 0 -12.4947)
(19.6129 0 -9.22841)
(20.1636 0 -11.4407)
(20.7056 0 -9.15268)
(20.48 0 -11.3294)
(18.9477 0 -12.8653)
(17.2918 0 -8.43716)
(18.7945 0 -11.894)
(20.9684 0 -18.21)
(20.6257 0 -19.092)
(19.4041 0 -15.0186)
(21.6829 0 -19.584)
(23.3603 0 -20.1639)
(22.5816 0 -16.4537)
(22.7987 0 -15.0638)
(21.8338 0 -9.70883)
(21.2641 0 -6.56969)
(18.1149 0 -0.995514)
(17.4843 0 3.28264)
(12.8307 0 6.4557)
(15.3532 0 12.3613)
(10.5423 0 14.9747)
(10.0903 0 20.5771)
(1.69761 0 22.3084)
(0 0.128179 53.9194)
(0 0.126956 54.7376)
(0 0.161507 58.9315)
(0 0.159828 59.8998)
(0 0.198313 58.2095)
(0 0.19565 59.2124)
(0 0.233193 57.1795)
(0 0.230446 58.2772)
(0 0.274144 56.7223)
(0 0.272694 57.9206)
(0 0.306575 56.6819)
(0 0.306019 57.9653)
(0 0.348439 56.7182)
(0 0.347275 59.9135)
(0 0.578604 56.5175)
(0 0.163767 54.5385)
(0 0.946329 57.947)
(0 0.963754 59.5276)
(0 0.676888 52.8557)
(0 1.19663 59.2782)
(0 0.887761 56.971)
(0 1.26099 58.6762)
(0 0.772506 58.0454)
(0 1.09325 59.0386)
(0 0.52264 52.2922)
(0 0.810786 58.6094)
(0 0.569309 58.2244)
(0 0.767371 59.3704)
(0 0.239061 52.3686)
(0 0.609744 59.2141)
(0 -0.0990911 56.1173)
(0 0.387503 59.312)
(0 -0.0843272 55.8636)
(0 0.302197 60.3085)
(0 -0.106461 56.0275)
(0 0.188358 57.5172)
(0 0.0427932 52.9262)
(0 0.259215 59.7095)
(0 0.0157854 55.5346)
(0 0.25605 59.652)
(0 -0.0451838 55.6987)
(0 0.124572 59.2974)
(0 -0.166593 55.0262)
(0 0.0107439 59.2271)
(0 -0.227565 55.0794)
(0 0.0709973 59.1011)
(0 -0.0827622 54.7262)
(0 0.115812 59.2476)
(0 -0.093967 56.0655)
(0 0.101901 59.126)
(0 -0.103473 54.4116)
(0 0.0038724 61.0107)
(0 -0.510454 51.8194)
(0 -0.406087 55.4463)
(0 -1.25842 57.1161)
(0 -0.895233 61.0462)
(0 -1.16402 55.273)
(0 -0.978494 56.6412)
(0 -0.397187 56.7598)
(0 -0.611009 59.0355)
(0 -0.292226 52.4451)