FoamFile
{version 2.0; format ascii;class Cloud<passiveParticle>; location 0;object  positions;}
42
(
( 386.309 -486.306 99.8583 ) 0 
( 113.945 -410.039 99.8404 ) 0 
( 94.5536 -210.171 99.9185 ) 0 
( 288.213 -312.062 99.8192 ) 0 
( 104.076 -0.477922 99.9471 ) 0 
( 400.148 -324.206 264.902 ) 0 
( 461.382 -145.387 144.456 ) 0 
( 269.276 -113.066 99.8639 ) 0 
( 40.6345 -329.883 267.668 ) 0 
( 201.46 -40.6527 273.377 ) 0 
( 219.045 -239.746 272.83 ) 0 
( 0.354198 -100.829 238.335 ) 0 
( 187.369 -404.898 380.837 ) 0 
( 90.1045 -224.683 430.287 ) 0 
( 63.1544 -26.5531 427.595 ) 0 
( 377.892 -130.253 325.336 ) 0 
( 329.972 -281.404 447.195 ) 0 
( 452.675 -136.729 510.654 ) 0 
( 243.117 -102.364 470.207 ) 0 
( 327.606 -480.411 501.749 ) 0 
( 432.174 -320.945 616.09 ) 0 
( 154.329 -393.945 577.579 ) 0 
( 102.139 -94.3652 611.701 ) 0 
( 38.2612 -269.901 682.914 ) 0 
( 255.387 -228.116 625.099 ) 0 
( 364.735 -81.3057 708.964 ) 0 
( 289.799 -411.222 723.547 ) 0 
( 165.752 -159.062 789.856 ) 0 
( 480.712 -467.416 743.194 ) 0 
( 343.66 -245.339 821.333 ) 0 
( 100.885 -428.953 786.664 ) 0 
( 255.512 -395.379 919.873 ) 0 
( 9.60024 -246.072 879.364 ) 0 
( 53.0237 -19.9649 878.83 ) 0 
( 232.973 -180.085 976.946 ) 0 
( 390.521 -39.4323 987.898 ) 0 
( 422.806 -236.003 1005.37 ) 0 
( 490.273 -410.394 934.561 ) 0 
( 90.5292 -355.764 1025.66 ) 0 
( 48.9263 -136.016 1041.62 ) 0 
( 323.638 -376.807 1106.98 ) 0 
( 175.665 -235.062 1160.47 ) 0 
)
