FoamFile
{version 2.0; format ascii;class vectorField; location 0;object  v;}
42
(
( -7.1984e-05 1.91437e-05 -0.000111233 )  
( -4.204e-05 -1.66872e-05 -0.00016504 )  
( 1.38607e-05 8.63242e-06 -7.3483e-05 )  
( -2.02011e-05 7.3813e-06 -0.000193926 )  
( 1.63881e-05 6.83132e-06 -0.000102824 )  
( 6.10021e-05 -7.49716e-06 -0.000460169 )  
( -9.66006e-06 1.20283e-05 -0.000290395 )  
( 4.52667e-05 2.80342e-05 -0.000187964 )  
( -1.30637e-05 1.67213e-05 -0.000294553 )  
( -3.23153e-06 -3.7677e-06 -0.000293925 )  
( -1.43336e-05 -1.64533e-05 -0.000358351 )  
( -3.42342e-05 5.18341e-05 -0.00020065 )  
( 1.86097e-05 3.32718e-05 -0.000298307 )  
( -6.39204e-05 -3.87602e-05 -0.000438469 )  
( -2.97154e-05 -7.19843e-05 -0.000417131 )  
( -2.29335e-05 3.79911e-05 -0.00042626 )  
( 9.81146e-05 -4.03129e-05 -0.000553378 )  
( -7.86442e-05 -8.09017e-05 -0.000461294 )  
( -2.67072e-05 -4.38848e-05 -0.000319249 )  
( 5.5273e-05 -8.76794e-05 -0.000440455 )  
( -1.41705e-05 4.71629e-05 -0.000123812 )  
( 6.53945e-05 5.73201e-05 -0.000181243 )  
( -3.88178e-05 1.78736e-05 -0.000192016 )  
( -3.49801e-05 -3.25553e-05 -7.68344e-05 )  
( 1.73694e-05 9.18754e-05 -0.00013039 )  
( 2.17002e-05 5.26598e-05 -8.39471e-05 )  
( 7.98878e-06 3.97825e-05 9.07952e-06 )  
( -1.48792e-05 -3.67976e-05 1.14838e-05 )  
( 6.97356e-05 2.30355e-05 5.44536e-05 )  
( 9.55024e-05 5.97962e-05 0.000187999 )  
( -8.8956e-05 -3.88678e-05 -4.99019e-05 )  
( 6.51216e-05 -9.49445e-05 0.000134417 )  
( 6.76592e-06 -0.000117989 0.000118755 )  
( -6.97573e-05 -9.5851e-05 0.000103173 )  
( 0.000113983 -7.83856e-05 0.000133595 )  
( 8.468e-05 1.65443e-05 0.000447437 )  
( 5.43305e-05 2.74347e-05 0.000405042 )  
( 4.43406e-05 2.99599e-05 0.000282076 )  
( 8.77161e-05 -0.000103801 0.00026899 )  
( 0.000146979 2.02582e-05 0.000221266 )  
( 0.000128199 -0.000129868 0.000303267 )  
( 6.98932e-05 4.03121e-05 0.000281525 )  
)
