/*--------------------------------*- C++ -*----------------------------------*\
| =========                 |                                                 |
| \\      /  F ield         | OpenFOAM: The Open Source CFD Toolbox           |
|  \\    /   O peration     | Version:  5.x                                   |
|   \\  /    A nd           | Web:      www.OpenFOAM.org                      |
|    \\/     M anipulation  |                                                 |
\*---------------------------------------------------------------------------*/
FoamFile
{
    version     2.0;
    format      ascii;
    class       volVectorField;
    location    "0.03";
    object      stored_U;
}
// * * * * * * * * * * * * * * * * * * * * * * * * * * * * * * * * * * * * * //

dimensions      [0 1 -1 0 0 0 0];

internalField   nonuniform List<vector> 
2250
(
(-1.40261e-10 -1.8883e-11 -0.000999999)
(-1.28554e-10 -2.04168e-11 -0.000999999)
(-1.05564e-10 -2.0472e-11 -0.000999999)
(-6.89985e-11 -2.05826e-11 -0.001)
(-2.38658e-11 -2.06472e-11 -0.001)
(-1.40754e-10 -5.22124e-11 -0.000999999)
(-1.30446e-10 -5.97065e-11 -0.000999999)
(-1.05967e-10 -5.93252e-11 -0.000999999)
(-6.93407e-11 -5.93805e-11 -0.001)
(-2.39994e-11 -5.98067e-11 -0.001)
(-1.40156e-10 -7.16515e-11 -0.000999999)
(-1.35964e-10 -9.36835e-11 -0.000999999)
(-1.05474e-10 -9.35624e-11 -0.001)
(-6.974e-11 -9.36443e-11 -0.001)
(-2.44462e-11 -9.49021e-11 -0.001)
(-1.28616e-10 -4.90215e-11 -0.000999999)
(-1.52368e-10 -1.0539e-10 -0.001)
(-1.05937e-10 -1.1731e-10 -0.001)
(-7.087e-11 -1.22188e-10 -0.001)
(-2.54328e-11 -1.25646e-10 -0.001)
(-7.43301e-11 -2.14686e-10 -0.000999999)
(-2.04393e-10 -1.46175e-10 -0.001)
(-1.22282e-10 -1.42616e-10 -0.001)
(-7.83229e-11 -1.47146e-10 -0.001)
(-2.8119e-11 -1.50026e-10 -0.001)
(-4.17092e-10 -5.85083e-11 -0.000999999)
(-3.82974e-10 -6.09891e-11 -0.000999999)
(-3.13504e-10 -6.16124e-11 -0.000999999)
(-2.04143e-10 -6.17866e-11 -0.001)
(-7.05955e-11 -6.19187e-11 -0.001)
(-4.19412e-10 -1.7202e-10 -0.000999999)
(-3.86924e-10 -1.81887e-10 -0.000999999)
(-3.14951e-10 -1.81028e-10 -0.000999999)
(-2.04932e-10 -1.80077e-10 -0.001)
(-7.09598e-11 -1.80669e-10 -0.001)
(-4.17905e-10 -2.58436e-10 -0.000999999)
(-3.92806e-10 -2.90055e-10 -0.000999999)
(-3.12343e-10 -2.8851e-10 -0.001)
(-2.04535e-10 -2.86833e-10 -0.001)
(-7.16707e-11 -2.88307e-10 -0.001)
(-3.89055e-10 -2.31241e-10 -0.000999999)
(-4.17013e-10 -3.27981e-10 -0.001)
(-3.11756e-10 -3.57549e-10 -0.001)
(-2.05299e-10 -3.71072e-10 -0.001)
(-7.29748e-11 -3.77709e-10 -0.001)
(-2.28745e-10 -5.78502e-10 -0.001)
(-5.18975e-10 -4.68363e-10 -0.001)
(-3.55445e-10 -4.43002e-10 -0.001)
(-2.25402e-10 -4.42841e-10 -0.001)
(-7.89984e-11 -4.44052e-10 -0.001)
(-7.45663e-10 -1.1496e-10 -0.000999999)
(-6.89277e-10 -1.13897e-10 -0.000999999)
(-5.57775e-10 -1.14199e-10 -0.000999999)
(-3.62067e-10 -1.13881e-10 -0.001)
(-1.25165e-10 -1.13605e-10 -0.001)
(-7.49589e-10 -3.50779e-10 -0.000999999)
(-6.89945e-10 -3.40267e-10 -0.000999999)
(-5.58858e-10 -3.3533e-10 -0.000999999)
(-3.6238e-10 -3.31456e-10 -0.001)
(-1.25373e-10 -3.30531e-10 -0.001)
(-7.47559e-10 -5.65743e-10 -0.000999999)
(-6.75236e-10 -5.44573e-10 -0.000999999)
(-5.50078e-10 -5.33575e-10 -0.001)
(-3.58614e-10 -5.26018e-10 -0.001)
(-1.25135e-10 -5.23942e-10 -0.001)
(-7.28205e-10 -7.07737e-10 -0.000999999)
(-6.57811e-10 -6.75035e-10 -0.001)
(-5.40351e-10 -6.74679e-10 -0.001)
(-3.53798e-10 -6.76347e-10 -0.001)
(-1.24313e-10 -6.76188e-10 -0.001)
(-6.5366e-10 -7.80014e-10 -0.001)
(-6.42181e-10 -8.3205e-10 -0.001)
(-5.51421e-10 -8.03326e-10 -0.001)
(-3.61475e-10 -7.90656e-10 -0.001)
(-1.26304e-10 -7.82224e-10 -0.001)
(-1.14581e-09 -1.88304e-10 -0.000999998)
(-1.06638e-09 -1.84998e-10 -0.000999999)
(-8.51989e-10 -1.83826e-10 -0.000999999)
(-5.52296e-10 -1.82197e-10 -0.001)
(-1.90846e-10 -1.80571e-10 -0.001)
(-1.14566e-09 -5.72115e-10 -0.000999999)
(-1.064e-09 -5.47378e-10 -0.000999999)
(-8.50818e-10 -5.3587e-10 -0.000999999)
(-5.50416e-10 -5.26693e-10 -0.001)
(-1.89926e-10 -5.21365e-10 -0.001)
(-1.13392e-09 -9.3741e-10 -0.000999999)
(-1.03224e-09 -8.71561e-10 -0.000999999)
(-8.32979e-10 -8.45243e-10 -0.001)
(-5.39871e-10 -8.26673e-10 -0.001)
(-1.86888e-10 -8.16697e-10 -0.001)
(-1.12109e-09 -1.30576e-09 -0.000999999)
(-9.7189e-10 -1.13932e-09 -0.001)
(-8.06007e-10 -1.08693e-09 -0.001)
(-5.23534e-10 -1.05787e-09 -0.001)
(-1.81565e-10 -1.04183e-09 -0.001)
(-1.19255e-09 -1.08145e-09 -0.001)
(-8.13445e-10 -1.24079e-09 -0.001)
(-7.51598e-10 -1.22726e-09 -0.001)
(-4.96934e-10 -1.20527e-09 -0.001)
(-1.7299e-10 -1.18716e-09 -0.001)
(-1.6508e-09 -2.77878e-10 -0.000999998)
(-1.53099e-09 -2.7573e-10 -0.000999999)
(-1.21748e-09 -2.72946e-10 -0.000999999)
(-7.8791e-10 -2.697e-10 -0.001)
(-2.71688e-10 -2.65717e-10 -0.001)
(-1.64514e-09 -8.28009e-10 -0.000999998)
(-1.529e-09 -8.08752e-10 -0.000999999)
(-1.21379e-09 -7.91197e-10 -0.000999999)
(-7.82697e-10 -7.75466e-10 -0.001)
(-2.68733e-10 -7.63642e-10 -0.001)
(-1.62039e-09 -1.3288e-09 -0.000999999)
(-1.49719e-09 -1.27517e-09 -0.000999999)
(-1.18663e-09 -1.23686e-09 -0.001)
(-7.63428e-10 -1.20515e-09 -0.001)
(-2.61916e-10 -1.18589e-09 -0.001)
(-1.59025e-09 -1.81675e-09 -0.000999999)
(-1.4372e-09 -1.67157e-09 -0.001)
(-1.14391e-09 -1.59326e-09 -0.001)
(-7.34145e-10 -1.53594e-09 -0.001)
(-2.51857e-10 -1.50446e-09 -0.001)
(-1.69371e-09 -1.70516e-09 -0.001)
(-1.27361e-09 -1.76852e-09 -0.001)
(-1.05104e-09 -1.74921e-09 -0.001)
(-6.77701e-10 -1.7197e-09 -0.001)
(-2.33486e-10 -1.69637e-09 -0.001)
(-2.30552e-09 -3.88124e-10 -0.000999998)
(-2.12011e-09 -3.89078e-10 -0.000999998)
(-1.68614e-09 -3.85177e-10 -0.000999999)
(-1.08757e-09 -3.80123e-10 -0.000999999)
(-3.73633e-10 -3.73304e-10 -0.001)
(-2.29977e-09 -1.14088e-09 -0.000999998)
(-2.1212e-09 -1.13707e-09 -0.000999999)
(-1.68041e-09 -1.11467e-09 -0.000999999)
(-1.07842e-09 -1.09218e-09 -0.001)
(-3.68204e-10 -1.07386e-09 -0.001)
(-2.26957e-09 -1.78464e-09 -0.000999998)
(-2.09794e-09 -1.77825e-09 -0.000999999)
(-1.6445e-09 -1.7345e-09 -0.001)
(-1.05096e-09 -1.69108e-09 -0.001)
(-3.58164e-10 -1.6647e-09 -0.001)
(-2.20585e-09 -2.32054e-09 -0.000999999)
(-2.07113e-09 -2.27323e-09 -0.001)
(-1.5933e-09 -2.21198e-09 -0.001)
(-1.01201e-09 -2.14603e-09 -0.001)
(-3.45197e-10 -2.10925e-09 -0.001)
(-2.19251e-09 -2.59286e-09 -0.001)
(-1.98952e-09 -2.48326e-09 -0.001)
(-1.5174e-09 -2.42851e-09 -0.001)
(-9.52505e-10 -2.39094e-09 -0.001)
(-3.25638e-10 -2.36728e-09 -0.001)
(-3.17317e-09 -5.32522e-10 -0.000999997)
(-2.89711e-09 -5.34079e-10 -0.000999998)
(-2.30208e-09 -5.28644e-10 -0.000999999)
(-1.47784e-09 -5.2116e-10 -0.000999999)
(-5.05805e-10 -5.11836e-10 -0.001)
(-3.17219e-09 -1.55957e-09 -0.000999997)
(-2.89877e-09 -1.55921e-09 -0.000999998)
(-2.29357e-09 -1.53145e-09 -0.000999999)
(-1.46487e-09 -1.5034e-09 -0.001)
(-4.98457e-10 -1.48133e-09 -0.001)
(-3.14554e-09 -2.41628e-09 -0.000999998)
(-2.87466e-09 -2.43163e-09 -0.000999999)
(-2.25086e-09 -2.38215e-09 -0.001)
(-1.43359e-09 -2.33291e-09 -0.001)
(-4.87683e-10 -2.30503e-09 -0.001)
(-3.06607e-09 -3.00432e-09 -0.000999999)
(-2.86473e-09 -3.04666e-09 -0.001)
(-2.19511e-09 -3.00661e-09 -0.001)
(-1.39249e-09 -2.95055e-09 -0.001)
(-4.75208e-10 -2.92018e-09 -0.001)
(-2.88853e-09 -3.64776e-09 -0.001)
(-2.87688e-09 -3.42485e-09 -0.001)
(-2.15488e-09 -3.33712e-09 -0.001)
(-1.35306e-09 -3.29336e-09 -0.001)
(-4.63134e-10 -3.27177e-09 -0.001)
(-4.33786e-09 -7.28517e-10 -0.000999996)
(-3.9425e-09 -7.252e-10 -0.000999997)
(-3.12397e-09 -7.16624e-10 -0.000999998)
(-1.99834e-09 -7.06687e-10 -0.000999999)
(-6.82965e-10 -6.96865e-10 -0.001)
(-4.33895e-09 -2.1319e-09 -0.000999996)
(-3.93812e-09 -2.11593e-09 -0.000999998)
(-3.11141e-09 -2.08249e-09 -0.000999999)
(-1.9837e-09 -2.05257e-09 -0.001)
(-6.75771e-10 -2.03183e-09 -0.001)
(-4.3164e-09 -3.31243e-09 -0.000999997)
(-3.90077e-09 -3.301e-09 -0.000999999)
(-3.06678e-09 -3.24563e-09 -0.001)
(-1.95561e-09 -3.19994e-09 -0.001)
(-6.67559e-10 -3.17704e-09 -0.001)
(-4.25364e-09 -4.08136e-09 -0.000999998)
(-3.87149e-09 -4.11592e-09 -0.001)
(-3.01064e-09 -4.0787e-09 -0.001)
(-1.92158e-09 -4.03944e-09 -0.001)
(-6.59179e-10 -4.02078e-09 -0.001)
(-4.01503e-09 -4.85166e-09 -0.001)
(-3.89812e-09 -4.64601e-09 -0.001)
(-2.99047e-09 -4.55596e-09 -0.001)
(-1.90576e-09 -4.51486e-09 -0.001)
(-6.56819e-10 -4.49503e-09 -0.001)
(-5.91392e-09 -9.91917e-10 -0.000999995)
(-5.35586e-09 -9.81294e-10 -0.000999996)
(-4.23497e-09 -9.69166e-10 -0.000999998)
(-2.70737e-09 -9.58709e-10 -0.000999999)
(-9.26809e-10 -9.51571e-10 -0.001)
(-5.9108e-09 -2.89733e-09 -0.000999995)
(-5.34329e-09 -2.86274e-09 -0.000999997)
(-4.22046e-09 -2.82722e-09 -0.000999998)
(-2.69674e-09 -2.80165e-09 -0.001)
(-9.23245e-10 -2.78751e-09 -0.001)
(-5.88686e-09 -4.51424e-09 -0.000999996)
(-5.2962e-09 -4.4684e-09 -0.000999998)
(-4.18225e-09 -4.41626e-09 -0.001)
(-2.67845e-09 -4.38346e-09 -0.001)
(-9.19906e-10 -4.36876e-09 -0.001)
(-5.84821e-09 -5.63546e-09 -0.000999998)
(-5.24555e-09 -5.59756e-09 -0.001)
(-4.1359e-09 -5.55392e-09 -0.001)
(-2.65808e-09 -5.53007e-09 -0.001)
(-9.17125e-10 -5.51929e-09 -0.001)
(-5.69147e-09 -6.36079e-09 -0.001)
(-5.21466e-09 -6.25637e-09 -0.001)
(-4.115e-09 -6.19153e-09 -0.001)
(-2.65483e-09 -6.16436e-09 -0.001)
(-9.19882e-10 -6.14514e-09 -0.001)
(-8.06471e-09 -1.34362e-09 -0.000999993)
(-7.28035e-09 -1.32847e-09 -0.000999995)
(-5.75764e-09 -1.31542e-09 -0.000999997)
(-3.68792e-09 -1.30746e-09 -0.000999999)
(-1.26676e-09 -1.30519e-09 -0.001)
(-8.05642e-09 -3.91569e-09 -0.000999993)
(-7.26603e-09 -3.87618e-09 -0.000999996)
(-5.74765e-09 -3.84656e-09 -0.000999998)
(-3.68724e-09 -3.83089e-09 -0.001)
(-1.26938e-09 -3.82456e-09 -0.001)
(-8.02817e-09 -6.09662e-09 -0.000999995)
(-7.22546e-09 -6.04828e-09 -0.000999997)
(-5.72376e-09 -6.01428e-09 -0.001)
(-3.68065e-09 -5.99909e-09 -0.001)
(-1.27027e-09 -5.98865e-09 -0.001)
(-7.99878e-09 -7.65724e-09 -0.000999997)
(-7.18401e-09 -7.60312e-09 -0.001)
(-5.69898e-09 -7.57382e-09 -0.001)
(-3.67367e-09 -7.56575e-09 -0.001)
(-1.27064e-09 -7.55375e-09 -0.001)
(-7.92654e-09 -8.49422e-09 -0.001)
(-7.14205e-09 -8.4484e-09 -0.001)
(-5.68671e-09 -8.40561e-09 -0.001)
(-3.67559e-09 -8.39278e-09 -0.00100001)
(-1.27295e-09 -8.37065e-09 -0.00100001)
(-1.10184e-08 -1.8208e-09 -0.00099999)
(-9.92571e-09 -1.80384e-09 -0.000999993)
(-7.86045e-09 -1.7936e-09 -0.000999996)
(-5.04658e-09 -1.78986e-09 -0.000999998)
(-1.73824e-09 -1.79124e-09 -0.001)
(-1.10111e-08 -5.299e-09 -0.000999991)
(-9.91747e-09 -5.26113e-09 -0.000999995)
(-7.86156e-09 -5.24361e-09 -0.000999997)
(-5.05735e-09 -5.23833e-09 -0.001)
(-1.74634e-09 -5.23422e-09 -0.001)
(-1.09833e-08 -8.2374e-09 -0.000999993)
(-9.88975e-09 -8.20177e-09 -0.000999997)
(-7.85325e-09 -8.19229e-09 -0.001)
(-5.05736e-09 -8.19049e-09 -0.001)
(-1.74759e-09 -8.17416e-09 -0.001)
(-1.0956e-08 -1.03572e-08 -0.000999996)
(-9.87282e-09 -1.03144e-08 -0.001)
(-7.85098e-09 -1.03157e-08 -0.001)
(-5.05569e-09 -1.03209e-08 -0.001)
(-1.746e-09 -1.0298e-08 -0.00100001)
(-1.09367e-08 -1.1451e-08 -0.001)
(-9.84827e-09 -1.14697e-08 -0.001)
(-7.8602e-09 -1.1427e-08 -0.00100001)
(-5.06006e-09 -1.1412e-08 -0.00100001)
(-1.74469e-09 -1.13781e-08 -0.00100001)
(-1.50737e-08 -2.47678e-09 -0.000999987)
(-1.35727e-08 -2.45721e-09 -0.000999991)
(-1.07595e-08 -2.45024e-09 -0.000999995)
(-6.91591e-09 -2.44872e-09 -0.000999998)
(-2.38428e-09 -2.44879e-09 -0.001)
(-1.50734e-08 -7.20334e-09 -0.000999988)
(-1.35721e-08 -7.15691e-09 -0.000999993)
(-1.07716e-08 -7.14717e-09 -0.000999997)
(-6.93245e-09 -7.14466e-09 -0.001)
(-2.39356e-09 -7.13244e-09 -0.001)
(-1.50497e-08 -1.12066e-08 -0.000999991)
(-1.35431e-08 -1.11498e-08 -0.000999996)
(-1.07686e-08 -1.11469e-08 -0.001)
(-6.92878e-09 -1.11442e-08 -0.001)
(-2.39051e-09 -1.11116e-08 -0.001)
(-1.50439e-08 -1.4103e-08 -0.000999995)
(-1.35129e-08 -1.40419e-08 -0.001)
(-1.0767e-08 -1.40333e-08 -0.001)
(-6.91955e-09 -1.40299e-08 -0.00100001)
(-2.38273e-09 -1.39863e-08 -0.00100001)
(-1.50808e-08 -1.54578e-08 -0.001)
(-1.34733e-08 -1.55714e-08 -0.001)
(-1.07572e-08 -1.55364e-08 -0.00100001)
(-6.90958e-09 -1.55026e-08 -0.00100001)
(-2.37413e-09 -1.54473e-08 -0.00100001)
(-2.06223e-08 -3.37427e-09 -0.000999982)
(-1.85799e-08 -3.35064e-09 -0.000999988)
(-1.4734e-08 -3.34218e-09 -0.000999994)
(-9.46977e-09 -3.33732e-09 -0.000999997)
(-3.26285e-09 -3.33052e-09 -0.001)
(-2.0626e-08 -9.80668e-09 -0.000999984)
(-1.8583e-08 -9.74283e-09 -0.00099999)
(-1.47489e-08 -9.72527e-09 -0.000999996)
(-9.48265e-09 -9.71173e-09 -0.001)
(-3.26861e-09 -9.68249e-09 -0.001)
(-2.05919e-08 -1.52816e-08 -0.000999988)
(-1.85346e-08 -1.51735e-08 -0.000999994)
(-1.4732e-08 -1.51449e-08 -0.001)
(-9.46461e-09 -1.51221e-08 -0.001)
(-3.25877e-09 -1.50673e-08 -0.00100001)
(-2.06014e-08 -1.93251e-08 -0.000999993)
(-1.84471e-08 -1.91656e-08 -0.001)
(-1.46988e-08 -1.90809e-08 -0.00100001)
(-9.43559e-09 -1.90341e-08 -0.00100001)
(-3.2435e-09 -1.896e-08 -0.00100001)
(-2.07504e-08 -2.09208e-08 -0.001)
(-1.82904e-08 -2.1123e-08 -0.00100001)
(-1.46014e-08 -2.10967e-08 -0.00100001)
(-9.38142e-09 -2.10391e-08 -0.00100002)
(-3.22167e-09 -2.09582e-08 -0.00100002)
(-2.82043e-08 -4.59241e-09 -0.000999975)
(-2.54236e-08 -4.5634e-09 -0.000999984)
(-2.01663e-08 -4.54598e-09 -0.000999991)
(-1.29538e-08 -4.53206e-09 -0.000999997)
(-4.45898e-09 -4.51577e-09 -0.000999999)
(-2.82032e-08 -1.33373e-08 -0.000999978)
(-2.54253e-08 -1.32561e-08 -0.000999987)
(-2.01734e-08 -1.32116e-08 -0.000999994)
(-1.2957e-08 -1.31738e-08 -0.000999999)
(-4.45977e-09 -1.31234e-08 -0.001)
(-2.81252e-08 -2.07893e-08 -0.000999983)
(-2.53473e-08 -2.06363e-08 -0.000999992)
(-2.01238e-08 -2.05599e-08 -0.000999999)
(-1.29167e-08 -2.05017e-08 -0.001)
(-4.44274e-09 -2.04217e-08 -0.00100001)
(-2.80763e-08 -2.63491e-08 -0.000999991)
(-2.5197e-08 -2.60943e-08 -0.001)
(-2.00405e-08 -2.59194e-08 -0.00100001)
(-1.286e-08 -2.58146e-08 -0.00100001)
(-4.41989e-09 -2.57051e-08 -0.00100001)
(-2.82292e-08 -2.86043e-08 -0.001)
(-2.49176e-08 -2.87163e-08 -0.00100001)
(-1.98452e-08 -2.86439e-08 -0.00100002)
(-1.27536e-08 -2.85509e-08 -0.00100002)
(-4.38343e-09 -2.84389e-08 -0.00100002)
(-3.85774e-08 -6.24705e-09 -0.000999966)
(-3.47769e-08 -6.20614e-09 -0.000999978)
(-2.75953e-08 -6.17292e-09 -0.000999988)
(-1.77192e-08 -6.1466e-09 -0.000999995)
(-6.09566e-09 -6.12049e-09 -0.000999999)
(-3.85655e-08 -1.81421e-08 -0.00099997)
(-3.47686e-08 -1.80285e-08 -0.000999982)
(-2.75882e-08 -1.79389e-08 -0.000999992)
(-1.77122e-08 -1.78671e-08 -0.000999999)
(-6.09278e-09 -1.77922e-08 -0.001)
(-3.84171e-08 -2.8258e-08 -0.000999977)
(-3.46412e-08 -2.80596e-08 -0.000999989)
(-2.74881e-08 -2.79177e-08 -0.000999999)
(-1.76422e-08 -2.78109e-08 -0.00100001)
(-6.0672e-09 -2.76976e-08 -0.00100001)
(-3.82348e-08 -3.57614e-08 -0.000999987)
(-3.44298e-08 -3.54322e-08 -0.000999999)
(-2.73419e-08 -3.51878e-08 -0.00100001)
(-1.75481e-08 -3.50278e-08 -0.00100002)
(-6.03388e-09 -3.48779e-08 -0.00100002)
(-3.82169e-08 -3.92217e-08 -0.000999999)
(-3.40676e-08 -3.91159e-08 -0.00100001)
(-2.70852e-08 -3.89298e-08 -0.00100002)
(-1.74019e-08 -3.87754e-08 -0.00100003)
(-5.98558e-09 -3.86159e-08 -0.00100003)
(-5.27847e-08 -8.50151e-09 -0.000999953)
(-4.759e-08 -8.4376e-09 -0.00099997)
(-3.77697e-08 -8.38233e-09 -0.000999984)
(-2.42504e-08 -8.34047e-09 -0.000999994)
(-8.34106e-09 -8.30293e-09 -0.000999999)
(-5.27549e-08 -2.47041e-08 -0.000999959)
(-4.75607e-08 -2.45236e-08 -0.000999975)
(-3.77441e-08 -2.43689e-08 -0.000999989)
(-2.4233e-08 -2.42517e-08 -0.000999999)
(-8.33517e-09 -2.41439e-08 -0.001)
(-5.25144e-08 -3.84689e-08 -0.000999969)
(-4.7347e-08 -3.81753e-08 -0.000999985)
(-3.7572e-08 -3.79369e-08 -0.000999999)
(-2.41202e-08 -3.77609e-08 -0.00100001)
(-8.2964e-09 -3.75965e-08 -0.00100001)
(-5.21797e-08 -4.85642e-08 -0.000999983)
(-4.70307e-08 -4.81394e-08 -0.000999999)
(-3.73331e-08 -4.78002e-08 -0.00100001)
(-2.39688e-08 -4.75652e-08 -0.00100002)
(-8.24481e-09 -4.73548e-08 -0.00100003)
(-5.1918e-08 -5.35849e-08 -0.000999999)
(-4.65831e-08 -5.32633e-08 -0.00100002)
(-3.69998e-08 -5.29356e-08 -0.00100003)
(-2.37695e-08 -5.26911e-08 -0.00100004)
(-8.17893e-09 -5.24597e-08 -0.00100004)
(-7.2247e-08 -1.15769e-08 -0.000999937)
(-6.51567e-08 -1.14781e-08 -0.000999959)
(-5.17082e-08 -1.13914e-08 -0.000999978)
(-3.32009e-08 -1.13272e-08 -0.000999992)
(-1.142e-08 -1.12734e-08 -0.001)
(-7.21795e-08 -3.36572e-08 -0.000999944)
(-6.50939e-08 -3.33724e-08 -0.000999966)
(-5.16552e-08 -3.31251e-08 -0.000999985)
(-3.31676e-08 -3.29418e-08 -0.000999999)
(-1.14093e-08 -3.27848e-08 -0.00100001)
(-7.17992e-08 -5.2409e-08 -0.000999958)
(-6.47506e-08 -5.1958e-08 -0.00099998)
(-5.1379e-08 -5.15784e-08 -0.000999999)
(-3.29901e-08 -5.12996e-08 -0.00100001)
(-1.13491e-08 -5.1057e-08 -0.00100002)
(-7.12694e-08 -6.60734e-08 -0.000999977)
(-6.42662e-08 -6.54762e-08 -0.000999999)
(-5.10013e-08 -6.49777e-08 -0.00100002)
(-3.27499e-08 -6.46199e-08 -0.00100003)
(-1.12677e-08 -6.43126e-08 -0.00100004)
(-7.0738e-08 -7.30736e-08 -0.000999999)
(-6.3655e-08 -7.24957e-08 -0.00100002)
(-5.05255e-08 -7.19764e-08 -0.00100004)
(-3.2454e-08 -7.15989e-08 -0.00100005)
(-1.11684e-08 -7.12624e-08 -0.00100006)
(-9.89009e-08 -1.57772e-08 -0.000999914)
(-8.92189e-08 -1.56228e-08 -0.000999945)
(-7.07971e-08 -1.54892e-08 -0.000999971)
(-4.54601e-08 -1.53914e-08 -0.00099999)
(-1.56379e-08 -1.53129e-08 -0.001)
(-9.87665e-08 -4.58682e-08 -0.000999924)
(-8.90985e-08 -4.54242e-08 -0.000999955)
(-7.06994e-08 -4.50417e-08 -0.000999981)
(-4.53994e-08 -4.476e-08 -0.001)
(-1.56183e-08 -4.45301e-08 -0.00100001)
(-9.81711e-08 -7.14041e-08 -0.000999943)
(-8.85645e-08 -7.07149e-08 -0.000999973)
(-7.02715e-08 -7.0131e-08 -0.000999999)
(-4.51252e-08 -6.97008e-08 -0.00100002)
(-1.55254e-08 -6.93442e-08 -0.00100003)
(-9.73421e-08 -8.99392e-08 -0.000999969)
(-8.78293e-08 -8.90625e-08 -0.000999999)
(-6.96913e-08 -8.83235e-08 -0.00100002)
(-4.4754e-08 -8.77842e-08 -0.00100004)
(-1.53993e-08 -8.73357e-08 -0.00100005)
(-9.64086e-08 -9.96299e-08 -0.000999999)
(-8.69489e-08 -9.86775e-08 -0.00100003)
(-6.8997e-08 -9.78568e-08 -0.00100005)
(-4.43129e-08 -9.7267e-08 -0.00100007)
(-1.52492e-08 -9.6773e-08 -0.00100008)
(-1.354e-07 -2.15098e-08 -0.000999883)
(-1.22167e-07 -2.12674e-08 -0.000999925)
(-9.6944e-08 -2.10638e-08 -0.000999961)
(-6.2254e-08 -2.09154e-08 -0.000999987)
(-2.14162e-08 -2.08003e-08 -0.001)
(-1.35163e-07 -6.25222e-08 -0.000999896)
(-1.21949e-07 -6.18278e-08 -0.000999939)
(-9.67745e-08 -6.12442e-08 -0.000999974)
(-6.21481e-08 -6.08163e-08 -0.001)
(-2.13814e-08 -6.04799e-08 -0.00100001)
(-1.34258e-07 -9.73115e-08 -0.000999922)
(-1.21124e-07 -9.62394e-08 -0.000999964)
(-9.61217e-08 -9.53448e-08 -0.000999999)
(-6.17306e-08 -9.46895e-08 -0.00100003)
(-2.12399e-08 -9.41669e-08 -0.00100004)
(-1.3301e-07 -1.22524e-07 -0.000999958)
(-1.19988e-07 -1.21172e-07 -0.000999999)
(-9.5233e-08 -1.20044e-07 -0.00100003)
(-6.11626e-08 -1.19226e-07 -0.00100006)
(-2.10462e-08 -1.1857e-07 -0.00100007)
(-1.31562e-07 -1.35654e-07 -0.000999999)
(-1.18644e-07 -1.34245e-07 -0.00100004)
(-9.41806e-08 -1.32997e-07 -0.00100007)
(-6.04958e-08 -1.32086e-07 -0.0010001)
(-2.08188e-08 -1.31359e-07 -0.00100011)
(-1.85413e-07 -2.93187e-08 -0.000999841)
(-1.67317e-07 -2.89508e-08 -0.000999899)
(-1.32788e-07 -2.86422e-08 -0.000999948)
(-8.52783e-08 -2.84165e-08 -0.000999984)
(-2.93381e-08 -2.8247e-08 -0.001)
(-1.85015e-07 -8.52087e-08 -0.000999859)
(-1.66952e-07 -8.4151e-08 -0.000999917)
(-1.32502e-07 -8.32636e-08 -0.000999966)
(-8.5098e-08 -8.2614e-08 -0.001)
(-2.92782e-08 -8.212e-08 -0.00100002)
(-1.83643e-07 -1.3262e-07 -0.000999894)
(-1.65693e-07 -1.30974e-07 -0.000999951)
(-1.31509e-07 -1.29602e-07 -0.001)
(-8.44631e-08 -1.28602e-07 -0.00100004)
(-2.90623e-08 -1.27834e-07 -0.00100005)
(-1.81771e-07 -1.66991e-07 -0.000999943)
(-1.63942e-07 -1.649e-07 -0.000999999)
(-1.30142e-07 -1.63152e-07 -0.00100005)
(-8.35916e-08 -1.61892e-07 -0.00100008)
(-2.87647e-08 -1.60924e-07 -0.0010001)
(-1.79634e-07 -1.84645e-07 -0.000999999)
(-1.61854e-07 -1.82543e-07 -0.00100005)
(-1.28509e-07 -1.80664e-07 -0.0010001)
(-8.25602e-08 -1.79279e-07 -0.00100014)
(-2.84136e-08 -1.78209e-07 -0.00100015)
(-2.54025e-07 -3.99625e-08 -0.000999783)
(-2.29257e-07 -3.94112e-08 -0.000999863)
(-1.81975e-07 -3.89408e-08 -0.00099993)
(-1.16879e-07 -3.8596e-08 -0.00099998)
(-4.02114e-08 -3.83453e-08 -0.00100001)
(-2.53364e-07 -1.16128e-07 -0.000999809)
(-2.28662e-07 -1.14537e-07 -0.000999888)
(-1.81499e-07 -1.13182e-07 -0.000999955)
(-1.16576e-07 -1.1219e-07 -0.001)
(-4.01102e-08 -1.11459e-07 -0.00100003)
(-2.51259e-07 -1.80718e-07 -0.000999856)
(-2.2675e-07 -1.78231e-07 -0.000999935)
(-1.79981e-07 -1.76131e-07 -0.001)
(-1.15604e-07 -1.74599e-07 -0.00100005)
(-3.97781e-08 -1.73461e-07 -0.00100008)
(-2.48376e-07 -2.27515e-07 -0.000999922)
(-2.24085e-07 -2.24343e-07 -0.000999999)
(-1.77882e-07 -2.21669e-07 -0.00100006)
(-1.14263e-07 -2.19734e-07 -0.00100011)
(-3.93204e-08 -2.18299e-07 -0.00100014)
(-2.45067e-07 -2.51542e-07 -0.000999999)
(-2.20905e-07 -2.48216e-07 -0.00100007)
(-1.75382e-07 -2.45322e-07 -0.00100014)
(-1.12676e-07 -2.43201e-07 -0.00100019)
(-3.87793e-08 -2.41616e-07 -0.00100021)
(-3.48246e-07 -5.44986e-08 -0.000999705)
(-3.14329e-07 -5.36578e-08 -0.000999814)
(-2.49548e-07 -5.29357e-08 -0.000999907)
(-1.60303e-07 -5.2407e-08 -0.000999975)
(-5.51562e-08 -5.20327e-08 -0.00100001)
(-3.47159e-07 -1.58339e-07 -0.000999739)
(-3.13348e-07 -1.55909e-07 -0.000999848)
(-2.48761e-07 -1.53829e-07 -0.00099994)
(-1.59801e-07 -1.52304e-07 -0.00100001)
(-5.49858e-08 -1.51214e-07 -0.00100004)
(-3.43923e-07 -2.46322e-07 -0.000999805)
(-3.10418e-07 -2.42527e-07 -0.000999912)
(-2.46425e-07 -2.39304e-07 -0.001)
(-1.583e-07 -2.36945e-07 -0.00100007)
(-5.44723e-08 -2.35249e-07 -0.0010001)
(-3.39466e-07 -3.09954e-07 -0.000999894)
(-3.06344e-07 -3.05121e-07 -0.001)
(-2.432e-07 -3.01038e-07 -0.00100009)
(-1.56232e-07 -2.98064e-07 -0.00100015)
(-5.37645e-08 -2.95932e-07 -0.00100019)
(-3.34288e-07 -3.4265e-07 -0.001)
(-3.01501e-07 -3.37447e-07 -0.0010001)
(-2.39382e-07 -3.32973e-07 -0.00100019)
(-1.53797e-07 -3.2971e-07 -0.00100025)
(-5.29333e-08 -3.27353e-07 -0.00100029)
(-4.77734e-07 -7.43642e-08 -0.000999598)
(-4.313e-07 -7.30695e-08 -0.000999748)
(-3.42495e-07 -7.19563e-08 -0.000999876)
(-2.20059e-07 -7.11391e-08 -0.000999969)
(-7.57258e-08 -7.05746e-08 -0.00100002)
(-4.75958e-07 -2.15993e-07 -0.000999645)
(-4.29686e-07 -2.12251e-07 -0.000999794)
(-3.41198e-07 -2.09043e-07 -0.000999921)
(-2.19223e-07 -2.06686e-07 -0.00100001)
(-7.54397e-08 -2.05048e-07 -0.00100006)
(-4.70977e-07 -3.35839e-07 -0.000999734)
(-4.25168e-07 -3.30011e-07 -0.000999881)
(-3.37588e-07 -3.25046e-07 -0.00100001)
(-2.16898e-07 -3.21403e-07 -0.0010001)
(-7.46414e-08 -3.18862e-07 -0.00100015)
(-4.64108e-07 -4.22319e-07 -0.000999857)
(-4.18911e-07 -4.14926e-07 -0.001)
(-3.32619e-07 -4.08659e-07 -0.00100012)
(-2.13701e-07 -4.04079e-07 -0.00100021)
(-7.35449e-08 -4.00891e-07 -0.00100026)
(-4.56118e-07 -4.66615e-07 -0.001)
(-4.11508e-07 -4.58575e-07 -0.00100014)
(-3.26759e-07 -4.51684e-07 -0.00100026)
(-2.0995e-07 -4.4666e-07 -0.00100035)
(-7.22623e-08 -4.43148e-07 -0.00100039)
(-6.5585e-07 -1.01527e-07 -0.000999452)
(-5.92298e-07 -9.95325e-08 -0.000999659)
(-4.70523e-07 -9.78095e-08 -0.000999835)
(-3.02419e-07 -9.65377e-08 -0.000999964)
(-1.04087e-07 -9.56808e-08 -0.00100003)
(-6.52966e-07 -2.94774e-07 -0.000999516)
(-5.89664e-07 -2.89014e-07 -0.000999722)
(-4.68393e-07 -2.84051e-07 -0.000999897)
(-3.01036e-07 -2.80393e-07 -0.00100002)
(-1.0361e-07 -2.77916e-07 -0.00100009)
(-6.45292e-07 -4.58018e-07 -0.000999639)
(-5.82693e-07 -4.4908e-07 -0.00099984)
(-4.62801e-07 -4.41418e-07 -0.00100001)
(-2.97423e-07 -4.35782e-07 -0.00100014)
(-1.02367e-07 -4.31957e-07 -0.0010002)
(-6.34703e-07 -5.75444e-07 -0.000999806)
(-5.73091e-07 -5.6417e-07 -0.001)
(-4.55134e-07 -5.54547e-07 -0.00100017)
(-2.92478e-07 -5.47492e-07 -0.00100029)
(-1.00667e-07 -5.42708e-07 -0.00100036)
(-6.2233e-07 -6.35505e-07 -0.001)
(-5.61797e-07 -6.23039e-07 -0.00100019)
(-4.46147e-07 -6.12394e-07 -0.00100036)
(-2.867e-07 -6.04624e-07 -0.00100048)
(-9.86844e-08 -5.99356e-07 -0.00100054)
(-9.01097e-07 -1.38718e-07 -0.000999253)
(-8.14169e-07 -1.35639e-07 -0.000999538)
(-6.47175e-07 -1.32964e-07 -0.000999781)
(-4.16187e-07 -1.30979e-07 -0.000999959)
(-1.43291e-07 -1.29673e-07 -0.00100005)
(-8.9646e-07 -4.02577e-07 -0.000999341)
(-8.09895e-07 -3.93693e-07 -0.000999623)
(-6.43696e-07 -3.86001e-07 -0.000999865)
(-4.13914e-07 -3.80303e-07 -0.00100004)
(-1.42504e-07 -3.76537e-07 -0.00100013)
(-8.84667e-07 -6.25033e-07 -0.000999508)
(-7.99121e-07 -6.11287e-07 -0.000999785)
(-6.35016e-07 -5.99436e-07 -0.00100002)
(-4.08278e-07 -5.90687e-07 -0.00100019)
(-1.40558e-07 -5.84886e-07 -0.00100029)
(-8.68411e-07 -7.84422e-07 -0.000999737)
(-7.84334e-07 -7.67156e-07 -0.00100001)
(-6.23151e-07 -7.52322e-07 -0.00100024)
(-4.00594e-07 -7.41413e-07 -0.00100041)
(-1.37906e-07 -7.34186e-07 -0.00100049)
(-8.49307e-07 -8.65444e-07 -0.001)
(-7.67022e-07 -8.46273e-07 -0.00100026)
(-6.09305e-07 -8.29848e-07 -0.00100049)
(-3.91663e-07 -8.17802e-07 -0.00100065)
(-1.34833e-07 -8.09842e-07 -0.00100074)
(-1.23909e-06 -1.89733e-07 -0.00099898)
(-1.1204e-06 -1.84979e-07 -0.000999373)
(-8.91475e-07 -1.80818e-07 -0.00099971)
(-5.73821e-07 -1.77702e-07 -0.000999956)
(-1.97675e-07 -1.75687e-07 -0.00100009)
(-1.23169e-06 -5.50366e-07 -0.000999101)
(-1.11351e-06 -5.36664e-07 -0.00099949)
(-8.85811e-07 -5.2471e-07 -0.000999824)
(-5.70081e-07 -5.1578e-07 -0.00100007)
(-1.9637e-07 -5.0998e-07 -0.0010002)
(-1.21361e-06 -8.5372e-07 -0.00099933)
(-1.09684e-06 -8.3256e-07 -0.000999712)
(-8.72274e-07 -8.1418e-07 -0.00100004)
(-5.61217e-07 -8.00503e-07 -0.00100028)
(-1.93289e-07 -7.91607e-07 -0.0010004)
(-1.18874e-06 -1.07007e-06 -0.000999643)
(-1.07402e-06 -1.04352e-06 -0.00100001)
(-8.53829e-07 -1.02055e-06 -0.00100033)
(-5.49187e-07 -1.00356e-06 -0.00100056)
(-1.89118e-07 -9.92537e-07 -0.00100068)
(-1.15951e-06 -1.17853e-06 -0.00100001)
(-1.04733e-06 -1.14918e-06 -0.00100036)
(-8.32359e-07 -1.12388e-06 -0.00100067)
(-5.35272e-07 -1.1052e-06 -0.00100089)
(-1.84314e-07 -1.09311e-06 -0.00100101)
(-1.70527e-06 -2.59896e-07 -0.000998606)
(-1.54382e-06 -2.52566e-07 -0.000999149)
(-1.23034e-06 -2.46051e-07 -0.000999616)
(-7.93144e-07 -2.41095e-07 -0.000999959)
(-2.73482e-07 -2.37922e-07 -0.00100014)
(-1.69356e-06 -7.53467e-07 -0.000998772)
(-1.53273e-06 -7.32374e-07 -0.000999309)
(-1.22108e-06 -7.13696e-07 -0.000999771)
(-7.86919e-07 -6.99523e-07 -0.00100011)
(-2.71283e-07 -6.90435e-07 -0.00100029)
(-1.66587e-06 -1.16744e-06 -0.000999088)
(-1.50691e-06 -1.13495e-06 -0.000999613)
(-1.19979e-06 -1.10634e-06 -0.00100006)
(-7.72795e-07 -1.08475e-06 -0.00100039)
(-2.66333e-07 -1.07092e-06 -0.00100057)
(-1.62788e-06 -1.46088e-06 -0.000999518)
(-1.4717e-06 -1.42017e-06 -0.00100003)
(-1.17098e-06 -1.38456e-06 -0.00100046)
(-7.53788e-07 -1.35792e-06 -0.00100078)
(-2.59698e-07 -1.3409e-06 -0.00100095)
(-1.58326e-06 -1.60536e-06 -0.00100001)
(-1.43059e-06 -1.56033e-06 -0.0010005)
(-1.13761e-06 -1.52127e-06 -0.00100092)
(-7.31961e-07 -1.49223e-06 -0.00100123)
(-2.52114e-07 -1.47376e-06 -0.00100139)
(-2.34853e-06 -3.56744e-07 -0.00099809)
(-2.13036e-06 -3.4543e-07 -0.000998841)
(-1.70225e-06 -3.35112e-07 -0.000999491)
(-1.10012e-06 -3.27062e-07 -0.000999974)
(-3.79907e-07 -3.21939e-07 -0.00100023)
(-2.3301e-06 -1.03357e-06 -0.000998321)
(-2.1125e-06 -1.0011e-06 -0.000999062)
(-1.6869e-06 -9.71623e-07 -0.000999704)
(-1.08956e-06 -9.48717e-07 -0.00100018)
(-3.7612e-07 -9.3413e-07 -0.00100043)
(-2.28783e-06 -1.59914e-06 -0.000998757)
(-2.07233e-06 -1.54933e-06 -0.00099948)
(-1.65303e-06 -1.50452e-06 -0.0010001)
(-1.06662e-06 -1.46998e-06 -0.00100056)
(-3.67986e-07 -1.44801e-06 -0.00100081)
(-2.23002e-06 -1.99665e-06 -0.000999349)
(-2.01797e-06 -1.93445e-06 -0.00100005)
(-1.60769e-06 -1.87917e-06 -0.00100065)
(-1.03619e-06 -1.83706e-06 -0.00100109)
(-3.57244e-07 -1.8104e-06 -0.00100132)
(-2.16215e-06 -2.18774e-06 -0.00100003)
(-1.95484e-06 -2.11876e-06 -0.0010007)
(-1.55572e-06 -2.05836e-06 -0.00100127)
(-1.00172e-06 -2.01299e-06 -0.00100169)
(-3.45161e-07 -1.98453e-06 -0.00100191)
(-3.23577e-06 -4.91043e-07 -0.000997377)
(-2.94462e-06 -4.73511e-07 -0.000998415)
(-2.36314e-06 -4.56877e-07 -0.000999325)
(-1.53366e-06 -4.43434e-07 -0.00100001)
(-5.30967e-07 -4.34859e-07 -0.00100038)
(-3.20696e-06 -1.42169e-06 -0.000997698)
(-2.91559e-06 -1.37161e-06 -0.000998721)
(-2.33718e-06 -1.32441e-06 -0.000999615)
(-1.51522e-06 -1.28644e-06 -0.00100029)
(-5.24231e-07 -1.26219e-06 -0.00100065)
(-3.1428e-06 -2.19577e-06 -0.000998305)
(-2.85268e-06 -2.1195e-06 -0.000999299)
(-2.2823e-06 -2.04861e-06 -0.00100016)
(-1.47693e-06 -1.99223e-06 -0.00100081)
(-5.10397e-07 -1.9563e-06 -0.00100115)
(-3.05554e-06 -2.73374e-06 -0.000999124)
(-2.76856e-06 -2.63914e-06 -0.00100008)
(-2.2101e-06 -2.55293e-06 -0.00100091)
(-1.42723e-06 -2.48552e-06 -0.00100152)
(-4.92575e-07 -2.44289e-06 -0.00100184)
(-2.95334e-06 -2.98332e-06 -0.00100006)
(-2.67187e-06 -2.87833e-06 -0.00100098)
(-2.12879e-06 -2.78488e-06 -0.00100176)
(-1.37219e-06 -2.71349e-06 -0.00100233)
(-4.73042e-07 -2.66908e-06 -0.00100264)
(-4.45717e-06 -6.78316e-07 -0.000996382)
(-4.0779e-06 -6.50943e-07 -0.000997817)
(-3.29635e-06 -6.23434e-07 -0.000999097)
(-2.15445e-06 -6.00182e-07 -0.00100008)
(-7.49026e-07 -5.85143e-07 -0.00100063)
(-4.41247e-06 -1.96302e-06 -0.00099683)
(-4.03001e-06 -1.88549e-06 -0.000998242)
(-3.25121e-06 -1.80823e-06 -0.000999494)
(-2.12106e-06 -1.74306e-06 -0.00100045)
(-7.36531e-07 -1.70077e-06 -0.00100098)
(-4.31601e-06 -3.02548e-06 -0.000997682)
(-3.93042e-06 -2.90889e-06 -0.000999049)
(-3.15986e-06 -2.79499e-06 -0.00100025)
(-2.05457e-06 -2.70027e-06 -0.00100116)
(-7.11853e-07 -2.63901e-06 -0.00100165)
(-4.18605e-06 -3.75343e-06 -0.000998824)
(-3.7997e-06 -3.61058e-06 -0.00100013)
(-3.04285e-06 -3.4752e-06 -0.00100127)
(-1.97103e-06 -3.36523e-06 -0.00100212)
(-6.81201e-07 -3.29488e-06 -0.00100257)
(-4.0352e-06 -4.0733e-06 -0.00100013)
(-3.65219e-06 -3.91459e-06 -0.00100137)
(-2.91466e-06 -3.77006e-06 -0.00100244)
(-1.88152e-06 -3.65663e-06 -0.00100324)
(-6.48803e-07 -3.58624e-06 -0.00100365)
(-6.13057e-06 -9.41106e-07 -0.000994973)