/*--------------------------------*- C++ -*----------------------------------*\
| =========                 |                                                 |
| \\      /  F ield         | OpenFOAM: The Open Source CFD Toolbox           |
|  \\    /   O peration     | Version:  5.x                                   |
|   \\  /    A nd           | Web:      www.OpenFOAM.org                      |
|    \\/     M anipulation  |                                                 |
\*---------------------------------------------------------------------------*/
FoamFile
{
    version     2.0;
    format      ascii;
    class       volVectorField;
    location    "300";
    object      stored_U;
}
// * * * * * * * * * * * * * * * * * * * * * * * * * * * * * * * * * * * * * //

dimensions      [0 1 -1 0 0 0 0];

internalField   nonuniform List<vector> 
90
(
(1.40636e-09 -1.56378e-09 -0.000999998)
(3.03724e-09 -3.55113e-09 -0.000999999)
(5.01951e-09 -5.74514e-09 -0.000999999)
(7.35298e-09 -8.05475e-09 -0.000999999)
(1.01781e-08 -1.05213e-08 -0.000999999)
(1.36629e-08 -1.32016e-08 -0.000999998)
(1.80036e-08 -1.61622e-08 -0.000999998)
(2.34416e-08 -1.94787e-08 -0.000999997)
(3.02645e-08 -2.32347e-08 -0.000999995)
(3.88337e-08 -2.75174e-08 -0.000999993)
(4.96027e-08 -3.24126e-08 -0.000999989)
(6.31491e-08 -3.79975e-08 -0.000999984)
(8.02151e-08 -4.43304e-08 -0.000999977)
(1.01762e-07 -5.14318e-08 -0.000999967)
(1.29038e-07 -5.9258e-08 -0.000999954)
(1.63671e-07 -6.76633e-08 -0.000999936)
(2.07788e-07 -7.63467e-08 -0.000999912)
(2.64169e-07 -8.47756e-08 -0.000999878)
(3.36459e-07 -9.20742e-08 -0.000999832)
(4.2945e-07 -9.68561e-08 -0.000999769)
(5.49413e-07 -9.71251e-08 -0.000999683)
(7.04496e-07 -9.00042e-08 -0.000999566)
(9.05329e-07 -7.13206e-08 -0.000999409)
(1.16581e-06 -3.48823e-08 -0.000999196)
(1.50415e-06 2.78814e-08 -0.000998907)
(1.94436e-06 1.29159e-07 -0.000998517)
(2.51826e-06 2.86421e-07 -0.000997986)
(3.26782e-06 5.2396e-07 -0.000997266)
(4.24845e-06 8.75482e-07 -0.000996292)
(5.5334e-06 1.38756e-06 -0.000994974)
(7.2196e-06 2.12434e-06 -0.000993191)
(9.43552e-06 3.17401e-06 -0.000990787)
(1.23535e-05 4.65848e-06 -0.00098757)
(1.6222e-05 6.75449e-06 -0.000983164)
(2.15291e-05 9.7909e-06 -0.000975688)
(2.75819e-05 1.34471e-05 -0.00096597)
(3.6581e-05 1.91729e-05 -0.000976099)
(4.60341e-05 2.57186e-05 -0.001099)
(6.31552e-05 3.81044e-05 -0.00035737)
(-2.86503e-05 -1.83021e-05 -0.00210665)
(4.35317e-06 3.23689e-06 -0.0015729)
(3.82284e-05 1.19016e-05 -0.00165349)
(5.91563e-05 3.43252e-05 -0.00283527)
(-3.76008e-06 1.15983e-05 -0.00162649)
(-6.58313e-05 -3.72358e-05 -0.00268937)
(-6.02479e-05 -8.94769e-06 -0.00205776)
(-5.93261e-05 8.58126e-05 -0.00250454)
(-5.30808e-05 7.37121e-05 -0.0020231)
(-4.83462e-05 3.57598e-05 -0.00265017)
(-6.01387e-05 -1.78081e-05 -0.00167686)
(-8.7137e-05 -4.01832e-05 -0.00269127)
(-2.85276e-05 -2.6155e-05 -0.00118367)
(-9.07898e-06 9.41321e-05 -0.00197832)
(3.97371e-06 -7.37374e-06 -0.0010555)
(-2.54943e-05 -5.11896e-05 -0.00093732)
(-1.69725e-05 -4.30018e-05 -0.000950902)
(-1.10949e-05 -3.23803e-05 -0.00097051)
(-7.1683e-06 -2.42899e-05 -0.000979431)
(-4.49075e-06 -1.8238e-05 -0.0009853)
(-2.66464e-06 -1.37009e-05 -0.000989571)
(-1.43704e-06 -1.02976e-05 -0.000992674)
(-6.30161e-07 -7.74376e-06 -0.00099491)
(-1.1657e-07 -5.82686e-06 -0.000996511)
(1.94569e-07 -4.38803e-06 -0.000997644)
(3.71252e-07 -3.30619e-06 -0.000998435)
(4.59347e-07 -2.49213e-06 -0.000998989)
(4.88473e-07 -1.87999e-06 -0.000999376)
(4.81117e-07 -1.41935e-06 -0.000999639)
(4.52489e-07 -1.07244e-06 -0.000999814)
(4.12642e-07 -8.11015e-07 -0.000999928)
(3.68134e-07 -6.13859e-07 -0.001)
(3.231e-07 -4.65064e-07 -0.00100004)
(2.80031e-07 -3.5268e-07 -0.00100007)
(2.40319e-07 -2.67723e-07 -0.00100008)
(2.04621e-07 -2.03445e-07 -0.00100008)
(1.73127e-07 -1.54767e-07 -0.00100008)
(1.45739e-07 -1.17871e-07 -0.00100007)
(1.22186e-07 -8.9883e-08 -0.00100007)
(1.02114e-07 -6.86405e-08 -0.00100006)
(8.51474e-08 -5.25131e-08 -0.00100005)
(7.09e-08 -4.02716e-08 -0.00100004)
(5.90206e-08 -3.0989e-08 -0.00100004)
(4.91963e-08 -2.39665e-08 -0.00100003)
(4.11519e-08 -1.86775e-08 -0.00100003)
(3.46467e-08 -1.47262e-08 -0.00100002)
(2.94756e-08 -1.18171e-08 -0.00100002)
(2.54656e-08 -9.7331e-09 -0.00100001)
(2.24537e-08 -8.32367e-09 -0.00100001)
(2.02707e-08 -7.45156e-09 -0.00100001)
(1.90894e-08 -6.87386e-09 -0.001)
)
;

boundaryField
{
    inlet
    {
        type            calculated;
        value           uniform (1.90894e-08 -6.87386e-09 -0.001);
    }
    outlet
    {
        type            calculated;
        value           uniform (1.40636e-09 -1.56378e-09 -0.000999998);
    }
    repeat_boundary
    {
        type            calculated;
        value           nonuniform List<vector> 
180
(
(0 -1.56378e-09 -0.000999998)
(0 -3.55113e-09 -0.000999999)
(0 -5.74514e-09 -0.000999999)
(0 -8.05475e-09 -0.000999999)
(0 -1.05213e-08 -0.000999999)
(0 -1.32016e-08 -0.000999998)
(0 -1.61622e-08 -0.000999998)
(0 -1.94787e-08 -0.000999997)
(0 -2.32347e-08 -0.000999995)
(0 -2.75174e-08 -0.000999993)
(0 -3.24126e-08 -0.000999989)
(0 -3.79975e-08 -0.000999984)
(0 -4.43304e-08 -0.000999977)
(0 -5.14318e-08 -0.000999967)
(0 -5.9258e-08 -0.000999954)
(0 -6.76633e-08 -0.000999936)
(0 -7.63467e-08 -0.000999912)
(0 -8.47756e-08 -0.000999878)
(0 -9.20742e-08 -0.000999832)
(0 -9.68561e-08 -0.000999769)
(0 -9.71251e-08 -0.000999683)
(0 -9.00042e-08 -0.000999566)
(0 -7.13206e-08 -0.000999409)
(0 -3.48823e-08 -0.000999196)
(0 2.78814e-08 -0.000998907)
(0 1.29159e-07 -0.000998517)
(0 2.86421e-07 -0.000997986)
(0 5.2396e-07 -0.000997266)
(0 8.75482e-07 -0.000996292)
(0 1.38756e-06 -0.000994974)
(0 2.12434e-06 -0.000993191)
(0 3.17401e-06 -0.000990787)
(0 4.65848e-06 -0.00098757)
(0 6.75449e-06 -0.000983164)
(0 9.7909e-06 -0.000975688)
(0 1.34471e-05 -0.00096597)
(0 1.91729e-05 -0.000976099)
(0 2.57186e-05 -0.001099)
(0 3.81044e-05 -0.00035737)
(0 -1.83021e-05 -0.00210665)
(0 3.23689e-06 -0.0015729)
(0 1.19016e-05 -0.00165349)
(0 3.43252e-05 -0.00283527)
(0 1.15983e-05 -0.00162649)
(0 -3.72358e-05 -0.00268937)
(0 -8.94769e-06 -0.00205776)
(0 8.58126e-05 -0.00250454)
(0 7.37121e-05 -0.0020231)
(0 3.57598e-05 -0.00265017)
(0 -1.78081e-05 -0.00167686)
(0 -4.01832e-05 -0.00269127)
(0 -2.6155e-05 -0.00118367)
(0 9.41321e-05 -0.00197832)
(0 -7.37374e-06 -0.0010555)
(0 -5.11896e-05 -0.00093732)
(0 -4.30018e-05 -0.000950902)
(0 -3.23803e-05 -0.00097051)
(0 -2.42899e-05 -0.000979431)
(0 -1.8238e-05 -0.0009853)
(0 -1.37009e-05 -0.000989571)
(0 -1.02976e-05 -0.000992674)
(0 -7.74376e-06 -0.00099491)
(0 -5.82686e-06 -0.000996511)
(0 -4.38803e-06 -0.000997644)
(0 -3.30619e-06 -0.000998435)
(0 -2.49213e-06 -0.000998989)
(0 -1.87999e-06 -0.000999376)
(0 -1.41935e-06 -0.000999639)
(0 -1.07244e-06 -0.000999814)
(0 -8.11015e-07 -0.000999928)
(0 -6.13859e-07 -0.001)
(0 -4.65064e-07 -0.00100004)
(0 -3.5268e-07 -0.00100007)
(0 -2.67723e-07 -0.00100008)
(0 -2.03445e-07 -0.00100008)
(0 -1.54767e-07 -0.00100008)
(0 -1.17871e-07 -0.00100007)
(0 -8.9883e-08 -0.00100007)
(0 -6.86405e-08 -0.00100006)
(0 -5.25131e-08 -0.00100005)
(0 -4.02716e-08 -0.00100004)
(0 -3.0989e-08 -0.00100004)
(0 -2.39665e-08 -0.00100003)
(0 -1.86775e-08 -0.00100003)
(0 -1.47262e-08 -0.00100002)
(0 -1.18171e-08 -0.00100002)
(0 -9.7331e-09 -0.00100001)
(0 -8.32367e-09 -0.00100001)
(0 -7.45156e-09 -0.00100001)
(0 -6.87386e-09 -0.001)
(1.40636e-09 0 -0.000999998)
(3.03724e-09 0 -0.000999999)
(5.01951e-09 0 -0.000999999)
(7.35298e-09 0 -0.000999999)
(1.01781e-08 0 -0.000999999)
(1.36629e-08 0 -0.000999998)
(1.80036e-08 0 -0.000999998)
(2.34416e-08 0 -0.000999997)
(3.02645e-08 0 -0.000999995)
(3.88337e-08 0 -0.000999993)
(4.96027e-08 0 -0.000999989)
(6.31491e-08 0 -0.000999984)
(8.02151e-08 0 -0.000999977)
(1.01762e-07 0 -0.000999967)
(1.29038e-07 0 -0.000999954)
(1.63671e-07 0 -0.000999936)
(2.07788e-07 0 -0.000999912)
(2.64169e-07 0 -0.000999878)
(3.36459e-07 0 -0.000999832)
(4.2945e-07 0 -0.000999769)
(5.49413e-07 0 -0.000999683)
(7.04496e-07 0 -0.000999566)
(9.05329e-07 0 -0.000999409)
(1.16581e-06 0 -0.000999196)
(1.50415e-06 0 -0.000998907)
(1.94436e-06 0 -0.000998517)
(2.51826e-06 0 -0.000997986)
(3.26782e-06 0 -0.000997266)
(4.24845e-06 0 -0.000996292)
(5.5334e-06 0 -0.000994974)
(7.2196e-06 0 -0.000993191)
(9.43552e-06 0 -0.000990787)
(1.23535e-05 0 -0.00098757)
(1.6222e-05 0 -0.000983164)
(2.15291e-05 0 -0.000975688)
(2.75819e-05 0 -0.00096597)
(3.6581e-05 0 -0.000976099)
(4.60341e-05 0 -0.001099)
(6.31552e-05 0 -0.00035737)
(-2.86503e-05 0 -0.00210665)
(4.35317e-06 0 -0.0015729)
(3.82284e-05 0 -0.00165349)
(5.91563e-05 0 -0.00283527)
(-3.76008e-06 0 -0.00162649)
(-6.58313e-05 0 -0.00268937)
(-6.02479e-05 0 -0.00205776)
(-5.93261e-05 0 -0.00250454)
(-5.30808e-05 0 -0.0020231)
(-4.83462e-05 0 -0.00265017)
(-6.01387e-05 0 -0.00167686)
(-8.7137e-05 0 -0.00269127)
(-2.85276e-05 0 -0.00118367)
(-9.07898e-06 0 -0.00197832)
(3.97371e-06 0 -0.0010555)
(-2.54943e-05 0 -0.00093732)
(-1.69725e-05 0 -0.000950902)
(-1.10949e-05 0 -0.00097051)
(-7.1683e-06 0 -0.000979431)
(-4.49075e-06 0 -0.0009853)
(-2.66464e-06 0 -0.000989571)
(-1.43704e-06 0 -0.000992674)
(-6.30161e-07 0 -0.00099491)
(-1.1657e-07 0 -0.000996511)
(1.94569e-07 0 -0.000997644)
(3.71252e-07 0 -0.000998435)
(4.59347e-07 0 -0.000998989)
(4.88473e-07 0 -0.000999376)
(4.81117e-07 0 -0.000999639)
(4.52489e-07 0 -0.000999814)
(4.12642e-07 0 -0.000999928)
(3.68134e-07 0 -0.001)
(3.231e-07 0 -0.00100004)
(2.80031e-07 0 -0.00100007)
(2.40319e-07 0 -0.00100008)
(2.04621e-07 0 -0.00100008)
(1.73127e-07 0 -0.00100008)
(1.45739e-07 0 -0.00100007)
(1.22186e-07 0 -0.00100007)
(1.02114e-07 0 -0.00100006)
(8.51474e-08 0 -0.00100005)
(7.09e-08 0 -0.00100004)
(5.90206e-08 0 -0.00100004)
(4.91963e-08 0 -0.00100003)
(4.11519e-08 0 -0.00100003)
(3.46467e-08 0 -0.00100002)
(2.94756e-08 0 -0.00100002)
(2.54656e-08 0 -0.00100001)
(2.24537e-08 0 -0.00100001)
(2.02707e-08 0 -0.00100001)
(1.90894e-08 0 -0.001)
)
;
    }
    procBoundary3to1
    {
        type            processor;
        value           nonuniform List<vector> 
90
(
(1.49901e-09 -1.56377e-09 -0.000999977)
(3.29271e-09 -3.55112e-09 -0.000999977)
(5.28026e-09 -5.74514e-09 -0.000999976)
(7.35103e-09 -8.05475e-09 -0.000999975)
(9.52773e-09 -1.05213e-08 -0.000999973)
(1.18447e-08 -1.32016e-08 -0.00099997)
(1.4341e-08 -1.61621e-08 -0.000999966)
(1.70592e-08 -1.94786e-08 -0.000999961)
(2.004e-08 -2.32347e-08 -0.000999955)
(2.3315e-08 -2.75174e-08 -0.000999946)
(2.68972e-08 -3.24125e-08 -0.000999936)
(3.07711e-08 -3.79974e-08 -0.000999924)
(3.48797e-08 -4.43302e-08 -0.000999909)
(3.9101e-08 -5.14315e-08 -0.000999892)
(4.32161e-08 -5.92576e-08 -0.000999872)
(4.68649e-08 -6.76627e-08 -0.000999849)
(4.94854e-08 -7.63457e-08 -0.000999824)
(5.02328e-08 -8.47739e-08 -0.000999798)
(4.78676e-08 -9.20714e-08 -0.00099977)
(4.06114e-08 -9.68512e-08 -0.000999742)
(2.60644e-08 -9.71164e-08 -0.000999716)
(7.55389e-10 -8.99885e-08 -0.000999695)
(-4.03257e-08 -7.12919e-08 -0.000999685)
(-1.04732e-07 -3.48297e-08 -0.000999694)
(-2.02683e-07 2.79784e-08 -0.000999732)
(-3.48353e-07 1.29338e-07 -0.000999818)
(-5.61505e-07 2.86753e-07 -0.000999975)
(-8.6932e-07 5.24578e-07 -0.00100024)
(-1.30913e-06 8.76634e-07 -0.00100065)
(-1.93208e-06 1.3897e-06 -0.00100128)
(-2.8081e-06 2.12834e-06 -0.00100222)
(-4.03271e-06 3.18143e-06 -0.0010036)
(-5.73683e-06 4.67155e-06 -0.00100561)
(-8.10093e-06 6.76692e-06 -0.00100835)
(-1.13604e-05 9.68823e-06 -0.00101083)
(-1.58132e-05 1.37702e-05 -0.00101253)
(-2.1599e-05 1.93587e-05 -0.00104369)
(-2.80261e-05 2.5836e-05 -0.00122755)
(-4.54693e-05 3.73814e-05 -0.000356229)
(4.26917e-05 -1.8628e-05 -0.0025655)
(-4.57266e-06 2.09181e-06 -0.00120759)
(-6.63063e-05 2.14555e-05 -0.00296959)
(-2.4879e-05 2.16585e-05 -0.0019246)
(-8.59894e-05 3.08892e-05 -0.00318019)
(-8.59203e-05 -3.33152e-05 -0.00226052)
(-9.13607e-05 -9.1681e-06 -0.00323884)
(-6.52513e-05 5.26794e-05 -0.0019791)
(-3.08243e-05 0.000137236 -0.00329961)
(4.8552e-06 4.01617e-05 -0.00235039)
(-7.16967e-05 -1.17944e-05 -0.00272188)
(-6.30479e-05 -2.78203e-05 -0.00267358)
(-6.21732e-06 -2.62156e-05 -0.00167873)
(3.32222e-06 3.64558e-05 -0.00245417)
(9.80603e-05 -4.7183e-05 -0.00110639)
(7.8429e-05 -5.53094e-05 -0.00107702)
(5.77643e-05 -4.28705e-05 -0.00108114)
(4.39731e-05 -3.21966e-05 -0.00106595)
(3.3668e-05 -2.41883e-05 -0.0010504)
(2.58193e-05 -1.81821e-05 -0.00103847)
(1.98289e-05 -1.36699e-05 -0.00102947)
(1.52525e-05 -1.02803e-05 -0.00102262)
(1.17516e-05 -7.7342e-06 -0.00101739)
(9.06944e-06 -5.8216e-06 -0.00101339)
(7.01126e-06 -4.38497e-06 -0.00101032)
(5.42933e-06 -3.30453e-06 -0.00100797)
(4.2114e-06 -2.49121e-06 -0.00100616)
(3.27208e-06 -1.87949e-06 -0.00100477)
(2.54639e-06 -1.41907e-06 -0.0010037)
(1.98477e-06 -1.07229e-06 -0.00100287)
(1.54942e-06 -8.1093e-07 -0.00100223)
(1.2114e-06 -6.13811e-07 -0.00100174)
(9.48517e-07 -4.65038e-07 -0.00100135)
(7.43753e-07 -3.52665e-07 -0.00100106)
(5.84011e-07 -2.67715e-07 -0.00100083)
(4.59206e-07 -2.0344e-07 -0.00100065)
(3.61561e-07 -1.54764e-07 -0.00100051)
(2.8507e-07 -1.17869e-07 -0.0010004)
(2.25093e-07 -8.98822e-08 -0.00100031)
(1.78034e-07 -6.864e-08 -0.00100025)
(1.41096e-07 -5.25128e-08 -0.00100019)
(1.12117e-07 -4.02714e-08 -0.00100015)
(8.94074e-08 -3.09889e-08 -0.00100012)
(7.16451e-08 -2.39665e-08 -0.00100009)
(5.78023e-08 -1.86777e-08 -0.00100007)
(4.70859e-08 -1.47259e-08 -0.00100006)
(3.8885e-08 -1.1817e-08 -0.00100004)
(3.27328e-08 -9.73343e-09 -0.00100003)
(2.82548e-08 -8.32488e-09 -0.00100002)
(2.50884e-08 -7.45024e-09 -0.00100001)
(2.34374e-08 -6.87365e-09 -0.00100001)
)
;
    }
    procBoundary3to2
    {
        type            processor;
        value           nonuniform List<vector> 
90
(
(1.40681e-09 -1.47151e-09 -0.00100002)
(3.03781e-09 -3.29614e-09 -0.00100002)
(5.01844e-09 -5.48346e-09 -0.00100002)
(7.35278e-09 -8.05652e-09 -0.00100002)
(1.01778e-08 -1.11714e-08 -0.00100003)
(1.36623e-08 -1.50193e-08 -0.00100004)
(1.80045e-08 -1.98256e-08 -0.00100005)
(2.34418e-08 -2.58613e-08 -0.00100006)
(3.02647e-08 -3.34593e-08 -0.00100007)
(3.88339e-08 -4.30362e-08 -0.00100009)
(4.9603e-08 -5.51182e-08 -0.00100011)
(6.31495e-08 -7.03757e-08 -0.00100014)
(8.02158e-08 -8.96663e-08 -0.00100017)
(1.01763e-07 -1.14093e-07 -0.00100021)
(1.2904e-07 -1.45081e-07 -0.00100027)
(1.63674e-07 -1.84472e-07 -0.00100033)
(2.07793e-07 -2.34653e-07 -0.00100042)
(2.64177e-07 -2.98718e-07 -0.00100053)
(3.36472e-07 -3.80676e-07 -0.00100067)
(4.29472e-07 -4.85712e-07 -0.00100085)
(5.4945e-07 -6.20502e-07 -0.00100107)
(7.04557e-07 -7.9379e-07 -0.00100137)
(9.05432e-07 -1.01705e-06 -0.00100174)
(1.16599e-06 -1.30555e-06 -0.00100222)
(1.50445e-06 -1.67915e-06 -0.00100285)
(1.94487e-06 -2.16388e-06 -0.00100365)
(2.51914e-06 -2.79389e-06 -0.00100468)
(3.26934e-06 -3.61409e-06 -0.00100602)
(4.2511e-06 -4.68361e-06 -0.00100776)
(5.53805e-06 -6.08045e-06 -0.00101001)
(7.22777e-06 -7.90758e-06 -0.00101295)
(9.44989e-06 -1.03012e-05 -0.00101678)
(1.23775e-05 -1.34429e-05 -0.00102182)
(1.62432e-05 -1.75775e-05 -0.00102827)
(2.13502e-05 -2.30232e-05 -0.0010351)
(2.81161e-05 -3.01611e-05 -0.00104126)
(3.69155e-05 -3.91634e-05 -0.00107981)
(4.60074e-05 -4.824e-05 -0.00129362)
(6.09894e-05 -6.91122e-05 -0.000351143)
(-2.91705e-05 5.24212e-05 -0.00275334)
(2.77668e-06 -5.61649e-06 -0.00131971)
(6.38532e-05 -0.000106318 -0.00294385)
(5.14129e-05 -5.35878e-05 -0.00233361)
(1.01409e-05 -7.03221e-05 -0.00316584)
(-6.02602e-05 -6.30628e-05 -0.00218148)
(-7.9904e-05 -3.66938e-05 -0.00320768)
(-5.40282e-05 4.95755e-05 -0.00226493)
(-6.89468e-05 0.000164508 -0.00333415)
(-4.26222e-05 5.71617e-05 -0.00183313)
(-8.43017e-05 -5.66501e-06 -0.00328195)
(-8.24121e-05 5.90762e-06 -0.00206371)
(-6.04908e-05 1.4701e-05 -0.00204775)
(2.16476e-05 5.10242e-05 -0.00204966)
(-1.76849e-05 4.018e-05 -0.00146167)
(-2.65962e-05 4.0161e-05 -0.000960164)
(-1.72444e-05 3.14149e-05 -0.00101454)
(-1.10441e-05 2.28052e-05 -0.00101815)
(-7.12622e-06 1.66115e-05 -0.00101253)
(-4.46887e-06 1.21102e-05 -0.00100797)
(-2.6534e-06 8.8151e-06 -0.00100495)
(-1.43129e-06 6.40516e-06 -0.00100293)
(-6.27243e-07 4.64573e-06 -0.00100157)
(-1.15126e-07 3.36367e-06 -0.00100067)
(1.95405e-07 2.43134e-06 -0.0010001)
(3.71655e-07 1.75344e-06 -0.000999768)
(4.59554e-07 1.26082e-06 -0.000999579)
(4.88583e-07 9.04124e-07 -0.000999485)
(4.81177e-07 6.46206e-07 -0.000999456)
(4.52522e-07 4.60005e-07 -0.000999468)
(4.12662e-07 3.25861e-07 -0.000999502)
(3.68146e-07 2.29459e-07 -0.000999548)
(3.23107e-07 1.60384e-07 -0.000999599)
(2.80036e-07 1.1106e-07 -0.000999649)
(2.40322e-07 7.5979e-08 -0.000999698)
(2.04623e-07 5.11464e-08 -0.000999742)
(1.73129e-07 3.36699e-08 -0.000999781)
(1.4574e-07 2.14626e-08 -0.000999816)
(1.22187e-07 1.3025e-08 -0.000999846)
(1.02114e-07 7.28059e-09 -0.000999872)
(8.51478e-08 3.43566e-09 -0.000999894)
(7.09002e-08 9.45964e-10 -0.000999912)
(5.90207e-08 -6.02056e-10 -0.000999928)
(4.91961e-08 -1.51773e-09 -0.000999941)
(4.11516e-08 -2.02745e-09 -0.000999953)
(3.46473e-08 -2.28656e-09 -0.000999963)
(2.94758e-08 -2.40761e-09 -0.000999971)
(2.54657e-08 -2.46607e-09 -0.000999978)
(2.24569e-08 -2.52654e-09 -0.000999985)
(2.02674e-08 -2.62989e-09 -0.000999991)
(1.90893e-08 -2.52576e-09 -0.000999996)
)
;
    }
}


// ************************************************************************* //
