/*--------------------------------*- C++ -*----------------------------------*\
| =========                 |                                                 |
| \\      /  F ield         | OpenFOAM: The Open Source CFD Toolbox           |
|  \\    /   O peration     | Version:  5.x                                   |
|   \\  /    A nd           | Web:      www.OpenFOAM.org                      |
|    \\/     M anipulation  |                                                 |
\*---------------------------------------------------------------------------*/
FoamFile
{
    version     2.0;
    format      ascii;
    class       volVectorField;
    location    "300";
    object      Us;
}
// * * * * * * * * * * * * * * * * * * * * * * * * * * * * * * * * * * * * * //

dimensions      [0 1 -1 0 0 0 0];

internalField   nonuniform List<vector> 
90
(
(0 0 0)
(0 0 0)
(0 0 0)
(0 0 0)
(0 0 0)
(0 0 0)
(0 0 0)
(0 0 0)
(0 0 0)
(0 0 0)
(0 0 0)
(0 0 0)
(0 0 0)
(0 0 0)
(0 0 0)
(0 0 0)
(0 0 0)
(0 0 0)
(0 0 0)
(0 0 0)
(0 0 0)
(0 0 0)
(0 0 0)
(0 0 0)
(0 0 0)
(0 0 0)
(0 0 0)
(0 0 0)
(0 0 0)
(0 0 0)
(0 0 0)
(0 0 0)
(0 0 0)
(0 0 0)
(0 0 0)
(0 0 0)
(0 0 0)
(0 0 0)
(0 0 0)
(0 0 0)
(4.48148e-06 2.01796e-06 1.4121e-07)
(8.5131e-06 3.23297e-06 -9.73386e-08)
(1.20354e-05 4.57157e-06 -5.32114e-08)
(1.60174e-05 5.50746e-06 3.69114e-07)
(2.09924e-05 6.64987e-06 9.89193e-07)
(2.5474e-05 7.98915e-06 9.68371e-07)
(3.02718e-05 9.34754e-06 8.07013e-07)
(3.43267e-05 1.05378e-05 1.27631e-06)
(3.93795e-05 1.11804e-05 1.40476e-06)
(4.23506e-05 1.22923e-05 2.23542e-06)
(4.5289e-05 1.29712e-05 1.97612e-06)
(5.93742e-05 -1.41354e-06 -8.69968e-06)
(-4.58109e-05 0.000130473 -0.000166604)
(-8.22748e-05 6.07275e-05 -0.000140105)
(0 0 0)
(0 0 0)
(0 0 0)
(0 0 0)
(0 0 0)
(0 0 0)
(0 0 0)
(0 0 0)
(0 0 0)
(0 0 0)
(0 0 0)
(0 0 0)
(0 0 0)
(0 0 0)
(0 0 0)
(0 0 0)
(0 0 0)
(0 0 0)
(0 0 0)
(0 0 0)
(0 0 0)
(0 0 0)
(0 0 0)
(0 0 0)
(0 0 0)
(0 0 0)
(0 0 0)
(0 0 0)
(0 0 0)
(0 0 0)
(0 0 0)
(0 0 0)
(0 0 0)
(0 0 0)
(0 0 0)
(0 0 0)
)
;

boundaryField
{
    inlet
    {
        type            fixedValue;
        value           uniform (0 0 0);
    }
    outlet
    {
        type            fixedValue;
        value           uniform (0 0 0);
    }
    repeat_boundary
    {
        type            fixedValue;
        value           uniform (0 0 0);
    }
    procBoundary3to1
    {
        type            processor;
        value           nonuniform List<vector> 
90
(
(0 0 0)
(0 0 0)
(0 0 0)
(0 0 0)
(0 0 0)
(0 0 0)
(0 0 0)
(0 0 0)
(0 0 0)
(0 0 0)
(0 0 0)
(0 0 0)
(0 0 0)
(0 0 0)
(0 0 0)
(0 0 0)
(0 0 0)
(0 0 0)
(0 0 0)
(0 0 0)
(0 0 0)
(0 0 0)
(0 0 0)
(0 0 0)
(0 0 0)
(0 0 0)
(0 0 0)
(0 0 0)
(0 0 0)
(0 0 0)
(0 0 0)
(0 0 0)
(0 0 0)
(0 0 0)
(0 0 0)
(0 0 0)
(0 0 0)
(0 0 0)
(0 0 0)
(0 0 0)
(3.25504e-06 1.22468e-06 3.50475e-08)
(7.38017e-06 2.26822e-06 3.21541e-07)
(1.06547e-05 3.22033e-06 8.2406e-07)
(1.462e-05 5.04387e-06 9.12928e-07)
(1.9368e-05 6.52404e-06 1.45542e-06)
(2.39711e-05 7.82412e-06 1.51109e-06)
(2.89717e-05 9.50443e-06 2.06274e-06)
(3.28691e-05 1.06717e-05 1.71925e-06)
(3.75163e-05 1.06699e-05 7.75117e-07)
(3.32677e-05 2.22432e-05 -2.22389e-06)
(3.19357e-05 2.88068e-05 -4.73809e-06)
(6.25625e-05 -4.3685e-06 -2.3377e-05)
(3.68102e-06 0.000154507 -8.55227e-05)
(0 0 0)
(0 0 0)
(0 0 0)
(0 0 0)
(0 0 0)
(0 0 0)
(0 0 0)
(0 0 0)
(0 0 0)
(0 0 0)
(0 0 0)
(0 0 0)
(0 0 0)
(0 0 0)
(0 0 0)
(0 0 0)
(0 0 0)
(0 0 0)
(0 0 0)
(0 0 0)
(0 0 0)
(0 0 0)
(0 0 0)
(0 0 0)
(0 0 0)
(0 0 0)
(0 0 0)
(0 0 0)
(0 0 0)
(0 0 0)
(0 0 0)
(0 0 0)
(0 0 0)
(0 0 0)
(0 0 0)
(0 0 0)
(0 0 0)
)
;
    }
    procBoundary3to2
    {
        type            processor;
        value           nonuniform List<vector> 
90
(
(0 0 0)
(0 0 0)
(0 0 0)
(0 0 0)
(0 0 0)
(0 0 0)
(0 0 0)
(0 0 0)
(0 0 0)
(0 0 0)
(0 0 0)
(0 0 0)
(0 0 0)
(0 0 0)
(0 0 0)
(0 0 0)
(0 0 0)
(0 0 0)
(0 0 0)
(0 0 0)
(0 0 0)
(0 0 0)
(0 0 0)
(0 0 0)
(0 0 0)
(0 0 0)
(0 0 0)
(0 0 0)
(0 0 0)
(0 0 0)
(0 0 0)
(0 0 0)
(0 0 0)
(0 0 0)
(0 0 0)
(0 0 0)
(0 0 0)
(0 0 0)
(0 0 0)
(0 0 0)
(5.12193e-06 5.06948e-07 1.19314e-07)
(8.44888e-06 2.93605e-06 5.14606e-07)
(1.20823e-05 4.5241e-06 3.56068e-07)
(1.61204e-05 5.59209e-06 5.97694e-07)
(1.99768e-05 6.75055e-06 5.97483e-07)
(2.4559e-05 8.48436e-06 1.11517e-06)
(2.91982e-05 9.59134e-06 1.23168e-06)
(3.34974e-05 1.12797e-05 1.73497e-06)
(3.78132e-05 1.28238e-05 2.19541e-06)
(4.03292e-05 1.39308e-05 2.087e-06)
(2.70372e-05 3.55293e-05 -9.81509e-06)
(3.03009e-05 1.1346e-05 -1.60069e-05)
(8.44992e-05 6.71737e-05 -3.18484e-05)
(0.000163954 0.000269065 -3.1035e-05)
(0 0 0)
(0 0 0)
(0 0 0)
(0 0 0)
(0 0 0)
(0 0 0)
(0 0 0)
(0 0 0)
(0 0 0)
(0 0 0)
(0 0 0)
(0 0 0)
(0 0 0)
(0 0 0)
(0 0 0)
(0 0 0)
(0 0 0)
(0 0 0)
(0 0 0)
(0 0 0)
(0 0 0)
(0 0 0)
(0 0 0)
(0 0 0)
(0 0 0)
(0 0 0)
(0 0 0)
(0 0 0)
(0 0 0)
(0 0 0)
(0 0 0)
(0 0 0)
(0 0 0)
(0 0 0)
(0 0 0)
(0 0 0)
)
;
    }
}


// ************************************************************************* //
