FoamFile
{version 2.0; format ascii;class Cloud<passiveParticle>; location 0;object  positions;}
348
(
( 4122.43 4330.7 499.562 ) 0 
( 1694.74 2198.73 499.541 ) 0 
( 5.15732 1963.33 498.362 ) 0 
( 2488.77 1591.3 498.672 ) 0 
( 1042.43 4454.79 497.667 ) 0 
( 3476.87 1743.34 498.371 ) 0 
( 1555.74 3188.84 498.147 ) 0 
( 440.194 1063.57 499.056 ) 0 
( 4584.62 3423.26 497.279 ) 0 
( 3123.62 4368.91 499.353 ) 0 
( 3132.23 805.803 498.601 ) 0 
( 4034.73 2573.11 498.35 ) 0 
( 57.2835 4620.37 498.125 ) 0 
( 1497.23 1183.4 497.622 ) 0 
( 511.93 66.9965 499.048 ) 0 
( 689.256 2691.11 498.064 ) 0 
( 1460.33 3888.93 1204.88 ) 0 
( 1624.97 192.132 497.589 ) 0 
( 3586.05 3482.59 497.968 ) 0 
( 3075.39 3245.62 1321.73 ) 0 
( 259.8 3066.77 1317.72 ) 0 
( 4134.6 764.777 498.555 ) 0 
( 2580.49 3529.45 498.944 ) 0 
( 2953.78 2602.73 498.315 ) 0 
( 438.337 3658.51 498.811 ) 0 
( 4512.08 1690.8 497.4 ) 0 
( 4147.13 4922.92 1309.55 ) 0 
( 889.099 1827.85 960.736 ) 0 
( 2267.28 760.751 1008.37 ) 0 
( 4000.82 1421.6 1311.45 ) 0 
( 2481.76 2207.95 1284.6 ) 0 
( 2085.33 3123.04 1341.3 ) 0 
( 4627.45 443.137 1311.97 ) 0 
( 3004.21 1357.46 1321.77 ) 0 
( 4998.68 1370.69 1308.53 ) 0 
( 3622 497.36 1312.46 ) 0 
( 628.518 4883.15 1299.15 ) 0 
( 2042.32 4371.13 498.411 ) 0 
( 3521.21 1226.16 2165.72 ) 0 
( 1028.47 619.618 1174.2 ) 0 
( 2581.73 4123.42 1302.4 ) 0 
( 3146.19 4967.53 1299.69 ) 0 
( 187.14 4542.6 2127.43 ) 0 
( 441.653 2173.94 1784.93 ) 0 
( 1758.72 1529.09 1396.68 ) 0 
( 3476.35 2331.44 1304.54 ) 0 
( 1184.68 2693.17 1364.69 ) 0 
( 1808.04 4811.71 1362.82 ) 0 
( 2523.51 4796.48 2060.38 ) 0 
( 2646.36 2774.96 2089.56 ) 0 
( 3613.3 4083.17 1383.6 ) 0 
( 4531.19 2268.7 1310.64 ) 0 
( 4606.5 4000.2 1313.52 ) 0 
( 734.453 3746.41 1874.43 ) 0 
( 4600.48 4606.96 2139.47 ) 0 
( 3991.18 2195.41 2147.45 ) 0 
( 4513.6 1346.44 2180.91 ) 0 
( 4070.63 3155.31 1308.38 ) 0 
( 1956.69 3973.32 2067.79 ) 0 
( 3583.54 3108.11 2176.3 ) 0 
( 1052.93 1448.59 2098.55 ) 0 
( 2982.52 3906.52 2191.38 ) 0 
( 2440.71 1536.12 2127.75 ) 0 
( 1778.57 2281.48 2054.1 ) 0 
( 4122.18 427.513 2172.42 ) 0 
( 455.889 654.629 1990.27 ) 0 
( 3942.27 1631.61 2975.13 ) 0 
( 4930.22 999.05 3019.38 ) 0 
( 1831.24 726.976 1988.23 ) 0 
( 3578.91 4710.09 2160.37 ) 0 
( 3120.63 2077.67 2622.51 ) 0 
( 2259.76 3.1623 2570.05 ) 0 
( 1183.99 3844.99 2761.75 ) 0 
( 192.797 3729.33 2712.59 ) 0 
( 2757.18 399.877 1801.09 ) 0 
( 1881.68 4713.31 2820.13 ) 0 
( 1183.82 4606.01 2114.21 ) 0 
( 1595.54 1752.33 2881.32 ) 0 
( 1853.44 3124.97 2585.04 ) 0 
( 926.564 2870.55 2313 ) 0 
( 4579.59 3418.65 2126.29 ) 0 
( 3905.64 3916.1 2668.23 ) 0 
( 1234.08 2705.37 3249.14 ) 0 
( 2217.82 3843.13 3175.1 ) 0 
( 2960.02 4576.12 2932.5 ) 0 
( 3527.91 2978.28 3720.12 ) 0 
( 485.185 122.631 3243.38 ) 0 
( 4002.68 647.41 3136.7 ) 0 
( 3094.89 525.657 2736.31 ) 0 
( 650.357 1053.2 2922.67 ) 0 
( 641.671 2042.64 2791.99 ) 0 
( 2948.39 3205.01 2938.73 ) 0 
( 4125.59 2776.73 2945.98 ) 0 
( 2190.52 946.14 2895.07 ) 0 
( 1358.43 359.368 2806.66 ) 0 
( 578.12 4545.88 3137 ) 0 
( 88.3044 2814.91 3101.23 ) 0 
( 4781.48 21.153 3155.51 ) 0 
( 4836.07 2075.57 2991.65 ) 0 
( 4504.4 1592.94 3800.08 ) 0 
( 3040.57 1349.27 3299.28 ) 0 
( 2335.88 2437.86 3125.65 ) 0 
( 3587.8 1988.28 3838.38 ) 0 
( 681.021 3482.61 3546.83 ) 0 
( 2565.58 3203.96 3860.13 ) 0 
( 458.711 1195.06 3892.11 ) 0 
( 2054.14 107.82 3541.44 ) 0 
( 3509.01 4929.46 3775.71 ) 0 
( 4365.82 3579.05 3487.81 ) 0 
( 2972.29 452.169 3729.67 ) 0 
( 1433.74 1024.71 3546.38 ) 0 
( 1419.56 4455.7 3666.68 ) 0 
( 3443.4 3958.61 3551.19 ) 0 
( 4430.76 4558.24 3668.88 ) 0 
( 1824.71 2536.51 4037.18 ) 0 
( 1615 3503.33 3894.18 ) 0 
( 2109.46 808.791 4250.4 ) 0 
( 2945.1 1346.75 4340.78 ) 0 
( 2196.95 1659.54 3735.39 ) 0 
( 532.544 4401.54 4124.33 ) 0 
( 2609.84 4455.67 3859.87 ) 0 
( 487.131 2187.18 3768.4 ) 0 
( 1237.49 1720.97 4233.59 ) 0 
( 1100.26 213.262 4024.02 ) 0 
( 4433.37 2586.25 3876.02 ) 0 
( 4756.05 636.958 3941.52 ) 0 
( 4060.57 3945.25 4366.49 ) 0 
( 1788.64 3192.97 4826.05 ) 0 
( 3810.15 929.41 4072.86 ) 0 
( 3555.39 2971.34 4718.78 ) 0 
( 3074.86 3811.61 4466.59 ) 0 
( 258.157 500.003 4581.88 ) 0 
( 934.083 2894.87 4314.78 ) 0 
( 450.472 1440.23 4859.68 ) 0 
( 2767.21 2328.42 4295.07 ) 0 
( 388.842 3621.09 4732.04 ) 0 
( 1900.19 4809.48 4466.56 ) 0 
( 2104.63 1719.85 4728.99 ) 0 
( 4758.1 1106.67 4823.27 ) 0 
( 1290.89 4044.97 4666.95 ) 0 
( 4109.06 1853.36 4680.48 ) 0 
( 3206.77 1937.61 5102.36 ) 0 
( 3616.24 1027.31 5046.26 ) 0 
( 2934.75 371.327 4722.93 ) 0 
( 696.859 434.825 5477.18 ) 0 
( 3267.97 4755.95 4731.45 ) 0 
( 4519.34 2747.47 4857.94 ) 0 
( 2663.87 2835.99 5149.41 ) 0 
( 4061.38 4368.54 5279.36 ) 0 
( 4206.34 280.391 4719.97 ) 0 
( 1359.95 2313.74 5026.98 ) 0 
( 1257.22 860.691 4767.67 ) 0 
( 2267.69 4051.74 5003.69 ) 0 
( 242.375 3678.3 5947.92 ) 0 
( 3557.36 121.607 5461.94 ) 0 
( 1944.45 430.91 5349.83 ) 0 
( 362.054 4435.78 5307.87 ) 0 
( 3851.09 2540.02 5570.49 ) 0 
( 1117.76 3514.15 5493.73 ) 0 
( 4985.54 1968.45 5275.09 ) 0 
( 2677.45 84.8152 5931.81 ) 0 
( 2659.15 1128.21 5312.37 ) 0 
( 3353.32 938.915 6006.52 ) 0 
( 500.725 2770.79 5243.91 ) 0 
( 4767.73 3680.21 5117.23 ) 0 
( 28.3142 1964.88 5595.96 ) 0 
( 4150.23 1591.56 5672.06 ) 0 
( 1799.16 2833.24 5757.11 ) 0 
( 3170.55 3896.87 5455.6 ) 0 
( 1543.84 4582.46 5468.86 ) 0 
( 4847.65 2923.8 5785.58 ) 0 
( 4401.88 625.674 5636.2 ) 0 
( 1809.36 170.597 6418.47 ) 0 
( 1599.91 2010.02 6287.13 ) 0 
( 2006.92 1123.85 6068.5 ) 0 
( 1175.14 1481.65 5546.32 ) 0 
( 4031.45 3501.1 5771.85 ) 0 
( 2441.95 4995.32 5282.95 ) 0 
( 3121.76 3066.01 6007 ) 0 
( 2371.63 2022.21 5651.44 ) 0 
( 4513.38 4831.58 6054.1 ) 0 
( 2318.45 3669.71 5925.08 ) 0 
( 1078.26 841.987 6306.22 ) 0 
( 886.326 2808.46 6164.51 ) 0 
( 3313.99 4841.41 5743.71 ) 0 
( 1061.01 4164.03 6249.12 ) 0 
( 4677.15 1319.28 6480.15 ) 0 
( 2691.75 612.47 6779.09 ) 0 
( 4899.2 3893.79 6084.45 ) 0 
( 4324.28 2249.84 6400.61 ) 0 
( 640.342 1738.99 6353.05 ) 0 
( 3321.73 4107.15 6420.46 ) 0 
( 149.517 770.827 6668.49 ) 0 
( 241.602 3351.23 6892.17 ) 0 
( 4807.17 328.081 6499.48 ) 0 
( 2233.76 4629.96 6188.11 ) 0 
( 3526.88 64.0054 6457.92 ) 0 
( 3521.46 2661.44 6827.51 ) 0 
( 858.21 124.175 6964.02 ) 0 
( 1604.13 3387.99 6563.88 ) 0 
( 2833.77 4834.31 6958.26 ) 0 
( 4035 743.942 6984.2 ) 0 
( 2681.87 3459.54 6831.84 ) 0 
( 1040.16 2809.88 7151.55 ) 0 
( 4250.01 4196.64 6779.38 ) 0 
( 4381.01 2285.31 7397.43 ) 0 
( 3259.96 1933.87 6100.13 ) 0 
( 2412.79 2558.4 6494.54 ) 0 
( 1818.04 1017.6 7043.91 ) 0 
( 3202.03 20.4693 7400.88 ) 0 
( 4369.75 3211.28 6665.05 ) 0 
( 1324.38 4929.46 6832.88 ) 0 
( 3709.44 1688.59 6957.66 ) 0 
( 3595.75 3576.72 7221.02 ) 0 
( 2377.96 1490.13 7726.73 ) 0 
( 2569.58 1603.3 6742.28 ) 0 
( 1998.76 2988.67 7388.88 ) 0 
( 856.377 1241 7195.1 ) 0 
( 3641.78 4564.63 7479.57 ) 0 
( 256.533 4436.35 7536.61 ) 0 
( 1676.77 2047.94 7282.99 ) 0 
( 3231.69 1012.8 7518.21 ) 0 
( 1962.73 4188.83 7041.53 ) 0 
( 1024.77 3885.86 7208.31 ) 0 
( 3952.57 417.823 7925.1 ) 0 
( 393.193 3510.73 7885.85 ) 0 
( 768.342 2062.7 7755.93 ) 0 
( 1883.25 3806.08 7960.02 ) 0 
( 4935.64 545.078 8045.48 ) 0 
( 2429.34 496.362 7816.19 ) 0 
( 1189.95 4667.3 7809.19 ) 0 
( 1427.86 1356.5 8007.52 ) 0 
( 1439.68 397.019 7729.34 ) 0 
( 4432.27 3250.93 7660.98 ) 0 
( 2778.08 4079.18 7609.64 ) 0 
( 3593.24 2731.84 7821.3 ) 0 
( 2767.46 2351.86 7404.57 ) 0 
( 2133.65 4959.44 7659.24 ) 0 
( 4096.52 1401.81 7832.73 ) 0 
( 2128.16 2382.15 8172.2 ) 0 
( 2072.87 931.926 8641.1 ) 0 
( 3242.37 1834.97 8113.75 ) 0 
( 1299.03 2981.75 8101.19 ) 0 
( 3567.45 3855.34 8179.63 ) 0 
( 4364.53 4457.94 8161.28 ) 0 
( 110.315 4259.43 8508.97 ) 0 
( 1436.07 164.941 8706.89 ) 0 
( 2728.62 3180.62 8044.2 ) 0 
( 505.92 676.869 7949.66 ) 0 
( 4840.43 1430.31 8497.8 ) 0 
( 510.448 1488.95 8532.19 ) 0 
( 1069.48 3850.54 8537.34 ) 0 
( 3792.4 4404.67 8983.45 ) 0 
( 429.54 2664.88 8477.75 ) 0 
( 2056.82 3262.51 8779.65 ) 0 
( 4051.24 895.525 8797.47 ) 0 
( 3192.59 2620.69 8730.09 ) 0 
( 2441.54 4461.37 8469.3 ) 0 
( 4242.66 2223.25 8385.42 ) 0 
( 3062.67 930.293 8499.93 ) 0 
( 2561.01 1779.94 8841.73 ) 0 
( 3292 4965.64 8324.32 ) 0 
( 1197.13 1048.19 9108.43 ) 0 
( 4963.18 2233.66 9078.37 ) 0 
( 1272.18 2129.39 8622.24 ) 0 
( 4316.96 3386.43 8644.07 ) 0 
( 232.62 3443.53 9072.11 ) 0 
( 3467.96 214.718 9238.83 ) 0 
( 3976.43 3607.15 9557.43 ) 0 
( 3629.19 1770.74 9032.19 ) 0 
( 2470 193.344 9184.53 ) 0 
( 2915.2 4877.95 9245.44 ) 0 
( 1945.6 2418.41 9302.03 ) 0 
( 4969.43 3187.9 9373.45 ) 0 
( 1518.93 4714.68 8758.29 ) 0 
( 168.475 1347.97 9461.08 ) 0 
( 4833.35 4209.37 9008.59 ) 0 
( 1137.87 3019.23 9086.8 ) 0 
( 723.432 4346.66 9331.81 ) 0 
( 2990.92 3575.88 8945.93 ) 0 
( 4037.32 2653.49 9264 ) 0 
( 2195.74 4068.65 9354.57 ) 0 
( 547.537 442.203 9644.4 ) 0 
( 2292.1 1170.09 9586.21 ) 0 
( 1475.94 1699.74 9812.88 ) 0 
( 1534.93 4696.41 9798.2 ) 0 
( 4744.4 1194.31 9463.67 ) 0 
( 1340.21 2746.45 10026.6 ) 0 
( 3283.99 1092.34 9680.15 ) 0 
( 4830.09 103.599 9416.25 ) 0 
( 2954.56 2253.35 9628.59 ) 0 
( 694.308 2196.58 9437.88 ) 0 
( 4334.83 4527.93 9813.82 ) 0 
( 2520.42 387.336 10163.7 ) 0 
( 4572.83 2690.95 10144.6 ) 0 
( 2501.54 3145.48 9703.68 ) 0 
( 3126.79 4074.4 9801.42 ) 0 
( 3539.69 4796.12 10356.2 ) 0 
( 4116.1 1835.46 9901.98 ) 0 
( 375.112 2997.45 9954.71 ) 0 
( 804.922 103.082 10548.4 ) 0 
( 1359.64 3712.64 9770.76 ) 0 
( 1528.8 643.543 9959.91 ) 0 
( 4106.14 578.213 9923.39 ) 0 
( 4731.22 3681.31 10209 ) 0 
( 2179.11 2252.14 10259.5 ) 0 
( 442.162 4936.86 10099.2 ) 0 
( 2470.93 4787.21 10135.9 ) 0 
( 1884.79 3028.68 10815.9 ) 0 
( 634.512 1606.29 10343.2 ) 0 
( 1738.74 1295.24 10688 ) 0 
( 3596.01 2577.61 10322.7 ) 0 
( 2959.39 3295.64 10600.6 ) 0 
( 557.972 3904.5 10335.4 ) 0 
( 2175.33 3852.81 10330.4 ) 0 
( 3791.91 3841.58 10511.4 ) 0 
( 4671.35 1217.14 10460 ) 0 
( 2703.97 1425.37 10460.4 ) 0 
( 3680.11 1249.58 10584.3 ) 0 
( 2866.67 2373.31 10975 ) 0 
( 3422.72 35.4037 10410.5 ) 0 
( 367.672 2456.97 10795.3 ) 0 
( 2899.14 4249.38 10894.3 ) 0 
( 515.913 914.705 11055.1 ) 0 
( 4259.33 2062.42 10864.8 ) 0 
( 344.489 4578.19 11042.3 ) 0 
( 4135.99 3051.17 11017.7 ) 0 
( 1329.36 2191.21 10857.5 ) 0 
( 1375.58 4108.52 10872.4 ) 0 
( 4683.2 4519.56 10750.9 ) 0 
( 4190.06 10.75 11050.8 ) 0 
( 2515.32 3416.1 11488.1 ) 0 
( 3840.72 4583.71 11285.5 ) 0 
( 2444.49 902.5 11276.6 ) 0 
( 1434.96 501.737 11214.6 ) 0 
( 3386.49 569.063 11255 ) 0 
( 3498.48 1747.63 11431.8 ) 0 
( 3051.01 1098.86 12046.8 ) 0 
( 3482.92 3666.25 11458.6 ) 0 
( 938.442 3231.08 11067.1 ) 0 
( 661.249 1802.34 11491.5 ) 0 
( 233.505 2887.89 11687.4 ) 0 
( 2900 111.669 11999.3 ) 0 
( 2107.74 1885.46 11405.5 ) 0 
( 4736.64 2483.25 11635.8 ) 0 
( 2114.33 4331.79 11507.8 ) 0 
( 4273.79 1031.14 11358.3 ) 0 
( 4774.9 9.62354 11861.7 ) 0 
)
