/*--------------------------------*- C++ -*----------------------------------*\
| =========                 |                                                 |
| \\      /  F ield         | OpenFOAM: The Open Source CFD Toolbox           |
|  \\    /   O peration     | Version:  5.x                                   |
|   \\  /    A nd           | Web:      www.OpenFOAM.org                      |
|    \\/     M anipulation  |                                                 |
\*---------------------------------------------------------------------------*/
FoamFile
{
    version     2.0;
    format      ascii;
    class       volVectorField;
    location    "1000";
    object      stored_U;
}
// * * * * * * * * * * * * * * * * * * * * * * * * * * * * * * * * * * * * * //

dimensions      [0 1 -1 0 0 0 0];

internalField   nonuniform List<vector> 
180
(
(-1.42349e-09 8.78684e-11 -0.00100016)
(-3.43883e-09 2.40258e-10 -0.00100016)
(-5.75769e-09 4.30816e-10 -0.00100016)
(-8.15546e-09 6.12321e-10 -0.00100015)
(-1.06518e-08 7.95145e-10 -0.00100015)
(-1.32609e-08 9.65509e-10 -0.00100015)
(-1.60064e-08 1.11583e-09 -0.00100014)
(-1.89161e-08 1.24106e-09 -0.00100013)
(-2.20217e-08 1.33719e-09 -0.00100013)
(-2.53584e-08 1.40126e-09 -0.00100012)
(-2.89654e-08 1.43124e-09 -0.00100011)
(-3.28865e-08 1.426e-09 -0.00100011)
(-3.71702e-08 1.38565e-09 -0.0010001)
(-4.18696e-08 1.31385e-09 -0.00100009)
(-4.70428e-08 1.21032e-09 -0.00100008)
(-5.27546e-08 1.07425e-09 -0.00100007)
(-5.9077e-08 9.04757e-10 -0.00100007)
(-6.609e-08 7.0183e-10 -0.00100006)
(-7.38815e-08 4.65692e-10 -0.00100005)
(-8.25489e-08 1.97501e-10 -0.00100005)
(-9.22007e-08 -1.00657e-10 -0.00100004)
(-1.02957e-07 -4.25363e-10 -0.00100003)
(-1.14954e-07 -7.71191e-10 -0.00100003)
(-1.28341e-07 -1.13011e-09 -0.00100002)
(-1.43288e-07 -1.49045e-09 -0.00100001)
(-1.59985e-07 -1.83564e-09 -0.001)
(-1.78649e-07 -2.14276e-09 -0.000999991)
(-1.99522e-07 -2.38067e-09 -0.000999978)
(-2.22879e-07 -2.50794e-09 -0.000999962)
(-2.49031e-07 -2.47034e-09 -0.000999942)
(-2.78332e-07 -2.1979e-09 -0.000999918)
(-3.1118e-07 -1.60154e-09 -0.000999889)
(-3.4803e-07 -5.69178e-10 -0.000999855)
(-3.89395e-07 1.0389e-09 -0.000999813)
(-4.35857e-07 3.39528e-09 -0.000999764)
(-4.88076e-07 6.71162e-09 -0.000999706)
(-5.46797e-07 1.12459e-08 -0.000999638)
(-6.12866e-07 1.73108e-08 -0.000999559)
(-6.87238e-07 2.52838e-08 -0.000999466)
(-7.70997e-07 3.56186e-08 -0.000999358)
(-8.65366e-07 4.88594e-08 -0.000999233)
(-9.7173e-07 6.56565e-08 -0.000999089)
(-1.09166e-06 8.67865e-08 -0.000998923)
(-1.22692e-06 1.13174e-07 -0.000998732)
(-1.37954e-06 1.4592e-07 -0.000998512)
(-1.55177e-06 1.86332e-07 -0.000998259)
(-1.74621e-06 2.35963e-07 -0.000997969)
(-1.96577e-06 2.96653e-07 -0.000997636)
(-2.21377e-06 3.70586e-07 -0.000997254)
(-2.49397e-06 4.60344e-07 -0.000996815)
(-2.81063e-06 5.68986e-07 -0.000996312)
(-3.16861e-06 7.0013e-07 -0.000995734)
(-3.57342e-06 8.58054e-07 -0.000995071)
(-4.03131e-06 1.04782e-06 -0.00099431)
(-4.54942e-06 1.27541e-06 -0.000993435)
(-5.13586e-06 1.54791e-06 -0.000992431)
(-5.79985e-06 1.87361e-06 -0.000991277)
(-6.55182e-06 2.26219e-06 -0.000989954)
(-7.40358e-06 2.72488e-06 -0.000988437)
(-8.36844e-06 3.27463e-06 -0.000986701)
(-9.46122e-06 3.92602e-06 -0.000984723)
(-1.06982e-05 4.69503e-06 -0.000982471)
(-1.2098e-05 5.6006e-06 -0.000979899)
(-1.36822e-05 6.66582e-06 -0.000976954)
(-1.5475e-05 7.91749e-06 -0.000973585)
(-1.75041e-05 9.3867e-06 -0.000969728)
(-1.98004e-05 1.11095e-05 -0.000965315)
(-2.23994e-05 1.31277e-05 -0.000960266)
(-2.53409e-05 1.54898e-05 -0.000954487)
(-2.86701e-05 1.82518e-05 -0.000947876)
(-3.24384e-05 2.14785e-05 -0.000940311)
(-3.67041e-05 2.5245e-05 -0.000931628)
(-4.15361e-05 2.96429e-05 -0.000921628)
(-4.70126e-05 3.47783e-05 -0.000910118)
(-5.32232e-05 4.07747e-05 -0.000897168)
(-6.02729e-05 4.77758e-05 -0.000883813)
(-6.82711e-05 5.59329e-05 -0.000866426)
(-7.70458e-05 6.53281e-05 -0.000805952)
(-8.43137e-05 7.61126e-05 -0.000524874)
(-8.18509e-05 9.03857e-05 -0.00204918)
(-8.22056e-05 -0.000248887 0.000133801)
(4.8498e-06 -9.77542e-05 -0.00347382)
(-7.87412e-05 -0.000170862 -0.00181428)
(-0.000203932 -0.000251843 -0.00148163)
(-0.000229388 -7.22764e-05 -0.0022619)
(-0.000198463 0.00015001 -0.00258131)
(-1.1837e-05 7.46339e-05 -0.000880713)
(-8.42379e-05 0.000257395 -0.003923)
(0.000165324 -7.95933e-05 0.000167997)
(0.00031734 -0.000132972 -0.00384897)
(0.00029854 -0.000369129 -0.000496768)
(0.000238535 -0.000217653 -0.00377497)
(0.000423002 -0.000297177 -0.000412484)
(0.000288904 -0.000193556 -0.00366006)
(-0.00019552 4.4889e-05 -0.000884536)
(-0.000214275 0.000193005 -0.00315607)
(-1.37501e-05 2.62757e-05 -0.00169119)
(0.000436412 2.37923e-05 -0.00107691)
(0.00045584 8.76718e-07 -0.00325387)
(0.000172197 4.48947e-05 -0.00255637)
(-0.000277946 2.48256e-05 -0.00294415)
(-4.82678e-05 7.86701e-05 0.00112651)
(0.000385114 -3.55875e-06 -0.000459898)
(0.000595773 0.000158949 -0.0019675)
(9.33794e-05 1.38467e-05 -0.00208253)
(-3.12678e-05 -8.95064e-05 -0.000910846)
(-3.16208e-05 -9.36255e-05 -0.000847672)
(-2.53673e-05 -8.59821e-05 -0.000874369)
(-1.98819e-05 -7.76146e-05 -0.000889878)
(-1.5458e-05 -6.98025e-05 -0.000900406)
(-1.19054e-05 -6.26391e-05 -0.000909833)
(-9.06018e-06 -5.61084e-05 -0.000918658)
(-6.79053e-06 -5.01781e-05 -0.000926808)
(-4.98845e-06 -4.48106e-05 -0.000934273)
(-3.56535e-06 -3.9966e-05 -0.000941081)
(-2.44864e-06 -3.5604e-05 -0.000947271)
(-1.57896e-06 -3.1685e-05 -0.000952884)
(-9.07725e-07 -2.8171e-05 -0.000957961)
(-3.95076e-07 -2.50258e-05 -0.000962545)
(-8.00758e-09 -2.22156e-05 -0.000966677)
(2.8048e-07 -1.97089e-05 -0.000970387)
(4.90529e-07 -1.74755e-05 -0.000973705)
(6.3846e-07 -1.54876e-05 -0.000976667)
(7.37538e-07 -1.37201e-05 -0.000979309)
(7.98515e-07 -1.21497e-05 -0.000981663)
(8.30067e-07 -1.07556e-05 -0.000983758)
(8.39172e-07 -9.51883e-06 -0.00098562)
(8.31403e-07 -8.42234e-06 -0.000987273)
(8.11214e-07 -7.45073e-06 -0.00098874)
(7.82129e-07 -6.59021e-06 -0.00099004)
(7.4693e-07 -5.82838e-06 -0.000991193)
(7.0781e-07 -5.1542e-06 -0.000992213)
(6.66481e-07 -4.55779e-06 -0.000993117)
(6.24179e-07 -4.03032e-06 -0.000993914)
(5.81512e-07 -3.56378e-06 -0.000994616)
(5.39122e-07 -3.15114e-06 -0.000995237)
(4.97585e-07 -2.78626e-06 -0.000995786)
(4.57347e-07 -2.46363e-06 -0.000996269)
(4.18674e-07 -2.17823e-06 -0.000996696)
(3.81884e-07 -1.92566e-06 -0.000997071)
(3.47189e-07 -1.70213e-06 -0.000997403)
(3.14712e-07 -1.50426e-06 -0.000997694)
(2.84506e-07 -1.32913e-06 -0.000997952)
(2.56568e-07 -1.17414e-06 -0.000998178)
(2.30856e-07 -1.037e-06 -0.000998376)
(2.07298e-07 -9.1568e-07 -0.000998549)
(1.85799e-07 -8.08382e-07 -0.000998701)
(1.6625e-07 -7.13515e-07 -0.000998833)
(1.48532e-07 -6.29665e-07 -0.000998948)
(1.32523e-07 -5.55578e-07 -0.000999047)
(1.18099e-07 -4.90142e-07 -0.000999133)
(1.05138e-07 -4.3237e-07 -0.000999207)
(9.35219e-08 -3.81387e-07 -0.000999271)
(8.3139e-08 -3.36418e-07 -0.000999326)
(7.3883e-08 -2.96775e-07 -0.000999374)
(6.56545e-08 -2.61849e-07 -0.000999415)
(5.83611e-08 -2.31099e-07 -0.000999451)
(5.19173e-08 -2.04048e-07 -0.000999482)
(4.62442e-08 -1.80272e-07 -0.00099951)
(4.12695e-08 -1.59398e-07 -0.000999536)
(3.69279e-08 -1.41094e-07 -0.000999559)
(3.31608e-08 -1.2507e-07 -0.00099958)
(2.99131e-08 -1.11065e-07 -0.000999601)
(2.71326e-08 -9.88507e-08 -0.000999621)
(2.47703e-08 -8.82208e-08 -0.000999641)
(2.27804e-08 -7.89931e-08 -0.000999661)
(2.11191e-08 -7.10047e-08 -0.000999681)
(1.97455e-08 -6.41101e-08 -0.000999701)
(1.86202e-08 -5.81792e-08 -0.000999722)
(1.77065e-08 -5.30959e-08 -0.000999743)
(1.69696e-08 -4.87569e-08 -0.000999765)
(1.63767e-08 -4.50701e-08 -0.000999788)
(1.58975e-08 -4.19556e-08 -0.000999811)
(1.55056e-08 -3.93454e-08 -0.000999835)
(1.51725e-08 -3.71726e-08 -0.000999859)
(1.48813e-08 -3.53913e-08 -0.000999884)
(1.46312e-08 -3.39699e-08 -0.000999908)
(1.44085e-08 -3.28724e-08 -0.000999933)
(1.42829e-08 -3.21495e-08 -0.000999959)
(1.41926e-08 -3.17025e-08 -0.000999985)
)
;

boundaryField
{
    inlet
    {
        type            calculated;
        value           uniform (1.41926e-08 -3.17025e-08 -0.000999985);
    }
    outlet
    {
        type            calculated;
        value           uniform (-1.42349e-09 8.78684e-11 -0.00100016);
    }
    repeat_boundary
    {
        type            calculated;
        value           nonuniform List<vector> 
360
(
(-1.42349e-09 0 -0.00100016)
(-3.43883e-09 0 -0.00100016)
(-5.75769e-09 0 -0.00100016)
(-8.15546e-09 0 -0.00100015)
(-1.06518e-08 0 -0.00100015)
(-1.32609e-08 0 -0.00100015)
(-1.60064e-08 0 -0.00100014)
(-1.89161e-08 0 -0.00100013)
(-2.20217e-08 0 -0.00100013)
(-2.53584e-08 0 -0.00100012)
(-2.89654e-08 0 -0.00100011)
(-3.28865e-08 0 -0.00100011)
(-3.71702e-08 0 -0.0010001)
(-4.18696e-08 0 -0.00100009)
(-4.70428e-08 0 -0.00100008)
(-5.27546e-08 0 -0.00100007)
(-5.9077e-08 0 -0.00100007)
(-6.609e-08 0 -0.00100006)
(-7.38815e-08 0 -0.00100005)
(-8.25489e-08 0 -0.00100005)
(-9.22007e-08 0 -0.00100004)
(-1.02957e-07 0 -0.00100003)
(-1.14954e-07 0 -0.00100003)
(-1.28341e-07 0 -0.00100002)
(-1.43288e-07 0 -0.00100001)
(-1.59985e-07 0 -0.001)
(-1.78649e-07 0 -0.000999991)
(-1.99522e-07 0 -0.000999978)
(-2.22879e-07 0 -0.000999962)
(-2.49031e-07 0 -0.000999942)
(-2.78332e-07 0 -0.000999918)
(-3.1118e-07 0 -0.000999889)
(-3.4803e-07 0 -0.000999855)
(-3.89395e-07 0 -0.000999813)
(-4.35857e-07 0 -0.000999764)
(-4.88076e-07 0 -0.000999706)
(-5.46797e-07 0 -0.000999638)
(-6.12866e-07 0 -0.000999559)
(-6.87238e-07 0 -0.000999466)
(-7.70997e-07 0 -0.000999358)
(-8.65366e-07 0 -0.000999233)
(-9.7173e-07 0 -0.000999089)
(-1.09166e-06 0 -0.000998923)
(-1.22692e-06 0 -0.000998732)
(-1.37954e-06 0 -0.000998512)
(-1.55177e-06 0 -0.000998259)
(-1.74621e-06 0 -0.000997969)
(-1.96577e-06 0 -0.000997636)
(-2.21377e-06 0 -0.000997254)
(-2.49397e-06 0 -0.000996815)
(-2.81063e-06 0 -0.000996312)
(-3.16861e-06 0 -0.000995734)
(-3.57342e-06 0 -0.000995071)
(-4.03131e-06 0 -0.00099431)
(-4.54942e-06 0 -0.000993435)
(-5.13586e-06 0 -0.000992431)
(-5.79985e-06 0 -0.000991277)
(-6.55182e-06 0 -0.000989954)
(-7.40358e-06 0 -0.000988437)
(-8.36844e-06 0 -0.000986701)
(-9.46122e-06 0 -0.000984723)
(-1.06982e-05 0 -0.000982471)
(-1.2098e-05 0 -0.000979899)
(-1.36822e-05 0 -0.000976954)
(-1.5475e-05 0 -0.000973585)
(-1.75041e-05 0 -0.000969728)
(-1.98004e-05 0 -0.000965315)
(-2.23994e-05 0 -0.000960266)
(-2.53409e-05 0 -0.000954487)
(-2.86701e-05 0 -0.000947876)
(-3.24384e-05 0 -0.000940311)
(-3.67041e-05 0 -0.000931628)
(-4.15361e-05 0 -0.000921628)
(-4.70126e-05 0 -0.000910118)
(-5.32232e-05 0 -0.000897168)
(-6.02729e-05 0 -0.000883813)
(-6.82711e-05 0 -0.000866426)
(-7.70458e-05 0 -0.000805952)
(-8.43137e-05 0 -0.000524874)
(-8.18509e-05 0 -0.00204918)
(-8.22056e-05 0 0.000133801)
(4.8498e-06 0 -0.00347382)
(-7.87412e-05 0 -0.00181428)
(-0.000203932 0 -0.00148163)
(-0.000229388 0 -0.0022619)
(-0.000198463 0 -0.00258131)
(-1.1837e-05 0 -0.000880713)
(-8.42379e-05 0 -0.003923)
(0.000165324 0 0.000167997)
(0.00031734 0 -0.00384897)
(0.00029854 0 -0.000496768)
(0.000238535 0 -0.00377497)
(0.000423002 0 -0.000412484)
(0.000288904 0 -0.00366006)
(-0.00019552 0 -0.000884536)
(-0.000214275 0 -0.00315607)
(-1.37501e-05 0 -0.00169119)
(0.000436412 0 -0.00107691)
(0.00045584 0 -0.00325387)
(0.000172197 0 -0.00255637)
(-0.000277946 0 -0.00294415)
(-4.82678e-05 0 0.00112651)
(0.000385114 0 -0.000459898)
(0.000595773 0 -0.0019675)
(9.33794e-05 0 -0.00208253)
(-3.12678e-05 0 -0.000910846)
(-3.16208e-05 0 -0.000847672)
(-2.53673e-05 0 -0.000874369)
(-1.98819e-05 0 -0.000889878)
(-1.5458e-05 0 -0.000900406)
(-1.19054e-05 0 -0.000909833)
(-9.06018e-06 0 -0.000918658)
(-6.79053e-06 0 -0.000926808)
(-4.98845e-06 0 -0.000934273)
(-3.56535e-06 0 -0.000941081)
(-2.44864e-06 0 -0.000947271)
(-1.57896e-06 0 -0.000952884)
(-9.07725e-07 0 -0.000957961)
(-3.95076e-07 0 -0.000962545)
(-8.00758e-09 0 -0.000966677)
(2.8048e-07 0 -0.000970387)
(4.90529e-07 0 -0.000973705)
(6.3846e-07 0 -0.000976667)
(7.37538e-07 0 -0.000979309)
(7.98515e-07 0 -0.000981663)
(8.30067e-07 0 -0.000983758)
(8.39172e-07 0 -0.00098562)
(8.31403e-07 0 -0.000987273)
(8.11214e-07 0 -0.00098874)
(7.82129e-07 0 -0.00099004)
(7.4693e-07 0 -0.000991193)
(7.0781e-07 0 -0.000992213)
(6.66481e-07 0 -0.000993117)
(6.24179e-07 0 -0.000993914)
(5.81512e-07 0 -0.000994616)
(5.39122e-07 0 -0.000995237)
(4.97585e-07 0 -0.000995786)
(4.57347e-07 0 -0.000996269)
(4.18674e-07 0 -0.000996696)
(3.81884e-07 0 -0.000997071)
(3.47189e-07 0 -0.000997403)
(3.14712e-07 0 -0.000997694)
(2.84506e-07 0 -0.000997952)
(2.56568e-07 0 -0.000998178)
(2.30856e-07 0 -0.000998376)
(2.07298e-07 0 -0.000998549)
(1.85799e-07 0 -0.000998701)
(1.6625e-07 0 -0.000998833)
(1.48532e-07 0 -0.000998948)
(1.32523e-07 0 -0.000999047)
(1.18099e-07 0 -0.000999133)
(1.05138e-07 0 -0.000999207)
(9.35219e-08 0 -0.000999271)
(8.3139e-08 0 -0.000999326)
(7.3883e-08 0 -0.000999374)
(6.56545e-08 0 -0.000999415)
(5.83611e-08 0 -0.000999451)
(5.19173e-08 0 -0.000999482)
(4.62442e-08 0 -0.00099951)
(4.12695e-08 0 -0.000999536)
(3.69279e-08 0 -0.000999559)
(3.31608e-08 0 -0.00099958)
(2.99131e-08 0 -0.000999601)
(2.71326e-08 0 -0.000999621)
(2.47703e-08 0 -0.000999641)
(2.27804e-08 0 -0.000999661)
(2.11191e-08 0 -0.000999681)
(1.97455e-08 0 -0.000999701)
(1.86202e-08 0 -0.000999722)
(1.77065e-08 0 -0.000999743)
(1.69696e-08 0 -0.000999765)
(1.63767e-08 0 -0.000999788)
(1.58975e-08 0 -0.000999811)
(1.55056e-08 0 -0.000999835)
(1.51725e-08 0 -0.000999859)
(1.48813e-08 0 -0.000999884)
(1.46312e-08 0 -0.000999908)
(1.44085e-08 0 -0.000999933)
(1.42829e-08 0 -0.000999959)
(1.41926e-08 0 -0.000999985)
(0 8.78684e-11 -0.00100016)
(0 2.40258e-10 -0.00100016)
(0 4.30816e-10 -0.00100016)
(0 6.12321e-10 -0.00100015)
(0 7.95145e-10 -0.00100015)
(0 9.65509e-10 -0.00100015)
(0 1.11583e-09 -0.00100014)
(0 1.24106e-09 -0.00100013)
(0 1.33719e-09 -0.00100013)
(0 1.40126e-09 -0.00100012)
(0 1.43124e-09 -0.00100011)
(0 1.426e-09 -0.00100011)
(0 1.38565e-09 -0.0010001)
(0 1.31385e-09 -0.00100009)
(0 1.21032e-09 -0.00100008)
(0 1.07425e-09 -0.00100007)
(0 9.04757e-10 -0.00100007)
(0 7.0183e-10 -0.00100006)
(0 4.65692e-10 -0.00100005)
(0 1.97501e-10 -0.00100005)
(0 -1.00657e-10 -0.00100004)
(0 -4.25363e-10 -0.00100003)
(0 -7.71191e-10 -0.00100003)
(0 -1.13011e-09 -0.00100002)
(0 -1.49045e-09 -0.00100001)
(0 -1.83564e-09 -0.001)
(0 -2.14276e-09 -0.000999991)
(0 -2.38067e-09 -0.000999978)
(0 -2.50794e-09 -0.000999962)
(0 -2.47034e-09 -0.000999942)
(0 -2.1979e-09 -0.000999918)
(0 -1.60154e-09 -0.000999889)
(0 -5.69178e-10 -0.000999855)
(0 1.0389e-09 -0.000999813)
(0 3.39528e-09 -0.000999764)
(0 6.71162e-09 -0.000999706)
(0 1.12459e-08 -0.000999638)
(0 1.73108e-08 -0.000999559)
(0 2.52838e-08 -0.000999466)
(0 3.56186e-08 -0.000999358)
(0 4.88594e-08 -0.000999233)
(0 6.56565e-08 -0.000999089)
(0 8.67865e-08 -0.000998923)
(0 1.13174e-07 -0.000998732)
(0 1.4592e-07 -0.000998512)
(0 1.86332e-07 -0.000998259)
(0 2.35963e-07 -0.000997969)
(0 2.96653e-07 -0.000997636)
(0 3.70586e-07 -0.000997254)
(0 4.60344e-07 -0.000996815)
(0 5.68986e-07 -0.000996312)
(0 7.0013e-07 -0.000995734)
(0 8.58054e-07 -0.000995071)
(0 1.04782e-06 -0.00099431)
(0 1.27541e-06 -0.000993435)
(0 1.54791e-06 -0.000992431)
(0 1.87361e-06 -0.000991277)
(0 2.26219e-06 -0.000989954)
(0 2.72488e-06 -0.000988437)
(0 3.27463e-06 -0.000986701)
(0 3.92602e-06 -0.000984723)
(0 4.69503e-06 -0.000982471)
(0 5.6006e-06 -0.000979899)
(0 6.66582e-06 -0.000976954)
(0 7.91749e-06 -0.000973585)
(0 9.3867e-06 -0.000969728)
(0 1.11095e-05 -0.000965315)
(0 1.31277e-05 -0.000960266)
(0 1.54898e-05 -0.000954487)
(0 1.82518e-05 -0.000947876)
(0 2.14785e-05 -0.000940311)
(0 2.5245e-05 -0.000931628)
(0 2.96429e-05 -0.000921628)
(0 3.47783e-05 -0.000910118)
(0 4.07747e-05 -0.000897168)
(0 4.77758e-05 -0.000883813)
(0 5.59329e-05 -0.000866426)
(0 6.53281e-05 -0.000805952)
(0 7.61126e-05 -0.000524874)
(0 9.03857e-05 -0.00204918)
(0 -0.000248887 0.000133801)
(0 -9.77542e-05 -0.00347382)
(0 -0.000170862 -0.00181428)
(0 -0.000251843 -0.00148163)
(0 -7.22764e-05 -0.0022619)
(0 0.00015001 -0.00258131)
(0 7.46339e-05 -0.000880713)
(0 0.000257395 -0.003923)
(0 -7.95933e-05 0.000167997)
(0 -0.000132972 -0.00384897)
(0 -0.000369129 -0.000496768)
(0 -0.000217653 -0.00377497)
(0 -0.000297177 -0.000412484)
(0 -0.000193556 -0.00366006)
(0 4.4889e-05 -0.000884536)
(0 0.000193005 -0.00315607)
(0 2.62757e-05 -0.00169119)
(0 2.37923e-05 -0.00107691)
(0 8.76718e-07 -0.00325387)
(0 4.48947e-05 -0.00255637)
(0 2.48256e-05 -0.00294415)
(0 7.86701e-05 0.00112651)
(0 -3.55875e-06 -0.000459898)
(0 0.000158949 -0.0019675)
(0 1.38467e-05 -0.00208253)
(0 -8.95064e-05 -0.000910846)
(0 -9.36255e-05 -0.000847672)
(0 -8.59821e-05 -0.000874369)
(0 -7.76146e-05 -0.000889878)
(0 -6.98025e-05 -0.000900406)
(0 -6.26391e-05 -0.000909833)
(0 -5.61084e-05 -0.000918658)
(0 -5.01781e-05 -0.000926808)
(0 -4.48106e-05 -0.000934273)
(0 -3.9966e-05 -0.000941081)
(0 -3.5604e-05 -0.000947271)
(0 -3.1685e-05 -0.000952884)
(0 -2.8171e-05 -0.000957961)
(0 -2.50258e-05 -0.000962545)
(0 -2.22156e-05 -0.000966677)
(0 -1.97089e-05 -0.000970387)
(0 -1.74755e-05 -0.000973705)
(0 -1.54876e-05 -0.000976667)
(0 -1.37201e-05 -0.000979309)
(0 -1.21497e-05 -0.000981663)
(0 -1.07556e-05 -0.000983758)
(0 -9.51883e-06 -0.00098562)
(0 -8.42234e-06 -0.000987273)
(0 -7.45073e-06 -0.00098874)
(0 -6.59021e-06 -0.00099004)
(0 -5.82838e-06 -0.000991193)
(0 -5.1542e-06 -0.000992213)
(0 -4.55779e-06 -0.000993117)
(0 -4.03032e-06 -0.000993914)
(0 -3.56378e-06 -0.000994616)
(0 -3.15114e-06 -0.000995237)
(0 -2.78626e-06 -0.000995786)
(0 -2.46363e-06 -0.000996269)
(0 -2.17823e-06 -0.000996696)
(0 -1.92566e-06 -0.000997071)
(0 -1.70213e-06 -0.000997403)
(0 -1.50426e-06 -0.000997694)
(0 -1.32913e-06 -0.000997952)
(0 -1.17414e-06 -0.000998178)
(0 -1.037e-06 -0.000998376)
(0 -9.1568e-07 -0.000998549)
(0 -8.08382e-07 -0.000998701)
(0 -7.13515e-07 -0.000998833)
(0 -6.29665e-07 -0.000998948)
(0 -5.55578e-07 -0.000999047)
(0 -4.90142e-07 -0.000999133)
(0 -4.3237e-07 -0.000999207)
(0 -3.81387e-07 -0.000999271)
(0 -3.36418e-07 -0.000999326)
(0 -2.96775e-07 -0.000999374)
(0 -2.61849e-07 -0.000999415)
(0 -2.31099e-07 -0.000999451)
(0 -2.04048e-07 -0.000999482)
(0 -1.80272e-07 -0.00099951)
(0 -1.59398e-07 -0.000999536)
(0 -1.41094e-07 -0.000999559)
(0 -1.2507e-07 -0.00099958)
(0 -1.11065e-07 -0.000999601)
(0 -9.88507e-08 -0.000999621)
(0 -8.82208e-08 -0.000999641)
(0 -7.89931e-08 -0.000999661)
(0 -7.10047e-08 -0.000999681)
(0 -6.41101e-08 -0.000999701)
(0 -5.81792e-08 -0.000999722)
(0 -5.30959e-08 -0.000999743)
(0 -4.87569e-08 -0.000999765)
(0 -4.50701e-08 -0.000999788)
(0 -4.19556e-08 -0.000999811)
(0 -3.93454e-08 -0.000999835)
(0 -3.71726e-08 -0.000999859)
(0 -3.53913e-08 -0.000999884)
(0 -3.39699e-08 -0.000999908)
(0 -3.28724e-08 -0.000999933)
(0 -3.21495e-08 -0.000999959)
(0 -3.17025e-08 -0.000999985)
)
;
    }
    procBoundary2to0
    {
        type            processor;
        value           nonuniform List<vector> 
180
(
(-7.44528e-10 8.78578e-11 -0.00100016)
(-1.66507e-09 2.40297e-10 -0.00100016)
(-2.73043e-09 4.30823e-10 -0.00100016)
(-3.87308e-09 6.12322e-10 -0.00100016)
(-5.08525e-09 7.95145e-10 -0.00100015)
(-6.39986e-09 9.65509e-10 -0.00100015)
(-7.84663e-09 1.11583e-09 -0.00100014)
(-9.45441e-09 1.24106e-09 -0.00100014)
(-1.12528e-08 1.33719e-09 -0.00100013)
(-1.32728e-08 1.40126e-09 -0.00100012)
(-1.55466e-08 1.43124e-09 -0.00100011)
(-1.81092e-08 1.426e-09 -0.0010001)
(-2.0997e-08 1.38565e-09 -0.0010001)
(-2.42434e-08 1.31385e-09 -0.00100009)
(-2.78945e-08 1.21032e-09 -0.00100008)
(-3.20052e-08 1.07425e-09 -0.00100007)
(-3.6637e-08 9.04757e-10 -0.00100006)
(-4.18581e-08 7.01831e-10 -0.00100006)
(-4.77444e-08 4.65692e-10 -0.00100005)
(-5.43806e-08 1.97502e-10 -0.00100004)
(-6.18619e-08 -1.00656e-10 -0.00100003)
(-7.02945e-08 -4.25362e-10 -0.00100003)
(-7.97973e-08 -7.7119e-10 -0.00100002)
(-9.05029e-08 -1.13011e-09 -0.00100001)
(-1.02559e-07 -1.49045e-09 -0.001)
(-1.1613e-07 -1.83564e-09 -0.000999996)
(-1.31398e-07 -2.14275e-09 -0.000999986)
(-1.48563e-07 -2.38066e-09 -0.000999974)
(-1.67849e-07 -2.50793e-09 -0.000999961)
(-1.89501e-07 -2.47033e-09 -0.000999945)
(-2.13788e-07 -2.19789e-09 -0.000999927)
(-2.41008e-07 -1.60153e-09 -0.000999905)
(-2.71487e-07 -5.69166e-10 -0.000999881)
(-3.05585e-07 1.03892e-09 -0.000999853)
(-3.43695e-07 3.3953e-09 -0.000999821)
(-3.86249e-07 6.71164e-09 -0.000999785)
(-4.33724e-07 1.12459e-08 -0.000999744)
(-4.86638e-07 1.73108e-08 -0.000999699)
(-5.45563e-07 2.52838e-08 -0.000999649)
(-6.11123e-07 3.56187e-08 -0.000999594)
(-6.84003e-07 4.88595e-08 -0.000999534)
(-7.64948e-07 6.56566e-08 -0.000999468)
(-8.54774e-07 8.67866e-08 -0.000999398)
(-9.54368e-07 1.13174e-07 -0.000999323)
(-1.06469e-06 1.4592e-07 -0.000999243)
(-1.1868e-06 1.86332e-07 -0.000999159)
(-1.32181e-06 2.35963e-07 -0.000999072)
(-1.47094e-06 2.96654e-07 -0.000998982)
(-1.6355e-06 3.70587e-07 -0.000998891)
(-1.81689e-06 4.60345e-07 -0.000998799)
(-2.01658e-06 5.68987e-07 -0.00099871)
(-2.23615e-06 7.00131e-07 -0.000998625)
(-2.47724e-06 8.58056e-07 -0.000998549)
(-2.74156e-06 1.04782e-06 -0.000998484)
(-3.03087e-06 1.27542e-06 -0.000998437)
(-3.34697e-06 1.54792e-06 -0.000998414)
(-3.69167e-06 1.87361e-06 -0.000998422)
(-4.06682e-06 2.26219e-06 -0.000998469)
(-4.47429e-06 2.72489e-06 -0.000998564)
(-4.916e-06 3.27464e-06 -0.000998717)
(-5.39405e-06 3.92604e-06 -0.000998933)
(-5.91098e-06 4.69505e-06 -0.000999224)
(-6.46912e-06 5.60064e-06 -0.000999616)
(-7.07017e-06 6.66588e-06 -0.00100013)
(-7.71562e-06 7.91757e-06 -0.00100081)
(-8.40659e-06 9.3868e-06 -0.00100167)
(-9.14374e-06 1.11097e-05 -0.00100275)
(-9.92701e-06 1.31279e-05 -0.0010041)
(-1.07555e-05 1.54901e-05 -0.00100576)
(-1.16271e-05 1.82522e-05 -0.00100781)
(-1.25385e-05 2.14791e-05 -0.0010103)
(-1.34847e-05 2.52458e-05 -0.00101334)
(-1.44566e-05 2.96441e-05 -0.00101704)
(-1.5442e-05 3.47799e-05 -0.00102153)
(-1.64235e-05 4.07772e-05 -0.00102727)
(-1.7376e-05 4.77811e-05 -0.00103562)
(-1.82657e-05 5.59479e-05 -0.00104277)
(-1.89839e-05 6.54297e-05 -0.00101214)
(-1.86244e-05 7.65834e-05 -0.000827439)
(-1.39154e-05 9.12848e-05 -0.00233383)
(-5.42717e-05 -0.000116109 -4.0677e-05)
(-9.89463e-05 -8.15967e-05 -0.00375073)
(-0.000107721 -0.000160109 -0.00228532)
(-0.000221158 -0.000258783 -0.00244792)
(-0.000167966 -0.000264885 -0.00315954)
(-0.000107956 -0.000118832 -0.00188833)
(-0.000128418 6.55635e-05 -0.00406457)
(-8.2874e-05 -1.89482e-05 -0.00159574)
(3.94858e-05 6.37277e-05 -0.00390919)
(-3.83673e-05 -5.01357e-05 -0.00257482)
(5.70477e-05 7.81148e-05 -0.00182692)
(0.000167094 8.68971e-05 -0.00422032)
(-2.30124e-05 0.000116762 -0.00131414)
(-0.00039452 8.27653e-05 -0.00526565)
(-0.000309758 0.000207965 0.00116074)
(-0.000115101 6.24819e-05 -0.00498251)
(-0.000322736 -5.96955e-05 -0.00308486)
(-0.000241268 -0.000103675 6.73485e-05)
(9.83032e-05 0.000248532 -0.00415118)
(0.000118511 0.00050649 -0.00136101)
(8.0148e-05 0.000766912 -0.00410803)
(0.000220134 0.000447307 0.000243451)
(0.00040359 0.00039358 -0.000771956)
(0.000268656 0.000533373 -0.00215271)
(0.000133371 -9.96164e-06 -0.00263631)
(0.000118524 -0.000100043 -0.00122167)
(8.99584e-05 -9.48058e-05 -0.0010418)
(7.52794e-05 -8.60772e-05 -0.00105019)
(6.36994e-05 -7.76215e-05 -0.00105313)
(5.39864e-05 -6.98013e-05 -0.00105038)
(4.5814e-05 -6.26378e-05 -0.0010469)
(3.89219e-05 -5.61072e-05 -0.00104338)
(3.31011e-05 -5.01772e-05 -0.00103989)
(2.81798e-05 -4.48099e-05 -0.00103649)
(2.40152e-05 -3.99654e-05 -0.00103323)
(2.04879e-05 -3.56035e-05 -0.00103016)
(1.74982e-05 -3.16846e-05 -0.00102728)
(1.49624e-05 -2.81707e-05 -0.00102461)
(1.281e-05 -2.50256e-05 -0.00102215)
(1.09811e-05 -2.22155e-05 -0.0010199)
(9.42547e-06 -1.97088e-05 -0.00101783)
(8.10067e-06 -1.74754e-05 -0.00101596)
(6.97113e-06 -1.54875e-05 -0.00101426)
(6.00692e-06 -1.372e-05 -0.00101272)
(5.18285e-06 -1.21496e-05 -0.00101134)
(4.47771e-06 -1.07555e-05 -0.00101009)
(3.87357e-06 -9.51879e-06 -0.00100898)
(3.35535e-06 -8.42231e-06 -0.00100797)
(2.91029e-06 -7.45071e-06 -0.00100708)
(2.52762e-06 -6.59019e-06 -0.00100628)
(2.19821e-06 -5.82836e-06 -0.00100557)
(1.91433e-06 -5.15418e-06 -0.00100493)
(1.66941e-06 -4.55778e-06 -0.00100437)
(1.45786e-06 -4.03032e-06 -0.00100386)
(1.27492e-06 -3.56377e-06 -0.00100342)
(1.11652e-06 -3.15114e-06 -0.00100302)
(9.79212e-07 -2.78625e-06 -0.00100267)
(8.60045e-07 -2.46362e-06 -0.00100236)
(7.56582e-07 -2.17822e-06 -0.00100208)
(6.66604e-07 -1.92566e-06 -0.00100184)
(5.88215e-07 -1.70212e-06 -0.00100162)
(5.19806e-07 -1.50426e-06 -0.00100143)
(4.60004e-07 -1.32913e-06 -0.00100126)
(4.07639e-07 -1.17414e-06 -0.0010011)
(3.61708e-07 -1.037e-06 -0.00100096)
(3.21353e-07 -9.1568e-07 -0.00100084)
(2.85837e-07 -8.08382e-07 -0.00100073)
(2.54529e-07 -7.13514e-07 -0.00100062)
(2.26886e-07 -6.29665e-07 -0.00100053)
(2.0244e-07 -5.55578e-07 -0.00100044)
(1.80789e-07 -4.90142e-07 -0.00100037)
(1.61582e-07 -4.3237e-07 -0.0010003)
(1.44518e-07 -3.81387e-07 -0.00100023)
(1.29333e-07 -3.36418e-07 -0.00100017)
(1.15799e-07 -2.96775e-07 -0.00100012)
(1.03715e-07 -2.61849e-07 -0.00100007)
(9.29084e-08 -2.31099e-07 -0.00100003)
(8.32244e-08 -2.04048e-07 -0.000999991)
(7.45294e-08 -1.80272e-07 -0.000999957)
(6.67052e-08 -1.59398e-07 -0.000999928)
(5.96489e-08 -1.41094e-07 -0.000999902)
(5.32702e-08 -1.2507e-07 -0.000999881)
(4.74914e-08 -1.11065e-07 -0.000999864)
(4.22453e-08 -9.88507e-08 -0.00099985)
(3.74752e-08 -8.82208e-08 -0.00099984)
(3.31338e-08 -7.89931e-08 -0.000999833)
(2.91824e-08 -7.10047e-08 -0.00099983)
(2.55902e-08 -6.41101e-08 -0.00099983)
(2.23331e-08 -5.81792e-08 -0.000999832)
(1.93927e-08 -5.3096e-08 -0.000999838)
(1.67554e-08 -4.87571e-08 -0.000999846)
(1.44111e-08 -4.5071e-08 -0.000999856)
(1.23523e-08 -4.1957e-08 -0.000999869)
(1.05731e-08 -3.93446e-08 -0.000999883)
(9.06919e-09 -3.71724e-08 -0.000999899)
(7.83667e-09 -3.53912e-08 -0.000999916)
(6.86707e-09 -3.39698e-08 -0.000999934)
(6.16066e-09 -3.28723e-08 -0.000999952)
(5.63441e-09 -3.21494e-08 -0.000999971)
(5.33654e-09 -3.17024e-08 -0.000999991)
)
;
    }
    procBoundary2to3
    {
        type            processor;
        value           nonuniform List<vector> 
180
(
(-1.42357e-09 -5.91202e-10 -0.0010002)
(-3.43877e-09 -1.53339e-09 -0.0010002)
(-5.75769e-09 -2.59644e-09 -0.0010002)
(-8.15546e-09 -3.67006e-09 -0.0010002)
(-1.06518e-08 -4.7714e-09 -0.0010002)
(-1.32609e-08 -5.89558e-09 -0.0010002)
(-1.60064e-08 -7.0439e-09 -0.0010002)
(-1.89161e-08 -8.22065e-09 -0.0010002)
(-2.20217e-08 -9.43171e-09 -0.00100019)
(-2.53584e-08 -1.06844e-08 -0.00100019)
(-2.89654e-08 -1.19876e-08 -0.00100019)
(-3.28865e-08 -1.33513e-08 -0.00100019)
(-3.71702e-08 -1.47876e-08 -0.00100019)
(-4.18696e-08 -1.63124e-08 -0.00100019)
(-4.70428e-08 -1.7938e-08 -0.00100019)
(-5.27546e-08 -1.96752e-08 -0.00100019)
(-5.9077e-08 -2.15353e-08 -0.0010002)
(-6.609e-08 -2.35301e-08 -0.00100021)
(-7.38815e-08 -2.56714e-08 -0.00100022)
(-8.25489e-08 -2.79708e-08 -0.00100023)
(-9.22007e-08 -3.04395e-08 -0.00100024)
(-1.02957e-07 -3.30882e-08 -0.00100026)
(-1.14954e-07 -3.59276e-08 -0.00100028)
(-1.28341e-07 -3.89678e-08 -0.0010003)
(-1.43288e-07 -4.22189e-08 -0.00100033)
(-1.59985e-07 -4.5691e-08 -0.00100036)
(-1.78649e-07 -4.93942e-08 -0.00100039)
(-1.99522e-07 -5.33394e-08 -0.00100042)
(-2.22879e-07 -5.75376e-08 -0.00100046)
(-2.49031e-07 -6.20007e-08 -0.0010005)
(-2.78332e-07 -6.67417e-08 -0.00100054)
(-3.1118e-07 -7.17741e-08 -0.00100059)
(-3.4803e-07 -7.71125e-08 -0.00100064)
(-3.89396e-07 -8.27718e-08 -0.00100069)
(-4.35858e-07 -8.87676e-08 -0.00100075)
(-4.88076e-07 -9.51147e-08 -0.00100082)
(-5.46797e-07 -1.01827e-07 -0.00100089)
(-6.12866e-07 -1.08917e-07 -0.00100097)
(-6.87239e-07 -1.16391e-07 -0.00100105)
(-7.70998e-07 -1.24255e-07 -0.00100114)
(-8.65367e-07 -1.32504e-07 -0.00100124)
(-9.71732e-07 -1.41126e-07 -0.00100136)
(-1.09166e-06 -1.50098e-07 -0.00100148)
(-1.22693e-06 -1.59382e-07 -0.00100162)
(-1.37954e-06 -1.68923e-07 -0.00100177)
(-1.55178e-06 -1.78643e-07 -0.00100193)
(-1.74621e-06 -1.88439e-07 -0.00100212)
(-1.96578e-06 -1.98176e-07 -0.00100232)
(-2.21378e-06 -2.07681e-07 -0.00100255)
(-2.49398e-06 -2.16736e-07 -0.0010028)
(-2.81065e-06 -2.25069e-07 -0.00100307)
(-3.16863e-06 -2.32339e-07 -0.00100338)
(-3.57344e-06 -2.38132e-07 -0.00100372)
(-4.03134e-06 -2.4194e-07 -0.00100409)
(-4.54946e-06 -2.43142e-07 -0.00100451)
(-5.13591e-06 -2.40992e-07 -0.00100496)
(-5.79992e-06 -2.34584e-07 -0.00100547)
(-6.55191e-06 -2.22834e-07 -0.00100603)
(-7.4037e-06 -2.04441e-07 -0.00100665)
(-8.36859e-06 -1.77851e-07 -0.00100733)
(-9.46142e-06 -1.41205e-07 -0.00100808)
(-1.06985e-05 -9.22821e-08 -0.0010089)
(-1.20984e-05 -2.83963e-08 -0.00100981)
(-1.36826e-05 5.37018e-08 -0.00101081)
(-1.54756e-05 1.57932e-07 -0.0010119)
(-1.75048e-05 2.89014e-07 -0.0010131)
(-1.98014e-05 4.52514e-07 -0.0010144)
(-2.24007e-05 6.54935e-07 -0.00101582)
(-2.53426e-05 9.03836e-07 -0.00101736)
(-2.86724e-05 1.208e-06 -0.00101905)
(-3.24414e-05 1.57756e-06 -0.00102088)
(-3.67081e-05 2.02429e-06 -0.00102286)
(-4.15413e-05 2.56181e-06 -0.00102501)
(-4.70198e-05 3.2053e-06 -0.00102734)
(-5.32365e-05 3.96935e-06 -0.00103019)
(-6.03194e-05 4.85724e-06 -0.001035)
(-6.82503e-05 5.93561e-06 -0.00103711)
(-7.70316e-05 7.22348e-06 -0.000992543)
(-8.39664e-05 1.00648e-05 -0.000750005)
(-7.92743e-05 2.1423e-05 -0.00240656)
(-0.000167622 -0.000128167 1.35568e-05)
(3.00516e-05 9.00865e-05 -0.00438889)
(-0.000289126 -0.000228007 -0.00110622)
(-0.000267312 -9.29198e-05 -0.00373656)
(-0.000302297 -1.82801e-05 -0.00262749)
(-0.000311946 -4.67013e-05 -0.0019442)
(-0.000156173 0.000244584 -0.00529632)
(3.45892e-05 -2.01029e-05 0.000747592)
(-0.000155031 0.000168185 -0.00543175)
(0.000107151 0.000191905 -0.00247056)
(0.00014663 0.000207736 -0.00175017)
(0.000245223 0.000219882 -0.00206501)
(0.000426105 0.000504328 -0.00416266)
(0.000410926 0.000603554 -0.00122437)
(0.000424429 0.000663005 -0.00349452)
(0.000312027 0.000291681 0.000208403)
(0.000294142 0.000493299 -0.00310561)
(0.000444708 0.000646684 -0.00263249)