/*--------------------------------*- C++ -*----------------------------------*\
| =========                 |                                                 |
| \\      /  F ield         | OpenFOAM: The Open Source CFD Toolbox           |
|  \\    /   O peration     | Version:  5.x                                   |
|   \\  /    A nd           | Web:      www.OpenFOAM.org                      |
|    \\/     M anipulation  |                                                 |
\*---------------------------------------------------------------------------*/
FoamFile
{
    version     2.0;
    format      ascii;
    class       volVectorField;
    location    "1000";
    object      U;
}
// * * * * * * * * * * * * * * * * * * * * * * * * * * * * * * * * * * * * * //

dimensions      [0 1 -1 0 0 0 0];

internalField   nonuniform List<vector> 
180
(
(-2.79327e-09 1.30205e-09 -0.000999877)
(-7.09606e-09 3.65076e-09 -0.000999877)
(-1.18971e-08 6.17559e-09 -0.000999877)
(-1.67636e-08 8.66512e-09 -0.000999878)
(-2.15518e-08 1.09722e-08 -0.000999879)
(-2.62668e-08 1.30729e-08 -0.00099988)
(-3.08835e-08 1.49094e-08 -0.000999881)
(-3.53868e-08 1.64312e-08 -0.000999883)
(-3.97696e-08 1.75935e-08 -0.000999884)
(-4.40342e-08 1.8358e-08 -0.000999885)
(-4.81935e-08 1.86931e-08 -0.000999886)
(-5.22712e-08 1.85745e-08 -0.000999886)
(-5.63035e-08 1.79856e-08 -0.000999886)
(-6.03391e-08 1.69196e-08 -0.000999886)
(-6.44406e-08 1.53749e-08 -0.000999885)
(-6.86855e-08 1.33572e-08 -0.000999884)
(-7.31672e-08 1.08801e-08 -0.000999882)
(-7.7996e-08 7.9654e-09 -0.000999879)
(-8.32986e-08 4.64198e-09 -0.000999875)
(-8.92196e-08 9.45708e-10 -0.00099987)
(-9.59212e-08 -3.08193e-09 -0.000999864)
(-1.03584e-07 -7.39387e-09 -0.000999857)
(-1.1241e-07 -1.19375e-08 -0.000999847)
(-1.22616e-07 -1.66583e-08 -0.000999837)
(-1.34442e-07 -2.15012e-08 -0.000999824)
(-1.48144e-07 -2.64131e-08 -0.000999809)
(-1.63998e-07 -3.13449e-08 -0.000999792)
(-1.82298e-07 -3.62535e-08 -0.000999772)
(-2.0336e-07 -4.11047e-08 -0.000999749)
(-2.27524e-07 -4.58757e-08 -0.000999723)
(-2.55153e-07 -5.05573e-08 -0.000999694)
(-2.8664e-07 -5.51569e-08 -0.000999662)
(-3.22413e-07 -5.9701e-08 -0.000999625)
(-3.62944e-07 -6.42372e-08 -0.000999585)
(-4.0877e-07 -6.88273e-08 -0.00099954)
(-4.60479e-07 -7.35467e-08 -0.00099949)
(-5.18695e-07 -7.84895e-08 -0.000999435)
(-5.84108e-07 -8.37684e-08 -0.000999374)
(-6.57488e-07 -8.95147e-08 -0.000999307)
(-7.39697e-07 -9.58773e-08 -0.000999233)
(-8.31705e-07 -1.03021e-07 -0.000999152)
(-9.34606e-07 -1.11128e-07 -0.000999063)
(-1.04964e-06 -1.20392e-07 -0.000998966)
(-1.1782e-06 -1.31021e-07 -0.000998859)
(-1.32189e-06 -1.43234e-07 -0.000998741)
(-1.48251e-06 -1.57261e-07 -0.000998612)
(-1.66212e-06 -1.73343e-07 -0.000998469)
(-1.86303e-06 -1.91731e-07 -0.000998312)
(-2.0879e-06 -2.1269e-07 -0.000998139)
(-2.33973e-06 -2.365e-07 -0.000997948)
(-2.62191e-06 -2.63459e-07 -0.000997736)
(-2.93829e-06 -2.93892e-07 -0.000997502)
(-3.29324e-06 -3.28155e-07 -0.000997244)
(-3.69169e-06 -3.66645e-07 -0.000996957)
(-4.1392e-06 -4.09814e-07 -0.000996641)
(-4.64207e-06 -4.58181e-07 -0.000996291)
(-5.20741e-06 -5.12357e-07 -0.000995905)
(-5.84324e-06 -5.73081e-07 -0.000995481)
(-6.5586e-06 -6.4125e-07 -0.000995015)
(-7.36366e-06 -7.17982e-07 -0.000994505)
(-8.26988e-06 -8.04737e-07 -0.00099395)
(-9.29007e-06 -9.03456e-07 -0.000993348)
(-1.04387e-05 -1.01644e-06 -0.000992697)
(-1.17323e-05 -1.14629e-06 -0.000991994)
(-1.31892e-05 -1.29609e-06 -0.000991238)
(-1.48299e-05 -1.46959e-06 -0.000990428)
(-1.66777e-05 -1.67128e-06 -0.000989564)
(-1.87589e-05 -1.90654e-06 -0.000988648)
(-2.1103e-05 -2.18182e-06 -0.000987683)
(-2.37435e-05 -2.50492e-06 -0.000986674)
(-2.67182e-05 -2.88517e-06 -0.000985627)
(-3.00698e-05 -3.33378e-06 -0.000984544)
(-3.38475e-05 -3.86315e-06 -0.000983417)
(-3.81066e-05 -4.48808e-06 -0.000982252)
(-4.29099e-05 -5.22547e-06 -0.000981411)
(-4.83312e-05 -6.09453e-06 -0.000982456)
(-5.44356e-05 -7.14041e-06 -0.000982571)
(-6.09094e-05 -8.56017e-06 -0.000944739)
(-6.49198e-05 -1.09108e-05 -0.000610964)
(-5.84916e-05 -8.57857e-06 -0.00202444)
(2.52724e-05 3.58547e-05 -0.00108036)
(7.71536e-05 -8.91796e-05 -0.00295867)
(9.82222e-05 2.69295e-05 -0.00225911)
(3.17864e-05 4.11874e-05 -0.00243812)
(-7.93736e-05 -6.14751e-05 -0.00261851)
(-0.000163834 -0.0001598 -0.00289877)
(-3.67567e-05 -0.000269514 -0.00132137)
(0.000101843 -0.000176294 -0.00326522)
(0.000116172 -0.000154554 -0.00231748)
(0.000139651 1.54112e-06 -0.00371736)
(2.80597e-05 0.000129713 -0.00227308)
(3.13664e-05 0.000167289 -0.00332552)
(3.04793e-05 0.00018455 -0.00226309)
(0.000132636 0.00023998 -0.00321407)
(0.000130464 0.000143004 -0.00274738)
(9.84192e-05 0.00010638 -0.00314339)
(0.000220961 5.45096e-05 -0.00301623)
(0.000358522 3.46698e-05 -0.00355562)
(0.000245185 0.000178511 -0.00271034)
(0.000103146 6.76617e-05 -0.0016092)
(-0.000128269 -8.91907e-05 -0.00309703)
(0.000103549 0.000122669 -0.000835445)
(0.000181189 0.000213711 -0.000489261)
(0.000534173 0.000142894 -0.00495834)
(0.000176924 0.000105938 -0.0022079)
(3.81866e-06 1.07866e-05 -0.00101878)
(-9.87014e-06 -6.59163e-06 -0.000984923)
(-9.8911e-06 -9.26938e-06 -0.00100328)
(-8.83418e-06 -9.88113e-06 -0.00100593)
(-7.77586e-06 -1.01269e-05 -0.00100367)
(-6.77692e-06 -1.02032e-05 -0.0010014)
(-5.85071e-06 -1.01473e-05 -0.000999633)
(-5.00602e-06 -9.98253e-06 -0.000998221)
(-4.24602e-06 -9.72954e-06 -0.000997095)
(-3.56985e-06 -9.40679e-06 -0.000996221)
(-2.97405e-06 -9.03084e-06 -0.000995566)
(-2.45351e-06 -8.61621e-06 -0.000995099)
(-2.00222e-06 -8.17548e-06 -0.000994792)
(-1.61362e-06 -7.71941e-06 -0.000994619)
(-1.28097e-06 -7.25705e-06 -0.000994557)
(-9.97689e-07 -6.79587e-06 -0.000994584)
(-7.58265e-07 -6.34156e-06 -0.000994677)
(-5.57514e-07 -5.89862e-06 -0.000994823)
(-3.906e-07 -5.4705e-06 -0.00099501)
(-2.5307e-07 -5.05979e-06 -0.000995227)
(-1.40888e-07 -4.66833e-06 -0.000995465)
(-5.04272e-08 -4.29733e-06 -0.000995715)
(2.15296e-08 -3.94746e-06 -0.000995972)
(7.78425e-08 -3.619e-06 -0.000996229)
(1.21018e-07 -3.31189e-06 -0.000996483)
(1.53253e-07 -3.02577e-06 -0.000996729)
(1.76465e-07 -2.76012e-06 -0.000996966)
(1.9232e-07 -2.51425e-06 -0.000997191)
(2.02192e-07 -2.28732e-06 -0.000997402)
(2.0704e-07 -2.07833e-06 -0.000997598)
(2.07811e-07 -1.88629e-06 -0.000997781)
(2.05385e-07 -1.71023e-06 -0.000997952)
(2.00526e-07 -1.54918e-06 -0.000998111)
(1.93867e-07 -1.40211e-06 -0.000998258)
(1.8597e-07 -1.26802e-06 -0.000998396)
(1.77295e-07 -1.14598e-06 -0.000998524)
(1.682e-07 -1.03508e-06 -0.000998645)
(1.58955e-07 -9.34448e-07 -0.000998758)
(1.49762e-07 -8.43255e-07 -0.000998865)
(1.40761e-07 -7.60709e-07 -0.000998965)
(1.32044e-07 -6.86059e-07 -0.00099906)
(1.23664e-07 -6.18597e-07 -0.000999148)
(1.15648e-07 -5.5766e-07 -0.000999231)
(1.07998e-07 -5.0263e-07 -0.000999308)
(1.00704e-07 -4.52936e-07 -0.00099938)
(9.37482e-08 -4.08051e-07 -0.000999446)
(8.71076e-08 -3.67497e-07 -0.000999506)
(8.076e-08 -3.30841e-07 -0.00099956)
(7.46862e-08 -2.97692e-07 -0.000999608)
(6.8871e-08 -2.67702e-07 -0.00099965)
(6.3305e-08 -2.40561e-07 -0.000999687)
(5.79842e-08 -2.15995e-07 -0.000999718)
(5.29104e-08 -1.93762e-07 -0.000999745)
(4.80897e-08 -1.73653e-07 -0.000999767)
(4.35319e-08 -1.55481e-07 -0.000999784)
(3.92505e-08 -1.39084e-07 -0.000999798)
(3.52604e-08 -1.24321e-07 -0.000999809)
(3.15754e-08 -1.11065e-07 -0.000999818)
(2.82067e-08 -9.92019e-08 -0.000999824)
(2.51621e-08 -8.86279e-08 -0.000999829)
(2.24457e-08 -7.92475e-08 -0.000999834)
(2.00562e-08 -7.0971e-08 -0.000999838)
(1.79873e-08 -6.37133e-08 -0.000999843)
(1.62271e-08 -5.73931e-08 -0.000999848)
(1.47584e-08 -5.19318e-08 -0.000999855)
(1.35594e-08 -4.72539e-08 -0.000999862)
(1.26036e-08 -4.32863e-08 -0.000999871)
(1.1862e-08 -3.9961e-08 -0.000999882)
(1.13047e-08 -3.72155e-08 -0.000999894)
(1.08971e-08 -3.49848e-08 -0.000999907)
(1.06102e-08 -3.32161e-08 -0.000999922)
(1.04256e-08 -3.18631e-08 -0.000999938)
(1.02556e-08 -3.08135e-08 -0.000999955)
(1.02712e-08 -3.022e-08 -0.000999972)
(1.02043e-08 -2.9784e-08 -0.000999988)
)
;

boundaryField
{
    inlet
    {
        type            zeroGradient;
    }
    outlet
    {
        type            zeroGradient;
    }
    repeat_boundary
    {
        type            slip;
    }
    procBoundary2to0
    {
        type            processor;
        value           nonuniform List<vector> 
180
(
(3.55804e-10 1.30204e-09 -0.000999926)
(1.53545e-09 3.6508e-09 -0.000999927)
(2.67747e-09 6.1756e-09 -0.000999927)
(3.71112e-09 8.66512e-09 -0.000999925)
(4.49164e-09 1.09722e-08 -0.000999923)
(4.97711e-09 1.30729e-08 -0.000999919)
(5.08844e-09 1.49094e-08 -0.000999915)
(4.75228e-09 1.64312e-08 -0.000999909)
(3.89955e-09 1.75935e-08 -0.000999903)
(2.46575e-09 1.8358e-08 -0.000999896)
(3.91093e-10 1.86931e-08 -0.000999888)
(-2.37951e-09 1.85745e-08 -0.000999879)
(-5.89542e-09 1.79856e-08 -0.00099987)
(-1.01978e-08 1.69196e-08 -0.00099986)
(-1.53279e-08 1.53749e-08 -0.00099985)
(-2.13256e-08 1.33572e-08 -0.000999839)
(-2.82276e-08 1.08801e-08 -0.000999828)
(-3.60675e-08 7.9654e-09 -0.000999817)
(-4.48775e-08 4.64198e-09 -0.000999805)
(-5.46892e-08 9.45709e-10 -0.000999793)
(-6.55362e-08 -3.08193e-09 -0.000999781)
(-7.7455e-08 -7.39387e-09 -0.000999768)
(-9.04871e-08 -1.19375e-08 -0.000999755)
(-1.04683e-07 -1.66583e-08 -0.000999741)
(-1.20103e-07 -2.15012e-08 -0.000999726)
(-1.36826e-07 -2.64131e-08 -0.00099971)
(-1.54946e-07 -3.13449e-08 -0.000999693)
(-1.74582e-07 -3.62535e-08 -0.000999674)
(-1.95878e-07 -4.11047e-08 -0.000999653)
(-2.19008e-07 -4.58757e-08 -0.000999629)
(-2.44176e-07 -5.05573e-08 -0.000999601)
(-2.71625e-07 -5.51569e-08 -0.00099957)
(-3.0163e-07 -5.9701e-08 -0.000999534)
(-3.34505e-07 -6.42372e-08 -0.000999493)
(-3.70583e-07 -6.88273e-08 -0.000999446)
(-4.10243e-07 -7.35467e-08 -0.000999393)
(-4.53939e-07 -7.84894e-08 -0.000999332)
(-5.02175e-07 -8.37683e-08 -0.000999263)
(-5.5551e-07 -8.95147e-08 -0.000999185)
(-6.14551e-07 -9.58772e-08 -0.000999098)
(-6.79965e-07 -1.03021e-07 -0.000998999)
(-7.52469e-07 -1.11128e-07 -0.000998889)
(-8.32835e-07 -1.20392e-07 -0.000998767)
(-9.21888e-07 -1.31021e-07 -0.00099863)
(-1.0205e-06 -1.43234e-07 -0.000998479)
(-1.12961e-06 -1.57261e-07 -0.000998311)
(-1.25017e-06 -1.73342e-07 -0.000998125)
(-1.38321e-06 -1.91731e-07 -0.000997919)
(-1.52978e-06 -2.1269e-07 -0.000997692)
(-1.69096e-06 -2.36499e-07 -0.000997441)
(-1.86787e-06 -2.63459e-07 -0.000997164)
(-2.06163e-06 -2.93891e-07 -0.000996857)
(-2.27339e-06 -3.28153e-07 -0.000996518)
(-2.50427e-06 -3.66643e-07 -0.000996144)
(-2.75537e-06 -4.09811e-07 -0.000995729)
(-3.02773e-06 -4.58177e-07 -0.00099527)
(-3.32231e-06 -5.12352e-07 -0.000994762)
(-3.63998e-06 -5.73073e-07 -0.000994199)
(-3.98143e-06 -6.41239e-07 -0.000993574)
(-4.34716e-06 -7.17968e-07 -0.000992881)
(-4.73742e-06 -8.04717e-07 -0.000992108)
(-5.15219e-06 -9.03427e-07 -0.000991247)
(-5.59098e-06 -1.0164e-06 -0.000990288)
(-6.05258e-06 -1.14623e-06 -0.000989222)
(-6.53526e-06 -1.29601e-06 -0.000988034)
(-7.03654e-06 -1.46948e-06 -0.000986711)
(-7.55282e-06 -1.67112e-06 -0.000985237)
(-8.07913e-06 -1.90631e-06 -0.000983594)
(-8.60885e-06 -2.18151e-06 -0.000981761)
(-9.13334e-06 -2.50448e-06 -0.000979715)
(-9.64156e-06 -2.88455e-06 -0.000977427)
(-1.01197e-05 -3.33292e-06 -0.000974871)
(-1.05502e-05 -3.86194e-06 -0.000972003)
(-1.09115e-05 -4.48635e-06 -0.000968784)
(-1.11757e-05 -5.2228e-06 -0.000965541)
(-1.13072e-05 -6.08967e-06 -0.00096363)
(-1.12634e-05 -7.12088e-06 -0.000958993)
(-1.09313e-05 -8.44353e-06 -0.000912439)
(-9.10955e-06 -1.03268e-05 -0.000645396)
(5.64863e-06 -4.87803e-06 -0.0019249)
(0.000125217 0.000133117 -0.000819622)
(3.6943e-05 -7.28146e-05 -0.00244134)
(0.000100948 3.8275e-05 -0.00188139)
(0.000127502 6.91347e-05 -0.00210266)
(5.56186e-05 0.000172359 -0.00284593)
(6.55294e-05 8.45831e-05 -0.00194468)
(9.81261e-05 4.61909e-05 -0.00311146)
(0.000123242 -0.000158956 -0.00124526)
(0.000179792 -8.01444e-05 -0.00307629)
(-1.73231e-05 -1.82808e-05 -0.00190167)
(-0.000159606 4.25421e-05 -0.00244154)
(-0.00015397 -1.63318e-06 -0.00269671)
(5.5245e-05 -4.05621e-05 -0.000836234)
(0.000268069 -5.75585e-05 -0.00316666)
(0.000300951 8.268e-05 -0.00269416)
(0.000212008 0.00013002 -0.00217021)
(0.000128623 0.00016311 -0.00214724)
(0.000116847 6.7314e-05 -0.0035067)
(0.000298912 -0.000108327 -0.00310371)
(0.000184449 -9.94832e-05 -0.0013836)
(-2.83556e-06 -2.93512e-05 -0.00317101)
(-0.000323217 0.000189269 -0.00172767)
(-4.29196e-06 0.000674949 -0.0017121)
(0.000282561 0.000442845 -0.000300148)
(0.000151084 0.000175806 -0.0024323)
(3.24602e-05 1.45111e-06 -0.0010311)
(1.33789e-05 -8.03073e-06 -0.000972473)
(1.17032e-05 -9.4098e-06 -0.000992025)
(1.12123e-05 -9.89251e-06 -0.00099958)
(1.06495e-05 -1.01261e-05 -0.00100082)
(1.00014e-05 -1.02018e-05 -0.00100141)
(9.30251e-06 -1.01461e-05 -0.00100202)
(8.58433e-06 -9.98156e-06 -0.00100256)
(7.87061e-06 -9.72875e-06 -0.001003)
(7.17807e-06 -9.40615e-06 -0.00100334)
(6.51789e-06 -9.03032e-06 -0.00100359)
(5.89714e-06 -8.61578e-06 -0.00100376)
(5.31974e-06 -8.17514e-06 -0.00100386)
(4.78722e-06 -7.71913e-06 -0.00100389)
(4.29938e-06 -7.25682e-06 -0.00100387)
(3.85486e-06 -6.79568e-06 -0.00100381)
(3.45162e-06 -6.34141e-06 -0.00100371)
(3.08716e-06 -5.89849e-06 -0.00100359)
(2.7588e-06 -5.4704e-06 -0.00100345)
(2.46376e-06 -5.05971e-06 -0.00100329)
(2.19924e-06 -4.66827e-06 -0.00100313)
(1.96254e-06 -4.29727e-06 -0.00100296)
(1.75106e-06 -3.94742e-06 -0.00100279)
(1.56236e-06 -3.61897e-06 -0.00100261)
(1.39415e-06 -3.31186e-06 -0.00100244)
(1.24433e-06 -3.02575e-06 -0.00100227)
(1.11094e-06 -2.7601e-06 -0.0010021)
(9.92198e-07 -2.51423e-06 -0.00100194)
(8.86488e-07 -2.28731e-06 -0.00100178)
(7.92338e-07 -2.07832e-06 -0.00100162)
(7.08425e-07 -1.88628e-06 -0.00100147)
(6.33565e-07 -1.71022e-06 -0.00100133)
(5.66718e-07 -1.54917e-06 -0.0010012)
(5.0698e-07 -1.4021e-06 -0.00100108)
(4.53519e-07 -1.26802e-06 -0.00100097)
(4.056e-07 -1.14598e-06 -0.00100086)
(3.62592e-07 -1.03508e-06 -0.00100077)
(3.23948e-07 -9.34447e-07 -0.00100068)
(2.89199e-07 -8.43254e-07 -0.00100061)
(2.57939e-07 -7.60708e-07 -0.00100054)
(2.29821e-07 -6.86058e-07 -0.00100048)
(2.04543e-07 -6.18597e-07 -0.00100044)
(1.81844e-07 -5.5766e-07 -0.00100039)
(1.61497e-07 -5.0263e-07 -0.00100036)
(1.43298e-07 -4.52935e-07 -0.00100033)
(1.27067e-07 -4.08051e-07 -0.0010003)
(1.12638e-07 -3.67497e-07 -0.00100028)
(9.98565e-08 -3.30841e-07 -0.00100026)
(8.85797e-08 -2.97692e-07 -0.00100024)
(7.86704e-08 -2.67702e-07 -0.00100022)
(6.99972e-08 -2.40561e-07 -0.00100021)
(6.2434e-08 -2.15995e-07 -0.00100019)
(5.5859e-08 -1.93762e-07 -0.00100017)
(5.01552e-08 -1.73653e-07 -0.00100015)
(4.52111e-08 -1.55481e-07 -0.00100013)
(4.09213e-08 -1.39084e-07 -0.00100011)
(3.71875e-08 -1.24321e-07 -0.00100009)
(3.39198e-08 -1.11065e-07 -0.00100007)
(3.10371e-08 -9.92019e-08 -0.00100005)
(2.84684e-08 -8.86279e-08 -0.00100003)
(2.61532e-08 -7.92475e-08 -0.00100001)
(2.40416e-08 -7.09709e-08 -0.000999994)
(2.20945e-08 -6.37133e-08 -0.000999979)
(2.02831e-08 -5.73931e-08 -0.000999966)
(1.85881e-08 -5.19318e-08 -0.000999956)
(1.69983e-08 -4.72541e-08 -0.000999949)
(1.55098e-08 -4.32872e-08 -0.000999944)
(1.41237e-08 -3.99622e-08 -0.000999943)
(1.28441e-08 -3.72147e-08 -0.000999944)
(1.16787e-08 -3.49846e-08 -0.000999947)
(1.06412e-08 -3.3216e-08 -0.000999953)
(9.74759e-09 -3.18631e-08 -0.000999961)
(9.08622e-09 -3.08134e-08 -0.000999971)
(8.47673e-09 -3.02199e-08 -0.000999982)
(8.18994e-09 -2.97839e-08 -0.000999994)
)
;
    }
    procBoundary2to3
    {
        type            processor;
        value           nonuniform List<vector> 
180
(
(-2.79334e-09 -1.84712e-09 -0.000999971)
(-7.09601e-09 -4.98064e-09 -0.000999973)
(-1.18971e-08 -8.39896e-09 -0.000999974)
(-1.67636e-08 -1.18096e-08 -0.000999974)
(-2.15518e-08 -1.50712e-08 -0.000999974)
(-2.62668e-08 -1.81709e-08 -0.000999974)
(-3.08835e-08 -2.10625e-08 -0.000999973)
(-3.53868e-08 -2.37078e-08 -0.000999971)
(-3.97696e-08 -2.60756e-08 -0.00099997)
(-4.40342e-08 -2.8142e-08 -0.000999969)
(-4.81935e-08 -2.98914e-08 -0.000999968)
(-5.22712e-08 -3.13172e-08 -0.000999967)
(-5.63035e-08 -3.24224e-08 -0.000999967)
(-6.03391e-08 -3.32218e-08 -0.000999968)
(-6.44406e-08 -3.37378e-08 -0.000999969)
(-6.86855e-08 -3.40027e-08 -0.000999972)
(-7.31672e-08 -3.40595e-08 -0.000999975)
(-7.7996e-08 -3.3963e-08 -0.000999981)
(-8.32986e-08 -3.37791e-08 -0.000999988)
(-8.92196e-08 -3.35847e-08 -0.000999997)
(-9.59213e-08 -3.3467e-08 -0.00100001)
(-1.03585e-07 -3.35234e-08 -0.00100002)
(-1.1241e-07 -3.38603e-08 -0.00100004)
(-1.22617e-07 -3.45922e-08 -0.00100006)
(-1.34442e-07 -3.58405e-08 -0.00100008)
(-1.48144e-07 -3.77319e-08 -0.00100011)
(-1.63998e-07 -4.03969e-08 -0.00100013)
(-1.82298e-07 -4.39692e-08 -0.00100017)
(-2.0336e-07 -4.85867e-08 -0.0010002)
(-2.27524e-07 -5.4392e-08 -0.00100024)
(-2.55153e-07 -6.15342e-08 -0.00100029)
(-2.86641e-07 -7.01725e-08 -0.00100034)
(-3.22413e-07 -8.04839e-08 -0.00100039)
(-3.62944e-07 -9.26764e-08 -0.00100045)
(-4.0877e-07 -1.07014e-07 -0.00100052)
(-4.6048e-07 -1.23783e-07 -0.00100059)
(-5.18696e-07 -1.43246e-07 -0.00100067)
(-5.84109e-07 -1.65701e-07 -0.00100077)
(-6.57489e-07 -1.91493e-07 -0.00100087)
(-7.39698e-07 -2.21023e-07 -0.00100098)
(-8.31707e-07 -2.54762e-07 -0.00100111)
(-9.34608e-07 -2.93266e-07 -0.00100125)
(-1.04964e-06 -3.37196e-07 -0.00100141)
(-1.17821e-06 -3.87337e-07 -0.00100159)
(-1.3219e-06 -4.44624e-07 -0.00100179)
(-1.48252e-06 -5.10168e-07 -0.00100202)
(-1.66212e-06 -5.85289e-07 -0.00100229)
(-1.86304e-06 -6.71554e-07 -0.00100258)
(-2.08791e-06 -7.70817e-07 -0.00100292)
(-2.33974e-06 -8.85272e-07 -0.0010033)
(-2.62193e-06 -1.0175e-06 -0.00100374)
(-2.93832e-06 -1.17056e-06 -0.00100424)
(-3.29328e-06 -1.34802e-06 -0.0010048)
(-3.69173e-06 -1.55407e-06 -0.00100544)
(-4.13925e-06 -1.79366e-06 -0.00100618)
(-4.64214e-06 -2.07255e-06 -0.00100701)
(-5.2075e-06 -2.39749e-06 -0.00100796)
(-5.84336e-06 -2.77638e-06 -0.00100904)
(-6.55875e-06 -3.21847e-06 -0.00101027)
(-7.36386e-06 -3.73456e-06 -0.00101168)
(-8.27013e-06 -4.33729e-06 -0.00101328)
(-9.2904e-06 -5.04146e-06 -0.00101512)
(-1.04392e-05 -5.86435e-06 -0.00101721)
(-1.17329e-05 -6.82623e-06 -0.0010196)
(-1.31899e-05 -7.95029e-06 -0.00102233)
(-1.48308e-05 -9.26334e-06 -0.00102545)
(-1.6679e-05 -1.07967e-05 -0.00102901)
(-1.87605e-05 -1.2587e-05 -0.00103308)
(-2.11051e-05 -1.46768e-05 -0.00103773)
(-2.37462e-05 -1.71162e-05 -0.00104306)
(-2.67217e-05 -1.99633e-05 -0.00104916)
(-3.00745e-05 -2.32859e-05 -0.00105615)
(-3.38537e-05 -2.71631e-05 -0.00106414)
(-3.81152e-05 -3.1687e-05 -0.00107329)
(-4.29259e-05 -3.69676e-05 -0.00108417)
(-4.83817e-05 -4.31473e-05 -0.00109864)
(-5.44141e-05 -5.03041e-05 -0.00111237)
(-6.08854e-05 -5.85934e-05 -0.00108155)
(-6.45747e-05 -6.70282e-05 -0.000786653)
(-5.79258e-05 -7.21517e-05 -0.00230339)
(-5.04221e-05 -2.15794e-05 -0.000856981)
(6.77258e-05 -4.4735e-05 -0.00361177)
(-4.95355e-05 -2.90789e-05 -0.00224657)
(2.31565e-05 0.000192284 -0.00325863)
(8.33621e-05 5.54546e-05 -0.00322737)
(-0.00014952 -0.000269355 0.000461917)
(-0.000116396 3.21431e-05 -0.00332809)
(0.000107409 0.000179345 0.00100362)
(3.25617e-05 0.000100261 -0.00347346)
(0.000181839 0.000229627 -0.00143633)
(0.000184781 0.000134529 -0.00387158)
(0.000305056 9.17589e-05 -0.0031624)
(0.00018584 5.00402e-05 -0.00224671)
(0.000167516 6.64879e-05 -0.00241583)
(0.000202893 5.99127e-05 -0.00357665)
(0.000139622 3.01112e-06 -0.00332978)
(3.21195e-06 4.16708e-06 -0.00322544)
(-7.03702e-05 6.19927e-05 -0.00264436)
(-9.82946e-06 0.000118713 -0.00413994)
(0.000282159 0.000301361 -0.00417007)
(0.000286978 0.000312853 -0.00318967)
(0.000407714 0.000418362 -0.00264943)
(3.20099e-05 0.000111016 -0.0011458)
(0.000282518 0.000105626 -0.00118399)
(0.000137411 0.000114947 -0.00218688)
(1.21628e-05 -1.78002e-05 -0.00091764)
(-9.04838e-06 -3.05138e-05 -0.000973729)
(-9.82651e-06 -3.09547e-05 -0.000981727)
(-8.83122e-06 -2.99361e-05 -0.000983979)
(-7.77592e-06 -2.85554e-05 -0.000983026)
(-6.77693e-06 -2.69837e-05 -0.000982145)
(-5.85071e-06 -2.53022e-05 -0.000981928)
(-5.00603e-06 -2.35742e-05 -0.000982182)
(-4.24603e-06 -2.18472e-05 -0.000982745)
(-3.56987e-06 -2.01555e-05 -0.000983515)
(-2.97406e-06 -1.85234e-05 -0.000984417)
(-2.45353e-06 -1.69673e-05 -0.000985396)
(-2.00223e-06 -1.54978e-05 -0.000986409)
(-1.61363e-06 -1.41205e-05 -0.000987422)
(-1.28098e-06 -1.28376e-05 -0.000988413)
(-9.97698e-07 -1.16486e-05 -0.000989371)
(-7.58273e-07 -1.05516e-05 -0.000990289)
(-5.57521e-07 -9.54338e-06 -0.00099116)
(-3.90606e-07 -8.61997e-06 -0.000991978)
(-2.53075e-07 -7.77667e-06 -0.000992741)
(-1.40892e-07 -7.0085e-06 -0.000993449)
(-5.04309e-08 -6.31032e-06 -0.000994101)
(2.15265e-08 -5.67701e-06 -0.000994698)
(7.78399e-08 -5.10353e-06 -0.000995243)
(1.21016e-07 -4.58503e-06 -0.000995736)
(1.53251e-07 -4.11685e-06 -0.000996182)
(1.76463e-07 -3.6946e-06 -0.000996582)
(1.92319e-07 -3.31413e-06 -0.000996939)
(2.02191e-07 -2.97162e-06 -0.00099726)
(2.07039e-07 -2.66363e-06 -0.000997547)
(2.0781e-07 -2.3869e-06 -0.000997802)
(2.05384e-07 -2.13841e-06 -0.000998029)
(2.00525e-07 -1.91537e-06 -0.000998229)
(1.93867e-07 -1.71522e-06 -0.000998407)
(1.8597e-07 -1.53557e-06 -0.000998565)
(1.77295e-07 -1.37429e-06 -0.000998705)
(1.68199e-07 -1.22947e-06 -0.000998831)
(1.58955e-07 -1.09944e-06 -0.000998945)
(1.49762e-07 -9.82692e-07 -0.000999049)
(1.40761e-07 -8.77887e-07 -0.000999144)
(1.32044e-07 -7.83836e-07 -0.000999232)
(1.23664e-07 -6.99476e-07 -0.000999314)
(1.15647e-07 -6.23857e-07 -0.000999389)
(1.07998e-07 -5.5613e-07 -0.000999459)
(1.00704e-07 -4.9553e-07 -0.000999523)
(9.37482e-08 -4.4137e-07 -0.000999582)
(8.71075e-08 -3.93027e-07 -0.000999636)
(8.076e-08 -3.49938e-07 -0.000999685)
(7.46862e-08 -3.11586e-07 -0.000999727)
(6.8871e-08 -2.77502e-07 -0.000999765)
(6.3305e-08 -2.47253e-07 -0.000999796)
(5.79842e-08 -2.20445e-07 -0.000999823)
(5.29104e-08 -1.96711e-07 -0.000999844)
(4.80896e-08 -1.75718e-07 -0.000999861)
(4.35319e-08 -1.5716e-07 -0.000999873)
(3.92505e-08 -1.40755e-07 -0.000999881)
(3.52604e-08 -1.26248e-07 -0.000999886)
(3.15754e-08 -1.1341e-07 -0.000999888)
(2.82066e-08 -1.02032e-07 -0.000999888)
(2.51621e-08 -9.19342e-08 -0.000999887)
(2.24457e-08 -8.2955e-08 -0.000999885)
(2.00562e-08 -7.49563e-08 -0.000999883)
(1.79873e-08 -6.78205e-08 -0.000999881)
(1.62271e-08 -6.14491e-08 -0.000999881)
(1.47584e-08 -5.57615e-08 -0.000999881)
(1.35595e-08 -5.06929e-08 -0.000999884)
(1.26041e-08 -4.6193e-08 -0.000999888)
(1.18629e-08 -4.2223e-08 -0.000999895)
(1.13047e-08 -3.87541e-08 -0.000999903)
(1.0897e-08 -3.57663e-08 -0.000999914)
(1.06101e-08 -3.32471e-08 -0.000999927)
(1.04255e-08 -3.11852e-08 -0.000999941)
(1.02555e-08 -2.96441e-08 -0.000999956)
(1.02711e-08 -2.84255e-08 -0.000999973)
(1.02042e-08 -2.77696e-08 -0.00099999)
)
;
    }
}


// ************************************************************************* //
