FoamFile
{version 2.0; format ascii;class Cloud<passiveParticle>; location 0;object  positions;}
353
(
( 3.01992 0.883548 0.499623 ) 0 
( 2.56373 3.50505 0.499957 ) 0 
( 1.21803 2.22337 0.499976 ) 0 
( 0.287239 2.58893 0.499976 ) 0 
( 0.155049 0.348607 0.499473 ) 0 
( 1.15432 0.377897 0.49973 ) 0 
( 4.62649 2.15781 0.499829 ) 0 
( 4.70901 3.97873 0.499832 ) 0 
( 0.84385 4.34878 0.499577 ) 0 
( 4.0589 2.98428 0.499974 ) 0 
( 1.56241 3.40943 0.49965 ) 0 
( 4.50612 0.736724 0.499675 ) 0 
( 3.11674 2.35723 0.499522 ) 0 
( 2.33593 1.61405 0.499645 ) 0 
( 0.479984 1.30556 0.499783 ) 0 
( 2.1458 2.59655 0.499975 ) 0 
( 2.44623 4.49827 0.499905 ) 0 
( 0.0744936 1.8921 1.20054 ) 0 
( 1.04475 4.31603 1.47822 ) 0 
( 3.66948 3.91152 0.499976 ) 0 
( 3.27035 3.11685 1.13086 ) 0 
( 3.84095 2.27725 1.18398 ) 0 
( 0.70716 3.49974 1.00959 ) 0 
( 3.81858 1.54874 0.49973 ) 0 
( 2.10789 0.554011 0.742841 ) 0 
( 4.20083 4.85143 0.499486 ) 0 
( 0.0178912 0.901081 1.32105 ) 0 
( 3.69752 0.148521 0.499733 ) 0 
( 1.93922 3.91924 1.27268 ) 0 
( 1.43569 1.29218 0.792465 ) 0 
( 0.660993 0.135616 1.33496 ) 0 
( 4.5261 1.45036 1.19939 ) 0 
( 1.21392 1.92948 1.53007 ) 0 
( 3.7189 0.856164 1.2138 ) 0 
( 2.21378 2.09927 1.36498 ) 0 
( 4.72836 4.94093 1.34368 ) 0 
( 0.193502 4.67961 1.85578 ) 0 
( 2.94022 4.05338 1.24663 ) 0 
( 1.55163 2.84827 1.32698 ) 0 
( 1.95357 4.90691 1.42675 ) 0 
( 3.0748 1.62005 1.17335 ) 0 
( 4.27399 3.55372 1.29335 ) 0 
( 1.43548 0.648665 1.70435 ) 0 
( 0.559693 2.6846 1.5693 ) 0 
( 3.06276 2.39949 1.79938 ) 0 
( 2.30431 1.12602 1.57533 ) 0 
( 3.84923 4.45719 1.34819 ) 0 
( 4.33259 0.478566 1.90664 ) 0 
( 1.83971 2.39611 2.24316 ) 0 
( 2.5584 4.32644 2.12944 ) 0 
( 1.07105 3.44532 1.96896 ) 0 
( 4.74397 2.67307 1.34853 ) 0 
( 2.87544 0.335601 1.34486 ) 0 
( 0.590912 1.32279 2.02366 ) 0 
( 2.42051 3.16044 1.7108 ) 0 
( 4.14092 1.69795 2.08804 ) 0 
( 0.398398 3.95085 2.50901 ) 0 
( 0.863224 0.492031 2.50906 ) 0 
( 1.58884 1.4291 2.31022 ) 0 
( 0.879422 2.19421 2.43439 ) 0 
( 3.52621 3.62455 1.95317 ) 0 
( 4.81953 4.36334 2.15432 ) 0 
( 3.20204 0.359115 2.28912 ) 0 
( 3.1995 1.34576 2.12652 ) 0 
( 1.58093 4.23468 2.31799 ) 0 
( 2.32511 0.784187 2.5147 ) 0 
( 1.80207 3.31365 2.63819 ) 0 
( 0.10819 2.8304 2.44931 ) 0 
( 4.36605 3.08088 2.1792 ) 0 
( 1.29009 2.67302 3.21024 ) 0 
( 3.69581 2.45144 2.57131 ) 0 
( 0.937741 1.39893 3.0685 ) 0 
( 2.71014 2.41584 2.73481 ) 0 
( 3.3358 1.66111 3.06663 ) 0 
( 0.109047 0.736116 3.11844 ) 0 
( 4.127 3.89719 2.70433 ) 0 
( 1.08667 4.20949 3.18668 ) 0 
( 0.0503151 1.73743 2.75593 ) 0 
( 0.540752 4.93067 2.76079 ) 0 
( 2.79847 3.4064 2.60307 ) 0 
( 3.9138 0.934083 2.69188 ) 0 
( 3.51612 4.56789 2.28421 ) 0 
( 3.02804 0.283768 3.27051 ) 0 
( 1.93332 1.91364 3.11403 ) 0 
( 0.191803 1.53155 3.72364 ) 0 
( 3.65311 4.56775 3.27449 ) 0 
( 4.67736 1.29662 3.2257 ) 0 
( 2.54019 3.04038 3.49691 ) 0 
( 0.320118 2.48447 3.36294 ) 0 
( 2.70908 4.96453 3.27769 ) 0 
( 2.24592 4.10732 3.05376 ) 0 
( 2.54691 1.15582 3.41599 ) 0 
( 4.82596 2.24183 2.93563 ) 0 
( 4.25066 3.0238 3.17484 ) 0 
( 4.71565 4.43704 3.30566 ) 0 
( 1.58948 0.648585 3.17831 ) 0 
( 3.42658 2.57813 3.52554 ) 0 
( 1.66519 3.51159 3.60845 ) 0 
( 4.22057 2.73148 4.13041 ) 0 
( 1.76483 4.9877 2.94962 ) 0 
( 2.69917 3.91399 3.95647 ) 0 
( 0.110142 4.40159 3.49167 ) 0 
( 1.68832 1.33907 3.8946 ) 0 
( 3.43221 3.58994 3.35432 ) 0 
( 0.823982 0.192165 3.63158 ) 0 
( 0.672512 3.39269 3.58763 ) 0 
( 3.67814 0.935477 3.66326 ) 0 
( 4.492 3.6663 3.90204 ) 0 
( 2.61665 2.07468 3.82596 ) 0 
( 4.54478 0.232453 3.02234 ) 0 
( 1.62842 4.43178 3.99774 ) 0 
( 2.55114 1.26558 4.40981 ) 0 
( 0.158947 2.19236 4.47315 ) 0 
( 1.00702 2.06807 3.9583 ) 0 
( 0.704798 4.7449 4.21857 ) 0 
( 3.18536 4.76918 4.1346 ) 0 
( 3.06359 0.420206 4.26008 ) 0 
( 1.82328 2.63565 4.06432 ) 0 
( 1.5835 0.409481 4.24725 ) 0 
( 4.16989 4.58499 4.13016 ) 0 
( 4.17806 1.74616 3.96685 ) 0 
( 0.708794 0.129191 4.64227 ) 0 
( 0.940035 2.94225 4.43913 ) 0 
( 3.42956 2.21412 4.45661 ) 0 
( 0.220651 3.87792 4.33605 ) 0 
( 1.98859 3.5429 4.55384 ) 0 
( 3.34849 3.22694 4.28207 ) 0 
( 1.82431 1.87382 4.72827 ) 0 
( 4.83062 0.390771 3.96722 ) 0 
( 4.29848 3.37456 4.8919 ) 0 
( 0.83272 1.07359 4.33873 ) 0 
( 3.53429 1.23127 4.60739 ) 0 
( 0.076104 3.08146 4.92284 ) 0 
( 3.53324 4.07998 4.76967 ) 0 
( 2.57734 2.66581 4.72026 ) 0 
( 2.88882 1.79683 5.18672 ) 0 
( 2.31788 0.437132 4.92545 ) 0 
( 4.91251 2.08426 4.55494 ) 0 
( 4.97167 3.60477 5.59441 ) 0 
( 0.311899 2.38749 5.60271 ) 0 
( 2.47808 0.205644 5.88463 ) 0 
( 1.49875 0.989006 5.07919 ) 0 
( 3.0891 0.844104 5.41453 ) 0 
( 3.49251 2.87309 5.2059 ) 0 
( 1.66081 2.78191 5.11313 ) 0 
( 1.12258 4.00274 4.74924 ) 0 
( 3.28084 4.67208 5.53486 ) 0 
( 0.877605 1.78672 5.03813 ) 0 
( 0.500575 0.884984 5.26277 ) 0 
( 3.9245 0.293675 4.75248 ) 0 
( 2.56516 4.26182 4.94176 ) 0 
( 0.298303 4.20632 5.27726 ) 0 
( 4.77179 4.25469 4.86143 ) 0 
( 4.52078 1.0942 4.69628 ) 0 
( 1.19238 0.614599 5.95421 ) 0 
( 4.10845 1.90046 5.1203 ) 0 
( 2.63736 3.31279 5.48027 ) 0 
( 2.03434 1.59622 5.6656 ) 0 
( 0.401792 1.49659 6.04746 ) 0 
( 0.138253 4.63709 6.16523 ) 0 
( 4.37681 2.73006 5.65235 ) 0 
( 3.33628 0.710866 6.374 ) 0 
( 3.65244 0.0586973 5.68528 ) 0 
( 4.19264 4.97026 6.04468 ) 0 
( 0.668041 3.36059 5.67852 ) 0 
( 1.71707 3.70328 5.50266 ) 0 
( 4.10156 4.97236 5.04917 ) 0 
( 2.94681 2.46356 5.93663 ) 0 
( 4.10596 0.945061 5.59359 ) 0 
( 1.03743 4.22545 6.01774 ) 0 
( 1.98227 2.69838 6.0559 ) 0 
( 2.38028 0.80203 6.68109 ) 0 
( 4.09272 4.08127 5.59806 ) 0 
( 4.69235 1.82221 5.92823 ) 0 
( 1.86145 4.67879 5.67858 ) 0 
( 3.58377 3.36321 6.07245 ) 0 
( 1.56217 1.35299 6.51798 ) 0 
( 1.20387 2.08278 5.93601 ) 0 
( 3.4823 1.62076 5.98611 ) 0 
( 1.77618 3.655 6.49964 ) 0 
( 4.72046 4.18497 6.36921 ) 0 
( 3.01199 0.201422 7.17066 ) 0 
( 2.61346 4.13439 6.04967 ) 0 
( 3.67812 4.25426 6.51603 ) 0 
( 0.332969 3.78336 6.64781 ) 0 
( 3.81555 2.45163 6.4317 ) 0 
( 0.919801 2.02121 6.89269 ) 0 
( 4.45077 3.23703 6.55404 ) 0 
( 0.266261 0.528872 6.37069 ) 0 
( 4.59098 0.684356 6.42818 ) 0 
( 2.42067 1.87059 6.54587 ) 0 
( 1.40152 0.450793 6.91818 ) 0 
( 2.68888 3.24638 6.50262 ) 0 
( 3.09641 1.36995 7.08657 ) 0 
( 4.13303 1.51731 6.73822 ) 0 
( 4.82465 2.23368 6.82996 ) 0 
( 1.08064 2.91679 6.47373 ) 0 
( 4.81537 1.0492 7.39565 ) 0 
( 0.94636 4.50244 6.97411 ) 0 
( 4.29364 3.94613 7.24127 ) 0 
( 3.38322 3.01875 7.18486 ) 0 
( 0.535738 0.222566 7.36338 ) 0 
( 3.92887 0.642008 7.17638 ) 0 
( 0.38074 1.19087 7.11125 ) 0 
( 2.00182 1.60406 7.41374 ) 0 
( 0.589961 2.85095 7.34248 ) 0 
( 4.32803 2.86887 7.47538 ) 0 
( 2.85227 4.06824 7.04803 ) 0 
( 1.80794 2.50267 7.02068 ) 0 
( 3.69312 2.09834 7.42273 ) 0 
( 0.072033 0.894306 8.03733 ) 0 
( 1.78295 0.867044 8.05281 ) 0 
( 1.23311 3.61654 7.33835 ) 0 
( 4.53874 0.125263 7.97897 ) 0 
( 3.75116 3.52049 7.96758 ) 0 
( 2.71357 2.307 7.39642 ) 0 
( 4.59477 1.94997 7.82875 ) 0 
( 1.94453 4.48712 7.03139 ) 0 
( 3.62752 1.23499 7.92294 ) 0 
( 0.292075 3.7557 7.64648 ) 0 
( 0.921824 4.59155 7.9697 ) 0 
( 4.12782 4.9314 7.20063 ) 0 
( 4.20323 4.39751 8.12888 ) 0 
( 1.06429 1.53537 7.75465 ) 0 
( 2.76157 0.664619 8.02054 ) 0 
( 2.70885 1.65417 8.15368 ) 0 
( 1.68337 3.46089 8.21742 ) 0 
( 4.51383 1.05383 8.34901 ) 0 
( 3.44222 2.29868 8.3696 ) 0 
( 0.103187 2.92572 8.21263 ) 0 
( 4.68319 2.76315 8.40395 ) 0 
( 3.24795 4.76537 7.64581 ) 0 
( 2.87018 3.05372 8.04258 ) 0 
( 2.34559 4.18743 7.90168 ) 0 
( 1.67787 4.37533 8.62182 ) 0 
( 1.22934 0.0345999 8.06175 ) 0 
( 2.19808 3.35579 7.3667 ) 0 
( 4.89145 3.65174 7.98674 ) 0 
( 1.29944 3.35761 9.13487 ) 0 
( 3.39607 4.14202 8.66569 ) 0 
( 3.96935 0.0472211 8.79708 ) 0 
( 3.05038 2.97886 9.02322 ) 0 
( 0.82539 0.718462 8.67074 ) 0 
( 3.6464 1.23508 8.92262 ) 0 
( 4.37343 1.91605 8.83543 ) 0 
( 2.45082 3.74492 8.79208 ) 0 
( 1.6671 1.74043 8.52569 ) 0 
( 4.67221 3.79671 8.95138 ) 0 
( 1.36063 2.56491 7.91269 ) 0 
( 0.207103 1.48985 8.82907 ) 0 
( 0.751174 2.31235 8.66398 ) 0 
( 2.13434 0.0376738 8.48707 ) 0 
( 0.260815 4.97539 8.98769 ) 0 
( 2.12402 2.62935 8.55539 ) 0 
( 2.65269 4.80934 8.6218 ) 0 
( 1.06651 1.46479 9.33961 ) 0 
( 0.332673 3.10437 9.16935 ) 0 
( 4.0436 3.03796 9.1216 ) 0 
( 0.63164 3.85814 8.58418 ) 0 
( 4.39256 0.745697 9.37388 ) 0 
( 4.14786 4.63417 9.10434 ) 0 
( 2.22479 4.45878 9.45478 ) 0 
( 2.65483 1.2138 9.04978 ) 0 
( 1.74783 0.792935 9.04929 ) 0 
( 1.51905 2.35573 9.30307 ) 0 
( 3.00582 0.287407 8.91365 ) 0 
( 2.18224 3.07503 9.50978 ) 0 
( 2.26138 0.0992058 9.55402 ) 0 
( 3.23323 4.86795 9.43378 ) 0 
( 3.46558 2.99613 9.93641 ) 0 
( 1.17703 0.386406 9.76256 ) 0 
( 0.173542 4.0893 9.44274 ) 0 
( 3.0787 3.8399 9.56451 ) 0 
( 0.441285 2.19877 9.60782 ) 0 
( 1.03922 2.90462 9.9875 ) 0 
( 1.76162 3.80305 10.0509 ) 0 
( 0.296863 0.817061 9.56323 ) 0 
( 3.82939 1.38801 9.89367 ) 0 
( 3.56408 2.18807 9.35579 ) 0 
( 3.30216 0.383507 9.86379 ) 0 
( 1.98571 1.46115 9.75408 ) 0 
( 2.56291 2.16582 9.34148 ) 0 
( 4.89772 4.4459 9.73838 ) 0 
( 1.07902 4.51235 9.41077 ) 0 
( 2.02821 2.35957 10.191 ) 0 
( 1.84756 0.712799 10.4286 ) 0 
( 4.52167 2.38324 9.70696 ) 0 
( 2.60999 4.23734 10.3534 ) 0 
( 0.795684 3.99821 10.2202 ) 0 
( 4.18634 0.567364 10.3397 ) 0 
( 0.304179 0.155565 10.313 ) 0 
( 3.89817 4.23345 9.9858 ) 0 
( 1.14845 1.88708 10.2423 ) 0 
( 3.08218 2.00534 10.2126 ) 0 
( 4.39305 3.36469 9.99961 ) 0 
( 2.59847 0.0557615 10.4944 ) 0 
( 2.76708 2.86255 10.6393 ) 0 
( 4.13973 1.54791 10.8307 ) 0 
( 0.863198 0.967775 10.5131 ) 0 
( 0.701658 4.609 11.0238 ) 0 
( 4.9892 1.78934 10.3616 ) 0 
( 2.33184 1.54776 10.6896 ) 0 
( 3.36977 3.66933 10.6695 ) 0 
( 2.14449 3.58164 10.9478 ) 0 
( 4.05636 2.51297 10.5825 ) 0 
( 0.116169 1.61207 10.3494 ) 0 
( 3.19817 1.05739 10.5952 ) 0 
( 1.50215 2.81624 10.9084 ) 0 
( 4.76756 4.0347 10.6405 ) 0 
( 0.594755 3.2282 10.8257 ) 0 
( 1.65961 4.98026 10.0939 ) 0 
( 1.76265 0.216978 11.2928 ) 0 
( 0.564685 2.3484 11.3154 ) 0 
( 0.197634 1.13992 11.2392 ) 0 
( 1.24055 1.61958 11.2014 ) 0 
( 3.68986 0.907291 11.4529 ) 0 
( 2.79697 4.389 11.3239 ) 0 
( 2.68278 0.60724 11.3243 ) 0 
( 3.49881 2.89362 11.3201 ) 0 
( 0.766269 0.26517 11.218 ) 0 
( 4.78871 2.17546 11.2619 ) 0 
( 1.51121 4.18615 11.4309 ) 0 
( 3.91912 4.44902 10.9698 ) 0 
( 3.14404 1.85269 11.1989 ) 0 
( 2.26961 2.32283 11.3184 ) 0 
( 4.64688 0.145172 11.1205 ) 0 
( 3.51056 0.0917708 10.9027 ) 0 
( 0.211351 0.298761 12.0492 ) 0 
( 4.94943 3.33327 11.3296 ) 0 
( 1.41678 2.37125 11.8382 ) 0 
( 0.420339 4.86426 11.9488 ) 0 
( 2.97924 2.40138 12.0185 ) 0 
( 1.10398 3.30822 11.6826 ) 0 
( 1.24945 0.864142 11.8565 ) 0 
( 3.72552 3.79137 11.6978 ) 0 
( 2.09774 1.35335 11.6422 ) 0 
( 2.13451 4.73419 11.9887 ) 0 
( 3.01192 1.33992 12.0472 ) 0 
( 3.96329 1.92487 11.7677 ) 0 
( 3.25455 0.054492 11.9306 ) 0 
( 4.50096 1.11433 11.9999 ) 0 
( 1.10325 2.92802 12.6074 ) 0 
( 4.1301 4.80405 12.361 ) 0 
( 1.55898 0.220852 12.5568 ) 0 
( 4.8553 2.01623 12.2469 ) 0 
( 2.77955 3.46745 11.7117 ) 0 
( 3.76992 2.39165 12.6307 ) 0 
( 0.686426 0.910559 12.6816 ) 0 
( 4.64818 4.16994 11.787 ) 0 
( 4.44664 0.153255 12.2707 ) 0 
( 0.531421 2.16444 12.9073 ) 0 
( 0.710629 1.68432 12.0486 ) 0 
( 4.29558 2.86472 11.9237 ) 0 
)
