# vtk DataFile Version 4.0
Generated by LIGGGHTS
ASCII
DATASET POLYDATA
POINTS 225 float
-4436.23 -4943.29 499.666 -3820.07 -4046.9 499.611 -2837.97 -4178.27 651.269 
-1862.98 -4009.25 499.348 -591.511 -4428.57 640.765 558.584 -4435.67 499.696 
1570.9 -4559.27 499.729 2764.1 -4825.98 498.676 3639.23 -4825.59 981.076 
4716.48 -4407.59 499.809 -4093.8 -3085.31 499.574 -2648.07 -3197.21 499.55 
-997.344 -3513.3 586.44 102.104 -3570.28 712.357 2048.82 -3620.88 515.746 
3050.79 -3850.04 505.34 4911.88 -3193.58 499.058 4035.25 -3673.98 519.596 
-4607.03 -2227.39 500.318 -3511.22 -2272.75 499.632 -2513.51 -2206.5 499.703 
-1718.4 -2815.84 499.055 -408.829 -2663.1 499.699 928.991 -2991.87 499.051 
1367.74 -2012.38 499.71 2156.12 -2625.8 499.852 3319.96 -2871.94 502.043 
4386.96 -2340.2 499.7 -4468.79 -1118.03 499.732 -3338.78 -1245.11 499.58 
-2346.18 -1135.45 543.55 -1599.96 -1800.25 499.59 -604.127 -1682.36 499.58 
374.75 -1891.81 500.517 2377.54 -1653.42 500.14 3361.78 -1864.58 543.968 
4219.24 -1280.31 504.957 -4156.46 -116.72 499.724 -3167.57 -259.805 499.864 
-2173.28 -148.784 499.146 -1381.92 -792.593 499.696 -142 -762.915 500.259 
1049.84 -870.774 496.814 2029.15 -649.055 499.662 3039.75 -907.111 498.731 
3874.92 -335.274 498.958 4874.02 -361.386 500.309 -4845.36 620.899 748.552 
-3439.87 704.322 761.086 -2474.48 806.357 499.683 -1237.15 219.868 500.275 
-222.292 249.087 545.531 966.475 132.242 532.646 1986.89 349.526 525.887 
3245.25 825.261 496.262 4155.36 491.717 985.278 -4166.73 1371.56 499.699 
-3173.23 1718.92 499.699 -1540.04 1172.82 505.975 349.929 1077.45 499.686 
1350.91 1133.47 499.703 2259.77 1550.62 499.689 3197.04 1907.99 499.621 
4434.59 1489.45 499.861 -3931.4 2378.07 499.698 -4924.51 2257.21 499.706 
-2280.32 2182.97 499.694 -1176.65 2104.98 499.509 -1518.56 3044.59 500.772 
-534.466 2871.01 499.765 99.366 2046.28 501.279 713.973 2836.45 499.689 
1480.08 2180.74 499.825 2395.88 2583.53 834.261 4093.29 2453.11 519.161 
-4486.72 3246.03 808.106 -3493.92 3278.42 499.345 -2504.11 3228.2 626.691 
-813.833 3830.1 499.722 204.264 3697.77 508.103 1254.85 3681.48 499.684 
2284.48 3519.63 499.663 3510.27 3331.13 500.441 4461.48 3339.4 865.199 
-3985.48 4163.97 499.7 -3423.82 -4975.36 499.714 -2926.53 4158.1 586.383 
-2214.15 -4945.04 500.042 -1880.16 4005.33 549.543 -1240.91 4820.87 499.707 
-213.51 4623.24 705.235 770.126 4556.67 499.679 2036.96 4491.13 554.833 
3033.91 4211.26 499.712 4012.26 4228.9 710.353 4986.45 4164.97 498.855 
-65.495 -4174.5 1839.53 457.906 4959.61 1368.74 1469.82 -3893.34 1282.45 
2465.91 -4100.26 1294.88 -4650.04 -3404.62 2113.48 -4624.06 -3877.52 1069.17 
-3423.31 -3223.33 1228.28 -2476.61 -3457.12 1449.47 -593.915 -3284.27 1528.81 
3432.42 -3862.55 1478.4 -4031.17 -2436.82 1796.4 -925.974 -2188.36 1309.04 
1563.88 -2898.24 1264.53 2290.36 -2187.07 1610.87 3898.81 -2285.42 1481.1 
-4881.17 -2731.12 1360.33 -3958.36 -1669.39 1159.59 -1424.06 -1318.42 1357.72 
-57.8723 -1297.55 1342.88 2002.48 -1131.39 1614.77 4933.61 -1607.25 1136.08 
-4111.91 -680.735 1325.04 -750.436 -342.652 1173.11 4788.06 -300.795 1704.45 
2803.53 -62.1825 976.118 2564.08 879.398 1220.83 2778.82 52.0129 2071.3 
-3935.05 2013.41 1533.84 -2197.14 1472.58 1198.32 852.742 1791.49 1175.22 
1220.27 1017.49 2608.1 3711.54 1400.37 1187.82 -2175.4 2836.29 2127.21 
-1197.28 3064.36 1453.7 3303.78 2634.34 1252 53.0564 3037.01 1291.41 
-2222.88 4622.09 1452.21 -433.35 4923.95 2735.51 1354.67 4398.48 1295.81 
802.939 -4417.74 2331.72 4877.53 4908.16 1211.12 3291.1 -2688.33 2338.76 
-537.525 -976.346 2405.4 589.689 -2666.44 1453.91 3676.34 -1160.46 1355.79 
-3093.49 508.575 1795.89 -1424.24 3386.56 2644.68 1046.6 2700.09 1647.39 
2181.79 4944.54 1443.41 -169.266 -3131.03 3017.46 264.902 341.356 1503.69 
2664.51 1653.31 1844.48 -1470.14 4298.03 2230.52 -4126.51 541.928 1850.76 
-3935.3 3368.49 1829.16 -261.211 -1935.8 2086.07 4273.8 -3954.8 2174.75 
466.141 3908.06 1568.46 -3451.25 4367.95 1756.58 1330.04 -422.62 1334.11 
4256.47 1720.04 1944.83 2223.11 4299.84 2212.28 2509.34 1042.61 2706.38 
-3909.32 2154.08 2688.26 -1790.43 -1193.46 2991.88 4087.52 -1836.08 2905.08 
-2761.69 -4094.94 4366.86 -4467.03 -2971.79 4598.6 -4456.48 -1134.02 4741.23 
-3065.18 916.609 4850.5 -2165.52 320.514 4812.26 -1591.49 3896.9 20469.9 
321.323 3987.97 20468.3 3444.31 2394.01 20363.4 -2616.24 3860.97 20430.1 
-4447.98 3932.49 20363.1 -4263.29 2086.49 20388 4190.04 1086.34 20302.3 
-468.886 2456.36 20447.4 1149.57 2969.42 20259.3 -1481.5 2739.57 20499.6 
488.311 2100.47 20417.9 -2021.88 1830.86 20460.1 -3226.88 1848.49 20344.8 
-3223.68 -2742.82 5267.44 2718.83 698.936 20336 541.022 363.847 20248.1 
-2261.44 758.896 20446.4 3559.4 -878.239 5879.37 -331.266 3241.33 5593.68 
-1613.51 2670.03 6897.42 2390.76 -351.179 8870.8 -4005.62 4444.49 12481.5 
-402.178 4337.79 12296 1615.67 -1165.72 16345.6 -3887.2 -3853.82 20218.8 
3042.39 -3566.87 20071.8 4382.57 -3974.93 20153.8 -1189.8 -2891.25 20222.6 
1837.92 -2359.78 20196.5 -3673.89 -1509.24 20148.4 -1318.71 -274.876 19708.6 
-3719.15 248.322 20229.6 -450.857 840.542 19996 1565.87 332.375 20215.6 
1714.39 1311.08 20054.7 -2434.57 2659.88 20067 2261.69 2671.47 20216.1 
4388.29 2823.62 19624.8 -3335.09 3117.67 20226.7 1702.73 3790.95 19780.7 
3873.3 3990.44 20072.9 2842.94 4120.85 20144.7 2221.41 -4347.5 20366.8 
-2056.26 -3729.6 20464.8 -647.538 -3703.93 20456.4 1082.92 -3799.61 20393.8 
-4456.54 -2432.35 20405.2 -2488.52 -2707.49 20350.8 256.154 -2627.01 20306.4 
3914.78 -2298.97 20350.5 -1037.87 -1837.58 20382.1 183.898 -1102.74 20251.9 
2822.88 -1085.92 20477.8 -4244.17 -645.625 20407.7 -2473.34 -762.598 20334.5 
-349.201 -175.187 20386.9 1080.36 -645.759 20429.8 4063.9 -528.376 20297.8 

VERTICES 225 450
1 0 
1 1 
1 2 
1 3 
1 4 
1 5 
1 6 
1 7 
1 8 
1 9 
1 10 
1 11 
1 12 
1 13 
1 14 
1 15 
1 16 
1 17 
1 18 
1 19 
1 20 
1 21 
1 22 
1 23 
1 24 
1 25 
1 26 
1 27 
1 28 
1 29 
1 30 
1 31 
1 32 
1 33 
1 34 
1 35 
1 36 
1 37 
1 38 
1 39 
1 40 
1 41 
1 42 
1 43 
1 44 
1 45 
1 46 
1 47 
1 48 
1 49 
1 50 
1 51 
1 52 
1 53 
1 54 
1 55 
1 56 
1 57 
1 58 
1 59 
1 60 
1 61 
1 62 
1 63 
1 64 
1 65 
1 66 
1 67 
1 68 
1 69 
1 70 
1 71 
1 72 
1 73 
1 74 
1 75 
1 76 
1 77 
1 78 
1 79 
1 80 
1 81 
1 82 
1 83 
1 84 
1 85 
1 86 
1 87 
1 88 
1 89 
1 90 
1 91 
1 92 
1 93 
1 94 
1 95 
1 96 
1 97 
1 98 
1 99 
1 100 
1 101 
1 102 
1 103 
1 104 
1 105 
1 106 
1 107 
1 108 
1 109 
1 110 
1 111 
1 112 
1 113 
1 114 
1 115 
1 116 
1 117 
1 118 
1 119 
1 120 
1 121 
1 122 
1 123 
1 124 
1 125 
1 126 
1 127 
1 128 
1 129 
1 130 
1 131 
1 132 
1 133 
1 134 
1 135 
1 136 
1 137 
1 138 
1 139 
1 140 
1 141 
1 142 
1 143 
1 144 
1 145 
1 146 
1 147 
1 148 
1 149 
1 150 
1 151 
1 152 
1 153 
1 154 
1 155 
1 156 
1 157 
1 158 
1 159 
1 160 
1 161 
1 162 
1 163 
1 164 
1 165 
1 166 
1 167 
1 168 
1 169 
1 170 
1 171 
1 172 
1 173 
1 174 
1 175 
1 176 
1 177 
1 178 
1 179 
1 180 
1 181 
1 182 
1 183 
1 184 
1 185 
1 186 
1 187 
1 188 
1 189 
1 190 
1 191 
1 192 
1 193 
1 194 
1 195 
1 196 
1 197 
1 198 
1 199 
1 200 
1 201 
1 202 
1 203 
1 204 
1 205 
1 206 
1 207 
1 208 
1 209 
1 210 
1 211 
1 212 
1 213 
1 214 
1 215 
1 216 
1 217 
1 218 
1 219 
1 220 
1 221 
1 222 
1 223 
1 224 

POINT_DATA 225
FIELD FieldData 7
id 1 225 int
72 12 94 7 11 80 109 30 100 
48 102 89 79 97 90 82 49 91 
36 60 78 18 16 81 26 31 51 
14 27 98 15 45 104 28 22 87 
29 54 37 59 19 1 96 2 4 
43 84 33 92 21 88 42 55 66 
46 77 73 20 110 40 53 23 35 
105 8 52 61 25 75 34 13 58 
6 85 47 63 57 32 65 93 39 
83 67 41 9 38 113 17 3 56 
50 24 166 44 5 10 95 162 125 
99 164 107 124 133 149 150 168 157 
155 145 86 147 101 134 165 136 62 
123 70 118 108 112 158 151 69 111 
142 114 76 71 68 74 103 141 64 
132 106 161 115 148 140 126 120 117 
135 153 131 143 139 171 144 121 137 
167 138 130 129 116 152 119 128 160 
146 170 156 127 169 188 201 178 221 
223 208 211 184 189 219 200 198 175 
163 191 217 213 159 122 154 172 214 
183 210 185 179 206 194 197 193 218 
207 182 177 174 222 205 215 196 192 
180 216 203 199 190 202 220 176 195 
173 181 187 204 224 209 212 225 186 

type 1 225 int
1 1 1 1 1 1 1 1 1 
1 1 1 1 1 1 1 1 1 
1 1 1 1 1 1 1 1 1 
1 1 1 1 1 1 1 1 1 
1 1 1 1 1 1 1 1 1 
1 1 1 1 1 1 1 1 1 
1 1 1 1 1 1 1 1 1 
1 1 1 1 1 1 1 1 1 
1 1 1 1 1 1 1 1 1 
1 1 1 1 1 1 1 1 1 
1 1 1 1 1 1 1 1 1 
1 1 1 1 1 1 1 1 1 
1 1 1 1 1 1 1 1 1 
1 1 1 1 1 1 1 1 1 
1 1 1 1 1 1 1 1 1 
1 1 1 1 1 1 1 1 1 
1 1 1 1 1 1 1 1 1 
1 1 1 1 1 1 1 1 1 
1 1 1 1 1 1 1 1 1 
1 1 1 1 1 1 1 1 1 
1 1 1 1 1 1 1 1 1 
1 1 1 1 1 1 1 1 1 
1 1 1 1 1 1 1 1 1 
1 1 1 1 1 1 1 1 1 
1 1 1 1 1 1 1 1 1 

i 3 225 int
0 1 0 0 0 0 0 1 0 
0 0 0 0 0 0 0 1 0 
0 0 0 0 1 0 0 0 0 
-1 0 0 0 0 0 0 0 0 
0 0 0 0 0 0 0 0 0 
0 0 0 -1 0 0 0 0 0 
1 1 0 0 0 0 0 0 0 
0 0 0 0 0 0 0 1 0 
0 0 0 0 0 0 0 0 0 
0 0 0 0 0 0 0 0 0 
0 0 0 0 0 0 0 0 0 
0 0 0 0 0 0 -1 0 0 
0 0 0 0 0 0 0 0 0 
0 0 0 0 0 0 0 0 0 
0 0 0 0 0 0 0 0 0 
0 0 0 0 0 0 0 0 0 
0 0 0 0 0 0 0 0 0 
0 0 0 0 0 0 0 0 0 
0 0 0 0 0 0 0 -1 0 
1 -1 0 0 0 0 0 0 0 
0 0 0 0 0 0 0 0 0 
-1 0 0 0 0 0 0 0 0 
0 0 0 0 0 0 0 0 0 
0 0 0 0 0 0 0 0 0 
0 0 0 0 0 0 0 0 0 
1 -1 0 0 0 0 0 0 0 
0 -1 0 0 0 0 0 0 0 
0 0 0 0 0 0 0 0 0 
0 0 0 1 1 0 0 -1 0 
0 0 0 0 -1 0 0 -1 0 
0 -1 0 0 -1 0 0 0 0 
0 0 0 0 0 0 0 0 0 
0 0 0 0 -1 0 0 0 0 
-1 1 0 1 0 0 0 0 0 
0 0 0 0 0 0 0 0 0 
0 1 0 0 0 0 0 0 0 
0 0 0 0 0 0 0 0 0 
1 1 0 0 0 0 0 0 0 
0 0 0 0 0 0 -1 0 0 
1 0 0 0 0 0 0 0 0 
0 0 0 -1 0 0 0 0 0 
0 0 0 0 0 0 -1 0 0 
0 0 0 0 0 0 0 0 0 
0 0 0 0 0 0 0 -1 0 
0 -1 0 0 0 0 0 0 0 
0 1 0 -1 0 0 0 0 0 
0 0 0 0 0 0 -1 0 0 
0 0 0 0 0 0 0 0 0 
0 0 0 0 0 0 0 0 0 
0 0 0 0 0 0 0 0 0 
0 0 0 0 0 0 0 0 0 
0 0 0 0 0 0 0 0 0 
0 0 0 0 0 0 0 0 0 
0 0 0 0 0 0 0 0 0 
0 0 0 0 0 0 0 0 0 
0 0 0 0 0 0 0 0 0 
0 0 0 0 0 0 0 0 0 
0 0 0 0 0 0 0 0 0 
0 0 0 0 0 0 0 0 0 
0 0 0 0 0 0 0 0 0 
0 0 0 0 0 0 0 0 0 
0 0 0 0 0 0 0 0 0 
0 0 0 0 0 0 0 0 0 
0 0 0 0 0 0 0 0 0 
0 0 0 0 0 0 0 0 0 
0 0 0 0 0 0 0 0 0 
0 0 0 0 0 0 0 0 0 
0 0 0 0 0 0 0 0 0 
0 0 0 0 0 0 0 0 0 
0 0 0 0 0 0 0 0 0 
0 0 0 0 0 0 0 0 0 
0 0 0 0 0 0 0 0 0 
0 0 0 0 0 0 0 0 0 
0 0 0 0 0 0 0 0 0 
0 0 0 0 0 0 0 0 0 

v 3 225 double
0.0106408 0.00237997 -0.000830187 -0.00486174 -0.00420691 -0.000269132 -0.0021782 0.0106287 -0.00561674 
0.00361574 0.0079866 0.000608146 -0.00938473 -0.00363108 -0.00310968 0.0120552 0.00575099 2.40221e-05 
-0.0104842 0.00405743 0.000208886 0.0182226 0.00113061 0.00653845 0.00903676 -0.00312499 0.0316546 
-3.3004e-05 -0.00425881 0.00118408 0.00246761 -0.00223292 0.00177224 0.0171068 0.00428911 -3.74175e-05 
0.00019344 0.00342207 0.0244875 -0.00214168 -0.00122206 -0.00445877 -0.0254791 0.0463795 0.00826951 
-0.00587053 0.0241135 0.00666124 -0.00141879 0.00205284 0.00157719 0.00228616 -0.00714742 -0.0106703 
0.0105128 0.0038585 -0.00035993 -0.000934607 3.99161e-05 0.000606475 -0.00123294 0.00796105 0.000418123 
-0.00898651 -0.00401184 -0.00159956 -0.00260422 -0.00541969 3.6763e-05 0.0186424 -0.026354 -0.00220198 
-6.62163e-05 0.00424153 0.000376388 -0.0137747 0.00752898 -0.00134135 0.0194049 0.0454833 0.00310444 
0.00308636 0.00453847 1.29464e-06 -0.000776553 0.0027715 0.000346456 -0.010046 -0.00669514 -0.000339803 
-0.0105944 -0.00471664 -0.00886188 -0.000359135 0.0073339 -0.000233755 0.00325396 -0.00398004 0.000992726 
-0.0040728 -0.0351482 -0.00369877 0.0306815 0.0223952 0.00100324 0.0184505 0.00552933 -0.00428718 
0.0346861 0.0220285 0.00561712 -0.00972924 0.00629991 -0.00238025 -0.0115889 -0.0047879 0.000662132 
-0.0117981 -0.00133916 -0.000720785 -0.00563409 0.0100441 9.14677e-05 0.0138801 0.0330553 0.0119669 
-0.0238227 -0.00560105 -0.0835546 -0.00714605 -0.026995 2.48946e-06 0.0177288 -0.00477023 -0.00208463 
-0.00604597 0.00566163 0.00756317 -0.00709492 0.00246453 0.00269237 0.0203353 0.00582968 0.0317846 
-0.00295197 0.00245757 0.0394123 -0.00918683 0.00345795 6.05747e-05 -0.0178063 -0.00463412 -0.0107606 
-0.00954196 0.00860334 0.0147344 0.0337649 -0.0220776 -0.00230632 -0.0210548 -0.0276332 0.00300264 
-0.0100551 -0.0247692 -0.0178453 -0.00950807 0.0197463 -0.000450283 0.0112279 0.00152941 1.95562e-06 
0.0011323 -0.00507743 8.68028e-08 -0.00261281 0.000599965 -0.0078381 0.00544028 0.00421623 4.86255e-05 
0.00780478 -0.00254662 -1.04964e-05 0.00380372 0.000656238 2.05674e-05 -0.00278017 -0.0023399 -0.00707762 
0.00694588 0.00191586 -0.00342642 0.00307159 -0.00133553 -3.69071e-06 0.00162166 0.00626582 -2.33328e-05 
-0.00216035 0.00548962 -0.000291783 -0.0127924 -0.00325413 -0.000561321 -0.00783548 0.0107345 -0.000517789 
-0.00697868 -0.00597797 -0.00143216 0.000609244 -0.00724445 -0.00870439 0.0106359 -0.00716766 0.00154394 
0.00114445 -0.00139273 -0.00193808 -0.00739409 -0.00774806 -0.0238015 0.000847362 0.00839705 -0.0205018 
0.0417279 0.0154911 0.0595418 -0.0060827 -0.000555278 -0.000722439 -0.0021988 -0.00411604 -0.0115879 
0.00569273 -0.0168585 0.00208552 0.0245583 0.00755201 -0.00332674 0.00807536 -0.00136826 0.00035433 
0.00396257 0.00159956 0.000106861 0.0108801 -0.00133925 0.0001066 0.0102632 0.00699353 -0.00490958 
0.00997436 0.00341358 -9.28441e-06 0.00569843 0.00130171 -1.34899e-05 0.00810962 0.00997296 0.014126 
-0.0022512 0.00623286 0.000465723 0.00425278 -0.00398047 0.00412027 -0.00257089 -0.0109239 -4.11012e-05 
-0.0194619 -0.0149485 -0.0369798 0.0118417 0.00236856 0.000393466 0.0215766 -0.00896832 0.0274677 
0.00295405 -0.00359675 -0.000269903 0.00311378 0.00188455 -0.0366082 0.0168155 0.017618 -0.000705912 
-0.080852 0.0145632 -0.0307015 -0.0287679 0.0162396 -0.0155064 -0.044578 0.0196576 -0.00493766 
-0.0109998 0.0724903 0.0439506 0.140696 0.116209 0.0375473 -0.00570703 -0.0053629 -0.000611698 
0.0338577 0.0105413 -0.0225203 0.0259934 -0.0094934 -0.00527019 0.0326224 -0.0202945 0.0320471 
0.036668 -0.000155459 0.0704224 0.0158005 -0.0142797 -0.00562679 -0.0363318 -0.0172685 -0.0202842 
0.0149234 0.00885668 0.00220735 0.0344761 -0.0210964 -0.0285973 0.0397298 -0.00168945 0.036937 
0.0103846 -0.0115392 0.00399676 -0.00986914 -0.00597348 0.000832607 -0.00588182 0.00546576 0.00219533 
0.032026 -0.00262996 0.00829017 0.0539778 0.0184084 0.0347615 0.0259909 -0.00503389 0.0209069 
0.00557683 0.00551984 -0.00357333 -0.0207202 0.00642559 0.00906886 0.062456 0.0289387 0.0267079 
0.00818823 -0.0152303 0.0217838 -0.0128537 0.0219208 -0.021291 -0.0713622 -0.0240733 0.00242199 
0.0175459 -0.0534661 -0.362516 -0.00605468 -0.000621831 -0.00679367 0.0277046 0.0199143 -0.000405222 
-0.0891216 -0.0737942 0.0505533 -0.0109303 -0.00507776 -0.144031 0.038231 -0.000324174 -0.0152693 
-0.0390716 0.0219209 0.0270697 -0.0116254 0.00768901 -0.0170302 0.0107704 -0.0384276 -0.00618897 
0.0677964 0.0597196 0.0399571 -0.101167 0.0690671 0.0509059 -0.0474437 -0.00703894 -0.0493884 
-0.0618151 0.0562067 0.0884521 0.00820773 -0.00907424 -0.0160845 -0.0463962 -0.0252769 0.0260855 
0.0346627 0.0651222 -0.0598893 0.0235594 -0.0502581 0.00942859 -0.0899053 0.0289059 -0.0387744 
-0.0237043 -0.106779 -0.0693699 -0.0133395 0.0949072 0.0864485 0.0577226 0.0282594 -0.0644656 
-0.033992 0.0152489 -0.152204 -0.000102905 0.0962072 0.0703648 -0.023852 0.016914 0.0704783 
0.00898011 0.13597 -0.189373 0.0163264 0.126288 0.075284 0.00914788 -0.0165468 0.126536 
0.0900684 0.086026 0.0839138 -0.0379883 0.0675234 0.0606083 0.117426 -0.140644 -0.0564226 
-0.0682035 0.0247612 -0.0790648 -0.161433 0.00737894 -0.137637 0.184792 -0.112667 -0.16766 
0.0201858 0.0112678 -0.446744 0.0032046 -0.168727 -0.274917 -0.0344144 -0.155688 -0.238238 
0.00378052 0.0313191 -0.179781 0 0 -0.577754 0 0 -0.579225 
0 0 -0.553915 0 0 -0.549795 0 0 -0.547245 
0 0 -0.545283 0 0 -0.545969 -0 -0 -0.01 
-0 -0 -0.01 -0 -0 -0.01 -0 -0 -0.01 
-0 -0 -0.01 -0 -0 -0.01 -0 -0 -0.01 
-0 -0 -0.01 -0 -0 -0.01 -0 -0 -0.01 
-0 -0 -0.01 -0 -0 -0.01 -0 -0 -0.01 
0 0 -0.537729 -0 -0 -0.01 -0 -0 -0.01 
-0 -0 -0.01 0 0 -0.526447 0 0 -0.531745 
0 0 -0.507122 0 0 -0.467391 0 0 -0.384202 
0 0 -0.388911 0 0 -0.267954 -0 -0 -0.01 
-0 -0 -0.01 -0 -0 -0.01 -0 -0 -0.01 
-0 -0 -0.01 -0 -0 -0.01 0 0 -0.0762665 
-0 -0 -0.01 0 0 -0.0133845 -0 -0 -0.01 
-0 -0 -0.01 -0 -0 -0.01 -0 -0 -0.01 
0 0 -0.0863708 -0 -0 -0.01 0 0 -0.0663585 
-0 -0 -0.01 -0 -0 -0.01 -0 -0 -0.01 
-0 -0 -0.01 -0 -0 -0.01 -0 -0 -0.01 
-0 -0 -0.01 -0 -0 -0.01 -0 -0 -0.01 
-0 -0 -0.01 -0 -0 -0.01 -0 -0 -0.01 
-0 -0 -0.01 -0 -0 -0.01 -0 -0 -0.01 
-0 -0 -0.01 -0 -0 -0.01 -0 -0 -0.01 

f 3 225 double
28763.2 -21573.9 -27417.8 817.968 -2117.88 -628.492 1752.5 -4456.98 -11890.9 
-6462.92 -13166.3 22319.6 0 0 -12841.3 0.161546 0.0776576 14.8794 
-1.13586 0.416141 -3186.89 -1188.86 2328.91 24521.1 9666.32 1344.02 999.127 
-45.0922 25.1682 -12944.5 648.323 898.087 -4049.15 4061.21 1270.69 -36.39 
0 0 -12841.3 0 0 -12841.3 26377.6 -8984.66 -54633.9 
0 0 -12841.3 -26287.8 -2263.43 7295.48 -211.507 -134.262 -12710.8 
-2140.7 4105.53 -10229.2 -244.528 2273.95 -2160.28 -2670.84 -1706.12 -1651.56 
-1897.98 -1783.02 73417.8 -29.9143 235.501 -438.057 -26072.5 24621.4 48999.5 
-63671 127701 3620.17 104694 -242652 2675.9 0 0 -12841.3 
0.00193569 0.00284148 -79.9702 39.2855 -121.047 -5966.51 1688.68 1006.78 247.592 
15472.4 3232.3 -4235.97 -10461.5 -7817.23 3109.13 25.0307 -94.4471 2060.12 
0 0 -12841.3 -343502 -115107 -21828.1 0 0 -12841.3 
0 0 -12841.3 -23481.3 7610.41 6640.91 42064.8 -8123.26 -7778.13 
33983.6 -4415.7 55697.3 -0.34399 0.369025 -369.09 -7613.57 6460.37 7091.17 
-150590 55751 -784380 -1734.09 3422.82 364.421 267424 241413 75128 
-12594.5 12153.4 -5116.49 21374.9 323.65 2003.27 0 0 -12841.3 
0 0 -12841.3 4144.29 351.847 681.309 29.3087 212.427 -12810.7 
0 0 -12841.3 0 0 -12841.3 508.63 4112.05 -10779.2 
-90872.5 -5259.34 296207 -4193.22 -10013.3 -13376.2 0.011794 0.00160651 -13.6701 
5.28747e-05 -0.0002371 -0.551286 -29.3087 -212.427 -12871.8 -0.00223546 0.329333 547.69 
0.0159203 0.0166532 -185.618 4.04841 -2.77272 480.243 -715286 -416699 -635507 
686.201 56.0932 8188.96 -0.0419652 0.00536605 88.214 1.43533 0.884395 -301.537 
-2923.81 715.888 -2979.04 -23134.6 39207.5 7822.46 -6717.62 -16522.4 -5733.36 
90083.3 -119569 -50223.2 0 0 -12841.3 2401.96 -1204.22 -8900.37 
6.56278 39.284 3012.75 0 0 -12841.3 0 0 -12841.3 
0 0 -12841.3 -402.604 -156.57 18514.6 20843.9 348.878 2527.12 
-75977.1 115310 41623.5 0 0 -12841.3 -5503.19 -1844.64 -1233.03 
0.0161032 2.18917 1742.59 0 0 -12841.3 0 0 -12841.3 
2.37986 -3.41394 2.62285 -1.93192 -0.68903 -889.895 0 0 -12841.3 
-2922.04 710.197 -11841.4 2940.88 1409.58 -12691.6 2.54839 -0.843424 -288.753 
0 0 -12841.3 526.141 -218.521 -1161.41 -15595.5 -12566.4 -1525.58 
462.85 -585.201 760.198 -32347.9 2212.46 13216.8 -19096.7 1265.99 64224.9 
0 0 -12841.3 0 0 -12841.3 -14956.5 -20905.5 27449.5 
0 0 -12841.3 0 0 -12841.3 -3085.96 1398.89 -6967.55 
417.622 -278.543 -12191.4 -4514.15 -2820.36 -2568.48 0 0 -12841.3 
0 0 -12841.3 7366.65 6138.81 -2077.2 0 0 -12841.3 
21929.3 14224.5 17602.7 0 0 -12841.3 0 0 -12841.3 
21713.9 4407.74 15108.7 -5186.84 1586.61 -7626.18 3985.21 3498.03 -8226.13 
0 0 -12841.3 0 0 -12841.3 97.2209 -151.898 -13245.4 
227.467 215.419 -10579.3 7613.57 -6460.37 -32773.7 0 0 -12841.3 
-5636.65 28542.8 28588.9 -108303 -54435.8 336543 0 0 -12841.3 
0 0 -12841.3 2642.6 -2617.63 -7865.57 0 0 -12841.3 
0 0 -12841.3 -1.44096e+06 -763529 -4.00963e+06 0 0 -12841.3 
0 0 -12841.3 0 0 -12841.3 3524.46 953.326 -11076.3 
0 0 -12841.3 0 0 -12841.3 0 0 -12841.3 
0 0 -12841.3 -33221.6 15456 21140.8 0 0 -12841.3 
0 0 -12841.3 0 0 -12841.3 0 0 -12841.3 
0 0 -12841.3 0 0 -12841.3 0 0 -12841.3 
0 0 -12841.3 0 0 -12841.3 0 0 -12841.3 
-30810.3 72105.5 102692 0 0 -12841.3 0 0 -12841.3 
0 0 -12841.3 0 0 -12841.3 0 0 -12841.3 
0 0 -12841.3 0 0 -12841.3 536854 869648 2.0685e+06 
2.17064e+06 1.12558e+06 4.65418e+06 0 0 -12841.3 0 0 -12841.3 
0 0 -12841.3 0 0 -12841.3 0 0 -12841.3 
0 0 -12841.3 0 0 -12841.3 0 0 -12841.3 
0 0 -12841.3 0 0 -12841.3 0 0 0 
0 0 0 0 0 0 0 0 0 
0 0 0 0 0 0 0 0 0 
0 0 0 0 0 0 0 0 0 
0 0 0 0 0 0 0 0 0 
0 0 -12841.3 0 0 0 0 0 0 
0 0 0 0 0 -12841.3 0 0 -12841.3 
0 0 -12841.3 0 0 -12841.3 0 0 -12841.3 
0 0 -12841.3 0 0 -12841.3 0 0 0 
0 0 0 0 0 0 0 0 0 
0 0 0 0 0 0 0 0 -12841.3 
0 0 0 0 0 -12841.3 0 0 0 
0 0 0 0 0 0 0 0 0 
0 0 -12841.3 0 0 0 0 0 -12841.3 
0 0 0 0 0 0 0 0 0 
0 0 0 0 0 0 0 0 0 
0 0 0 0 0 0 0 0 0 
0 0 0 0 0 0 0 0 0 
0 0 0 0 0 0 0 0 0 
0 0 0 0 0 0 0 0 0 

radius 1 225 double
500 500 500 500 500 500 500 500 500 
500 500 500 500 500 500 500 500 500 
500 500 500 500 500 500 500 500 500 
500 500 500 500 500 500 500 500 500 
500 500 500 500 500 500 500 500 500 
500 500 500 500 500 500 500 500 500 
500 500 500 500 500 500 500 500 500 
500 500 500 500 500 500 500 500 500 
500 500 500 500 500 500 500 500 500 
500 500 500 500 500 500 500 500 500 
500 500 500 500 500 500 500 500 500 
500 500 500 500 500 500 500 500 500 
500 500 500 500 500 500 500 500 500 
500 500 500 500 500 500 500 500 500 
500 500 500 500 500 500 500 500 500 
500 500 500 500 500 500 500 500 500 
500 500 500 500 500 500 500 500 500 
500 500 500 500 500 500 500 500 500 
500 500 500 500 500 500 500 500 500 
500 500 500 500 500 500 500 500 500 
500 500 500 500 500 500 500 500 500 
500 500 500 500 500 500 500 500 500 
500 500 500 500 500 500 500 500 500 
500 500 500 500 500 500 500 500 500 
500 500 500 500 500 500 500 500 500 

omega 3 225 double
-3.16949e-06 1.99376e-05 5.58248e-06 7.99537e-06 -1.01029e-05 1.69315e-05 1.87977e-05 3.08498e-06 1.46961e-05 
-4.36016e-06 2.16057e-06 -2.45297e-06 5.23746e-06 -1.11035e-05 2.99307e-05 -1.15055e-05 2.41177e-05 1.77084e-06 
-8.11696e-06 -2.09739e-05 -2.09359e-05 -4.55401e-06 3.71525e-05 7.54358e-05 0.000145335 -8.6845e-05 -8.58987e-06 
8.32751e-06 -4.08487e-07 2.09124e-05 4.69087e-06 6.05707e-06 -2.88974e-05 -8.33328e-06 3.33716e-05 -8.00501e-06 
5.33136e-05 -4.82659e-05 1.50585e-05 1.46962e-05 1.67647e-05 3.79846e-05 -8.20145e-05 -8.24382e-05 0.000103156 
-4.74533e-05 1.68741e-05 -5.65853e-05 -5.48813e-06 -1.47972e-06 3.06306e-05 2.7502e-05 1.37512e-05 -8.109e-06 
-4.04136e-06 2.58232e-05 6.07785e-06 9.41621e-08 -1.73092e-06 4.00788e-05 -1.69044e-05 -2.25126e-06 3.29705e-07 
1.29824e-05 -2.3287e-05 -3.99959e-05 1.08627e-05 -5.20677e-06 2.14267e-05 5.45523e-05 3.71397e-05 3.62982e-05 
-9.8723e-07 1.53403e-06 2.11011e-05 -4.31276e-06 1.13711e-05 -7.22884e-05 2.86829e-05 1.24929e-06 6.88404e-05 
-9.07967e-06 6.17458e-06 -3.52741e-05 -5.56738e-06 -1.62181e-06 7.46544e-06 1.33937e-05 -1.90807e-05 2.84484e-06 
-6.01542e-06 2.35923e-05 3.9808e-06 -1.42147e-05 -2.06351e-06 1.45634e-06 7.93001e-06 6.49897e-06 -3.13428e-05 
7.32251e-05 -5.75345e-06 5.97135e-05 2.08787e-05 4.7415e-05 -9.25198e-07 -3.84441e-05 2.43984e-05 5.71116e-05 
-4.55293e-05 6.59404e-05 -7.40554e-05 -1.29344e-05 -2.32634e-06 -1.63353e-05 5.98381e-06 1.18726e-07 -1.15913e-05 
2.33606e-06 -2.62538e-05 1.73481e-05 -2.00942e-05 -1.12716e-05 8.19236e-06 -6.38235e-05 3.0453e-05 0.000102443 
-6.11281e-05 -1.18987e-05 0.000117297 2.60183e-05 -1.88122e-05 2.92887e-06 2.51007e-05 1.7526e-05 -1.08281e-05 
-5.32624e-06 -1.17851e-05 -2.58266e-05 -8.18587e-06 1.07928e-05 1.9649e-05 2.09038e-05 -3.40598e-05 1.85301e-05 
-1.2537e-05 9.35537e-05 6.2791e-07 -6.84165e-06 -1.92798e-05 -1.65705e-06 4.49418e-06 1.58335e-05 4.07862e-06 
-8.37513e-05 -4.55347e-05 2.55864e-05 1.11557e-05 -1.07236e-05 -9.22121e-05 5.81841e-05 -4.72194e-05 -3.0644e-06 
4.6554e-05 -6.35642e-06 7.89767e-05 -4.48962e-05 -8.54122e-05 -1.46101e-05 -3.05973e-06 2.24627e-05 1.68976e-05 
1.01579e-05 2.26527e-06 -1.36342e-05 -3.73492e-06 -2.5013e-06 -3.27639e-05 -8.43516e-06 1.0884e-05 -5.6187e-05 
5.09474e-06 1.56142e-05 3.29045e-05 -1.31264e-06 7.6102e-06 -1.1696e-05 2.75237e-05 7.6614e-07 -1.58554e-05 
-3.8478e-06 1.40845e-05 1.75265e-05 2.6719e-06 6.14494e-06 -2.45906e-06 -1.25351e-05 3.24428e-06 -9.66417e-06 
-1.0718e-05 -4.35142e-06 -6.86439e-07 -1.31591e-05 -3.41015e-05 8.23577e-06 1.78126e-05 2.97173e-05 -2.45211e-05 
-1.39294e-05 -3.86984e-05 -6.67056e-05 2.22805e-05 6.81026e-06 2.1155e-05 1.41697e-05 2.23335e-05 -4.20516e-05 
2.78315e-06 2.28959e-06 2.79006e-05 -5.65853e-05 7.88123e-05 -1.71987e-05 -1.11325e-05 3.18369e-05 -5.02467e-06 
-5.27464e-05 -7.74256e-05 4.87345e-06 7.22737e-07 -3.43653e-06 -3.91735e-06 1.33347e-05 1.95818e-05 -3.46064e-06 
2.94635e-05 1.35044e-05 4.94749e-05 7.22213e-06 -3.9414e-05 1.72894e-05 4.29473e-06 1.15099e-05 5.49156e-05 
-3.20033e-06 7.92793e-06 -2.72436e-05 2.59056e-06 2.16995e-05 -6.29073e-06 5.849e-05 -6.38432e-05 1.40181e-05 
-6.82884e-06 1.99547e-05 9.56857e-07 -2.6012e-06 1.13975e-05 1.56022e-05 -1.31045e-05 7.11388e-06 -3.98721e-06 
-1.20049e-05 -4.96347e-06 -5.8891e-06 2.78172e-05 -1.93454e-05 -9.53014e-06 2.18542e-05 -5.1429e-06 -1.39981e-05 
-2.57845e-05 -2.36664e-05 9.7363e-05 -4.68362e-06 2.36382e-05 -5.59243e-05 -1.06065e-05 7.616e-05 -6.74116e-05 
7.29094e-06 5.90051e-06 2.50936e-06 -1.69058e-05 4.07289e-05 1.73069e-05 -3.63632e-05 1.73406e-05 2.84191e-05 
0.000100251 0.000223308 -5.1186e-06 9.42808e-05 2.9449e-05 4.38292e-05 3.14643e-05 1.16207e-05 -1.29838e-05 
4.16605e-05 0.000119196 -0.000104477 -0.000386729 0.000430824 -4.48451e-05 9.94973e-06 9.1348e-06 -2.49712e-05 
-7.1777e-05 8.15936e-05 -5.55197e-06 2.77507e-05 -1.66455e-06 -4.01625e-05 -0.000117518 0.000302581 7.74348e-05 
0.00011091 -0.000117121 -4.17611e-05 3.58827e-05 -1.25502e-05 6.1462e-05 2.84312e-05 -7.63344e-05 -2.05395e-05 
3.4069e-06 -1.70011e-05 3.90923e-05 7.07044e-05 0.000146072 -9.6917e-05 3.03576e-05 1.39844e-05 -6.99603e-05 
4.4856e-05 4.24715e-05 -1.26845e-05 3.34796e-06 4.83147e-06 -1.73374e-05 1.85676e-05 -1.22857e-05 -3.67934e-06 
0.000128829 6.04547e-05 -0.000174324 1.48599e-05 9.70681e-06 -1.51179e-06 1.75811e-05 -4.61119e-05 -4.02514e-05 
8.3758e-06 2.54086e-05 1.05156e-05 2.93195e-05 -3.51354e-05 3.34828e-05 -9.27628e-06 0.000140926 -4.64248e-05 
1.37533e-05 5.38143e-05 6.62483e-05 -0.000253103 9.73073e-06 1.97807e-05 -1.15765e-05 -0.000215149 -7.50781e-05 
-0.000190193 -0.000118493 -0.000148479 2.43524e-05 -2.06138e-05 2.66442e-05 -0.000140122 3.80925e-05 -8.29045e-05 
0.000430582 -0.0002555 0.000111994 -0.000161721 0.000294858 -4.30027e-05 0.000186814 3.20284e-05 2.62931e-06 
-8.00442e-05 -0.000147427 -2.83113e-05 9.24199e-05 -0.000219732 -7.11575e-05 3.78625e-05 7.89755e-05 -1.09015e-05 
-6.47128e-05 7.98309e-05 3.9225e-05 -0.000396965 -0.000271994 -4.01992e-05 -0.000131047 -7.73235e-05 8.31212e-05 
-0.000206169 -0.000410409 8.34767e-05 -1.10892e-05 -4.78317e-05 1.10013e-05 0.000112745 -8.29785e-05 -0.000252399 
-9.09175e-05 0.000314742 -0.000132048 -3.57917e-05 -0.000241335 -8.88354e-05 5.70598e-05 -0.000368187 1.54239e-06 
0.000346952 -5.59208e-05 -7.69719e-05 -0.000215324 -4.66714e-05 -3.10783e-05 -6.36061e-05 0.00020014 5.26348e-06 
0.00044369 6.22575e-05 1.92059e-05 -0.000319773 -0.000158223 2.16993e-05 0.00023416 -1.14396e-05 0.000112748 
5.74317e-05 -1.21147e-05 0.000170713 4.62429e-05 0.000121148 -6.28741e-05 5.24845e-05 -4.91061e-06 8.42254e-06 
0.000287292 0.000394886 -9.744e-05 -0.000272432 -5.26571e-05 -4.80492e-05 0.000243852 0.000554684 0.000146551 
-0.000129101 -9.52066e-05 0.000152266 0.000196355 -0.000382102 6.8932e-05 0.000175466 0.000622599 3.34136e-05 
-0.000194652 0.000328117 1.56419e-06 -2.76482e-06 1.68351e-05 -8.03053e-07 8.05902e-05 -7.35788e-05 -2.41761e-05 
3.80912e-05 6.43809e-05 -5.08289e-06 0 0 0 0 0 0 
0 0 0 0 0 0 0 0 0 
0 0 0 0 0 0 0 0 0 
0 0 0 0 0 0 0 0 0 
0 0 0 0 0 0 0 0 0 
0 0 0 0 0 0 0 0 0 
0 0 0 0 0 0 0 0 0 
0 0 0 0 0 0 0 0 0 
0 0 0 0 0 0 0 0 0 
0 0 0 0 0 0 0 0 0 
0 0 0 0 0 0 0 0 0 
0 0 0 0 0 0 0 0 0 
0 0 0 0 0 0 0 0 0 
0 0 0 0 0 0 0 0 0 
0 0 0 0 0 0 0 0 0 
0 0 0 0 0 0 0 0 0 
0 0 0 0 0 0 0 0 0 
0 0 0 0 0 0 0 0 0 
0 0 0 0 0 0 0 0 0 
0 0 0 0 0 0 0 0 0 
0 0 0 0 0 0 0 0 0 
0 0 0 0 0 0 0 0 0 

