# vtk DataFile Version 4.0
Generated by LIGGGHTS
ASCII
DATASET POLYDATA
POINTS 338 float
-4354.25 -4899.45 499.512 -4810.57 -4006.74 499.538 -3811.45 -4060.12 499.76 
-3328.11 -4935.2 499.269 -2770.35 -4105.83 499.551 -1677.2 -4245.38 512.718 
-370.439 -4465.54 499.253 678.432 -4363.8 499.231 1617.67 -4727.93 499.136 
2641.06 -4793.41 499.869 3644.39 -4802.35 499.138 4647.21 -4847.2 499.28 
-4258.1 -3166.17 499.437 -3252.24 -3230.35 499.711 -2251 -3237.22 499.414 
-927.957 -3583.9 499.256 70.7553 -3566.62 499.085 1192.55 -3298.51 499.256 
2187.73 -3903.34 499.752 3186.96 -3904.76 499.072 4184.8 -3959.27 499.43 
4728.72 -3119.8 500.086 -4724.33 -2282.41 499.384 -3470.55 -2255.15 499.75 
-2350.89 -2166.1 500.367 -1432.84 -2662.69 499.675 -434.308 -2704.1 499.674 
421.435 -2180.49 520.291 1422.56 -2260.34 517.439 2262.66 -2907.04 502.75 
3664.76 -3026.91 501.259 4279.51 -2208.58 499.958 -4508.88 -1009.67 499.33 
-3304.27 -1269.72 499.859 -2306.35 -1100.72 499.669 -1479.84 -1663.39 499.922 
-472.61 -1704.86 500.449 924.611 -1300.1 499.698 2367.63 -1913.48 499.095 
3371.84 -1791.45 499.348 4122.61 -1132.16 499.278 -4337.03 -24.9485 499.747 
-3361.26 -272.101 498.926 -2331.8 -101.263 499.858 -1339.77 -614.262 501.464 
36.2928 -818.315 499.022 1795.24 -763.776 499.241 2766.51 -996.784 499.481 
2559.95 -18.7895 499.544 3510.48 -328.755 500.345 4664.23 -282.195 499.455 
-4981.92 739.321 499.553 -3648.99 699.874 499.344 -2656.63 888.72 499.792 
-1452.43 423.174 498.141 -425.52 174.027 499.699 583.514 57.296 503.126 
1573.06 209.638 503.411 3068.58 845.591 511.168 4043.32 517.237 499.587 
-4428.08 1586.9 499.577 -3321.55 1643.99 499.824 -1598.12 1427.79 499.684 
-603.832 1161.31 499.699 -20.5427 1984.41 499.651 415.527 1046.03 499.639 
1432.02 1198 499.227 2364.99 1555.07 499.468 3372.54 1820.13 508.427 
4560.84 1628.31 499.526 -4934.18 2491.19 499.706 -3917.9 2446.45 499.473 
-2921.7 2513.26 788.231 -1972.77 2388.05 499.627 -983.017 2252.85 499.503 
-269.755 2952.56 499.05 710.32 2666.45 499.534 1650.1 2315.76 499.791 
2636.41 2516.06 498.79 4050.41 2555.06 499.659 -4424.56 3351.03 499.609 
-3425.35 3327.18 499.682 -2379.13 3300.9 498.897 -1360.03 3178.9 499.938 
-648.162 3880.79 499.387 461.388 3634.83 499.645 1467.18 3326.79 499.473 
2563.31 3512.11 499.108 3576.51 3441.39 499.863 4577.29 3405.64 499.532 
-4876.59 4242.89 500.407 -3877.7 4221.99 499.452 -2329.31 4997.72 513.051 
-2880.26 4164.8 500.528 -1778.26 4102.25 518.741 -1068.64 4813.42 512.393 
79.6406 4584.52 499.457 1068.25 4429.61 499.159 2070.18 4380.92 499.294 
3128.52 4335.1 499.636 4126.23 4298.4 499.631 -4333.96 -4326.41 1318.39 
-3304.96 -4352.59 1311.02 -2339.03 -4306.57 1829.5 -1692.31 -4900.49 1310.53 
-885.495 -4195.81 1320.45 119.323 -4151.24 1310.44 2350 -4377.44 1366.88 
3680.19 -4055.95 1357.37 3146.98 4987.78 1338.47 4667.91 -4271.58 1316.35 
-4786.96 -3431.15 1321.11 -2729.01 -3535.63 1325.46 -1640.4 -3547.38 1226.74 
-422.99 -3280.18 1318.4 801.504 -3640.25 1838.67 1444.5 -4001.4 1163.39 
1829.05 -3274.67 1734.23 2688.28 -3446.67 1234.42 -4024.35 -2687.73 1345.43 
4949.71 -2472.17 1424.98 -3030.19 -2581.93 1336.48 -2032.29 -2633.02 1324.94 
-1180.83 -2849.22 1806.01 -136.54 -2377.04 1660.84 505.499 -2947.52 1151.35 
969.221 -2105.82 1424.88 2038.8 -2360.03 1396.85 2997.72 -2508.92 1084.85 
3622.99 -2481.09 1919.82 4210.13 -3141.71 1355.11 -4109.39 -1732.23 1062.86 
-4651.31 -1684.54 1901.75 -3513.99 -1492.41 1857.23 -2731.85 -1613.81 1244.81 
-1692.84 -1062.41 1325.32 -991.659 -1998.29 1305.96 190.677 -1495.46 1252.14 
1683.59 -1437.45 1227.37 2673.08 -1551.5 1379.05 3910.56 -1712.99 1340.77 
4850.41 -1555.19 1038.87 -4767.22 -469.483 1299.89 -3823.11 -787.621 1219.57 
-2779.4 -614.774 1235.87 -1807.57 -219.537 1872.82 -1028.2 -52.727 1267.33 
-664.673 -980.805 1191.66 121.926 -261.369 1331.11 1079.48 -537.635 1161.17 
2325.63 -520.071 1331.96 3275.59 -768.56 1532.29 4245.89 -617.07 1346.5 
-4053.91 217.857 1427.56 -3080.77 341.104 1239.23 -2097.76 517 1254.42 
-1184.78 951.226 1302.78 -358.609 544.27 1706.89 972.862 627.632 1230.22 
2246.44 733.27 1078.36 3197.69 206.524 1315.55 4610.85 318.979 1310.19 
-3967.97 1205.45 1300.68 -3024.31 1225.28 1702.85 -2420.06 1687.19 1054.27 
-1981.75 1302.14 1866.59 -1536.59 2079.49 1348.17 -31.2771 1405.88 1320.84 
825.131 1810.66 1002.86 1591 1372.33 1479.5 2918.39 1437.31 1323.31 
3897.58 1255.85 1178.18 3714.47 1961.12 1922.32 -4975.79 1301.86 1325.76 
-4490.15 2175.62 1344.24 -3503.53 2073.94 1472.07 -2800.95 2713.33 1785.29 
-455.629 2328.55 1346.27 461.162 2224.09 1897 1193.51 2661.48 1375.17 
2200.83 2147.31 1319.06 3338.24 2596.76 1211.26 4085.32 2924.22 1833.57 
4508.81 2159.07 1345.03 -4496.8 3905.4 1391.46 -3929.52 3030.76 1310.33 
-2911.96 3590.28 1317.99 -1898.67 3021.95 1329.51 -785.538 3287.31 1330.29 
-46.5006 3987.54 1290.43 270.77 3041.43 1334.49 734.434 3780.55 1899.93 
1491.37 3959.44 1272.84 2066.72 3136.64 1279.75 3078.75 3559.63 1368.69 
4230.81 3790.88 1354.43 -4995.48 3040.02 1333.54 -4869.95 4829.4 1312.28 
-3877.35 4708.21 1402.03 -2120.88 4130.55 1604.55 -2862.74 4740.13 1322.3 
-1164.37 4213.68 1319.63 -423.443 4918.25 1298.25 647.998 4961.29 1235.54 
1628.46 4934.9 1439.01 2416.99 4309.72 1433.48 4138.85 4880.75 1613.34 
-4944.83 -4581 2202.6 -3983.91 -4250.72 2251.9 -348.537 -4377.39 2161.42 
2327.85 -4998.76 2150.01 3307.74 -4491.16 2180.41 -3577.7 -3432.51 1844.05 
-1639.29 -3572.88 2389.82 0.694355 -3195.27 2239.44 -4468.18 -3098.26 2210.56 
-2414.75 -2521.33 2405.33 1497.46 -2385.52 2347.41 4258.42 -3933.91 2226.65 
-2451.94 -1077.31 2059.1 -1845.04 -1859.87 1929.05 -961.711 -1352.51 2069.92 
2341.13 -1462.9 2321.92 4392.51 -1771.57 2394.34 -4327.43 -430.073 2196.71 
-3365.28 -276.682 1971.94 -543.143 -423.346 2059.97 804.356 -1079.9 1989 
-3568.53 643.384 2306.42 -2432.15 481.611 2218.89 141.043 725.947 2553.03 
882.62 -61.8634 2030.49 3405.61 898.175 2033.37 -4457.66 1187.09 2173.1 
-2730.7 1721.39 2520.42 -871.471 1642.81 1952.97 1929.85 1623.31 2390.8 
-4892.38 2415.42 2228.42 -3650.22 2569.6 2328.05 -2246.77 3671.64 2958.06 
-1910.22 2583.26 2227.56 2717.93 2830.85 1973.33 -3673.5 3765.92 1941.44 
-1342.4 3427.11 2211.03 -160.599 3416 2154.87 3465.28 2991.59 2617.36 
-4347.71 4564.94 2623.19 -1064.36 4911.93 2087.95 162.931 4610.28 2047.7 
1904.66 3883.95 2181.2 3309.79 4198.51 2115.87 4517.56 4666.87 2988.06 
3975.07 -2935.86 3077.6 3455.87 1566.43 2829.87 -4381.09 2767.87 3058.24 
1338.38 3109.94 2469.01 -486.209 2500.01 2401.06 521.502 -2355.18 2549.02 
3210.66 76.9542 2807.13 1266.38 -1071.2 2895.86 -552.752 4196.71 2676 
1538.83 -3821.59 2511.22 -1074.29 -2216.9 2566.29 -917.994 -3622.09 3064.01 
-2341.43 -2981.41 3304.1 -315.532 -2556.22 3203.01 -3859.76 1664.8 3342.52 
-1458.33 385.758 3632.78 2048.54 3496.57 4255.9 4197.12 -2907 4801.4 
260.365 1641.65 4637.14 1541.62 4160.56 20428.7 -271.974 4134.21 20350.2 
711.992 3508.79 20400.2 3105.08 2408.86 20418.4 -1593.68 2212.67 20423.7 
-1964.66 3523.71 20424.4 4148.65 2380.36 20294 -3005.83 2321.83 20281.5 
-4269.09 2701.86 20316.9 3204.22 1419.46 20284.9 246.892 1769.78 20480.6 
1259.33 1857.67 20289.5 4098.86 48.1377 20391 -2000.9 508.35 20467.3 
-3390.55 1304.62 20379.6 -2325.25 -4435.23 6219.48 4049.34 -4184.37 5455.08 
2960.76 -2778.56 6224.68 4241.9 -1625.46 6203.84 -4138.98 -360.743 5272.79 
-1684.03 -990.07 5905.64 2375.22 1349.8 5465.73 -2862.24 3439.43 6052.58 
-140.706 -703.542 6861.91 448.056 446.54 6851.74 -1892.45 3100.29 7214.99 
-721.625 -4460.12 20019.1 872.182 -4338.66 20174.5 465.351 -3368.9 20165.6 
-2912.78 -2151.07 20172.7 3588.67 -2364.43 20227.6 -3999.01 -1414.31 20238.4 
-414.062 -1602.54 20004.5 1655.33 -1729.14 20017.9 2213.12 -696.858 17920.7 
3354.19 -758.665 20156.1 -4455.47 302.696 20191.3 -391.624 992.002 20160.6 
1471.23 863.664 20241 2758.24 159.909 20149.8 4377.47 1075.05 17959 
-367.575 2943.82 20193.6 2057.67 2547.77 19914.6 -4412.44 3749.07 19778.6 
3626.47 3254.32 20235.9 -3458.43 4478.24 19880.8 -2137.46 4493.28 20116.9 
2598.99 4215.44 20217.6 3839.25 4340.76 20114.9 -1800.24 -4469.71 20478.4 
1981.78 -4345.73 20298.1 3019.58 -4471.2 20473.8 -3752.34 -3938.53 20267.8 
-1939.42 -3331.56 20405.2 1638.94 -3256.98 20396.5 3776.51 -3780.42 20487.1 
-4266.9 -2736.55 20471.8 -704.396 -2934.06 20313.8 715.864 -2137.33 20360.5 
2543.78 -2332.96 20389.2 4493.69 -2881.99 20480.7 -2720.03 -1168.16 20421.5 
-1925 -1908.16 20320 -3243.13 -66.3716 20438.2 -1190.62 -388.937 20252.3 
27.4892 -137.73 20357.7 994.108 -516.659 20345.3 
VERTICES 338 676
1 0 
1 1 
1 2 
1 3 
1 4 
1 5 
1 6 
1 7 
1 8 
1 9 
1 10 
1 11 
1 12 
1 13 
1 14 
1 15 
1 16 
1 17 
1 18 
1 19 
1 20 
1 21 
1 22 
1 23 
1 24 
1 25 
1 26 
1 27 
1 28 
1 29 
1 30 
1 31 
1 32 
1 33 
1 34 
1 35 
1 36 
1 37 
1 38 
1 39 
1 40 
1 41 
1 42 
1 43 
1 44 
1 45 
1 46 
1 47 
1 48 
1 49 
1 50 
1 51 
1 52 
1 53 
1 54 
1 55 
1 56 
1 57 
1 58 
1 59 
1 60 
1 61 
1 62 
1 63 
1 64 
1 65 
1 66 
1 67 
1 68 
1 69 
1 70 
1 71 
1 72 
1 73 
1 74 
1 75 
1 76 
1 77 
1 78 
1 79 
1 80 
1 81 
1 82 
1 83 
1 84 
1 85 
1 86 
1 87 
1 88 
1 89 
1 90 
1 91 
1 92 
1 93 
1 94 
1 95 
1 96 
1 97 
1 98 
1 99 
1 100 
1 101 
1 102 
1 103 
1 104 
1 105 
1 106 
1 107 
1 108 
1 109 
1 110 
1 111 
1 112 
1 113 
1 114 
1 115 
1 116 
1 117 
1 118 
1 119 
1 120 
1 121 
1 122 
1 123 
1 124 
1 125 
1 126 
1 127 
1 128 
1 129 
1 130 
1 131 
1 132 
1 133 
1 134 
1 135 
1 136 
1 137 
1 138 
1 139 
1 140 
1 141 
1 142 
1 143 
1 144 
1 145 
1 146 
1 147 
1 148 
1 149 
1 150 
1 151 
1 152 
1 153 
1 154 
1 155 
1 156 
1 157 
1 158 
1 159 
1 160 
1 161 
1 162 
1 163 
1 164 
1 165 
1 166 
1 167 
1 168 
1 169 
1 170 
1 171 
1 172 
1 173 
1 174 
1 175 
1 176 
1 177 
1 178 
1 179 
1 180 
1 181 
1 182 
1 183 
1 184 
1 185 
1 186 
1 187 
1 188 
1 189 
1 190 
1 191 
1 192 
1 193 
1 194 
1 195 
1 196 
1 197 
1 198 
1 199 
1 200 
1 201 
1 202 
1 203 
1 204 
1 205 
1 206 
1 207 
1 208 
1 209 
1 210 
1 211 
1 212 
1 213 
1 214 
1 215 
1 216 
1 217 
1 218 
1 219 
1 220 
1 221 
1 222 
1 223 
1 224 
1 225 
1 226 
1 227 
1 228 
1 229 
1 230 
1 231 
1 232 
1 233 
1 234 
1 235 
1 236 
1 237 
1 238 
1 239 
1 240 
1 241 
1 242 
1 243 
1 244 
1 245 
1 246 
1 247 
1 248 
1 249 
1 250 
1 251 
1 252 
1 253 
1 254 
1 255 
1 256 
1 257 
1 258 
1 259 
1 260 
1 261 
1 262 
1 263 
1 264 
1 265 
1 266 
1 267 
1 268 
1 269 
1 270 
1 271 
1 272 
1 273 
1 274 
1 275 
1 276 
1 277 
1 278 
1 279 
1 280 
1 281 
1 282 
1 283 
1 284 
1 285 
1 286 
1 287 
1 288 
1 289 
1 290 
1 291 
1 292 
1 293 
1 294 
1 295 
1 296 
1 297 
1 298 
1 299 
1 300 
1 301 
1 302 
1 303 
1 304 
1 305 
1 306 
1 307 
1 308 
1 309 
1 310 
1 311 
1 312 
1 313 
1 314 
1 315 
1 316 
1 317 
1 318 
1 319 
1 320 
1 321 
1 322 
1 323 
1 324 
1 325 
1 326 
1 327 
1 328 
1 329 
1 330 
1 331 
1 332 
1 333 
1 334 
1 335 
1 336 
1 337 

POINT_DATA 338
FIELD FieldData 7
id 1 338 int
72 107 12 38 94 7 11 80 109 
30 100 48 102 124 89 79 97 81 
90 82 91 49 36 60 78 18 16 
28 26 31 51 14 27 98 15 45 
104 96 22 87 29 54 37 59 19 
1 2 4 108 43 84 33 92 21 
88 42 55 66 46 77 73 20 110 
131 13 40 53 23 35 105 52 8 
119 61 25 34 58 6 85 47 63 
57 32 75 65 93 39 83 67 41 
10 9 17 113 3 56 50 24 166 
44 5 164 139 185 103 194 95 135 
86 180 150 137 193 133 149 202 125 
161 99 168 281 128 163 132 179 148 
225 155 145 278 147 101 156 181 141 
134 157 165 136 195 170 62 159 123 
142 224 70 121 152 115 130 140 160 
171 126 209 153 217 177 112 158 118 
127 207 69 218 169 154 111 191 143 
114 222 151 129 175 198 167 189 200 
116 192 228 214 219 210 146 76 144 
183 74 216 64 117 68 215 196 206 
138 182 120 71 122 162 201 178 106 
176 242 262 203 258 223 229 190 239 
259 186 266 268 212 187 264 256 204 
211 213 172 265 234 271 197 174 243 
261 236 244 173 246 249 272 205 221 
184 280 241 277 199 188 238 208 220 
248 226 269 251 279 227 282 263 260 
245 254 275 276 240 230 235 247 231 
255 328 312 311 335 290 306 297 294 
287 321 333 332 284 313 303 273 274 
267 270 253 252 250 237 233 257 232 
320 319 289 299 330 304 314 310 317 
296 323 308 288 316 324 286 295 322 
291 300 326 318 334 331 337 293 285 
307 309 305 315 301 329 292 327 325 
336 298 283 338 302 
type 1 338 int
1 1 1 1 1 1 1 1 1 
1 1 1 1 1 1 1 1 1 
1 1 1 1 1 1 1 1 1 
1 1 1 1 1 1 1 1 1 
1 1 1 1 1 1 1 1 1 
1 1 1 1 1 1 1 1 1 
1 1 1 1 1 1 1 1 1 
1 1 1 1 1 1 1 1 1 
1 1 1 1 1 1 1 1 1 
1 1 1 1 1 1 1 1 1 
1 1 1 1 1 1 1 1 1 
1 1 1 1 1 1 1 1 1 
1 1 1 1 1 1 1 1 1 
1 1 1 1 1 1 1 1 1 
1 1 1 1 1 1 1 1 1 
1 1 1 1 1 1 1 1 1 
1 1 1 1 1 1 1 1 1 
1 1 1 1 1 1 1 1 1 
1 1 1 1 1 1 1 1 1 
1 1 1 1 1 1 1 1 1 
1 1 1 1 1 1 1 1 1 
1 1 1 1 1 1 1 1 1 
1 1 1 1 1 1 1 1 1 
1 1 1 1 1 1 1 1 1 
1 1 1 1 1 1 1 1 1 
1 1 1 1 1 1 1 1 1 
1 1 1 1 1 1 1 1 1 
1 1 1 1 1 1 1 1 1 
1 1 1 1 1 1 1 1 1 
1 1 1 1 1 1 1 1 1 
1 1 1 1 1 1 1 1 1 
1 1 1 1 1 1 1 1 1 
1 1 1 1 1 1 1 1 1 
1 1 1 1 1 1 1 1 1 
1 1 1 1 1 1 1 1 1 
1 1 1 1 1 1 1 1 1 
1 1 1 1 1 1 1 1 1 
1 1 1 1 1 
i 3 338 int
0 1 0 0 0 0 0 0 0 
1 1 0 0 1 0 0 0 0 
0 0 0 0 1 0 0 0 0 
0 1 0 0 0 0 -1 0 0 
0 0 0 0 0 0 0 0 0 
0 0 0 0 0 0 0 1 0 
0 0 0 0 0 0 0 0 0 
-1 0 0 1 1 0 0 0 0 
0 0 0 0 0 0 0 0 0 
0 0 0 0 0 0 0 0 0 
0 0 0 0 0 0 0 0 0 
0 0 0 0 0 0 0 0 0 
0 0 0 0 0 0 0 0 0 
-1 0 0 0 0 0 0 0 0 
0 0 0 0 0 0 0 0 0 
0 0 0 0 0 0 0 0 0 
0 0 0 0 0 0 0 0 0 
0 0 0 0 0 0 0 0 0 
0 0 0 0 0 0 0 0 0 
0 0 0 0 0 0 0 0 0 
0 -1 0 1 -1 0 0 0 0 
0 0 0 0 0 0 0 0 0 
0 0 0 0 0 0 0 0 0 
-1 0 0 0 0 0 0 0 0 
0 0 0 0 0 0 0 0 0 
0 0 0 0 0 0 0 0 0 
0 0 0 0 0 0 1 -1 0 
0 0 0 0 0 0 0 0 0 
0 -1 0 0 0 0 0 0 0 
0 0 0 0 0 0 0 0 0 
1 0 0 0 0 0 0 -1 0 
0 -1 0 0 -1 0 0 -1 0 
0 -1 0 0 -1 0 0 0 0 
0 0 0 0 0 0 1 0 0 
0 1 0 0 0 0 0 0 0 
0 0 0 0 0 0 0 1 0 
0 0 0 0 0 0 0 1 0 
1 0 0 0 0 0 0 0 0 
0 0 0 0 0 0 0 0 0 
0 0 0 -1 1 0 0 0 0 
-1 0 0 0 0 0 0 0 0 
0 1 0 0 0 0 0 0 0 
0 0 0 0 0 0 0 0 0 
0 0 0 0 1 0 0 0 0 
0 0 0 0 0 0 0 1 0 
0 0 0 0 0 0 0 0 0 
0 0 0 0 0 0 -1 0 0 
-1 0 0 1 0 0 1 0 0 
0 0 0 0 0 0 0 0 0 
0 0 0 0 0 0 0 0 0 
0 0 0 -1 0 0 0 0 0 
0 0 0 0 0 0 0 0 0 
0 0 0 0 0 0 0 0 0 
-1 0 0 0 0 0 0 0 0 
0 0 0 0 0 0 0 0 0 
0 0 0 0 0 0 0 0 0 
-1 0 0 0 0 0 0 0 0 
0 0 0 -1 0 0 0 0 0 
1 0 0 0 0 0 0 0 0 
0 0 0 0 0 0 0 0 0 
0 0 0 0 0 0 0 0 0 
-1 0 0 0 0 0 0 -1 0 
0 -1 0 0 0 0 0 0 0 
0 0 0 0 -1 0 0 0 0 
0 0 0 0 0 0 0 0 0 
0 0 0 0 0 0 1 -1 0 
0 0 0 0 0 0 0 0 0 
0 0 0 0 0 0 0 -1 0 
0 0 0 0 0 0 -1 0 0 
0 0 0 0 0 0 0 0 0 
0 0 0 0 0 0 0 1 0 
0 0 0 0 0 0 0 0 0 
0 0 0 0 0 0 0 0 0 
0 0 0 0 0 0 0 0 0 
0 0 0 0 0 0 1 0 0 
1 0 0 0 0 0 0 0 0 
1 0 0 0 0 0 0 0 0 
0 0 0 0 0 0 1 0 0 
0 0 0 0 0 0 0 0 0 
1 0 0 0 0 0 0 0 0 
0 0 0 0 0 0 0 0 0 
0 0 0 0 0 0 0 0 0 
0 0 0 0 -1 0 0 0 0 
0 0 0 -1 0 0 -1 -1 0 
0 0 0 0 0 0 1 0 0 
0 0 0 0 0 0 0 0 0 
0 0 0 0 0 0 0 0 0 
0 0 0 0 0 0 0 0 0 
0 0 0 0 0 0 0 0 0 
0 0 0 0 0 0 0 0 0 
0 0 0 0 0 0 0 0 0 
0 0 0 0 0 0 0 0 0 
0 0 0 0 0 0 0 0 0 
0 0 0 0 0 0 0 0 0 
0 0 0 0 0 0 0 0 0 
0 0 0 0 0 0 0 0 0 
0 0 0 0 0 0 0 0 0 
0 0 0 0 0 0 0 0 0 
0 0 0 0 0 0 0 0 0 
0 0 0 0 0 0 0 0 0 
0 0 0 0 0 0 0 0 0 
0 0 0 0 0 0 0 0 0 
0 0 0 0 0 0 0 0 0 
0 0 0 0 0 0 0 0 0 
0 0 0 0 0 0 0 0 0 
0 0 0 0 0 0 0 0 0 
0 0 0 0 0 0 0 0 0 
0 0 0 0 0 0 0 0 0 
0 0 0 0 0 0 0 0 0 
0 0 0 0 0 0 0 0 0 
0 0 0 0 0 0 0 0 0 
0 0 0 0 0 0 0 0 0 
0 0 0 0 0 0 
v 3 338 double
-0.000999608 -0.000583 0.00109482 0.00189216 -0.00219137 -0.000931109 0.000490975 -0.00206359 0.000191719 
-0.000879925 -0.00294796 -0.000781494 -0.00869301 0.00122053 0.000380761 -0.00015386 -0.00208864 -0.00171535 
-0.015187 -0.0225484 0.00552418 -0.00109038 -0.00443408 -5.22785e-05 0.00923656 0.00638281 0.000933287 
0.00188097 0.000694084 0.00325868 0.0194218 0.00896825 -0.00552822 -0.00164016 0.00143484 -0.00112612 
-0.000287173 -0.00181105 0.000240724 -0.00577226 0.00174531 -0.000690468 -0.0065451 0.00139633 -0.00202551 
-0.000180959 -0.00519432 0.000526367 -0.0152398 -0.0146989 0.00364872 0.00983556 0.0026503 0.0167474 
-0.00209127 0.00306021 0.00179993 0.00365117 0.00288003 0.00258144 0.00720259 -0.00116081 -0.000844811 
0.00375588 0.00194773 0.000437218 0.0014259 -0.000341017 0.000692946 -8.991e-05 0.00252541 -0.000969367 
-0.0142503 -0.00517956 0.00109465 -0.00483372 -0.0035891 -0.000245509 -0.00337422 -0.00210179 0.00181731 
-0.00394884 0.0272468 -0.0168248 0.00166525 -0.00462562 -0.000822665 0.00172228 0.00246115 -0.00161398 
0.0302786 -0.00704873 -0.00722247 0.00108152 0.00227104 0.000731732 -0.00309075 -0.00029933 -0.000135093 
-0.00186509 0.00103803 0.00138327 -0.00322941 0.00151877 -0.000134302 -0.00693731 -0.00293472 0.00137841 
-0.00377366 -0.00102797 0.00117291 0.000984336 -0.000122804 1.4381e-06 0.00179577 0.000965352 -0.000840003 
-0.000187637 0.00049477 -0.00120588 -0.00208238 0.0014786 -0.000399489 0.00018301 -0.0014669 0.000549625 
0.00216555 0.00119978 0.00355761 -0.00211944 0.00183648 -0.0007761 -0.00203602 0.0193012 0.00404994 
0.0118242 -0.00388992 0.00523756 0.00473662 0.00442078 -0.00395884 0.00229908 0.00204533 -0.00184512 
-0.0025406 -0.00147724 -0.00122233 -0.00111547 0.00570743 -0.000594972 -0.0035915 0.000283725 0.000464713 
0.000247318 0.000472568 -0.000267775 -0.00102852 0.000356206 0.00105937 0.00289279 -0.00322745 -0.00022859 
-0.00409614 0.0128904 0.00304948 -0.00310166 -0.012905 2.06777e-07 0.00392929 0.0110077 -0.00413366 
-0.000410446 0.00114961 -0.00522374 -0.00456427 -0.00319665 0.000271368 -0.0024361 0.00833711 0.000828566 
0.00582522 -0.00116815 0.00155321 -0.000343911 0.000215524 0.000574777 0.00856796 0.00500757 0.000122474 
0.0094796 -0.0092537 4.27469e-07 0.00215079 0.00110659 0.000804009 -0.00354144 0.0111115 0.000111944 
-0.000636631 0.00100979 0.0010699 -0.00148746 0.00153189 0.0012165 -0.00263256 0.00244472 -0.00415043 
0.0016323 0.0014545 -0.000823933 0.00229004 0.000806721 -0.000278788 0.00225071 0.000564807 -0.000244843 
0.00150366 -0.000401878 -2.2525e-05 -0.00038538 -0.00101077 -0.000657781 -0.00046611 -0.00196536 0.000309449 
-0.00113113 -0.00277651 0.00506711 0.00357759 0.00172335 0.000299292 -0.00245221 0.00216272 0.000268508 
0.00314443 -0.000873254 0.000322632 -0.00438525 0.00337673 -0.00017241 -0.000452862 0.0023235 -0.000436195 
-0.000456152 -0.00391472 0.000743184 0.000461361 -0.000985131 0.00161489 -0.00147708 0.000831304 -0.000216295 
-0.0016745 0.00240223 -0.000372451 -0.00110182 -0.00148222 0.00110004 0.00324421 -0.00337647 -9.59888e-05 
0.00340188 -0.00186861 -0.00164119 0.0138895 -0.00286881 -0.00229286 -0.00116711 0.00262943 7.2651e-05 
-0.00219411 -6.19971e-05 -0.000613286 -0.00349322 -0.00274507 0.000687909 -0.00584386 0.00229452 0.00077974 
-0.00317937 -0.00100904 0.00185855 0.00884345 -0.00386465 0.00637133 -0.00541469 -0.00863706 0.00216356 
0.000305975 0.00726276 -0.0014857 0.00130139 -0.000342044 0.00419376 0.00175611 -0.00256864 0.000969457 
0.00222426 -0.00333251 -0.000859922 3.31551e-05 -0.00223462 -0.000650507 -0.00103416 -0.000722115 0.00239612 
-0.00232622 -0.00466715 0.0012812 -0.0261108 0.0128918 0.0337599 -0.0152425 -0.00210371 0.0338033 
-0.0428653 -0.036509 0.00360902 0.00410064 -0.0124116 -0.00257598 0.0100828 0.00449333 -0.00097257 
0.00316132 0.00497632 -0.00352686 0.016254 0.018379 -0.00484528 0.00115453 -0.00310477 0.00312931 
-0.000873601 -0.000238741 0.00841551 -0.00610492 0.000541236 -0.00102834 -0.0280969 -0.0130696 0.00834579 
-0.010668 -0.0056959 -0.00395658 -0.0132889 0.0157941 0.0144094 0.00881224 -0.0109681 0.0298886 
0.0388845 0.0506184 -0.0937777 0.00916708 0.00308509 0.0029019 -0.0132311 -0.000441839 0.00230914 
-0.00746932 -0.00473909 -0.00268616 -0.0188494 0.000940778 0.00716422 -0.0153625 0.00289234 0.00546143 
-0.00600584 -0.0187929 -0.0516877 -0.0232898 -0.0224407 0.0180247 -0.0258848 0.00774318 -0.000214221 
-0.000599496 0.0174034 -0.020087 0.0217016 0.0183411 0.0198562 0.00753577 0.00504291 0.00536394 
0.0312077 0.0012384 0.0098786 0.0196504 -0.0253155 0.00794742 -0.000675155 0.000960907 0.000727429 
-0.00327584 -0.00677972 -0.00101188 -0.000816774 0.00384883 0.00617428 -0.0053916 0.00146601 -0.00112789 
-0.0469071 0.0321213 0.00172557 -0.007775 -0.00689621 0.00472857 -0.00814581 0.000142052 0.0312534 
0.0165125 0.0118196 -0.00523259 0.00428042 -0.00815778 0.00135391 -0.00299072 0.0046797 -0.00314232 
-0.00186102 -0.00244979 -0.00262935 -0.00455715 -0.00194147 0.00162037 -0.00408732 0.00158063 0.00306823 
0.000634696 -0.00325157 0.00790642 0.00759979 -0.00844849 -0.00831108 0.00111986 0.0139526 0.00500888 
-0.00179425 0.0114997 0.00596643 0.00517473 0.00331726 -0.00507883 0.0121581 -0.00337367 0.00737674 
0.0194462 0.00805596 0.00858976 -0.00346556 -0.00438291 0.00659646 -0.00454657 -0.00379551 0.00251 
-0.00263929 -0.00219717 0.0030766 -0.0028526 0.00303175 0.00473958 -0.00298801 0.00739059 0.00627305 
0.00647567 0.012182 0.00224828 0.00548557 0.015073 -0.0012149 -0.00917251 0.00963661 -0.000378749 
0.00064291 -0.00292035 -0.000674115 -0.00655105 -0.00335467 0.0110077 -0.000376759 -0.00151743 -0.00202561 
0.00249466 -0.000957792 0.00524859 0.00499559 0.00265005 0.00632336 0.000825668 -0.000816812 8.10003e-05 
0.0105498 0.00234281 -0.00303425 -0.011918 0.0247634 0.0060434 -0.00668238 0.0178881 -0.00476856 
0.00239628 0.00462237 0.00191294 0.00392883 -0.0015721 0.00230914 0.00780056 -0.0037391 -0.00789754 
0.00636536 0.00538149 0.00555451 0.0232829 0.0162131 0.0102206 -0.00667923 0.00119067 -0.000781164 
-0.00437867 0.000820162 0.00633056 -0.00213503 0.00475491 -0.0014705 0.00298794 -0.0060524 0.00167288 
0.00640092 0.00198797 -0.00222612 0.0126415 -0.00809332 -0.000516704 0.00906963 0.00223208 0.000852981 
0.00673198 -0.00209439 0.00361975 -0.00184783 0.00277287 -0.00717899 0.00592365 0.00586085 -0.00929446 
-0.00636387 0.00335974 -0.00393538 0.00977862 0.00547994 -0.0276257 -0.00184813 -0.00228088 0.00105284 
0.00323224 -0.0042538 0.00313852 0.00179267 -0.00707457 0.00153793 0.000991426 -0.00635273 -0.0180995 
0.00270761 0.00763171 -0.00329506 0.0131927 0.010909 0.000377632 0.0164091 0.0278791 0.0136834 
0.0208136 -0.000683699 0.000111417 0.00808972 0.000525092 0.00146012 0.00285444 0.00964642 -0.0103623 
0.0152005 0.0100337 0.00366036 0.0105481 0.00335393 -0.00239142 -0.00616691 0.00140256 0.00057131 
-0.00910095 0.0289396 -0.0153836 0.00269993 -0.00269436 0.000384605 0.00268413 -0.00434898 -0.00374211 
0.00485985 -0.00172105 0.0163869 -0.00264987 -0.0250327 -0.00736954 0.00411302 -0.00554368 0.000604989 
0.00950002 0.0043641 0.00559424 0.0117751 0.0223382 -0.0104186 0.00165335 -0.0008426 -0.0041377 
-0.00175442 -0.0135935 -0.00652731 0.00633914 -0.00943437 0.00142009 0.0069006 0.00561727 0.0437056 
-0.0172858 0.00561919 -0.00227332 -0.0271252 0.0259785 -0.00336932 -0.0115691 -0.00451262 -0.00875764 
-0.0900692 -0.0209562 -0.285977 -0.0374648 -0.0157878 0.0281749 -0.0253177 -0.0255328 0.0328893 
-0.114795 0.00763412 -0.338396 0.0234054 0.0147524 0.0258582 -0.0319198 -0.0685746 0.0331782 
-0.00870531 0.00847188 0.0197313 -0.00606773 0.0306234 -0.0335154 -0.0166425 0.00701541 0.00440026 
-0.00390554 0.00699152 -0.00921602 0.0993167 -0.0544503 -0.00216805 -0.0020177 -0.00693174 0.000969976 
-0.00159134 0.00454929 0.00681596 -0.00349042 -0.00587619 -0.0130692 0.0318217 -0.00089831 0.0484794 
0.00569233 0.0069311 0.0118005 0.00603815 -0.000222277 -0.0114269 0.0260207 0.0105034 -0.0104012 
-0.0213189 -0.0148351 0.0207532 -0.0325968 0.0106929 0.0183741 0.00147529 0.0173612 -0.00475273 
-0.00128744 0.0240599 -0.0015456 -0.0089954 0.0176772 0.00603144 -0.0720117 -4.75646e-05 0.0320446 
-0.0364164 0.0127279 -0.00988813 -0.00370246 -0.00448624 0.00456383 -0.00684329 0.126493 -0.00141554 
0.00977042 0.0180845 0.0159621 0.00744501 0.00290192 -0.000416816 -0.00458472 0.00673595 -0.00650621 
-0.00904234 0.0398055 -0.0201907 0.00349724 0.0401838 -0.0178213 0.00902582 -0.00066597 -0.00459902 
-0.0946492 0.00135723 -0.0469373 0.0176704 0.0207935 0.0312964 -0.00608259 0.00126658 0.00149222 
0.0260326 0.00229373 -0.00118962 0.0171385 0.0220376 -0.0185003 0.0333718 -0.0138613 0.0427187 
0.0598376 -0.0487752 -0.0587117 0.0136639 -0.0391835 -0.000719715 0.128119 -0.137782 0.0225135 
0.0801745 -0.0416395 0.00994667 0.054079 0.000315093 -0.0506445 -0.0931101 0.0292118 -0.299374 
-0.0611436 -0.230615 -0.0593095 0.154522 0.0108436 0.0142038 0.121119 -0.130814 -0.107587 
0.171429 -0.0928783 -0.0758694 0.158566 -0.0881002 -0.0704923 0.18778 -0.00874023 -0.364356 
0.0106123 -0.103673 -0.312504 -0.237657 -0.0357721 -0.362146 0 0 -0.57177 
0 0 -0.566767 0 0 -0.555877 0 0 -0.546166 
0 0 -0.549109 -0 -0 -0.01 -0 -0 -0.01 
-0 -0 -0.01 -0 -0 -0.01 -0 -0 -0.01 
-0 -0 -0.01 -0 -0 -0.01 -0 -0 -0.01 
-0 -0 -0.01 -0 -0 -0.01 -0 -0 -0.01 
-0 -0 -0.01 -0 -0 -0.01 -0 -0 -0.01 
-0 -0 -0.01 0 0 -0.520071 0 0 -0.534295 
0 0 -0.519973 0 0 -0.520365 0 0 -0.537631 
0 0 -0.525957 0 0 -0.534099 0 0 -0.52321 
0 0 -0.507808 0 0 -0.508005 0 0 -0.500941 
-0 -0 -0.01 -0 -0 -0.01 -0 -0 -0.01 
-0 -0 -0.01 -0 -0 -0.01 -0 -0 -0.01 
-0 -0 -0.01 -0 -0 -0.01 0 0 -0.202227 
-0 -0 -0.01 -0 -0 -0.01 -0 -0 -0.01 
-0 -0 -0.01 -0 -0 -0.01 0 0 -0.200363 
-0 -0 -0.01 0 0 -0.0421277 0 0 -0.0666528 
-0 -0 -0.01 0 0 -0.0493872 -0 -0 -0.01 
-0 -0 -0.01 -0 -0 -0.01 -0 -0 -0.01 
-0 -0 -0.01 -0 -0 -0.01 -0 -0 -0.01 
-0 -0 -0.01 -0 -0 -0.01 -0 -0 -0.01 
-0 -0 -0.01 -0 -0 -0.01 -0 -0 -0.01 
-0 -0 -0.01 -0 -0 -0.01 -0 -0 -0.01 
-0 -0 -0.01 -0 -0 -0.01 -0 -0 -0.01 
-0 -0 -0.01 -0 -0 -0.01 
f 3 338 double
1586.35 -3083.24 -4426.96 -3105.44 4150.98 14417.3 411.282 1307.9 -1311.91 
395.641 -2284.58 3120.27 20193.7 11385.3 4563.13 -14706.1 -15031.2 -12745.4 
-7451.24 -12140.2 -102885 -2319.57 3822.38 15040.3 832.797 6202.4 -11833.6 
-20574.9 23464.5 -9007.94 60929.5 34563 -56736.9 -1398.99 -298.619 9476.02 
-3835.36 2298.02 31.4958 2470.18 -4882.46 2556.75 -16202.5 48632.7 -4982.57 
-89186.4 -51373.9 -8584.93 232789 60307.2 -53492.4 -10056.9 19160.6 -36815.1 
-1755.78 -3018.02 -14229.5 -19657.2 -6207.24 14944 -42086.3 8752.48 4126.6 
-3520.59 9688.4 -7903.27 -4148.01 -6103.42 -1823.87 8072.39 -17428 -14314.2 
741.576 7389.61 -20555.3 -5780.39 14917 5233.13 18438.8 -1817.72 -10593.5 
-11209.8 138397 -114594 0 0 -12841.3 -33753.6 -3877.24 2910.89 
360.743 6414.31 -11893.6 -5827.75 -14296.5 -4091.97 1027.86 -2507.21 -1884.09 
15699.7 -3886.64 2178.61 1243.91 -1443.14 -2866.58 3382.76 -932.529 -14959.5 
473.968 -1842.56 -12005.3 0.000780241 -9.73349e-05 9.00124 -6105.85 8289.33 21451.6 
-4326.43 -396.564 1435.22 -2891.08 2704.75 570.82 -8751.89 274.452 -890.447 
4997.82 16261.1 1581.18 -1144.76 899.847 -6249.5 -17282.3 -20917.6 -25347.4 
5668.4 3202.52 -12421 29478.9 40804 9057.65 29543.6 37553.6 -33853.1 
22162.9 19611.7 -10289.1 9805.68 3190.18 -12819.3 -8368.77 -3410.92 3299.33 
438.312 -3796.4 -3363.49 -191.633 2100.9 907.797 63.3666 108.42 -4318.84 
16956.7 5352.88 21352.5 -0.000338187 -0.00140707 -3.41963 0 0 -12841.3 
-14263.3 -154.501 277.709 12916.5 -28307.8 -2548.39 -890.379 -158.162 575.161 
-8354.9 -3719.42 -4410.49 2599.08 2995.61 -9189.69 0.577744 0.338714 209.715 
0.00204829 -0.00199954 -16.0941 -3783.38 -1305.92 1917.68 34.042 671.561 3353.65 
-6294.16 -2142.64 -5366.42 4538.97 -22561.5 3585.11 -3066.05 -3932.99 -10336.2 
-11331.8 -9056.51 126.758 -10651.4 -16013.1 9139.75 -10578 -12181.7 2645.15 
-7625.23 -76.1997 15561.2 -6361.95 -8847.41 -133.858 -5842.89 -24735 -4873.86 
1405.86 13455.8 -1145.81 9892.48 14965.4 -10530.9 9.91237 80.3117 -7011.32 
21013.1 5681.29 6631.52 -523.809 -662.234 1222.63 4232 -7090.06 -4037.93 
9832.65 2365.19 -5499 1890 1266.39 7991.73 -1725.61 -11597.8 -6354.27 
3321.61 -4391.87 11937.1 6121.58 6432.49 1195.44 5372.18 8830.47 5691.23 
-7179.46 17128.4 -5043.98 -9325.23 12419.4 -1198.47 -4379.29 -26069.3 6933.24 
43112.2 11446.5 -8831.83 20805.4 -3503.22 -3867.95 18106.5 -3755.61 -16657.8 
4828.59 9745.75 2576.09 0 0 -12841.3 0 0 -12841.3 
-23693.1 60838.5 -17070.9 2387.69 -4022.42 5216.22 -8362.53 9627.9 -51611.6 
-20896.9 26372.1 -7512.52 12103.9 38790.3 -10157 16793.3 -2653.27 50.1079 
-5638.01 5329.91 5185.89 0 0 -12841.3 0 0 -12841.3 
13336.5 -9274.33 -13816.2 20701 7531.81 19036.3 -22108.9 -15508.9 16865.3 
0 0 -12841.3 -69019.2 -24704.9 134445 13071.5 -2927.53 4728.59 
-1120.62 -12763 -18523.6 2625.79 3093.02 -13369.5 52377.4 16472.6 62876.1 
-8256 -136082 -80344.9 3872.46 -7026.07 -19734.9 -25796.7 28183.7 -57167.2 
-56213.6 -112746 274630 6401.16 -17049.6 -11236.4 -12316.5 1385.79 -11506.3 
-7128.31 11110.1 5918.62 2676.09 9441.93 6460.59 7432.25 -70800.1 -89957.3 
-113080 -436218 -726490 -100748 125703 3276.97 140246 -229742 94865.6 
-74110.7 -119830 51032.5 202255 533002 -587258 -17164.4 1130.91 15585.4 
0 0 -12841.3 0 0 -12841.3 4312.26 3816.86 -3616.79 
-616.85 -259.265 -7734.51 7554 -7012.79 2921.37 -1653.66 -2302.32 -8324.94 
0 0 -12841.3 0 0 -12841.3 0 0 -12841.3 
-29299.9 -37716.5 22258.8 3087.65 9830.25 9488.61 -10010.4 -2629.77 -10199.4 
1451.35 -6038.75 3322.05 -9152.63 1132.82 4414.34 1104 6255.5 6019.5 
-8866.57 14307.6 -19132.9 0 0 -12841.3 1833.36 -8830.81 1961.3 
-5863.32 5056.76 -23909.4 -1591.22 -417.708 -11497.7 0 0 -12841.3 
-15479.6 -15921 1752.36 -14254.5 5552.32 -1935.66 -11983 2964.32 6562.55 
-4459.06 5153.25 -276.913 6655.53 2794.89 4943.71 12671.9 13095.8 31330.9 
17268 4223.26 32151.3 -969.928 -4307.96 11280.6 -15556.7 -16977 -18998 
2735.79 402.981 1684.84 0 0 -12841.3 215.807 -2674.01 -8314.7 
-6224.77 4804 -5243.67 743.259 -707.243 -11536.2 -5316.11 -2284.28 -6363.47 
0 0 -12841.3 -1479.1 262.658 -15361.4 -3466.59 -3670.35 -7315.53 
-7112.67 1437.51 3988.95 -13934.8 2249.17 648.794 15466.8 -19588.3 12777.7 
0 0 -12841.3 0 0 -12841.3 -521.095 -300.597 -3501.04 
1019.41 1094.23 -12176.8 -7131.55 -13930.3 -3961.19 36.5723 -234.238 -12835.7 
0 0 -12841.3 1768.33 1744.44 -13198.7 -14353.2 -13470.3 15409.1 
10379.8 5277.79 3163.15 0 0 -12841.3 0 0 -12841.3 
7146.56 7371.8 2435.02 18.3104 -10159.9 -6605.49 -4097.69 10768.1 5497.23 
17.928 -1828.19 -12713.5 1594.67 -5701.88 -1597.22 0 0 -12841.3 
19497 14895 17767.8 -47774.4 -26104.9 26052 14399.5 -11908.6 -16168.8 
-2885.32 -29200.3 10274.4 -3247.04 9450.31 24252 0 0 -12841.3 
2949.08 -8945.23 7266.58 0 0 -12841.3 8694.21 730.493 9869.15 
0 0 -12841.3 2145.32 805.496 -10891.1 3009.8 -6550.25 -3383.45 
0 0 -12841.3 -11811.8 8694.89 -11145.6 506.295 -14434.8 12513.5 