# vtk DataFile Version 4.0
Generated by LIGGGHTS
ASCII
DATASET POLYDATA
POINTS 846 float
-4337.17 -4885.93 499.396 -3769.29 -4063.88 499.363 -3313.01 -4954.93 499.183 
-2652.73 -4204.54 499.85 -1599.59 -4278.57 499.339 -363.113 -4453.8 497.669 
634.564 -4518.37 499.12 1613.54 -4725.62 498.981 2612.83 -4771.91 498.307 
3668.32 -4756.1 497.488 4666.09 -4820.11 498.775 -4775.58 -3981.55 498.847 
-4207.33 -3159.41 499.244 -3210.55 -3235.56 498.256 -2213.54 -3306.72 498.714 
-889.114 -3570.41 499.093 168.615 -3607.64 499.476 1166.13 -3672.17 499.097 
2148.44 -3882.37 499.422 3147.38 -3904.19 498.764 3700.52 -3071.88 499.054 
4226.5 -3921.75 498.039 4776.86 -3087.56 499.032 -4618.94 -2192.41 499.815 
-3624.38 -2286.36 499.251 -2627.54 -2358.77 499.321 -1408.08 -2716.31 498.427 
-400.051 -2674.38 499.699 387.165 -2055.5 497.996 1353.62 -2317.24 498.802 
2176.08 -2883.92 498.995 4386.48 -2098.99 498.354 -4686.25 -1117.99 499.183 
-3389.01 -1195.48 498.717 -2390.07 -1177.39 498.128 -1553.67 -1726.28 499.699 
-507.502 -1610.64 498.89 1105.75 -1349.68 498.753 2183.12 -1758.57 498.822 
3417.62 -1853.9 498.32 -4402.49 -158.99 498.538 -3385.44 -192.439 498.278 
-2392.93 -55.9431 499.701 -1528.94 -559.865 497.979 215.263 -889.712 498.359 
1939 -789.383 499.445 2920.23 -986.151 499.279 2597.88 -38.0269 498.891 
3599.56 -79.3689 498.444 4067.36 -980.653 499.155 4598.95 -133.493 498.808 
-4866.85 725.695 499.467 -3866.1 683.939 499.692 -2875.84 821.351 497.767 
-1507.84 438.664 498.179 -551.448 141.123 499.42 508.153 65.7561 499.551 
1625.18 190.973 498.208 3134.03 805.195 499.397 4134.51 765.42 499.154 
-4489.09 1650.49 498.634 -3490.35 1609.66 499.273 -2517.52 1657.52 908.52 
-1635.55 1429.38 498.62 -561.326 1140.38 499.243 6.09194 1962.59 498.702 
440.943 1062.77 499.123 1493.23 1181.78 498.295 2490.47 1586.33 499.014 
3478.16 1743.32 499.011 4512.17 1691.16 498.527 -4953.56 2535.61 498.89 
-3954.61 2494.72 499.271 -2956.05 2454.06 497.873 -1957.41 2374.9 497.98 
-974.272 2178.91 499.377 -291.596 2916.15 498.739 688.919 2691.77 498.815 
1694.83 2197.15 499.699 2954.43 2602.89 499.075 4035.27 2573.48 499.429 
-4417.78 3380.41 499.318 -3419.41 3338.73 498.838 -2362.74 3287.6 498.458 
-1286.18 3128.99 499.72 -607.572 3864.82 499.485 437.988 3659.01 499.069 
1556.74 3188.07 498.786 2579.42 3529.12 499.595 3586.55 3482.25 498.986 
4584.34 3423.73 498.24 -4880.02 4267.16 498.941 -3882 4223.95 499.102 
-2188.06 4910.07 499.662 -2849.41 4159.65 498.669 -1685.73 4045.51 499.561 
-1005.43 4781.95 497.619 57.4939 4619.06 498.814 1043.01 4454.63 498.658 
2039.06 4369.86 499.009 3123.12 4368.3 499.543 4122.09 4326.33 499.593 
-4296.71 -4305.62 1313.58 -3289.54 -4381.27 1316.86 -2338.04 -4417.3 1622.77 
-1529.74 -4894.59 1283.36 -853.952 -4149.35 1312.26 149.227 -4229 1323.66 
1315.47 -4230.3 1314.7 2345.96 -4348.61 1362.4 3683.92 -4162.41 1301.26 
4706.53 -4241.3 1312.82 -4741.6 -3405.31 1315.12 -3729.02 -3483.83 1315.91 
-2732.01 -3552.67 1316.14 -1739.9 -3686.53 1292.7 -350.136 -3285.45 1291.05 
733.105 -3543.78 1754.77 1670.65 -3280.01 1267.17 2659.5 -3411.54 1217.47 
3414.69 -3153.45 1817.3 4259.77 -3346.18 1314.39 -4167.52 -2586.66 1317 
-3156.22 -2648.84 1303.92 -2074.05 -2680.88 1266.65 -1236 -2947.76 1741.62 
-972.177 -2152.97 1197.05 -7.72735 -2349.41 1366.3 714.329 -2918.54 975.425 
1910.32 -2247.13 1326.22 1167.46 -2650.62 1857.87 2858.53 -2442.87 1079.41 
3840.4 -2440.94 1260.89 4837.74 -2491.69 1298.88 -4064.6 -1617.44 1101.14 
-4698 -1800.64 1851.63 -3422.22 -1146.51 1931.1 -2880.08 -1694 1201.93 
-1773.27 -1128.16 1280.83 -1692.72 -1940.9 1855.57 -906.186 -1317 1738.1 
886.98 -1846.96 1336.84 18.9765 -1351.23 1361.46 1702.15 -1268.54 1344.14 
2676.19 -1492.38 1325.94 3666.68 -1362.51 1330.9 4653.91 -1424.34 1185.12 
-4910.83 -529.358 1274.88 -3908.8 -638.435 1221.9 -2898.05 -695.083 1210.48 
-2241.3 -99.6475 1669.04 -1300.36 -64.8707 1335.28 -661.299 -737.985 961.177 
818.76 -986.839 1839.65 204.523 -369.056 1350.89 1139.41 -502.913 1026.29 
1194.63 -40.1597 1909.5 2048.59 -205.662 1317.06 3084.23 -400.569 1292.23 
4083.07 -395.074 1313.34 -4204.97 306.003 1361.07 -3089.32 295.515 1318.54 
-2153.11 769.416 1185.19 -1180.27 984.251 1268.01 -342.228 463.413 1422.35 
1025.57 615.473 1175.12 2270.1 756.067 1009.98 2759.04 395.732 1803.38 
3623.7 496.409 1314.3 4628.73 442.465 1314.45 -4006.27 1283.54 1292.72 
-3067.82 1244.68 1631.57 -1676.19 1952.63 1358.24 -10.3264 1400.92 1324.2 
887.836 1828.37 961.063 1759.76 1522.61 1398.15 3004.5 1355.84 1324.3 
4001.07 1421.56 1313.13 4998.95 1370.8 1310.09 -4470.18 2223.93 1316.45 
-3471.66 2183.35 1317.14 -2567.07 2208.9 1740.08 -1863.52 2961.54 1299.39 
-440.563 2306.09 1334.62 441.028 2173.45 1786.09 1184.5 2692.82 1365.98 
2480.06 2205.33 1283.64 3476.92 2331.52 1306.22 4530.26 2269.68 1312.84 
-4396.03 3955.76 1316.43 -4930.79 3111.55 1314.56 -3930.97 3070.98 1315.54 
-3381.24 3920.29 1310.03 -2903.86 3043.06 1301.96 -2282.24 3891.92 1290.33 
-717.39 3281.08 1325.02 258.244 3064.94 1319.63 733.822 3744.64 1875.92 
1460.52 3887.43 1206.25 2086.12 3121.38 1343.19 3076.05 3246.82 1324.49 
4070.9 3157.17 1311.18 -4856.69 4847.85 1311.8 -3857.93 4797.35 1316.79 
-2790.72 4752.7 1300.05 -1108.13 4199.63 1300.85 -437.632 4942.19 1305.28 
-31.3464 4029.06 1299.53 623.572 4882.86 1298.79 1804.83 4812.16 1363.69 
2580.18 4125.75 1303.07 3145.57 4967.86 1301.88 3612.77 4085.94 1391.49 
4605.58 4002.63 1314.02 4146.5 4926.16 1313.01 -4823.38 -4576.95 2128.17 
-4313.59 -4322.45 2949.56 -3824.93 -4627.92 2133.34 -3037.23 -4018.16 2213 
-2271.4 -4498.96 2641.1 -1462.72 -4298.01 2089.4 -870.901 -4291.36 2910.56 
-262.315 -4567.95 2168.24 737.071 -4504.11 2082.76 1756.71 -4567.88 2145.96 
2509.19 -4515.9 2837.11 3036.85 -4171.25 2062.07 3556.51 -4604.09 2899.39 
4165.2 -4481.36 2116.42 4624.91 -4791.4 2946.01 -4279.81 -3738.28 2136.65 
-3395.32 -3086.3 2170.23 -2311.97 -3220.47 2159.48 -1604.87 -3594.02 2782.89 
-674.611 -3657.94 2163.73 314.08 -3782.86 2630.4 1309.21 -3765.93 2540.08 
2176.08 -3651.8 2058.11 2925.2 -3378.23 2660.02 3886.61 -3630.18 2557.52 
4855.84 -3825.13 2702.48 4706.49 -3010.91 2142.65 -4339.27 -2752.41 2287.09 
-3612.32 -2122.41 2019.46 -2614.56 -2273.48 2054.06 -1644.81 -2614.68 2590.85 
-718.592 -2907.53 2826.02 -627.53 -2191.29 2134.67 829.75 -2917.37 2758.5 
27.8861 -2947.95 2163.57 415.652 -2008.82 2204.88 1788.15 -2538.96 2632.89 
2523.17 -2717.94 1979.45 2942.25 -2393.33 2828.02 3246.57 -2027.06 1949.35 
3869.86 -2631.64 2537.66 4931.37 -2220.27 2714.42 -4183.92 -1657.62 2696.26 
-3051.81 -1655.85 2707.29 -2437.04 -1292.29 2007.99 -1947.52 -1682.32 2787.23 
-1039.64 -1267.27 2727.56 -119.452 -1174.52 2334.64 751.207 -1161.48 2820.96 
1376.79 -1735.09 2201.24 2369.24 -1721.68 2317.41 3233.99 -1207.97 2522.34 
4915.44 -1221.72 2677.79 4320.38 -1937.18 1976.82 4009.81 -1712 2900.69 
-4371.27 -862.599 2078.03 -4335.03 -23.7496 2695.18 -3591.94 -168.95 2044.83 
-3705.29 -789.143 2819.75 -2737.2 -461.13 2472.51 -1535.42 -642.928 2120.43 
-1012.71 -201.525 2847.74 -586.396 -374.311 1960.97 329.529 -279.422 2348.25 
1594.91 -788.055 2436.78 2494.46 -781.197 2003.09 3414.46 -270.349 2225.9 
4120.67 -970.483 2128.47 4831.25 -272.914 2205.23 -4785.22 644.037 2101.52 
-3799.87 803.473 2149.25 -2783.7 510.396 2245.73 -1897.82 175.245 2565.4 
-1056.03 491.952 2128.62 -239.486 533.579 2703.25 456.069 647.269 1995.13 
1359.59 353.554 2812.28 1833.93 723.515 1993.98 2264.38 3.22781 2576.84 
2204.17 945.336 2906.08 3099.17 527.33 2738.15 4123.94 432.054 2176.27 
-4463.6 1622.26 2114.86 -3506.87 1878.09 2268.41 -2626.21 1463.76 2500.12 
-1797.4 1156.2 2034.78 -1184.72 1203.23 2823.41 -936.785 1659.93 1961.53 
-24.8046 1468.18 2320.26 651.057 1047.58 2922.46 1050.2 1444.58 2096.87 
1601.48 1744.5 2878.81 2439.64 1530.29 2130.35 3522.59 1231.64 2169.74 
4514.78 1352.25 2183.91 -4139.57 2519.96 2701.05 -4959.83 2533.92 2130.14 
-3408.76 2929.01 2156.01 -2784.65 2418.09 2747.76 -1165.19 2633.81 1939.59 
-1844.39 2079.35 2417.3 -1601.12 2988.61 2765.88 -599.628 2203.83 2727.38 
-251.525 2965.21 2173.7 927.143 2868.63 2315.28 646.984 2037.64 2793.01 
1779.8 2277.65 2052.75 2648.6 2769.9 2090.78 3119.85 2070 2624.86 
3990.82 2202.05 2152.36 4134.22 2790.17 2946.35 -4420.71 3375.22 2131.97 
-3845.22 3918.08 2741.34 -2988.73 3884.97 2227.65 -2375.04 3101.65 2146.23 
-1527.51 3604.67 1983.65 -585.716 3907.36 2120.98 196.238 3731.73 2717.38 
1855.54 3119.67 2586.62 1957.55 3968.63 2069.28 1188.93 3842.12 2764.6 
2978.11 3912.08 2194.86 2941.94 3206.3 2941.61 3581.68 3115.09 2180.17 
3908.01 3921.22 2674.05 4580.26 3421.37 2129.46 -4923.67 4004.99 2777.16 
-4369.4 4531.58 2133.28 -2966.01 4882.49 2275.57 -2058.14 4597.07 1962.53 
-1538.27 4220.41 2768.53 -1034.08 4800.22 2095.09 -469.289 4565.03 2883.7 
187.175 4540.98 2130.34 1184.4 4603.12 2117.62 1882.93 4705.94 2824.39 
2521.39 4793.5 2061.36 2952.84 4594.61 2940.49 3574.38 4714.89 2167.61 
4595.37 4610.46 2146.35 -4926.23 -4378.59 3736.87 -3022.75 -4479 3301.54 
-2140.1 -4220.18 3714.06 -1583.91 -4904.46 3246.09 -696.692 -4913.47 3705.52 
53.4026 -4615.84 3115.87 697.036 -4669.17 3879.88 1141.64 -4644.04 2985.59 
1910.93 -4680.82 3623.03 4188.94 -4029.34 3422.53 -4462.47 -3244.43 3147.17 
-3970.29 -3991.81 3828.59 -3568.92 -3656.54 2976.74 -3143.7 -3073.6 3667.64 
-2571.49 -3629.74 3033.44 -1238.58 -3788.8 3692.33 -251.354 -3725.99 3453.18 
889.411 -3757.99 3447.39 2097.34 -3659.55 3145.36 2662.58 -3089.16 3740.42 
3045.14 -3976.36 3485.49 3587.26 -3120.97 3363.42 4567.78 -3011.18 3205.09 
-4396.05 -2285.99 3451.21 -3552.78 -2485.28 2953.14 -2563.42 -2632.69 2984.29 
-1771.92 -2946.25 3525.05 -1120.39 -2108.91 3274.02 -819.279 -2890.62 3819.82 
86.6497 -2786.95 3412.16 776.024 -2056.56 3263.81 1497.67 -2943.55 3500.37 
2208.19 -2236.8 3487.91 3829.35 -2222.2 3741.26 -3629.94 -1503.47 3513.48 
-2566.85 -1821.42 3567.48 -1672.97 -1397.16 3706.58 -178.195 -1914.23 3003.8 
[...]
POINT_DATA 846
FIELD FieldData 7
id 1 846 int
72 12 38 94 7 11 80 109 30 
100 48 107 102 124 89 79 97 81 
90 82 51 91 49 36 60 78 18 
16 28 26 31 14 27 98 15 45 
104 96 22 87 54 37 59 19 1 
2 4 108 43 29 84 33 92 21 
88 42 55 66 46 77 73 20 69 
110 131 13 40 53 23 35 105 52 
8 119 61 25 34 58 6 85 47 
63 57 32 75 65 93 39 83 67 
41 10 9 17 113 3 56 50 24 
166 44 5 164 139 185 103 194 95 
125 135 86 150 137 223 193 133 149 
202 161 99 274 147 168 128 163 132 
157 179 148 155 186 145 278 281 101 
156 181 141 134 212 187 225 165 136 
195 170 62 159 123 142 224 70 121 
172 152 115 197 130 140 160 171 126 
209 153 217 177 112 316 158 118 127 
207 169 154 111 191 143 114 151 129 
175 198 76 167 189 200 116 192 214 
219 196 210 221 146 182 144 74 216 
64 117 68 228 206 138 120 71 122 
183 162 201 178 180 208 215 106 248 
427 242 276 232 273 378 262 289 337 
293 258 386 266 406 239 322 229 307 
275 312 309 245 292 320 327 330 350 
299 259 240 301 254 329 190 227 317 
267 356 282 304 305 368 285 268 314 
310 233 354 264 296 375 315 256 376 
204 298 211 323 231 252 283 213 257 
370 324 374 270 297 243 265 234 253 
235 308 271 381 288 302 380 365 263 
230 261 269 218 357 236 255 367 244 
321 250 174 226 294 173 246 355 279 
272 331 290 260 333 372 251 205 295 
222 379 277 349 326 237 184 280 311 
332 238 306 247 377 241 335 334 352 
176 300 249 286 199 363 188 319 318 
203 360 291 220 457 396 397 366 408 
328 417 369 418 402 419 456 437 422 
340 477 423 500 338 494 450 475 436 
488 412 343 444 345 439 441 429 390 
503 474 428 413 447 336 409 476 443 
467 432 508 445 348 459 416 391 405 
385 325 347 424 341 388 415 344 481 
451 382 400 303 339 435 362 426 440 
364 389 504 358 313 392 438 433 425 
442 469 403 284 414 287 399 463 398 
411 353 401 387 478 346 410 361 393 
502 452 509 394 373 404 395 384 420 
454 351 421 448 434 430 342 505 468 
371 359 383 446 473 431 449 610 520 
560 528 499 589 548 485 555 546 562 
529 598 541 479 532 566 583 501 516 
507 558 530 482 613 658 547 524 491 
483 618 466 565 616 471 554 556 571 
577 487 620 493 537 511 495 513 553 
579 551 574 522 563 535 518 552 533 
407 526 640 573 496 557 461 521 489 
621 455 593 512 612 490 498 531 464 
543 462 492 525 536 484 564 465 581 
568 586 519 460 470 559 545 534 453 
538 599 550 609 458 549 544 480 517 
539 510 515 514 506 527 486 542 608 
497 605 540 523 472 569 561 597 617 
602 641 572 728 713 653 601 631 664 
720 578 642 669 700 714 736 643 590 
666 672 575 694 716 587 659 677 710 
650 585 707 831 651 680 647 652 673 
701 726 654 596 638 630 668 679 667 
663 576 646 724 731 718 693 688 594 
607 629 592 682 633 622 645 730 698 
674 722 603 567 656 595 635 634 655 
678 794 628 619 580 611 661 695 648 
591 588 644 662 584 649 837 624 717 
675 729 657 615 665 704 600 637 676 
684 625 582 725 627 626 639 708 670 
660 604 706 570 711 632 636 671 623 
699 734 606 780 776 764 762 789 733 
763 757 761 709 778 765 692 690 741 
760 786 750 691 771 751 715 737 687 
721 697 703 723 683 739 784 770 681 
759 719 754 766 686 685 746 756 689 
788 712 755 727 702 743 745 732 777 
696 749 775 767 735 758 785 705 773 
772 740 742 779 768 753 787 738 747 
782 783 744 748 781 774 769 752 838 
811 836 813 816 797 804 805 793 795 
790 817 815 812 829 826 844 814 822 
809 825 803 806 824 834 842 840 833 
828 841 799 792 830 846 796 801 820 
802 839 835 823 832 807 845 819 827 
791 800 808 798 821 843 810 818 614 

type 1 846 int
1 1 1 1 1 1 1 1 1 
1 1 1 1 1 1 1 1 1 
1 1 1 1 1 1 1 1 1 
1 1 1 1 1 1 1 1 1 
1 1 1 1 1 1 1 1 1 
1 1 1 1 1 1 1 1 1 
1 1 1 1 1 1 1 1 1 
1 1 1 1 1 1 1 1 1 
1 1 1 1 1 1 1 1 1 
1 1 1 1 1 1 1 1 1 
1 1 1 1 1 1 1 1 1 
1 1 1 1 1 1 1 1 1 
1 1 1 1 1 1 1 1 1 
1 1 1 1 1 1 1 1 1 
1 1 1 1 1 1 1 1 1 
1 1 1 1 1 1 1 1 1 
1 1 1 1 1 1 1 1 1 
1 1 1 1 1 1 1 1 1 
1 1 1 1 1 1 1 1 1 
1 1 1 1 1 1 1 1 1 
1 1 1 1 1 1 1 1 1 
1 1 1 1 1 1 1 1 1 
1 1 1 1 1 1 1 1 1 
1 1 1 1 1 1 1 1 1 
1 1 1 1 1 1 1 1 1 
1 1 1 1 1 1 1 1 1 
1 1 1 1 1 1 1 1 1 
1 1 1 1 1 1 1 1 1 
1 1 1 1 1 1 1 1 1 
1 1 1 1 1 1 1 1 1 
1 1 1 1 1 1 1 1 1 
1 1 1 1 1 1 1 1 1 
1 1 1 1 1 1 1 1 1 
1 1 1 1 1 1 1 1 1 
1 1 1 1 1 1 1 1 1 
1 1 1 1 1 1 1 1 1 
1 1 1 1 1 1 1 1 1 
1 1 1 1 1 1 1 1 1 
1 1 1 1 1 1 1 1 1 
1 1 1 1 1 1 1 1 1 
1 1 1 1 1 1 1 1 1 
1 1 1 1 1 1 1 1 1 
1 1 1 1 1 1 1 1 1 
1 1 1 1 1 1 1 1 1 
1 1 1 1 1 1 1 1 1 
1 1 1 1 1 1 1 1 1 
1 1 1 1 1 1 1 1 1 
1 1 1 1 1 1 1 1 1 
1 1 1 1 1 1 1 1 1 
1 1 1 1 1 1 1 1 1 
1 1 1 1 1 1 1 1 1 
1 1 1 1 1 1 1 1 1 
1 1 1 1 1 1 1 1 1 
1 1 1 1 1 1 1 1 1 
1 1 1 1 1 1 1 1 1 
1 1 1 1 1 1 1 1 1 
1 1 1 1 1 1 1 1 1 
1 1 1 1 1 1 1 1 1 
1 1 1 1 1 1 1 1 1 
1 1 1 1 1 1 1 1 1 
1 1 1 1 1 1 1 1 1 
1 1 1 1 1 1 1 1 1 
1 1 1 1 1 1 1 1 1 
1 1 1 1 1 1 1 1 1 
1 1 1 1 1 1 1 1 1 
1 1 1 1 1 1 1 1 1 
1 1 1 1 1 1 1 1 1 
1 1 1 1 1 1 1 1 1 
1 1 1 1 1 1 1 1 1 
1 1 1 1 1 1 1 1 1 
1 1 1 1 1 1 1 1 1 
1 1 1 1 1 1 1 1 1 
1 1 1 1 1 1 1 1 1 
1 1 1 1 1 1 1 1 1 
1 1 1 1 1 1 1 1 1 
1 1 1 1 1 1 1 1 1 
1 1 1 1 1 1 1 1 1 
1 1 1 1 1 1 1 1 1 
1 1 1 1 1 1 1 1 1 
1 1 1 1 1 1 1 1 1 
1 1 1 1 1 1 1 1 1 
1 1 1 1 1 1 1 1 1 
1 1 1 1 1 1 1 1 1 
1 1 1 1 1 1 1 1 1 
1 1 1 1 1 1 1 1 1 
1 1 1 1 1 1 1 1 1 
1 1 1 1 1 1 1 1 1 
1 1 1 1 1 1 1 1 1 
1 1 1 1 1 1 1 1 1 
1 1 1 1 1 1 1 1 1 
1 1 1 1 1 1 1 1 1 
1 1 1 1 1 1 1 1 1 
1 1 1 1 1 1 1 1 1 
1 1 1 1 1 1 1 1 1 

i 3 846 int
0 1 0 0 0 0 1 1 0 
0 1 0 0 0 0 0 0 0 
0 1 0 0 0 0 0 1 0 
0 0 0 -1 0 0 0 0 0 
0 0 0 0 0 0 0 0 0 
0 0 0 0 0 0 0 1 0 
0 0 0 0 0 0 0 0 0 
0 0 0 -1 0 0 1 1 0 
0 0 0 0 0 0 0 0 0 
0 0 0 0 0 0 0 0 0 
0 0 0 0 0 0 0 0 0 
0 0 0 0 0 0 0 0 0 
0 0 0 0 0 0 0 0 0 
-1 0 0 0 0 0 0 0 0 
0 0 0 0 0 0 0 0 0 
0 0 0 0 0 0 0 0 0 
0 0 0 0 0 0 0 0 0 
0 0 0 0 0 0 0 0 0 
0 0 0 0 0 0 0 0 0 
0 0 0 0 0 0 0 0 0 
0 -1 0 1 -1 0 0 0 0 
0 0 0 0 0 0 0 0 0 
0 0 0 0 0 0 0 0 0 
0 0 0 -1 0 0 0 0 0 
0 0 0 0 0 0 0 0 0 
0 0 0 0 0 0 0 0 0 
0 0 0 0 0 0 0 0 0 
1 -1 0 0 0 0 0 0 0 
0 0 0 0 -1 0 0 0 0 
0 0 0 0 0 0 0 0 0 
0 0 0 1 0 0 0 0 0 
0 -1 0 0 -1 0 0 -1 0 
0 -1 0 0 -1 0 0 -1 0 
0 0 0 0 0 0 0 0 0 
1 0 0 0 1 0 0 0 0 
0 0 0 0 0 0 0 0 0 
0 0 0 0 1 0 0 0 0 
0 1 0 1 0 0 0 1 0 
0 0 0 0 0 0 0 0 0 
0 0 0 0 0 0 -1 1 0 
0 0 0 0 1 0 0 0 0 
0 0 0 0 0 0 0 1 0 
0 0 0 0 0 0 0 0 0 
0 0 0 0 0 0 0 0 0 
0 0 0 -1 0 0 0 0 0 
0 0 0 0 0 0 0 1 0 
0 0 0 0 0 0 0 0 0 
0 0 0 0 0 0 0 0 0 
0 0 0 -1 0 0 -1 0 0 
1 0 0 1 0 0 0 0 0 
0 0 0 0 0 0 0 0 0 
0 0 0 0 0 0 0 0 0 
0 0 0 0 0 0 -1 0 0 
0 0 0 0 0 0 0 0 0 
0 0 0 0 0 0 0 0 0 
0 0 0 -1 0 0 0 0 0 
0 0 0 0 0 0 0 0 0 
0 0 0 0 0 0 0 0 0 
-1 0 0 0 0 0 0 0 0 
0 0 0 -1 0 0 1 0 0 
0 0 0 0 0 0 0 0 0 
0 0 0 0 0 0 0 0 0 
0 0 0 0 0 0 -1 0 0 
0 0 0 0 0 0 0 -1 0 
0 0 0 0 -1 0 0 0 0 
0 0 0 0 -1 0 0 0 0 
0 0 0 0 0 0 0 0 0 
0 0 0 1 -1 0 0 0 0 
0 0 0 0 0 0 0 0 0 
0 0 0 0 -1 0 0 0 0 
0 0 0 0 0 0 -1 0 0 
0 0 0 -1 0 0 1 0 0 
0 1 0 0 0 0 0 0 0 
0 1 0 0 0 0 0 0 0 
0 0 0 0 0 0 0 0 0 
0 0 0 0 0 0 0 0 0 
0 0 0 0 1 0 0 0 0 
0 1 0 0 0 0 0 0 0 
0 0 0 0 1 0 0 0 0 
0 0 0 0 0 0 0 0 0 
0 0 0 0 0 0 0 0 0 
0 0 0 0 0 0 0 0 0 
0 0 0 0 0 0 0 0 0 
0 0 0 0 0 0 0 0 0 
0 0 0 0 0 0 0 0 0 
-1 0 0 0 0 0 0 0 0 
0 0 0 0 0 0 0 0 0 
0 0 0 0 0 0 0 0 0 
0 0 0 0 0 0 -1 0 0 
-1 0 0 0 0 0 0 0 0 
1 0 0 0 0 0 1 0 0 
0 0 0 1 0 0 0 0 0 
0 0 0 0 0 0 0 0 0 
0 0 0 0 0 0 0 0 0 
0 0 0 0 0 0 1 0 0 
1 0 0 0 0 0 0 0 0 
0 0 0 0 0 0 0 0 0 
0 0 0 0 0 0 0 0 0 
0 0 0 0 0 0 0 0 0 
0 0 0 0 0 0 1 0 0 
0 0 0 0 0 0 0 0 0 
0 0 0 0 0 0 0 0 0 
0 0 0 0 0 0 0 0 0 
0 0 0 0 0 0 1 0 0 
0 0 0 0 0 0 0 0 0 
0 0 0 0 -1 0 0 0 0 
0 0 0 0 0 0 0 0 0 
0 0 0 0 0 0 0 0 0 
-1 0 0 -1 0 0 0 0 0 
0 0 0 0 0 0 0 0 0 
0 0 0 0 0 0 0 0 0 
0 0 0 0 0 0 0 0 0 
0 0 0 0 0 0 0 0 0 
0 0 0 0 0 0 1 0 0 
0 -1 0 0 0 0 0 0 0 
0 0 0 0 -1 0 0 0 0 
0 0 0 0 -1 0 0 0 0 
0 -1 0 0 0 0 0 0 0 
-1 -1 0 1 0 0 0 0 0 
0 0 0 0 0 0 0 1 0 
0 1 0 0 0 0 0 1 0 
0 0 0 -1 1 0 0 0 0 
0 0 0 0 0 0 0 0 0 
0 0 0 0 0 0 0 0 0 
0 0 0 0 0 0 0 0 0 
0 0 0 0 0 0 0 0 0 
0 0 0 0 0 0 0 0 0 
0 1 0 0 0 0 0 0 0 
0 0 0 0 0 0 0 0 0 
0 0 0 0 0 0 0 0 0 
0 0 0 0 0 0 0 0 0 
0 0 0 0 0 0 0 0 0 
0 0 0 0 0 0 0 0 0 
-1 0 0 0 0 0 0 0 0 
0 0 0 0 0 0 0 0 0 
0 0 0 0 0 0 0 0 0 
0 0 0 0 0 0 0 0 0 
0 0 0 0 0 0 -1 0 0 
0 0 0 0 0 0 0 0 0 
0 0 0 0 0 0 0 0 0 
0 0 0 0 0 0 0 0 0 
0 0 0 -1 0 0 0 0 0 
0 0 0 0 0 0 1 0 0 
0 0 0 0 0 0 0 0 0 
0 0 0 0 0 0 0 0 0 
0 0 0 0 0 0 -1 0 0 
0 0 0 0 0 0 0 0 0 
0 0 0 0 0 0 0 0 0 
0 0 0 0 0 0 0 0 0 
0 0 0 0 0 0 -1 0 0 
0 0 0 1 0 0 0 0 0 
0 -1 0 0 0 0 0 0 0 
0 0 0 0 -1 0 0 0 0 
0 0 0 0 0 0 0 0 0 
0 0 0 0 0 0 1 0 0 
1 -1 0 0 0 0 0 0 0 
0 -1 0 0 0 0 0 0 0 
0 0 0 0 0 0 0 -1 0 
0 -1 0 0 0 0 0 0 0 
0 0 0 0 0 0 0 1 0 
0 0 0 0 0 0 0 0 0 
0 0 0 0 0 0 0 1 0 
0 0 0 0 0 0 0 0 0 
0 0 0 0 0 0 0 0 0 
0 0 0 0 0 0 0 0 0 
0 1 0 0 0 0 0 0 0 
0 0 0 0 0 0 0 0 0 
1 0 0 0 0 0 0 0 0 
0 0 0 0 0 0 0 0 0 
0 0 0 0 0 0 0 0 0 
0 0 0 -1 0 0 0 0 0 
0 0 0 0 0 0 0 0 0 
0 0 0 0 0 0 0 0 0 
0 0 0 0 0 0 0 0 0 
0 0 0 -1 0 0 0 0 0 
0 0 0 0 0 0 0 0 0 
0 0 0 0 0 0 0 0 0 
0 0 0 0 0 0 0 0 0 
0 0 0 0 0 0 0 0 0 
0 0 0 0 0 0 0 0 0 
0 0 0 0 0 0 0 0 0 
0 0 0 -1 0 0 1 0 0 
0 0 0 0 0 0 0 0 0 
0 0 0 0 0 0 0 0 0 
0 0 0 0 0 0 0 0 0 
0 0 0 0 0 0 0 0 0 
0 0 0 0 0 0 0 0 0 
0 0 0 0 0 0 0 0 0 
0 0 0 0 0 0 0 0 0 
0 0 0 0 0 0 0 0 0 
0 0 0 0 0 0 0 0 0 
0 0 0 0 0 0 0 0 0 
0 0 0 0 0 0 0 0 0 
0 0 0 0 0 0 1 0 0 
0 0 0 0 0 0 0 0 0 
1 0 0 0 -1 0 0 -1 0 
0 0 0 0 0 0 0 0 0 
0 -1 0 0 -1 0 0 0 0 
0 0 0 0 0 0 0 0 0 
0 0 0 0 0 0 0 0 0 
0 0 0 0 1 0 0 0 0 
0 0 0 0 0 0 -1 0 0 
0 0 0 0 0 0 0 0 0 
0 0 0 0 0 0 0 0 0 
0 1 0 0 0 0 0 0 0 
0 0 0 0 0 0 0 0 0 
0 0 0 0 0 0 0 0 0 
-1 0 0 0 0 0 0 0 0 
0 0 0 0 0 0 0 0 0 
0 0 0 0 0 0 -1 0 0 
0 0 0 0 0 0 0 0 0 
1 0 0 0 0 0 0 0 0 
0 0 0 0 0 0 0 0 0 
0 0 0 0 0 0 0 0 0 
0 0 0 0 0 0 -1 0 0 
1 0 0 0 0 0 0 0 0 
0 0 0 0 0 0 0 0 0 
0 0 0 0 0 0 0 0 0 
0 0 0 1 0 0 1 0 0 
0 0 0 0 0 0 0 0 0 
0 0 0 0 0 0 0 0 0 
0 0 0 0 0 0 0 0 0 
0 0 0 0 0 0 0 0 0 
0 0 0 0 0 0 0 0 0 
0 0 0 0 0 0 0 0 0 
0 0 0 0 0 0 0 0 0 
0 0 0 0 0 0 0 0 0 
0 0 0 0 0 0 0 0 0 
0 0 0 0 0 0 0 0 0 
0 0 0 0 0 0 0 0 0 
0 0 0 0 0 0 -1 0 0 
0 0 0 0 0 0 0 0 0 
0 0 0 0 0 0 0 0 0 
0 0 0 0 0 0 0 0 0 
0 0 0 1 0 0 0 0 0 
0 0 0 0 -1 0 0 -1 0 
0 0 0 0 0 0 0 -1 0 
0 0 0 0 0 0 -1 0 0 
1 0 0 0 0 0 0 0 0 
0 0 0 0 0 0 0 0 0 
0 0 0 0 0 0 0 0 0 
0 0 0 0 0 0 0 0 0 
0 0 0 0 0 0 0 0 0 
0 0 0 0 0 0 0 0 0 
0 0 0 0 0 0 1 0 0 
0 0 0 0 0 0 0 0 0 
0 0 0 0 0 0 0 0 0 
0 0 0 0 0 0 0 0 0 
0 0 0 0 0 0 0 0 0 
0 0 0 0 0 0 0 0 0 
0 0 0 0 0 0 0 0 0 
1 0 0 0 0 0 0 0 0 
0 0 0 0 0 0 0 0 0 
0 0 0 0 0 0 -1 0 0 
0 0 0 0 0 0 0 0 0 
0 -1 0 0 0 0 0 0 0 
0 1 0 0 0 0 0 0 0 
0 0 0 -1 0 0 0 0 0 
0 0 0 0 0 0 0 0 0 
0 0 0 0 0 0 0 0 0 
0 0 0 0 0 0 0 0 0 
0 0 0 0 0 0 0 0 0 
0 0 0 0 0 0 0 0 0 
0 0 0 0 0 0 0 0 0 
0 0 0 0 0 0 0 0 0 
0 0 0 0 0 0 0 0 0 
0 0 0 0 0 0 0 0 0 
0 0 0 0 0 0 0 0 0 
0 0 0 0 0 0 0 0 0 
0 0 0 0 0 0 0 0 0 
0 0 0 0 0 0 0 0 0 
0 0 0 0 0 0 0 0 0 
0 0 0 0 0 0 0 0 0 
0 0 0 0 0 0 0 0 0 
0 0 0 0 0 0 0 0 0 
0 0 0 0 0 0 0 0 0 
0 0 0 0 0 0 0 0 0 
0 0 0 0 0 0 0 0 0 
0 0 0 0 0 0 0 0 0 
0 0 0 0 0 0 0 0 0 
0 0 0 0 0 0 0 0 0 
0 0 0 0 0 0 0 0 0 

v 3 846 double
-6.71288e-05 -0.000326653 -0.000250291 -0.000223047 -0.000115007 -0.000169246 -0.000317125 -7.74815e-05 -0.000279821 
-0.000727432 0.000156887 4.22753e-05 0.00062147 -8.47271e-05 7.96771e-06 0.000219757 -0.000491262 0.000185815 
0.00030375 -0.000196378 6.8991e-05 -0.000165312 0.000130025 -0.000197651 7.80969e-05 -2.77727e-05 -0.00015612 
-6.89816e-05 0.000321211 -0.000320489 -0.00011798 -0.000540095 -0.000560848 -0.000163525 -0.00013618 -0.000354462 
-0.000205377 4.14406e-05 -0.000152491 -0.000331575 6.35471e-06 9.91541e-05 -0.000335814 0.000118822 0.000296445 
0.00052934 0.000337436 -0.000350889 3.46122e-05 -4.36857e-05 -0.00010016 -0.000415436 -0.000193188 -0.000197532 
-2.52175e-05 0.000360576 -0.000337483 6.55825e-06 0.00020502 -0.000426257 -0.000249701 0.000221557 -0.000294499 
2.26593e-05 -4.97899e-05 -0.000470136 -0.000110581 7.14692e-06 -0.000454327 8.02113e-05 0.000901741 9.98068e-05 
2.6114e-05 0.000408129 -2.42318e-05 6.4611e-05 0.000485042 -7.19436e-05 -0.000371315 0.000155952 0.000152527 
-0.000567769 0.000437117 -1.54758e-07 -0.000376728 -0.000130156 -5.33547e-05 -0.000186784 8.62206e-05 -4.72539e-05 
0.00045443 0.000552936 -0.000652656 -2.90728e-05 0.000253888 -0.000211128 -1.70949e-05 -4.42263e-05 0.000484465 
-0.000121674 0.000292997 0.000126191 -0.000141631 0.000426521 0.00018665 3.83493e-06 0.000142906 2.70557e-09 
-1.76586e-05 7.57878e-05 -2.60075e-05 -0.000810954 0.0001889 -0.000369409 -0.000408147 0.000275646 -9.32607e-05 
0.000138289 0.000700806 -0.000366983 -0.000129294 -2.67855e-05 2.07554e-05 -0.000146841 6.39519e-05 0.000110864 
-0.000414126 -0.000199716 -3.29489e-05 0.000296148 0.000161414 0.000111899 -0.000372502 2.07663e-06 3.48523e-05 
-0.000251499 0.00024364 -0.000227772 -0.000106397 -8.33095e-05 -0.000143863 -0.000244362 -0.000212171 -0.000101136 
-0.000199186 4.27218e-05 -0.00019674 -0.000522023 0.00124242 -4.73408e-05 -0.000179284 -0.000457129 -0.000240782 
-0.00027451 -0.000238215 -5.19143e-05 -0.000159851 -1.9458e-05 4.7435e-05 -4.62812e-05 -4.40657e-05 0.000150076 
0.00014898 4.38852e-05 9.29403e-05 -0.000187119 -0.000167535 3.33557e-05 -0.000341047 0.00017833 3.43978e-05 
-0.000175583 0.000108837 -0.00012903 -0.000290616 -0.000140526 -2.51431e-05 -0.000230396 -6.72878e-05 -0.000163521 
-0.000258381 -7.74019e-05 0.000168692 -0.000177625 -0.000104854 0.000166708 -0.000141769 0.000163211 0.000238099 
-0.000193768 7.45187e-05 0.000186482 -0.000156552 -6.18149e-05 0.000227296 -5.0372e-05 -1.3342e-05 8.37381e-07 
0.0002026 0.000151543 -2.93667e-05 0.000204761 0.000171433 -0.000247859 -4.6656e-05 -6.84881e-05 -0.000166406 
-0.00114876 0.000197099 -0.00015087 -0.000130342 -0.000181293 7.15108e-05 -1.70691e-05 -0.00016785 0.000429 
8.0018e-05 -4.59416e-05 0.000225662 3.78097e-05 -2.96617e-05 0.000172852 2.10728e-05 0.00010832 5.63175e-05 
0.000554185 0.000291917 -0.000443793 -0.000456626 -5.50445e-05 2.05001e-06 -0.000497527 0.000350705 -2.11177e-05 
-0.000762192 -5.4629e-05 2.41272e-10 -0.000622829 0.000231889 -0.000240669 -0.000173911 2.81328e-05 0.000268867 
3.82804e-06 -0.000267318 6.51791e-05 0.000138462 -4.68483e-05 0.000104541 0.000381964 0.00016419 0.000337722 
0.000465558 0.000357713 9.75386e-05 0.000278374 0.000330045 0.000623451 -0.000125303 0.000754732 5.71072e-05 
-0.000141175 0.000106613 -7.96961e-05 -0.000623898 7.91024e-05 -0.000248321 -0.000106735 0.000198741 -0.000188214 
0.000119247 -0.000450826 -5.24932e-06 7.8342e-05 -0.000307318 2.18658e-05 -5.05427e-06 -0.000240055 -4.24914e-05 
-0.000317474 0.000143306 0.000195941 -0.000261572 -6.63288e-05 -0.000188496 0.000201502 -0.000141594 6.28312e-05 
0.00027054 -0.000368765 0.000400511 3.16266e-05 0.0011358 0.000734355 5.34633e-05 -6.57843e-05 5.5941e-05 
0.000138967 0.000153542 -3.76788e-05 0.000306963 0.000405876 0.000334652 0.000218756 0.000269489 0.000145358 
-0.000270188 -0.00035311 -0.000654723 -0.000384909 -0.000254916 -0.000416359 -0.000152185 -0.000642043 -0.000692249 
0.000424485 -0.000422916 -7.47195e-05 -3.01931e-05 0.000286816 -0.00015967 0.000253229 -0.000552366 0.00019166 
-0.000444641 0.000149277 -0.000595138 -0.000293458 0.000832555 -0.00122559 7.27619e-05 -0.000650892 -0.00080279 
-0.000329082 -0.000277511 -0.000819505 -0.000713918 5.24217e-05 -0.000365553 -0.000454454 -0.000268453 -0.00027344 
-0.000625903 -0.000185825 0.000319809 -0.000275047 -0.000153516 0.000234576 -6.31496e-05 3.3108e-05 -0.000131669 
-0.000829961 0.000509294 5.66277e-05 -0.00046335 -0.000410937 -0.000655247 -0.000208491 0.000842451 -0.00140523 
-0.000707809 0.000346501 -0.00135904 -3.02222e-05 0.000135876 -0.000929674 -5.07895e-06 -3.93435e-05 -0.000421739 
-0.000556723 0.000278089 9.28107e-05 9.83662e-05 -0.000158427 -0.000669727 -9.45274e-05 0.000271983 -0.000137645 
-0.000375603 0.000201438 -0.000119032 -0.000527172 -0.00023202 -0.000389758 -0.000387694 2.20966e-05 -0.000322061 
0.00017567 -0.000874265 -0.000873981 0.000536027 0.000143909 -0.000320434 5.47223e-05 0.000568197 -0.00109063 
-0.00013491 0.000268459 -0.000623137 -1.58843e-05 0.000261166 -0.000545551 0.000268619 0.000287387 0.000453768 
-0.000274187 -7.81413e-05 0.000373214 -0.000128506 0.000664722 0.000753107 -0.000180934 0.000276616 -0.000102879 
-0.000100716 0.000447156 0.000334868 0.000241948 0.000610091 0.0003223 -9.80244e-05 -0.000267651 0.00017803 
-3.26287e-05 -7.58291e-05 -0.000412328 -0.000442699 -0.000296999 -0.000102198 -0.000669849 0.000492214 -0.000259171 
-0.000503742 -0.000428049 -9.84294e-05 -0.00069182 0.000939455 -0.000361965 -0.000641862 0.000289144 0.00016109 
-0.000400013 0.000258643 -8.22421e-05 4.25414e-05 0.000420273 0.000269078 -0.000331812 0.000194132 0.000103333 
-0.000180809 -0.000291363 0.000174549 -4.56655e-05 -0.000197034 0.00049626 0.000100542 -0.000133148 1.38503e-05 
-0.000365559 -3.65324e-05 -0.000420053 -0.000539253 -8.36921e-05 8.65609e-05 -0.00054252 2.65682e-06 -0.000355772 
-0.000171748 -0.000104723 -0.000431362 -0.000907818 0.000495939 -0.000344312 -0.000224285 -0.000569827 -0.000239574 
-0.000681591 -4.68157e-05 -0.000151384 1.39955e-06 0.000142545 0.000249129 0.000171607 0.000252249 0.000202997 
6.2062e-05 -0.000185427 0.000126941 -0.000395651 -0.000357359 0.000370008 -0.000312691 -0.000161322 2.20821e-05 
0.000168504 -0.000103289 -0.000165291 -0.00010571 1.46574e-05 -0.000127679 -0.000342269 0.000222507 -0.000149542 
-0.000205733 -0.000332921 -0.000302102 -0.000238582 -0.000734691 -0.000416141 -0.000441227 -0.000879003 -0.000620402 
-0.000839863 -0.000313254 0.000101763 0.000451022 1.19609e-05 -0.000760194 -0.00012541 -0.000154871 -0.000190301 
0.000126136 0.000291162 -0.000138062 -0.000140655 0.000148823 -0.000465592 -0.000200258 -0.000135458 -0.000134066 
-0.000261781 -0.000616365 -6.40636e-05 -0.000436022 -0.000674824 -3.09044e-05 -8.48019e-05 0.000127221 0.000290607 
-0.000294569 -0.000770227 0.000697119 0.000326506 -0.00039304 0.000501574 0.000842014 -0.0020084 0.00129889 
0.000517093 0.000468494 -0.00117007 -0.000223217 0.000415279 -0.000261273 -0.000403131 0.000523655 -0.000301754 
-0.000175398 -0.000247353 -0.000260865 -0.000768481 6.45208e-05 -0.000723321 -0.000207142 -0.000567146 0.000504709 
-0.000418854 -0.000302475 0.000181431 -0.000145288 -0.000277539 0.000672163 0.000127572 -0.000173302 0.000324557 
0.000609917 -5.8422e-05 8.28944e-05 0.000730153 0.000201016 0.000430394 0.000695739 0.000312086 -0.00103965 
-0.00088955 -0.000653131 0.00020404 -0.000749408 -0.000197164 0.000139509 -0.000648395 -3.75007e-05 0.000291647 
6.53795e-05 4.12207e-05 -5.29246e-05 -0.000159815 -0.000252206 -0.000414991 -0.000356774 -5.4574e-07 -0.000543759 
-0.00015859 -9.57787e-05 -0.000286862 -0.000452943 -0.000286355 -0.000449376 -6.55461e-05 -0.000283625 -0.000287202 
-0.000109047 -8.8316e-05 -0.000864663 -9.74455e-05 -0.0010053 0.00102558 -0.0001916 -7.69698e-05 -6.75545e-05 
-2.37322e-05 -8.75144e-05 0.00143746 -0.000184695 -0.000410027 0.000796644 -0.000121401 0.000317798 -0.00042671 
0.000752237 0.00165776 0.0010649 0.000596483 0.000165005 -0.000110967 -0.00132399 0.000323329 -0.00095613 
-0.00112141 -8.49177e-06 -0.00111829 -6.12764e-06 -0.000792949 -0.000961013 -0.000868078 -0.000634989 -0.000812172 
-0.000880807 0.000638288 -0.00137509 -0.00114336 -0.000226856 -0.00086957 5.33349e-05 -0.000777463 -0.000371771 
-0.000611045 0.000356807 -0.000936376 -0.000171603 8.85027e-05 -0.000343696 -0.000552077 -0.000609157 0.00107905 
-0.00119044 -0.000762055 0.00102816 0.000499632 0.000755174 -0.000246217 -0.000172054 0.00031488 -0.0012192 
0.00012993 0.000377205 -0.00126263 -0.000520569 -0.000539268 -0.00152288 0.000894923 0.000525355 -0.00109964 
0.000634332 -0.000201152 -0.00119101 0.000398714 7.75548e-05 -0.00178826 -0.000297108 -0.000166341 -0.00104092 
-0.000459355 -0.000149694 -0.000174593 -0.000137336 0.000135622 0.000422448 -1.14285e-05 -0.00039756 -0.00043548 
-0.000576805 -0.000224215 0.000336674 0.00116049 0.000218101 0.00104258 0.000279744 0.000762735 -0.000965579 
-0.000849866 0.000619701 -0.00192343 -0.00115063 -0.0007884 -0.00124071 -0.000860589 -0.000571917 -0.00172121 
-0.000683439 0.000259507 -0.00197165 3.7665e-06 -0.00084944 -0.00187508 -0.000481827 -1.93531e-05 -0.00144377 
-0.00108289 0.000488903 8.21942e-05 5.95366e-06 -0.000243378 -0.000463517 0.000258836 -0.000205495 -2.68823e-05 