# vtk DataFile Version 4.0
Generated by LIGGGHTS
ASCII
DATASET POLYDATA
POINTS 789 float
-4337.15 -4886.54 499.075 -3769.85 -4063.77 499.03 -3312.74 -4955.09 498.429 
-2651.63 -4205.52 499.288 -1601.88 -4280.21 499.677 -364.259 -4452.85 497.558 
633.297 -4514.47 499.202 1613.08 -4724.75 498.805 2611.36 -4772.65 498.818 
3668.06 -4757.94 497.493 4665.66 -4823.11 498.754 -4775.3 -3981.5 498.585 
-4207.43 -3158.85 498.951 -3209.97 -3236.18 497.503 -2213.15 -3307.9 497.956 
-894.312 -3573.5 499.405 167.705 -3606.18 499.01 1168.04 -3668.94 498.766 
2150.54 -3882.77 498.988 3149.74 -3904.35 498.827 3701.78 -3071.37 499.064 
4226.68 -3921.37 497.725 4777.44 -3086.98 498.853 -4618.45 -2190.38 499.801 
-3624.49 -2287.02 499.139 -2628.28 -2359.85 498.849 -1409.56 -2715.72 498.041 
-410.059 -2669.39 499.691 385.805 -2055.81 497.298 1354.42 -2316.02 499.203 
2177.62 -2883.71 498.629 4387.29 -2098.26 497.912 -4685.97 -1116.45 499.396 
-3388.56 -1194.78 498.361 -2389.73 -1177.53 497.705 -1553.14 -1724.82 499.579 
-509.462 -1610.48 497.698 1103.94 -1348.41 497.789 2184.22 -1758.61 498.48 
3418.44 -1851.48 498.436 -4403.22 -157.4 498.709 -3387.01 -193.281 497.817 
-2396.6 -56.9484 499.7 -1529.87 -559.361 497.798 213.727 -890.986 498.251 
1939.17 -788.899 499.062 2920.28 -985.333 498.687 2598.91 -38.6312 499.082 
3599.47 -79.8117 498.797 4073.23 -984.135 499.095 4597.91 -132.239 498.754 
-4868.24 726.788 499.482 -3865.41 684.228 499.378 -2875.63 822.084 497.682 
-1507.82 438.943 498.136 -553.007 140.07 499.031 508.078 64.773 499.412 
1625.91 190.887 498.075 3134.37 805.124 499.455 4133.23 766.02 499.049 
-4488.89 1651.31 498.48 -3490.21 1610.02 499.115 -2517.28 1658.13 908.762 
-1635.06 1429.72 498.39 -560.792 1139.6 499.523 7.35889 1961.87 498.339 
441.707 1061.82 498.976 1493.75 1181.78 497.655 2489.86 1585.44 498.683 
3477.1 1743.69 499.015 4512.13 1690.59 497.727 -4954.11 2535.8 498.656 
-3954.23 2494.95 498.989 -2955.67 2454.42 497.677 -1956.54 2375.26 498.113 
-973.927 2179.17 499.306 -291.531 2914.84 498.621 688.967 2691.54 498.746 
1700.25 2198.83 499.671 2951.6 2601.93 499.466 4034.87 2573.05 498.72 
-4417.76 3379.95 498.91 -3419.25 3338.81 498.496 -2362.09 3287.76 498.478 
-1289.78 3127.39 499.596 -610.433 3862.21 499.6 436.467 3658.23 499.161 
1555.88 3188.56 498.796 2579.03 3529.27 499.754 3585.31 3480.72 498.545 
4584 3422.79 497.885 -4880.32 4266.34 498.597 -3881.9 4223.71 498.797 
-2188 4909.12 499.5 -2849.58 4159.36 498.131 -1686.66 4044.65 499.741 
-1004.35 4780.74 497.832 56.9314 4615.04 498.838 1043.14 4454.37 498.833 
2039.45 4370.6 499.178 3122.75 4368.35 498.815 4121.77 4328.03 499.641 
-4296.42 -4306.29 1313.01 -3289.65 -4382.13 1315.54 -2336.38 -4418.49 1621.74 
-1527.66 -4896.4 1284.21 -858.485 -4154.73 1311.69 147.082 -4229.07 1324.16 
1316.53 -4228.56 1313.14 2343.38 -4348.36 1362.68 3685.78 -4164.32 1301.21 
4706.89 -4242.94 1311.46 -4739.37 -3404.69 1313.91 -3728.38 -3484.46 1314.51 
-2731.21 -3554.1 1314.82 -1740.62 -3685.9 1293.25 -354.002 -3290.02 1291.54 
733.336 -3544.04 1751.17 1674.1 -3277.44 1266.02 2661.78 -3412.29 1217 
3418.59 -3154.33 1814.61 4261.76 -3346.49 1314.29 -4164.96 -2586.27 1316.41 
-3153.29 -2649.22 1301.91 -2073.96 -2677.03 1266.61 -1237.16 -2946.07 1740.62 
-975.08 -2150.68 1194.8 -13.2254 -2352.2 1362.04 712.895 -2917.05 973.919 
1912.93 -2246.12 1327.01 1166.9 -2650.68 1854.01 2860.77 -2442.62 1078.35 
3842.65 -2440.44 1260.18 4840.36 -2489.94 1297.97 -4063.3 -1616.36 1101.15 
-4696.14 -1799.25 1851.45 -3422.48 -1146.07 1928.8 -2878.83 -1693.4 1200.42 
-1773.43 -1127.77 1280.43 -1691.88 -1940.88 1855.79 -907.756 -1316.76 1738.24 
886.407 -1846.48 1334.59 17.6473 -1353.81 1360.73 1702.68 -1269.08 1343.17 
2677.26 -1492.34 1325.11 3667.45 -1359.38 1331.69 4653.92 -1422.2 1184.59 
-4911.43 -527.261 1275.12 -3910.4 -636.796 1222.46 -2898.19 -694.193 1209.81 
-2241.5 -98.7802 1667.75 -1300.62 -64.127 1335.2 -661.273 -738.298 961.754 
819.419 -986.606 1837.15 204.64 -367.756 1348.89 1140.02 -502.611 1025.58 
1192.23 -40.2211 1908.89 2047.11 -199.739 1317.01 3085.08 -402.155 1292.37 
4084.12 -395.582 1314.03 -4206.37 307.522 1361.74 -3090.29 294.849 1317.38 
-2153.18 770.394 1184.66 -1181.12 984.575 1267.96 -343.164 463.802 1421.14 
1026.86 616.004 1174.86 2270.79 755.479 1010.01 2760.98 394.239 1802.76 
3627.72 493.589 1316.34 4630.83 441.649 1316.12 -4006.34 1284.24 1292.03 
-3068.07 1243.74 1630.57 -1674.45 1951.93 1357.37 -12.065 1400.71 1323.23 
888.069 1827.5 960.339 1757.64 1519.84 1398.63 3004.42 1355.74 1324.02 
4000.92 1420.69 1312.5 4998.85 1370.75 1309.27 -4468.66 2226.01 1315.97 
-3469.39 2184.43 1315.88 -2565.34 2210.02 1739.98 -1865.96 2960.75 1301.25 
-442.624 2304.8 1336.35 439.808 2169.95 1785.26 1183.78 2691.02 1366.27 
2476.67 2203.39 1283.36 3480.77 2334.56 1304.28 4529.35 2268.31 1311.29 
-4396.56 3955.15 1315.49 -4932.95 3111.16 1314.58 -3929.5 3071.88 1314.54 
-3379.68 3920.01 1309.83 -2902.51 3042.66 1301.95 -2280.2 3892.76 1289.58 
-719.129 3277.13 1325.38 256.971 3061.7 1320.47 731.418 3742.34 1876.45 
1458.99 3886.56 1207.26 2084.57 3120.45 1343.41 3074.07 3246.83 1323.72 
4068.67 3155 1310.24 -4856.58 4845.72 1311.59 -3857.87 4796.61 1316.33 
-2789.6 4752.82 1298.05 -1107.29 4196.95 1301.07 -436.367 4939.52 1304.56 
-34.0027 4024.86 1300.16 614.296 4879.67 1294.92 1801.91 4811.88 1363.53 
2580.97 4125.18 1302.81 3144.91 4963.09 1301.02 3613.12 4083.78 1401.19 
4604.81 4000.32 1312.96 4146.07 4923.94 1313.71 -4821.65 -4578.91 2127.05 
-4310.98 -4323.65 2947.63 -3822.97 -4628.28 2131.59 -3035.73 -4017.22 2209.48 
-2275.66 -4501.14 2639.72 -1463.14 -4301.8 2092.13 -875.621 -4295.29 2909.3 
-274.469 -4573.6 2161.94 738.788 -4504.01 2079.83 1758.47 -4565.42 2144.31 
2496.67 -4509.67 2832.25 3038.15 -4176.67 2061.65 3546.35 -4588.81 2891.26 
4167.99 -4482.15 2116.46 4634.31 -4800.99 2938.58 -4278.65 -3739.05 2135.59 
-3392.92 -3085.78 2167.6 -2320.49 -3224.11 2162.73 -1603.34 -3595.7 2784.06 
-682.161 -3661.92 2161.55 306.533 -3785.41 2622.6 1309.44 -3763.88 2536.84 
2177.59 -3650.08 2057.98 2929.2 -3378.92 2656.95 3890.45 -3629.73 2555.74 
4859.79 -3825.45 2700.45 4711.06 -3011.07 2141.19 -4334.91 -2753.14 2286.61 
-3610.2 -2122.28 2015.91 -3554.54 -2482.55 2945.76 -2612.55 -2274.18 2051.94 
-1651.65 -2616.74 2589.08 -727.664 -2912.47 2822.03 -634.756 -2192.18 2135.05 
818.892 -2920.62 2749.27 16.7007 -2950.21 2158.58 415.569 -2010.21 2201.16 
1788.87 -2537.46 2627.35 2527.33 -2717.98 1978.38 2948.21 -2394.12 2826.79 
3248.59 -2026.48 1947.88 3873.49 -2630.69 2533.13 4934.07 -2221.25 2712 
-4178.26 -1658.31 2693.59 -3053.29 -1653.18 2705.23 -2437.04 -1292.11 2007.13 
-1944.79 -1678.35 2786.05 -1036.05 -1259.67 2727.73 -120.23 -1174.82 2333.3 
752.123 -1168.89 2815.59 1376.5 -1734.64 2197.83 2369.56 -1723.58 2316.01 
3232.92 -1207.82 2521.06 4917.64 -1223.13 2676.85 4322.58 -1935.19 1974.9 
4010.47 -1710.49 2897.55 -4369.53 -863.78 2078.83 -4330.59 -22.8005 2700.65 
-3591.14 -168.596 2045.77 -3701.09 -789.737 2820.27 -2735.72 -462.048 2474.66 
-1536.58 -641.823 2120.12 -1013.2 -199.973 2846.32 -586.598 -375.821 1958.84 
328.512 -282.056 2349.55 1594.18 -785.747 2437.71 2493.03 -781.732 2001.73 
3416.28 -268.934 2224.75 4122.2 -969.224 2130.7 4835.32 -273.392 2208.22 
-4783.75 644.585 2106.81 -3798.17 803.818 2152.23 -2785.67 508.8 2244.54 
-1899.66 177.879 2565.86 -1058 492.763 2128.2 -239.703 528.122 2699.81 
455.721 644.922 1993.2 1355.79 347.367 2814.41 1835.47 719.938 1992.43 
2261.3 2.57663 2574.31 2199.09 942.925 2906.81 3096.05 526.571 2737.2 
4127.49 431.098 2179.01 -4464.84 1623.23 2113.72 -3509.93 1876.09 2265.44 
-2628.71 1461.37 2500.9 -1798.57 1157.62 2034.55 -1182.48 1202.88 2820.28 
-936.986 1658.73 1963 -24.9738 1464.94 2319.69 650.309 1045.02 2922.93 
1049.31 1442.65 2098.13 1598.1 1741.35 2880.26 2437.94 1525.53 2130.33 
3522.65 1228.26 2168.47 4514.6 1351.67 2182.54 -4142.67 2518.7 2694.51 
-4965.38 2531.49 2129.88 -3409.43 2927.58 2154.56 -2788.95 2416.22 2748.19 
-1168.93 2631.23 1940.64 -1847.1 2077.78 2421.39 -1602.36 2990.01 2768.73 
-601.9 2205.15 2728.48 -254.781 2961.18 2172.99 924.566 2865.86 2315.17 
644.927 2035.18 2794.31 1778.75 2273.77 2053.52 2647.31 2767.6 2089.49 
3120.69 2066.21 2620.19 3992.65 2202.02 2151.67 4138.92 2792.02 2944.38 
-4421.32 3369.49 2132.08 -4914.29 3989.75 2771.52 -3853.03 3917.78 2742.4 
-2996.32 3881.22 2230.88 -2377.22 3101.81 2148.77 -1530.32 3604.93 1985.28 
-587.139 3902.68 2122.57 195.364 3731.82 2720.47 1853.83 3115.72 2585.76 
1956.33 3966.15 2070.72 1188.32 3838.61 2761.22 2980.88 3911.82 2193.81 
2937.9 3212.28 2937.44 3580.3 3111.55 2179.95 3902.61 3921.06 2668.24 
4576.61 3418.83 2129.05 -4369.3 4529.93 2132.17 -2966.62 4878.57 2272.73 
-2057.88 4596.96 1963.22 -1554.04 4235.99 2757.9 -1044.15 4791.48 2101.13 
-472.131 4553.55 2884.69 183.154 4538.94 2129.74 1180.57 4601.16 2116.5 
1879.05 4705.95 2822.27 2518.82 4792.16 2059.78 2946.98 4605.03 2943.86 
3569.71 4719.85 2170.98 4612.65 4593.88 2132.41 -4922.81 -4386.17 3734.93 
-3020.18 -4483.65 3306.75 -2153.34 -4223.65 3730.99 -1593.89 -4897.42 3251.24 
-702.942 -4893.04 3703.12 51.5492 -4621.96 3105.38 691.631 -4653.62 3874.41 
1141.4 -4640.97 2983.03 1904.64 -4644.76 3634.73 4195.13 -4040.99 3417 
-4456.75 -3245.79 3148.1 -4007.69 -3949.7 3823.33 -3564.58 -3659.13 2976.19 
-3156.06 -3063.75 3666.36 -2568.27 -3633.52 3039.63 -1243.62 -3797.55 3694.4 
-251.308 -3733.9 3450.28 874.261 -3733.66 3443.86 2098.14 -3647.37 3143.41 
2675.04 -3077.79 3753.54 3030.4 -3969.48 3480.74 3592 -3115.74 3359.45 
4573.57 -3011.78 3204.1 -4384.95 -2272.26 3452.68 -2568.52 -2636.24 2981.99 
-1786.06 -2949.67 3523.4 -1124.39 -2110.29 3269.61 -830.486 -2894.22 3816.16 
75.877 -2791.6 3404.42 770.324 -2062.47 3263.32 1482.14 -2941.8 3493.12 
2210.01 -2238.07 3482.57 3910.02 -2243.74 3737.38 -3629.7 -1504.11 3514.4 
-2564.25 -1820.39 3558.98 -1671.83 -1395.73 3704.47 -181.934 -1916.17 2998.99 
[...]
POINT_DATA 789
FIELD FieldData 7
id 1 789 int
72 12 38 94 7 11 80 109 30 
100 48 107 102 124 89 79 97 81 
90 82 51 91 49 36 60 78 18 
16 28 26 31 14 27 98 15 45 
104 96 22 87 54 37 59 19 1 
2 4 108 43 29 84 33 92 21 
88 42 55 66 46 77 73 20 69 
110 131 13 40 53 23 35 105 52 
8 119 61 25 34 58 6 85 47 
63 57 32 75 65 93 39 83 67 
41 10 9 17 113 3 56 50 24 
166 44 5 164 139 185 103 194 95 
125 135 86 150 137 223 193 133 149 
202 161 99 274 147 168 128 163 132 
157 179 148 155 186 145 278 281 101 
156 181 141 134 212 187 225 165 136 
195 170 62 159 123 142 224 70 121 
172 152 115 197 130 140 160 171 126 
209 153 217 177 112 316 158 118 127 
207 169 154 111 191 143 114 151 129 
175 198 76 167 189 200 116 192 214 
219 196 210 221 146 182 144 74 216 
64 117 68 228 206 138 120 71 122 
183 162 201 178 180 208 215 106 248 
427 242 276 232 273 378 262 289 337 
293 258 386 266 406 239 322 229 307 
275 312 309 245 292 320 327 330 350 
299 412 259 240 301 254 329 190 227 
317 267 356 282 304 305 368 285 268 
314 310 233 354 264 296 375 315 256 
376 204 298 211 323 231 252 283 213 
257 370 324 374 270 297 243 265 234 
253 235 308 271 381 288 302 380 365 
263 230 261 269 218 357 236 255 367 
244 321 250 174 226 294 173 246 355 
279 272 331 290 260 333 372 251 205 
295 222 379 277 352 349 326 237 184 
280 311 332 238 306 247 377 241 335 
334 176 300 249 286 199 363 188 319 
318 203 360 291 220 457 396 397 366 
408 328 417 369 418 402 419 456 437 
422 340 477 423 500 338 494 450 475 
436 488 343 444 345 439 441 429 390 
503 474 428 413 447 336 409 476 443 
467 432 508 445 348 459 416 391 405 
385 325 347 424 341 388 415 344 481 
451 382 400 303 339 435 362 426 440 
364 389 504 358 313 392 438 433 425 
442 469 403 284 414 287 399 463 398 
411 353 401 387 478 346 410 361 393 
502 452 509 394 373 404 395 384 420 
454 351 421 448 434 430 342 505 468 
371 359 383 446 473 431 449 610 520 
560 528 499 589 548 485 555 546 562 
529 598 541 479 532 566 583 501 516 
507 658 558 530 482 613 547 524 491 
483 618 466 565 554 556 571 577 487 
620 493 537 511 471 495 513 553 579 
551 574 522 563 535 518 552 533 407 
526 640 573 496 557 461 521 489 621 
455 593 512 612 490 597 498 531 464 
543 462 492 525 536 484 564 465 581 
568 586 616 519 460 470 559 545 534 
453 538 599 609 458 549 544 480 517 
539 510 515 514 506 550 527 486 542 
497 605 540 523 472 569 561 641 572 
653 601 631 664 578 642 669 643 590 
666 672 575 659 677 608 714 585 707 
738 638 651 680 749 647 652 650 726 
596 630 668 679 667 663 576 646 673 
654 688 594 607 592 682 633 622 724 
645 730 674 603 629 567 595 635 634 
678 644 698 628 619 580 611 661 695 
648 704 591 662 676 649 624 775 675 
729 657 615 665 600 588 637 684 625 
582 725 627 626 639 708 670 660 604 
767 570 711 632 636 671 623 705 606 
728 694 710 691 718 722 693 697 656 
703 683 655 686 689 727 685 706 717 
712 713 735 699 709 732 720 700 701 
690 687 719 681 721 734 696 733 716 
692 736 731 723 702 715 759 788 776 
780 765 764 762 737 750 751 742 757 
739 785 756 754 758 773 747 783 752 
744 789 763 772 740 741 760 786 761 
778 781 771 784 787 779 768 753 770 
748 774 766 746 755 782 777 743 745 
769 584 602 614 587 617 
type 1 789 int
1 1 1 1 1 1 1 1 1 
1 1 1 1 1 1 1 1 1 
1 1 1 1 1 1 1 1 1 
1 1 1 1 1 1 1 1 1 
1 1 1 1 1 1 1 1 1 
1 1 1 1 1 1 1 1 1 
1 1 1 1 1 1 1 1 1 
1 1 1 1 1 1 1 1 1 
1 1 1 1 1 1 1 1 1 
1 1 1 1 1 1 1 1 1 
1 1 1 1 1 1 1 1 1 
1 1 1 1 1 1 1 1 1 
1 1 1 1 1 1 1 1 1 
1 1 1 1 1 1 1 1 1 
1 1 1 1 1 1 1 1 1 
1 1 1 1 1 1 1 1 1 
1 1 1 1 1 1 1 1 1 
1 1 1 1 1 1 1 1 1 
1 1 1 1 1 1 1 1 1 
1 1 1 1 1 1 1 1 1 
1 1 1 1 1 1 1 1 1 
1 1 1 1 1 1 1 1 1 
1 1 1 1 1 1 1 1 1 
1 1 1 1 1 1 1 1 1 
1 1 1 1 1 1 1 1 1 
1 1 1 1 1 1 1 1 1 
1 1 1 1 1 1 1 1 1 
1 1 1 1 1 1 1 1 1 
1 1 1 1 1 1 1 1 1 
1 1 1 1 1 1 1 1 1 
1 1 1 1 1 1 1 1 1 
1 1 1 1 1 1 1 1 1 
1 1 1 1 1 1 1 1 1 
1 1 1 1 1 1 1 1 1 
1 1 1 1 1 1 1 1 1 
1 1 1 1 1 1 1 1 1 
1 1 1 1 1 1 1 1 1 
1 1 1 1 1 1 1 1 1 
1 1 1 1 1 1 1 1 1 
1 1 1 1 1 1 1 1 1 
1 1 1 1 1 1 1 1 1 
1 1 1 1 1 1 1 1 1 
1 1 1 1 1 1 1 1 1 
1 1 1 1 1 1 1 1 1 
1 1 1 1 1 1 1 1 1 
1 1 1 1 1 1 1 1 1 
1 1 1 1 1 1 1 1 1 
1 1 1 1 1 1 1 1 1 
1 1 1 1 1 1 1 1 1 
1 1 1 1 1 1 1 1 1 
1 1 1 1 1 1 1 1 1 
1 1 1 1 1 1 1 1 1 
1 1 1 1 1 1 1 1 1 
1 1 1 1 1 1 1 1 1 
1 1 1 1 1 1 1 1 1 
1 1 1 1 1 1 1 1 1 
1 1 1 1 1 1 1 1 1 
1 1 1 1 1 1 1 1 1 
1 1 1 1 1 1 1 1 1 
1 1 1 1 1 1 1 1 1 
1 1 1 1 1 1 1 1 1 
1 1 1 1 1 1 1 1 1 
1 1 1 1 1 1 1 1 1 
1 1 1 1 1 1 1 1 1 
1 1 1 1 1 1 1 1 1 
1 1 1 1 1 1 1 1 1 
1 1 1 1 1 1 1 1 1 
1 1 1 1 1 1 1 1 1 
1 1 1 1 1 1 1 1 1 
1 1 1 1 1 1 1 1 1 
1 1 1 1 1 1 1 1 1 
1 1 1 1 1 1 1 1 1 
1 1 1 1 1 1 1 1 1 
1 1 1 1 1 1 1 1 1 
1 1 1 1 1 1 1 1 1 
1 1 1 1 1 1 1 1 1 
1 1 1 1 1 1 1 1 1 
1 1 1 1 1 1 1 1 1 
1 1 1 1 1 1 1 1 1 
1 1 1 1 1 1 1 1 1 
1 1 1 1 1 1 1 1 1 
1 1 1 1 1 1 1 1 1 
1 1 1 1 1 1 1 1 1 
1 1 1 1 1 1 1 1 1 
1 1 1 1 1 1 1 1 1 
1 1 1 1 1 1 1 1 1 
1 1 1 1 1 1 1 1 1 
1 1 1 1 1 1 
i 3 789 int
0 1 0 0 0 0 1 1 0 
0 1 0 0 0 0 0 0 0 
0 1 0 0 0 0 0 1 0 
0 0 0 -1 0 0 0 0 0 
0 0 0 0 0 0 0 0 0 
0 0 0 0 0 0 0 1 0 
0 0 0 0 0 0 0 0 0 
0 0 0 -1 0 0 1 1 0 
0 0 0 0 0 0 0 0 0 
0 0 0 0 0 0 0 0 0 
0 0 0 0 0 0 0 0 0 
0 0 0 0 0 0 0 0 0 
0 0 0 0 0 0 0 0 0 
-1 0 0 0 0 0 0 0 0 
0 0 0 0 0 0 0 0 0 
0 0 0 0 0 0 0 0 0 
0 0 0 0 0 0 0 0 0 
0 0 0 0 0 0 0 0 0 
0 0 0 0 0 0 0 0 0 
0 0 0 0 0 0 0 0 0 
0 -1 0 1 -1 0 0 0 0 
0 0 0 0 0 0 0 0 0 
0 0 0 0 0 0 0 0 0 
0 0 0 -1 0 0 0 0 0 
0 0 0 0 0 0 0 0 0 
0 0 0 0 0 0 0 0 0 
0 0 0 0 0 0 0 0 0 
1 -1 0 0 0 0 0 0 0 
0 0 0 0 -1 0 0 0 0 
0 0 0 0 0 0 0 0 0 
0 0 0 1 0 0 0 0 0 
0 -1 0 0 -1 0 0 -1 0 
0 -1 0 0 -1 0 0 -1 0 
0 0 0 0 0 0 0 0 0 
1 0 0 0 1 0 0 0 0 
0 0 0 0 0 0 0 0 0 
0 0 0 0 1 0 0 0 0 
0 1 0 1 0 0 0 1 0 
0 0 0 0 0 0 0 0 0 
0 0 0 0 0 0 -1 1 0 
0 0 0 0 1 0 0 0 0 
0 0 0 0 0 0 0 1 0 
0 0 0 0 0 0 0 0 0 
0 0 0 0 0 0 0 0 0 
0 0 0 -1 0 0 0 0 0 
0 0 0 0 0 0 0 1 0 
0 0 0 0 0 0 0 0 0 
0 0 0 0 0 0 0 0 0 
0 0 0 -1 0 0 -1 0 0 
1 0 0 1 0 0 0 0 0 
0 0 0 0 0 0 0 0 0 
0 0 0 0 0 0 0 0 0 
0 0 0 0 0 0 -1 0 0 
0 0 0 0 0 0 0 0 0 
0 0 0 0 0 0 0 0 0 
0 0 0 -1 0 0 0 0 0 
0 0 0 0 0 0 0 0 0 
0 0 0 0 0 0 0 0 0 
-1 0 0 0 0 0 0 0 0 
0 0 0 -1 0 0 1 0 0 
0 0 0 0 0 0 0 0 0 
0 0 0 0 0 0 0 0 0 
0 0 0 0 0 0 -1 0 0 
0 0 0 0 0 0 0 -1 0 
0 0 0 0 -1 0 0 0 0 
0 0 0 0 -1 0 0 0 0 
0 0 0 0 0 0 0 0 0 
0 0 0 1 -1 0 0 0 0 
0 0 0 0 0 0 0 0 0 
0 0 0 0 -1 0 0 0 0 
0 0 0 0 0 0 -1 0 0 
0 0 0 -1 0 0 1 0 0 
0 1 0 0 0 0 0 0 0 
0 1 0 0 0 0 0 0 0 
0 0 0 0 0 0 0 0 0 
0 0 0 0 0 0 0 0 0 
0 0 0 0 1 0 0 0 0 
0 1 0 0 0 0 0 0 0 
0 0 0 0 1 0 0 0 0 
0 0 0 0 0 0 0 0 0 
0 0 0 0 0 0 0 0 0 
0 0 0 0 0 0 0 0 0 
0 0 0 0 0 0 0 0 0 
0 0 0 0 0 0 0 0 0 
0 0 0 0 0 0 0 0 0 
0 0 0 -1 0 0 0 0 0 
0 0 0 0 0 0 0 0 0 
0 0 0 0 0 0 0 0 0 
0 0 0 0 0 0 0 0 0 
-1 0 0 -1 0 0 0 0 0 
0 0 0 1 0 0 0 0 0 
1 0 0 0 0 0 1 0 0 
0 0 0 0 0 0 0 0 0 
0 0 0 0 0 0 0 0 0 
0 0 0 0 0 0 0 0 0 
1 0 0 1 0 0 0 0 0 
0 0 0 0 0 0 0 0 0 
0 0 0 0 0 0 0 0 0 
0 0 0 0 0 0 0 0 0 
0 0 0 0 0 0 0 0 0 
1 0 0 0 0 0 0 0 0 
0 0 0 0 0 0 0 0 0 
0 0 0 0 0 0 0 0 0 
0 0 0 0 0 0 0 0 0 
1 0 0 0 0 0 0 0 0 
0 0 0 0 0 0 0 -1 0 
0 0 0 0 0 0 0 0 0 
0 0 0 0 0 0 0 0 0 
0 0 0 -1 0 0 -1 0 0 
0 0 0 1 0 0 0 0 0 
0 0 0 0 0 0 0 0 0 
0 0 0 0 0 0 0 0 0 
0 0 0 0 0 0 0 0 0 
0 0 0 0 0 0 0 0 0 
0 0 0 0 -1 0 0 0 0 
0 0 0 0 0 0 0 -1 0 
0 0 0 0 0 0 0 -1 0 
0 0 0 0 -1 0 0 0 0 
0 0 0 -1 -1 0 1 0 0 
0 0 0 0 0 0 0 0 0 
0 1 0 0 1 0 0 0 0 
0 1 0 0 0 0 -1 1 0 
0 0 0 0 0 0 0 0 0 
0 0 0 0 0 0 0 0 0 
0 0 0 0 0 0 0 0 0 
0 0 0 0 0 0 0 0 0 
0 0 0 0 0 0 0 0 0 
0 1 0 0 0 0 0 0 0 
0 0 0 0 0 0 0 0 0 
0 0 0 0 0 0 0 0 0 
0 0 0 0 0 0 0 0 0 
0 0 0 0 0 0 0 0 0 
0 0 0 0 0 0 0 0 0 
-1 0 0 0 0 0 0 0 0 
0 0 0 0 0 0 0 0 0 
0 0 0 0 0 0 0 0 0 
0 0 0 0 0 0 0 0 0 
0 0 0 0 0 0 -1 0 0 
0 0 0 0 0 0 0 0 0 
0 0 0 0 0 0 0 0 0 
0 0 0 0 0 0 0 0 0 
0 0 0 -1 0 0 0 0 0 
0 0 0 0 0 0 1 0 0 
0 0 0 0 0 0 0 0 0 
0 0 0 0 0 0 0 0 0 
0 0 0 0 0 0 -1 0 0 
0 0 0 0 0 0 0 0 0 
0 0 0 0 0 0 0 0 0 
0 0 0 0 0 0 0 0 0 
0 0 0 0 0 0 -1 0 0 
0 0 0 1 0 0 0 0 0 
0 -1 0 0 0 0 0 0 0 
0 0 0 0 -1 0 0 0 0 
0 0 0 0 0 0 0 0 0 
0 0 0 0 0 0 1 0 0 
1 -1 0 0 0 0 0 0 0 
0 -1 0 0 0 0 0 0 0 
0 0 0 0 0 0 0 -1 0 
0 -1 0 0 0 0 0 0 0 
0 0 0 0 0 0 0 1 0 
0 0 0 0 0 0 0 0 0 
0 0 0 0 0 0 0 1 0 
0 0 0 0 0 0 0 0 0 
0 0 0 0 0 0 0 0 0 
0 0 0 0 0 0 0 0 0 
0 1 0 0 0 0 0 0 0 
0 0 0 0 0 0 0 0 0 
1 0 0 0 0 0 0 0 0 
0 0 0 0 0 0 0 0 0 
0 0 0 0 0 0 -1 0 0 
0 0 0 0 0 0 0 0 0 
0 0 0 0 0 0 0 0 0 
0 0 0 0 0 0 0 0 0 
0 0 0 0 0 0 0 0 0 
-1 0 0 0 0 0 0 0 0 
0 0 0 0 0 0 0 0 0 
0 0 0 0 0 0 0 0 0 
0 0 0 0 0 0 0 0 0 
0 0 0 0 0 0 0 0 0 
0 0 0 0 0 0 0 0 0 
0 0 0 0 0 0 0 0 0 
-1 0 0 1 0 0 0 -1 0 
0 0 0 0 0 0 0 0 0 
0 0 0 0 0 0 0 0 0 
0 0 0 0 0 0 0 0 0 
0 0 0 0 0 0 0 0 0 
0 0 0 0 0 0 0 0 0 
0 0 0 0 0 0 0 0 0 
0 0 0 0 0 0 0 0 0 
0 0 0 0 0 0 0 0 0 
0 0 0 0 0 0 0 0 0 
0 0 0 0 0 0 0 0 0 
0 0 0 0 0 0 0 0 0 
0 0 0 0 0 0 0 0 0 
1 0 0 0 0 0 0 0 0 
1 0 0 0 -1 0 0 -1 0 
0 0 0 0 0 0 0 0 0 
0 -1 0 0 0 0 0 0 0 
0 0 0 0 0 0 0 1 0 
0 0 0 0 0 0 -1 0 0 
0 0 0 0 0 0 0 0 0 
0 1 0 0 0 0 0 0 0 
0 0 0 0 0 0 0 0 0 
0 0 0 0 0 0 0 0 0 
0 0 0 0 0 0 0 0 0 
0 0 0 0 0 0 0 0 0 
0 0 0 -1 0 0 0 0 0 
1 0 0 0 0 0 0 0 0 
0 0 0 0 0 0 0 0 0 
0 0 0 0 0 0 -1 0 0 
0 0 0 0 0 0 0 0 0 
0 0 0 0 0 0 0 0 0 
0 0 0 0 0 0 0 0 0 
0 0 0 0 0 0 0 0 0 
0 0 0 0 0 0 0 0 0 
0 0 0 0 0 0 0 0 0 
0 0 0 0 0 0 1 0 0 
0 0 0 0 0 0 0 0 0 
0 0 0 0 0 0 0 0 0 
0 0 0 0 0 0 0 0 0 
0 0 0 0 0 0 0 0 0 
0 0 0 0 0 0 0 0 0 
0 0 0 0 0 0 0 0 0 
0 0 0 0 0 0 0 0 0 
0 0 0 0 0 0 0 0 0 
0 0 0 0 0 0 0 0 0 
0 0 0 0 0 0 0 0 0 
0 0 0 0 0 0 1 0 0 
0 0 0 0 0 0 0 -1 0 
0 -1 0 0 0 0 0 0 0 
0 -1 0 -1 0 0 -1 0 0 
0 0 0 0 0 0 0 0 0 
0 0 0 0 0 0 0 0 0 
1 0 0 0 0 0 0 0 0 
0 0 0 0 0 0 0 0 0 
0 0 0 0 0 0 0 0 0 
0 0 0 0 0 0 0 0 0 
0 0 0 0 -1 0 0 0 0 
0 0 0 0 0 0 0 0 0 
0 0 0 0 0 0 0 0 0 
0 0 0 0 0 0 0 0 0 
0 0 0 0 0 0 0 0 0 
0 0 0 0 0 0 0 0 0 
0 0 0 0 0 0 0 0 0 
0 0 0 0 0 0 0 0 0 
0 0 0 0 0 0 0 0 0 
0 0 0 0 0 0 0 0 0 
0 0 0 0 0 0 0 0 0 
0 0 0 0 0 0 0 0 0 
0 0 0 0 0 0 0 0 0 
0 0 0 0 0 0 0 0 0 
0 0 0 0 0 0 0 0 0 
0 0 0 0 0 0 0 0 0 
0 0 0 0 0 0 0 0 0 
0 0 0 0 0 0 0 0 0 
0 0 0 0 0 0 0 0 0 
0 0 0 0 0 0 0 0 0 
0 0 0 0 0 0 0 0 0 
0 0 0 0 0 0 0 0 0 
0 0 0 0 0 0 0 0 0 
0 0 0 0 0 0 0 0 0 
0 0 0 0 0 0 0 0 0 
0 0 0 0 0 0 0 0 0 

v 3 789 double
-0.000182576 0.000195251 5.87482e-05 0.00029054 0.000254598 0.000949482 -0.000878278 7.13771e-05 0.000669234 
-0.00222595 4.41116e-05 0.000615688 -0.000621686 -0.00051918 0.00056943 -2.91314e-05 -0.000946049 8.69869e-05 
-5.49043e-05 -0.000847145 0.000576263 -0.00047912 0.00032896 0.000545735 0.000153226 -3.51373e-05 -6.6286e-05 
6.77954e-05 0.000277553 6.44574e-06 0.000315041 0.00164751 0.00029085 3.50092e-06 0.00122143 0.00131728 
0.00203276 -0.000706262 0.00132412 0.00050648 0.000840329 0.00159983 0.000145146 -0.000290259 -5.70762e-05 
0.00148464 0.000100948 0.00138092 -0.0010338 0.00136666 -0.00239857 -3.60863e-05 -8.45757e-05 0.00139837 
-0.000284745 4.07832e-05 0.000335601 0.000178169 -0.000201283 7.63141e-05 0.000374966 0.000823543 0.000178763 
-8.58484e-05 0.000304671 0.00116834 0.000986934 0.000465395 0.00111864 0.00147429 -4.83091e-05 0.000687071 
0.000585579 -9.38305e-05 0.00163941 -0.000306965 0.000182936 0.000161356 -0.00331903 0.00202741 0.00166963 
0.00100609 -0.00408887 3.11183e-05 0.000226357 0.00293508 -0.000128618 -4.68569e-05 0.000694346 0.000442078 
-0.000576295 3.42362e-05 0.000789167 0.0012413 0.00143929 -8.10488e-05 0.00124367 0.000307005 0.00100364 
-0.000452574 0.000196785 -0.000408902 -0.000884554 -0.000786704 0.000724984 -0.00455185 0.00147159 2.11821e-05 
-0.00309673 0.00123065 0.000106799 0.000720834 0.00172269 0.000148973 0.00110924 -0.000108101 0.000293771 
-0.000134358 0.0005731 0.00037401 0.000427211 0.000289913 0.00045576 0.00029806 6.16043e-05 0.0008039 
0.00177393 0.00042256 -0.000213251 -0.00112679 0.000483408 0.000806006 -0.00101476 -0.000304973 0.000268053 
-0.000576214 0.00174896 0.000168364 0.00101123 0.000707801 0.000407157 0.000345713 0.000710649 -9.58495e-05 
0.000872232 0.000104042 0.000101881 -0.000551354 0.000838425 0.00109643 0.000849356 3.24885e-05 0.000309729 
0.000282322 9.06587e-05 0.000254072 0.000599896 7.42489e-05 0.000628243 0.000995063 0.00022686 0.000375889 
0.00118079 0.000709431 0.00066268 0.000690474 0.00199966 0.000850342 0.000395261 0.00143034 -0.000445738 
0.000588373 0.00143097 -0.000134997 -0.000665027 0.000409254 0.000582066 -0.000147092 -3.375e-06 0.000175528 
0.000111436 0.000182692 0.000113784 0.000471974 5.73031e-05 0.000480948 0.00110948 0.000532203 0.000979873 
6.04029e-05 0.000807663 0.000361672 0.000344298 0.00113953 -0.00062482 -0.000728999 0.000372156 -0.000435922 
-0.00140765 0.000425883 -9.25491e-05 -0.000941663 0.00133568 0.000153962 -0.000326109 0.0010462 0.000381543 
-0.000954948 0.000835696 -7.47915e-05 -0.000135502 -0.0002943 -0.00018362 -0.00100407 -6.01317e-05 1.29664e-05 
0.000281978 4.14182e-05 0.000244666 -0.000156218 0.00048296 0.000559757 0.000970955 0.000600134 -0.000170238 
0.00104275 0.000216145 0.000338395 -0.000568514 -0.000699694 -4.54546e-05 -0.000338155 -0.000133229 0.000146962 
-0.00146902 -3.73366e-05 -7.33482e-06 -0.00101471 0.000790616 0.000328698 -0.000312692 3.32209e-05 -0.000138461 
-0.00059491 -0.000317249 0.000369798 -0.000302718 0.000400449 -0.000119364 0.00030412 0.000510084 -0.000174462 
-0.000197004 8.04886e-05 -0.000316389 -0.00153776 -0.000533973 0.000297244 -0.00127348 -0.000576341 0.000160164 
-0.000252958 0.000103199 -0.000217565 -0.00127572 0.000392703 -0.000114354 -0.00165018 -0.000676996 8.88814e-05 
-0.00045857 0.000155111 -0.000425673 -0.000318422 0.000207794 3.7741e-05 -0.000126108 0.0002652 5.0403e-05 
-0.000784076 5.91144e-06 3.23903e-05 -0.000434031 0.000530266 -2.35382e-05 -0.00110726 -0.000301256 -0.000707737 
-0.000215983 -0.00119785 0.000357665 0.000471442 -0.000602883 0.00103982 0.000286004 -0.000785709 -0.000223389 
-7.41987e-05 0.000191524 -0.000138245 0.000145332 -0.000563821 -0.000371313 -0.000701033 -0.000693654 0.000164421 
-0.000364069 0.000502752 0.00135464 -0.000719736 6.33032e-05 0.00125999 -0.000762485 -0.000715263 0.00118361 
-0.000351385 -0.00299554 0.00185048 -0.00163234 -0.005051 -2.04557e-05 -0.00180387 -0.00134856 0.00041643 
-0.00166024 0.00131561 0.00186138 0.00082108 -0.000412983 -0.000210657 -0.000396408 -0.000124272 -0.000236357 
-0.000542792 -0.00103124 0.0017324 0.000937322 0.0004505 0.00137952 0.00103676 -5.49189e-05 0.00271849 
0.00148131 0.000185451 0.00104341 0.000119199 -0.00210459 -0.000827566 -0.00189334 -3.78399e-05 -0.00113037 
-0.000382513 0.00127025 0.00191207 -0.0010366 1.87382e-05 0.001389 -0.00016141 -0.000564316 0.000582918 
-0.001713 0.00155126 0.000811275 -0.00109179 0.00151406 0.00218701 0.00248364 -8.43396e-05 0.00336516 
0.0014623 0.000808432 0.00227533 0.00240668 0.00471118 -0.0017923 0.00100539 -0.00175054 -0.00149637 
-0.0034067 0.00384279 0.00214049 4.24151e-05 -0.000355658 -0.00448526 -0.0023236 0.00111491 -0.00163123 
0.000740466 0.00132509 0.00106988 0.000398783 0.00265599 0.00249043 -0.000469976 0.00100555 0.000431512 
0.000263364 0.00102378 0.00049339 0.0014242 0.000523221 0.00049777 0.00108584 1.72811e-05 0.00121431 
0.00214402 -0.000864407 0.000840923 -0.000853986 0.000409789 0.000176636 0.00102582 2.74427e-05 0.00034603 
6.41553e-05 0.00039094 0.00144533 0.00231685 0.00168353 0.00600607 0.000490246 0.00161453 0.00152309 
0.00133047 0.00340607 0.000813624 0.000118516 0.000926079 0.000942754 -0.000276209 0.00255975 -0.000324068 
0.000405702 0.000977799 0.000238033 0.000146092 -0.000724452 0.000841374 0.00111328 0.000496744 0.00118525 
0.000706878 0.00145391 0.000687243 9.82574e-05 0.000331848 0.000267311 0.000141586 -0.00104368 0.00107735 
0.000409624 0.000505946 0.00131831 0.00201443 0.00192069 0.000335898 0.00160928 0.00200868 0.00111068 
0.00248862 0.00449122 0.000256005 -0.000428573 0.000804002 0.00102572 -0.000132436 0.00364337 -0.000785155 
0.000371666 0.0015956 0.000861876 0.000851434 0.00025223 -0.00032679 0.00087097 0.00109884 0.000215992 
-8.77836e-05 -0.000590537 -0.000480949 0.000698673 0.000717835 0.00106343 2.80129e-05 0.000672039 0.00109821 
0.00129936 0.000378519 0.000626174 0.00163445 0.00313801 0.00104317 0.000776261 0.00171597 0.00170392 
0.000458241 0.00290288 0.00147217 0.00033383 0.00118052 0.000610858 3.92426e-05 0.000396508 0.00175821 
-0.000372476 -0.000680356 7.59839e-05 -5.29561e-05 -0.000109108 -0.000281722 0.000541883 0.00110231 0.000497987 
0.000849175 0.000455603 0.00101174 1.63626e-05 0.00272953 0.00236572 0.00185149 0.000918289 0.000880231 
-0.00204889 0.000444568 0.000248477 -0.000510465 0.00111875 0.000429645 -0.000535129 0.00223424 0.00100437 
-0.000433899 0.000428735 0.000309639 -0.000166574 0.000280371 -0.00021352 -0.000779937 0.000819025 -4.13616e-05 
0.000630963 0.000164681 0.000909322 0.00119497 0.00147545 0.00119638 0.00215566 0.000149027 -0.000664518 
-0.0011914 -0.00020858 0.0015692 -0.000462769 0.00137715 0.00194478 -0.000963403 -0.000349473 0.000482072 
-0.00118108 0.00116654 0.000944981 -0.00120939 -0.000359798 0.00058137 -0.000359156 -0.000172568 -0.000379147 
-0.0011488 8.5739e-05 0.000585455 -0.000907808 0.000301313 -0.000589712 0.000396245 0.000448431 -0.000432783 
0.000229931 0.000913212 0.000457378 0.000604568 0.00138477 -0.000217942 0.000101025 0.000215376 -0.000403962 
-0.000645343 -0.00270712 0.00051516 -0.000362379 -0.00221661 0.000490964 0.000136914 -0.000513746 -0.000933039 
-0.000485952 0.000173232 -0.000939011 -0.00135558 5.86546e-05 0.000727639 -0.00164902 -0.000726428 0.000539948 
-0.000754403 0.000331524 -0.000501728 -0.000988123 0.00265418 0.000195325 -0.00094071 0.000132133 0.00071946 
-0.000723203 0.000246416 0.00062514 0.000445773 -0.00153327 0.00103953 -0.000668018 -0.00311976 0.00222227 
-0.000928466 -0.00187182 0.000397172 -0.000500629 -0.000576007 -0.000496763 -7.28698e-05 0.000718018 -0.000703389 
0.00022327 0.000567357 -0.000154642 -0.000430183 -0.000952996 -0.000450551 -0.00101051 -0.000502452 -0.00139904 
-0.00139644 -0.000374991 -0.000949181 -0.00178077 -0.00015788 0.00063405 -0.00133971 0.00218029 0.00240771 
0.00322801 0.00192833 0.00161199 0.000853577 0.000306255 0.000914388 -0.000687625 -0.00114043 0.00142206 
0.00295452 0.00148234 0.00063937 -0.00191587 -0.0028175 0.000926516 0.0034193 -0.00276939 0.00521152 
0.0003468 -0.00372978 0.00328758 -0.00463165 -0.000516963 0.000902655 0.00295528 0.000984282 -0.00105093 
0.00549381 -0.000668482 0.00282986 0.00215476 0.00243918 0.000871522 0.00147281 -0.00119296 0.0084551 
-0.00405672 -0.000432197 0.001903 -0.00232335 -0.000152629 0.00205928 -0.00102839 -0.000884374 0.00116445 
0.00121679 -0.00103547 0.00258328 0.00295819 0.00275519 0.000117828 0.00421648 0.00193695 -0.0026933 
-0.00363526 -0.00638382 0.00191478 -0.00443699 0.000700784 0.00151167 0.00185433 0.000122809 0.000405201 
0.00328192 -0.0011513 0.00093735 0.00263447 0.00217003 0.00320418 0.00317486 0.00292858 0.0033073 
-0.000276939 0.00148648 0.00629208 -0.00296427 0.0022677 0.00339353 -0.00120443 -0.00202486 0.00391678 
0.0014497 0.000262479 0.00106927 0.00771747 0.00506433 -0.00845369 -0.000136621 0.00156746 0.00299767 
0.000197971 0.001836 0.00492245 0.00299021 0.000305508 -6.87107e-05 -0.00745428 -0.00445266 -0.0027527 
0.00253926 0.00160988 0.00392832 -0.00147029 -0.00216812 -0.0035358 0.00168229 0.00411788 -0.00381847 
0.000338993 0.00379393 -6.87438e-05 0.00031262 0.000119774 -0.000341673 -0.00255542 0.00250759 -0.000225597 
-0.00241291 0.00278706 -0.00116437 -0.00519753 0.000327307 0.00126645 0.00241731 0.00792097 -0.00639317 
0.00172063 0.000575518 -0.00140126 0.000901317 0.00275066 -0.00074788 -0.000344362 -6.68386e-05 0.000562397 
0.00166082 -0.000710165 0.00255456 0.00020666 -0.00217147 0.0010498 0.000912151 0.00405625 0.000785287 
0.00279807 0.00536835 0.000551685 0.000894263 0.00309323 -0.00154062 -0.000572575 0.00016704 -0.00131166 
-0.00130868 0.00167985 0.000270718 -0.00628118 0.0199626 -0.0164675 0.00118479 -0.000314227 0.000309784 
-0.000376865 -0.000912784 -0.0017231 0.00260872 0.00456215 0.000221043 -0.00376327 -0.00138414 -0.00333222 
-0.00247507 -2.82181e-07 -0.00132452 -0.00176711 0.00134652 -0.000614726 -0.000635223 0.000301287 -0.00094497 
0.000938826 0.00229924 0.00076691 -0.000488608 0.00450817 0.00271385 0.000177535 0.00266863 0.00113047 