# vtk DataFile Version 4.0
Generated by LIGGGHTS
ASCII
DATASET POLYDATA
POINTS 452 float
-4346.09 -4877.33 499.198 -3781.61 -4052.42 499.528 -3317.62 -4958.19 499.498 
-2689.09 -4180.98 499.649 -1582.8 -4270.23 499.531 -338.745 -4437.56 498.825 
657.921 -4510.42 499.41 1636.88 -4712.23 499.631 2636.41 -4769.87 499.671 
3642.75 -4758.43 499.62 4650.43 -4815.81 499.293 -4782.8 -3978.52 499.269 
-4222.24 -3149.81 499.701 -3224.94 -3222.5 499.315 -2218.9 -3298.96 498.704 
-919.733 -3521.98 499.657 226.294 -3608.76 499.245 1226.25 -3601.97 498.975 
2186.8 -3877.56 499.292 3186.54 -3868.67 499.607 4214.23 -3910.66 499.167 
4776.4 -3081.83 499.301 -4629.76 -2236.42 499.639 -3632.14 -2300.18 499.286 
-2449.93 -2327.06 499.38 -1443.77 -2668.72 499.506 -410.806 -2661.57 499.539 
370.837 -2037.78 499.735 1336.26 -2297.28 499.433 2149.14 -2878.74 499.409 
3650.52 -2983.22 499.647 4372.6 -2168.1 499.207 -4666.98 -1051.65 499.03 
-3377.26 -1225.79 499.032 -2381.54 -1113.11 499.702 -1547.99 -1666.93 499.656 
-523.368 -1590.72 499.384 1079.9 -1331.4 499.027 2214.83 -1763.17 499.619 
2887.02 -1001.68 498.996 3428.44 -1841.63 498.747 4121.79 -1119.41 499.233 
-4391.37 -91.5518 499.883 -3372.77 -222.463 497.378 -2388.76 -38.6152 499.647 
-1533.69 -556.975 498.657 185.706 -886.773 498.546 1912.7 -778.343 499.007 
2593.37 -46.0006 499.301 3567.81 -267.248 499.441 4614.52 -248.233 499.697 
-4933.44 748.18 499.466 -3776.06 695.235 499.49 -2793.49 877.301 499.467 
-1509.25 442.642 500.494 -545.339 130.67 499.623 503.485 60.9381 499.659 
1612.66 181.57 499.151 3101.48 814.85 499.419 4078.22 598.322 499.672 
-4502.92 1654.7 498.934 -3451.68 1639.92 499.419 -1633.54 1434.55 499.308 
-544.682 1130.61 499.75 22.5408 1955.36 499.301 467.035 1059.94 499.641 
1493.97 1178.37 499.224 2429.03 1563.97 500.125 3483.13 1738.3 499.379 
4480.95 1678.39 499.683 -4969 2540.21 499.652 -3965.24 2497.55 499.462 
-2922.11 2485.28 544.06 -1929.4 2389.46 497.91 -950.952 2183.07 499.661 
-278.138 2928.18 499.42 694.233 2695.19 499.151 1687.48 2246.7 499.708 
2772.26 2522.07 499.911 4031.76 2574.23 499.559 -4431.06 3383.07 499.488 
-3432.58 3343.35 499.192 -2316.41 3310.36 499.271 -1256.92 3142.85 499.113 
-564.376 3886.05 500.015 448.854 3670.9 499.498 1535.42 3235.25 499.281 
2558.37 3498.75 499.747 3572.15 3464.41 499.233 4571.41 3437.01 499.228 
-4898.06 4287.58 498.798 -3899.28 4229.06 498.626 -2204.85 4936.55 499.698 
-2850.1 4155.28 499.054 -1662.89 4066.65 499.289 -979.364 4795.57 499.347 
79.1085 4653.94 499.713 1066.74 4457.95 499.788 2069.84 4386.54 499.194 
3094.92 4342.3 499.517 4094.79 4349.64 499.77 -4309.12 -4303.32 1317.06 
-3297.58 -4379.58 1314.53 -2345.81 -4416.25 1621.01 -1560.59 -4919.05 1260.54 
-861.745 -4141.86 1296.97 172.863 -4195.5 1322.12 1301.1 -4204.02 1292.65 
2365.93 -4345.74 1364.58 3689.46 -4164.9 1311.02 4689.41 -4239.19 1314.78 
-4755.31 -3408.75 1319.62 -3738.85 -3482.52 1322.64 -2741.31 -3549.93 1312.22 
-1749.94 -3684.46 1292.18 -303.438 -3312.9 1293.27 754.718 -3527.61 1784.76 
1696.28 -3251.35 1308.77 2680.78 -3406.23 1228.59 3417.25 -3135.6 1847.33 
4237.25 -3321.9 1306.51 -4185.07 -2588.24 1327.42 -3175.39 -2649.79 1316.36 
-2111.81 -2753.42 1338.1 -1162.07 -2980.72 1689.93 -988.26 -2125.3 1203.51 
-29.2513 -2354.99 1370.96 721.948 -2902.75 1004.37 1905.29 -2248.26 1319.64 
1172.56 -2625.77 1886.83 2851.05 -2436.16 1056.34 3820.93 -2404.52 1298.12 
4814.89 -2506.39 1329.08 -4089.18 -1625.61 1078.02 -4642.18 -1870.38 1876.35 
-3469.42 -1271.5 1899.86 -2842.13 -1716.77 1185.84 -1747.69 -1107.79 1304.4 
-1751.51 -1959.44 1827.78 -893.912 -1317.4 1783.91 885.773 -1844.01 1334.58 
12.9788 -1356.57 1363.59 1703.72 -1269.36 1343.93 2678.24 -1493.95 1343.58 
3702.06 -1411.25 1357.99 4752.37 -1522.95 1161.2 -4928.71 -554.128 1338.05 
-3943.13 -645.268 1201.06 -2945.59 -725.161 1247.23 -2256.63 -167.173 1704.66 
-1331.43 -64.8337 1343.85 -678.938 -731.988 986.876 804.858 -993.899 1854.19 
183.961 -371.725 1353.55 1126.92 -496.876 1048.63 2049.52 -223.106 1318.63 
3070.37 -544.661 1368.14 4074.42 -483.84 1333.37 -4097.48 330.569 1373.61 
-3054.13 307.745 1278.98 -2137.71 707.562 1234.42 -331.476 481.768 1411.07 
1076.39 623.295 1217.77 2256.77 731.554 1029.78 2697.9 301.387 1869.65 
3509.43 349.438 1284.39 4628.22 348.433 1304.14 -4019.86 1327.12 1309.98 
-3076.41 1247.32 1627.05 -2474.45 1698.61 970.61 -1179.71 991.158 1271.19 
38.2484 1406.79 1334.57 899.489 1834.22 964.129 1661.12 1411.45 1456.81 
2977.9 1379.37 1315.2 3969.01 1259.78 1256.61 4977.25 1340.66 1299.64 
-4471.73 2218.26 1323.59 -3471.76 2194.03 1331.17 -2579.81 2282.98 1775.08 
-1586.65 1976.58 1344.15 -1811.66 2957.55 1309.8 -412.616 2321.05 1330.59 
461.501 2185.47 1796.24 1198.23 2703.97 1361.59 2329.02 2141.13 1311.41 
3388.13 2364.08 1272.36 4378.62 2191.38 1355.09 -4408.5 3960.26 1315.09 
-4928.37 3107.11 1323.98 -3926.64 3084.35 1328.79 -3398 3949.02 1545.33 
-2879.3 3129.73 1305.84 -2221.05 3918.89 1314.97 -715.705 3273.93 1329 
271.962 3077.21 1320.68 794.42 3741.78 1855.02 1534.45 3934.91 1212.6 
2107.39 3117.29 1311.12 3087.52 3312.95 1359.46 4072.59 3150.58 1316.06 
-4865.29 4864.48 1313.16 -3867.86 4800.37 1317.39 -2792.56 4750.01 1299.28 
-1081.82 4204.09 1302.28 -426.033 4959.02 1315.58 20.133 4064.72 1311.89 
645.072 4888.42 1297.84 1716.28 4895.85 1416.85 2521.3 4139.3 1355.71 
3131.55 4934.76 1316.22 3630.75 4113.8 1609.87 4581.87 4031.61 1313.55 
4130.95 4928.14 1314.09 -4836.38 -4565.75 2132.64 -3838.5 -4628.64 2137.13 
-3033.01 -4046.43 2244.83 -2266.94 -4591.91 2602.2 -1471.5 -4259.48 2079.95 
-241.198 -4606.56 2196.7 750.182 -4488.59 2083.64 1737.82 -4507.96 2236.09 
2534.04 -4554.73 2866.5 3053.19 -4220.08 2080.17 4166.16 -4481.23 2130.72 
-4284.75 -3726.94 2141.77 -3481.02 -3155.36 2304.27 -2481.24 -3163.2 2196.21 
-1821.96 -3637.24 2779.25 -647.676 -3694.29 2164.5 231.219 -3826.29 2623.82 
1244.24 -3732.17 2631.95 2205.42 -3638.7 2076.97 2922.82 -3320.1 2696.38 
3919.6 -3615.42 2566.31 4978.86 -3849.7 2805 4759.68 -3122.89 2145.88 
-3737.41 -2204.36 2137.51 -2694.18 -2195.3 2064.68 -1656.43 -2689.16 2508.48 
-717.156 -2956.21 2834.63 -668.205 -2234.27 2144.37 806.163 -2715.67 2812.7 
28.3617 -2957.43 2167.45 419.34 -2025.99 2201.09 1796.24 -2898.36 2619.16 
2523.9 -2697.76 1963.69 3259.87 -2010.04 2025.29 3916.73 -2612.02 2536.96 
-2474.82 -1223.87 1979.82 -2927.19 -1566.2 2805.58 -1930.89 -1632.88 2755.99 
-984.151 -1254.74 2779.8 -78.2826 -1163.32 2341.15 1417.56 -1706.3 2196.33 
2383.48 -1780.4 2449.5 4900.41 -1293.31 2552.33 4319.89 -1880.22 1988.28 
-4336.84 -819.7 2104.19 -3478.89 -250.317 1992.09 -3608.31 -835.28 2792.71 
-2699.01 -458.55 2582.94 -1546.5 -677.774 2187.85 -987.369 -195.053 2866.88 
-608.724 -375.924 1960.47 337.819 -245.321 2335.12 1278.47 -49.0521 1930.37 
2072.68 -106.743 2647.37 3057.16 -609.01 2744.35 2386.8 -833.945 2037.48 
3846.71 -914.798 2213.06 4863.59 -304.015 2410.79 -4175.78 -4.47235 2666.77 
-4765.03 568.755 2080.05 -3812.54 854.02 2178.23 -2841.03 479.521 2237.49 
-1923.5 173.827 2582.13 -1083.24 511.213 2157.69 -246.359 483.584 2710.97 
452.395 688.89 1995.93 1829.18 745.781 2184.86 3408.75 954.772 2128.5 
4039.21 178.413 2114.76 -4539.19 1628.95 2128.22 -4932.48 1108.6 2907.44 
-3574.91 1853.14 2267.34 -2648.42 1493.77 2493.2 -1807.6 1257.7 2003.35 
-1261.67 1415.24 2833.69 -859.038 1651.5 1949.57 7.36256 1478.81 2418.31 
1031.52 1487.44 2229.63 2424.18 1547.54 2130.37 2951.77 1974.91 2864.09 
3757.36 1891.27 2083.02 4027.84 1511.44 2988.79 4420.13 1145.02 2141.64 
-4205.87 2529.18 2657.31 -3369.75 2820.42 2119.65 -2824.14 2408.85 2848.16 
-1864.3 2149.82 2460.37 -1136.31 2621.11 1963.26 -624.904 2285.75 2754.28 
955.75 2875.48 2323.27 1717.25 2264.81 2093.43 1996.73 2963.31 2752.96 
2665.45 2726.78 2049.34 3638.11 3004 2204.26 4950.19 2498.64 2118.22 
4363.48 2835.74 2880.62 -4406.98 3417.43 2154.07 -4963.16 4049.32 2843.12 
-3111.3 3729.97 2477.69 -2342.09 3171.43 2167.42 -1445.22 3580.83 2000.1 
-2019.9 3955.53 2725.94 -1365.62 2968.49 2871.56 -240.009 3006.54 2176.35 
-531.645 3961.65 2138.84 267.456 3687.14 2703.08 1919.13 3728.66 2112.61 
1248.01 3717.57 2892.64 2911.6 3783.27 2224.46 2987.3 3092.67 2957.94 
3826.35 3960.86 2593.27 4581.29 3478.79 2146.89 -4392.28 4534.28 2132.84 
-3064.87 4738.4 2261.02 -2077.73 4636.36 1995.84 -1074.97 4816.3 2093.37 
281.937 4542.57 2162.62 1289.74 4531.49 2248.6 2477.14 4841.76 2065.69 
2177.06 4511.21 2959.62 3453.65 4834.31 2279.26 4534.4 4576.06 2158.01 
-2685.91 4511.52 3219.85 -848.636 -4841.97 3265.4 380.453 -4840.16 2943.69 
-2857.76 -3661.13 3149.97 1385.36 -2865.24 3620.04 2104.69 -3693.23 3143.04 
4475.68 -3098.85 3231.77 -2508.32 -2502.32 2997.4 -1174.74 -2143.95 3194.64 
3681.66 -2380.93 3480.99 4346.85 -1276.37 3436.4 -2489.64 -1841.79 3747.65 
-200.765 -1940.74 2980.51 1230.28 -674.238 2709.67 -1962.79 -722.198 3210.66 
-415.193 -904.335 3526.34 4059.29 -379.493 3030.07 4960.13 -138.748 3402.33 
-4243.51 -724.162 3556.92 -2516.18 750.902 3142.31 1551.42 830.431 3222.6 
4282.81 582.176 3256.28 -3421.56 1163.98 3043.81 -1884.92 1369.8 3614.47 
1709.04 1792.21 2974.93 3444.44 1058.54 3673.73 -2987.04 2211.75 3890.23 
3797.78 2322.87 3525.61 -3364.37 3560.56 3767.77 -3972.96 3744.62 2993.51 
-2561.82 3289.58 3238.51 -251.862 4354.3 3237.93 1261.87 4639.81 3343.72 
3155.56 4468.32 3160.04 -4839.48 4930.84 3300.37 -1955.87 -4452.82 3542.14 
-1684.24 177.153 3562.9 -1217.48 3191.85 3948.21 -3824.91 -1632.59 3819.62 
4889.82 2126.7 3388.85 438.39 2243.84 2898.24 -314.832 1647.38 3457.45 
562.819 175.697 3290.25 1334.62 2803.69 3484.4 -2190.47 4344.3 4126.19 
2920.6 2144.87 4192.68 -2670.97 349.424 4041.07 1743.43 3831.65 4493.97 
2940.22 4443.64 20394.9 1402.78 4325.16 20417.4 3755.44 3354.28 20281.2 
-1294.79 4344.75 20253.3 -4345.06 4334.7 20357 2208.04 3529.35 20462.1 
-596.641 3437.06 20358.9 4160.84 2088.84 20299.8 -2959.71 2899.28 20480.8 
-1733.83 2519.35 20348.1 -4225.72 -2078.95 4926.79 -2458.69 -2766.39 5029.87 
-2663.42 1383.84 4904.94 1518.12 1437.8 20280.2 1512.56 -3263.53 5689.17 
-633.981 -1430.61 6042.1 2427.16 -1113.31 5721.02 1465.17 -249.496 5952.97 
-3011.54 2855.19 5921.4 958.647 -4429.68 7074.34 4252.91 -3938.65 7064.22 
2575.33 -2498.95 7079.4 3951.02 -2147.85 12638.3 3010.69 3109.34 12898.2 
4365.89 594.322 15482.7 -2167.53 -4293.62 19658.6 1978.31 -4147.01 19780 
-1223.1 -3038.8 20158.1 3983.64 -3128.93 20130.8 -3912.37 -2988.29 20116.4 
-270.702 -2329.56 20095.7 -1550.08 -1879.26 20173.8 656.805 -1731.58 20056.9 
-4042.41 -426.005 20162 -2892.27 -625.234 18521 2055.79 621.553 19192.1 
3266.29 778.098 20189.4 -3726.51 1701.06 19230.8 -855.447 1844.86 20062.9 
652.412 1948.04 20165.4 2778.09 1686.56 20049.1 1930.6 2384.39 20159.9 
-3785.78 3356.55 20095.2 -2289.78 3872.7 20209.7 469.959 3321.48 20064 
4378.48 4313.39 20076.2 -3269.57 -4180.05 20262.1 4390.89 -4320.6 20423.5 
-2786.78 -3154.91 20496.2 -409.663 -3897.28 20332.5 922.999 -3107.69 20421.7 
3158.24 -3732.86 20247.2 -4422.41 -2155.46 20486.4 1589.66 -2204.51 20330.5 
2935.3 -2647.08 20497.5 -3495.14 -1802.9 20338.7 -2442.29 -1436.01 20464.6 
1843.71 -1219.85 20378.1 3292.8 -1584.47 20484.7 445.107 -486.944 20253.4 
2700.15 -91.7599 20251 3723.26 -553.384 20339 -4491.64 485.485 20402.4 
-3461.81 681.79 20283.7 -1215.92 48.6624 20421.4 -252.104 836.416 20388.8 
781.729 747.607 20304.8 -2008.63 1296.72 20311.7 
VERTICES 452 904
1 0 
1 1 
1 2 
1 3 
1 4 
1 5 
1 6 
1 7 
1 8 
1 9 
1 10 
1 11 
1 12 
1 13 
1 14 
1 15 
1 16 
1 17 
1 18 
1 19 
1 20 
1 21 
1 22 
1 23 
1 24 
1 25 
1 26 
1 27 
1 28 
1 29 
1 30 
1 31 
1 32 
1 33 
1 34 
1 35 
1 36 
1 37 
1 38 
1 39 
1 40 
1 41 
1 42 
1 43 
1 44 
1 45 
1 46 
1 47 
1 48 
1 49 
1 50 
1 51 
1 52 
1 53 
1 54 
1 55 
1 56 
1 57 
1 58 
1 59 
1 60 
1 61 
1 62 
1 63 
1 64 
1 65 
1 66 
1 67 
1 68 
1 69 
1 70 
1 71 
1 72 
1 73 
1 74 
1 75 
1 76 
1 77 
1 78 
1 79 
1 80 
1 81 
1 82 
1 83 
1 84 
1 85 
1 86 
1 87 
1 88 
1 89 
1 90 
1 91 
1 92 
1 93 
1 94 
1 95 
1 96 
1 97 
1 98 
1 99 
1 100 
1 101 
1 102 
1 103 
1 104 
1 105 
1 106 
1 107 
1 108 
1 109 
1 110 
1 111 
1 112 
1 113 
1 114 
1 115 
1 116 
1 117 
1 118 
1 119 
1 120 
1 121 
1 122 
1 123 
1 124 
1 125 
1 126 
1 127 
1 128 
1 129 
1 130 
1 131 
1 132 
1 133 
1 134 
1 135 
1 136 
1 137 
1 138 
1 139 
1 140 
1 141 
1 142 
1 143 
1 144 
1 145 
1 146 
1 147 
1 148 
1 149 
1 150 
1 151 
1 152 
1 153 
1 154 
1 155 
1 156 
1 157 
1 158 
1 159 
1 160 
1 161 
1 162 
1 163 
1 164 
1 165 
1 166 
1 167 
1 168 
1 169 
1 170 
1 171 
1 172 
1 173 
1 174 
1 175 
1 176 
1 177 
1 178 
1 179 
1 180 
1 181 
1 182 
1 183 
1 184 
1 185 
1 186 
1 187 
1 188 
1 189 
1 190 
1 191 
1 192 
1 193 
1 194 
1 195 
1 196 
1 197 
1 198 
1 199 
1 200 
1 201 
1 202 
1 203 
1 204 
1 205 
1 206 
1 207 
1 208 
1 209 
1 210 
1 211 
1 212 
1 213 
1 214 
1 215 
1 216 
1 217 
1 218 
1 219 
1 220 
1 221 
1 222 
1 223 
1 224 
1 225 
1 226 
1 227 
1 228 
1 229 
1 230 
1 231 
1 232 
1 233 
1 234 
1 235 
1 236 
1 237 
1 238 
1 239 
1 240 
1 241 
1 242 
1 243 
1 244 
1 245 
1 246 
1 247 
1 248 
1 249 
1 250 
1 251 
1 252 
1 253 
1 254 
1 255 
1 256 
1 257 
1 258 
1 259 
1 260 
1 261 
1 262 
1 263 
1 264 
1 265 
1 266 
1 267 
1 268 
1 269 
1 270 
1 271 
1 272 
1 273 
1 274 
1 275 
1 276 
1 277 
1 278 
1 279 
1 280 
1 281 
1 282 
1 283 
1 284 
1 285 
1 286 
1 287 
1 288 
1 289 
1 290 
1 291 
1 292 
1 293 
1 294 
1 295 
1 296 
1 297 
1 298 
1 299 
1 300 
1 301 
1 302 
1 303 
1 304 
1 305 
1 306 
1 307 
1 308 
1 309 
1 310 
1 311 
1 312 
1 313 
1 314 
1 315 
1 316 
1 317 
1 318 
1 319 
1 320 
1 321 
1 322 
1 323 
1 324 
1 325 
1 326 
1 327 
1 328 
1 329 
1 330 
1 331 
1 332 
1 333 
1 334 
1 335 
1 336 
1 337 
1 338 
1 339 
1 340 
1 341 
1 342 
1 343 
1 344 
1 345 
1 346 
1 347 
1 348 
1 349 
1 350 
1 351 
1 352 
1 353 
1 354 
1 355 
1 356 
1 357 
1 358 
1 359 
1 360 
1 361 
1 362 
1 363 
1 364 
1 365 
1 366 
1 367 
1 368 
1 369 
1 370 
1 371 
1 372 
1 373 
1 374 
1 375 
1 376 
1 377 
1 378 
1 379 
1 380 
1 381 
1 382 
1 383 
1 384 
1 385 
1 386 
1 387 
1 388 
1 389 
1 390 
1 391 
1 392 
1 393 
1 394 
1 395 
1 396 
1 397 
1 398 
1 399 
1 400 
1 401 
1 402 
1 403 
1 404 
1 405 
1 406 
1 407 
1 408 
1 409 
1 410 
1 411 
1 412 
1 413 
1 414 
1 415 
1 416 
1 417 
1 418 
1 419 
1 420 
1 421 
1 422 
1 423 
1 424 
1 425 
1 426 
1 427 
1 428 
1 429 
1 430 
1 431 
1 432 
1 433 
1 434 
1 435 
1 436 
1 437 
1 438 
1 439 
1 440 
1 441 
1 442 
1 443 
1 444 
1 445 
1 446 
1 447 
1 448 
1 449 
1 450 
1 451 

POINT_DATA 452
FIELD FieldData 7
id 1 452 int
72 12 38 94 7 11 80 109 30 
100 48 107 102 124 89 79 97 81 
90 82 91 49 36 60 78 18 16 
28 26 31 51 14 27 98 15 45 
104 96 22 4 87 29 54 37 59 
19 1 2 108 43 84 33 92 21 
88 42 55 66 46 77 73 20 110 
131 13 40 53 23 35 105 52 8 
119 61 25 34 58 6 85 47 63 
57 32 75 65 93 39 83 67 41 
10 9 17 113 3 56 50 24 166 
44 5 164 139 185 103 194 95 125 
135 86 150 137 223 193 133 149 202 
161 99 274 147 168 128 163 132 157 
179 148 155 186 145 278 281 101 156 
181 141 134 212 187 225 165 136 195 
170 62 159 123 142 224 70 121 172 
152 115 130 140 160 171 126 209 217 
177 112 316 158 118 127 207 69 153 
154 111 191 143 114 151 129 175 198 
169 76 167 189 200 116 192 214 219 
196 210 221 146 182 144 74 216 64 
117 68 228 206 138 120 71 122 183 
162 201 178 180 208 215 106 248 242 
276 232 273 262 289 337 293 258 266 
239 322 229 307 275 312 309 245 292 
320 327 330 299 259 240 301 254 329 
190 227 317 267 282 304 268 285 314 
310 233 264 296 315 256 204 211 323 
231 252 283 213 257 197 302 374 324 
270 297 298 243 265 234 253 235 308 
271 288 174 263 230 287 261 269 218 
357 236 255 244 250 295 222 284 226 
294 246 355 272 279 290 333 251 332 
205 241 173 379 277 352 326 237 184 
286 331 260 280 311 238 306 247 377 
335 334 176 300 249 199 188 319 203 
318 291 220 371 378 328 340 354 338 
305 343 345 376 375 391 336 370 325 
362 344 389 348 303 380 364 313 353 
321 365 392 361 394 349 373 363 369 
360 342 366 339 387 368 393 372 395 
381 346 383 367 382 351 434 446 430 
408 427 421 401 414 411 404 350 384 
358 442 390 347 341 388 359 385 386 
356 443 452 399 412 418 422 436 437 
417 413 441 416 428 424 440 398 433 
410 403 448 402 444 420 406 396 449 
397 423 439 431 445 429 450 419 447 
407 432 409 426 415 451 400 405 435 
425 438 
type 1 452 int
1 1 1 1 1 1 1 1 1 
1 1 1 1 1 1 1 1 1 
1 1 1 1 1 1 1 1 1 
1 1 1 1 1 1 1 1 1 
1 1 1 1 1 1 1 1 1 
1 1 1 1 1 1 1 1 1 
1 1 1 1 1 1 1 1 1 
1 1 1 1 1 1 1 1 1 
1 1 1 1 1 1 1 1 1 
1 1 1 1 1 1 1 1 1 
1 1 1 1 1 1 1 1 1 
1 1 1 1 1 1 1 1 1 
1 1 1 1 1 1 1 1 1 
1 1 1 1 1 1 1 1 1 
1 1 1 1 1 1 1 1 1 
1 1 1 1 1 1 1 1 1 
1 1 1 1 1 1 1 1 1 
1 1 1 1 1 1 1 1 1 
1 1 1 1 1 1 1 1 1 
1 1 1 1 1 1 1 1 1 
1 1 1 1 1 1 1 1 1 
1 1 1 1 1 1 1 1 1 
1 1 1 1 1 1 1 1 1 
1 1 1 1 1 1 1 1 1 
1 1 1 1 1 1 1 1 1 
1 1 1 1 1 1 1 1 1 
1 1 1 1 1 1 1 1 1 
1 1 1 1 1 1 1 1 1 
1 1 1 1 1 1 1 1 1 
1 1 1 1 1 1 1 1 1 
1 1 1 1 1 1 1 1 1 
1 1 1 1 1 1 1 1 1 
1 1 1 1 1 1 1 1 1 
1 1 1 1 1 1 1 1 1 
1 1 1 1 1 1 1 1 1 
1 1 1 1 1 1 1 1 1 
1 1 1 1 1 1 1 1 1 
1 1 1 1 1 1 1 1 1 
1 1 1 1 1 1 1 1 1 
1 1 1 1 1 1 1 1 1 
1 1 1 1 1 1 1 1 1 
1 1 1 1 1 1 1 1 1 
1 1 1 1 1 1 1 1 1 
1 1 1 1 1 1 1 1 1 
1 1 1 1 1 1 1 1 1 
1 1 1 1 1 1 1 1 1 
1 1 1 1 1 1 1 1 1 
1 1 1 1 1 1 1 1 1 
1 1 1 1 1 1 1 1 1 
1 1 1 1 1 1 1 1 1 
1 1 
i 3 452 int
0 1 0 0 0 0 1 1 0 
0 1 0 0 0 0 0 0 0 
0 1 0 0 0 0 0 1 0 
0 0 0 -1 0 0 0 0 0 
0 0 0 0 0 0 0 0 0 
0 0 0 0 0 0 0 1 0 
0 0 0 0 0 0 0 0 0 
-1 0 0 1 1 0 0 0 0 
0 0 0 0 0 0 0 0 0 
0 0 0 0 0 0 0 0 0 
0 0 0 0 0 0 0 0 0 
0 0 0 0 0 0 0 0 0 
0 0 0 0 0 0 0 0 0 
0 0 0 -1 0 0 0 0 0 
0 0 0 0 0 0 0 0 0 
0 0 0 0 0 0 0 0 0 
0 0 0 0 0 0 0 0 0 
0 0 0 0 0 0 0 0 0 
0 0 0 0 0 0 0 0 0 
0 0 0 0 0 0 0 0 0 
0 -1 0 1 -1 0 0 0 0 
0 0 0 0 0 0 0 0 0 
0 0 0 0 0 0 0 0 0 
-1 0 0 0 0 0 0 0 0 
0 0 0 0 0 0 0 0 0 
0 0 0 0 0 0 0 0 0 
0 0 0 0 0 0 1 -1 0 
0 0 0 0 0 0 0 0 0 
0 -1 0 0 0 0 0 0 0 
0 0 0 0 0 0 0 0 0 
1 0 0 0 0 0 0 -1 0 
0 -1 0 0 -1 0 0 -1 0 
0 -1 0 0 -1 0 0 0 0 
0 0 0 0 0 0 1 0 0 
0 1 0 0 0 0 0 0 0 
0 0 0 0 0 0 0 0 0 
0 1 0 0 0 0 0 1 0 
1 0 0 0 1 0 0 0 0 
0 0 0 0 0 0 0 0 0 
0 0 0 -1 1 0 0 0 0 
0 1 0 0 0 0 0 0 0 
0 0 0 0 1 0 0 0 0 
0 0 0 0 0 0 0 0 0 
0 0 0 0 0 0 0 0 0 
-1 0 0 0 0 0 0 0 0 
0 0 0 0 1 0 0 0 0 
0 0 0 0 0 0 0 0 0 
0 0 0 0 0 0 0 0 0 
-1 0 0 -1 0 0 1 0 0 
1 0 0 0 0 0 0 0 0 
0 0 0 0 0 0 0 0 0 
0 0 0 0 0 0 0 0 0 
-1 0 0 0 0 0 0 0 0 
0 0 0 0 0 0 0 0 0 
0 0 0 -1 0 0 0 0 0 
0 0 0 0 0 0 0 0 0 
0 0 0 0 0 0 0 0 0 
0 0 0 -1 0 0 0 0 0 
0 0 0 0 0 0 -1 0 0 
1 0 0 0 0 0 0 0 0 
0 0 0 0 0 0 0 0 0 
0 0 0 0 0 0 0 0 0 
0 0 0 -1 0 0 0 0 0 
0 0 0 0 -1 0 0 0 0 
0 -1 0 0 0 0 0 0 0 
0 -1 0 0 0 0 0 0 0 
0 0 0 0 0 0 0 0 0 
1 -1 0 0 0 0 0 0 0 
0 0 0 0 0 0 0 0 0 
0 -1 0 0 0 0 0 0 0 
0 0 0 -1 0 0 0 0 0 
-1 0 0 1 0 0 0 0 0 
0 0 0 0 1 0 0 0 0 
0 0 0 0 0 0 0 0 0 
0 0 0 0 0 0 0 0 0 
0 0 0 0 1 0 0 0 0 
0 0 0 0 0 0 0 1 0 
0 0 0 0 0 0 0 0 0 
0 0 0 0 0 0 0 0 0 
0 0 0 0 0 0 0 0 0 
0 0 0 0 0 0 0 0 0 
0 0 0 0 0 0 0 0 0 
0 0 0 0 0 0 -1 0 0 
0 0 0 0 0 0 0 0 0 
0 0 0 0 0 0 0 0 0 
0 0 0 -1 0 0 0 0 0 
1 0 0 1 0 0 0 0 0 
1 0 0 0 0 0 0 0 0 
0 0 0 0 0 0 0 0 0 
0 0 0 0 0 0 0 0 0 
0 0 0 0 0 0 0 0 0 
1 0 0 1 0 0 0 0 0 
0 0 0 0 0 0 0 0 0 
0 0 0 0 0 0 0 0 0 
0 0 0 0 0 0 0 0 0 
0 0 0 1 0 0 0 0 0 
0 0 0 0 0 0 0 0 0 
0 0 0 0 0 0 0 0 0 
-1 0 0 0 0 0 0 0 0 
0 0 0 0 0 0 0 0 0 
0 0 0 0 0 0 0 0 0 
0 0 0 0 0 0 0 0 0 
0 0 0 0 0 0 0 0 0 
-1 0 0 0 0 0 1 0 0 
0 0 0 0 0 0 0 0 0 
0 0 0 0 -1 0 0 0 0 
0 0 0 0 0 0 0 0 0 
0 0 0 0 0 0 0 0 0 
0 0 0 0 0 0 0 -1 0 
0 0 0 0 0 0 0 -1 0 
0 0 0 0 -1 0 0 -1 0 
0 0 0 0 0 0 -1 -1 0 
0 -1 0 0 0 0 0 1 0 
0 0 0 0 0 0 0 0 0 
0 0 0 0 0 0 0 0 0 
0 0 0 -1 0 0 0 0 0 
0 0 0 0 0 0 0 0 0 
0 0 0 0 0 0 -1 0 0 
0 0 0 0 0 0 0 0 0 
0 0 0 0 0 0 0 0 0 
0 0 0 0 0 0 1 0 0 
0 0 0 0 -1 0 0 0 0 
0 0 0 0 0 0 0 0 0 
0 0 0 1 -1 0 0 0 0 
0 0 0 0 0 0 0 0 0 
-1 0 0 0 0 0 0 0 0 
0 0 0 0 0 0 0 0 0 
0 0 0 0 0 0 0 0 0 
0 0 0 0 0 0 0 0 0 
0 0 0 0 0 0 0 0 0 
0 0 0 0 0 0 0 0 0 
0 0 0 0 0 0 0 0 0 
0 0 0 0 0 0 0 0 0 
0 0 0 0 0 0 0 0 0 
0 0 0 0 0 0 0 0 0 
0 0 0 0 0 0 0 0 0 
0 0 0 0 0 0 0 0 0 
0 0 0 0 0 0 0 0 0 
0 0 0 0 0 0 0 0 0 
0 0 0 0 0 0 0 0 0 
0 0 0 0 0 0 0 0 0 
0 0 0 0 0 0 0 0 0 
0 0 0 0 0 0 0 0 0 
0 0 0 0 0 0 0 0 0 
0 0 0 0 0 0 0 0 0 
0 0 0 0 0 0 0 0 0 
0 0 0 0 0 0 0 0 0 
0 0 0 0 0 0 0 0 0 
0 0 0 0 0 0 0 0 0 
0 0 0 0 0 0 0 0 0 
0 0 0 0 0 0 
v 3 452 double
-0.000495642 -0.000540869 -0.000613908 0.00125192 -0.000947052 -0.000322243 0.000393575 -0.000610351 -0.000422648 
-0.000952786 0.000438976 0.000127262 -0.000920483 -0.00268049 0.000196693 0.00176287 -0.0014129 0.00133822 
0.000238656 -0.0019557 -0.000346572 -0.000266583 -0.00118158 -0.000202655 -0.00284621 -0.000342894 -0.000225967 
-0.000947344 0.00180653 0.000585707 -0.00225999 0.00142139 -0.000609798 0.00023559 0.000580623 -0.000864374 
0.000398518 0.00136747 -1.90335e-05 2.8628e-05 -0.000422057 0.000150814 0.000470262 -0.000250606 -0.00013047 
0.000217309 -0.00246592 0.000595017 -0.00135814 -0.000958946 0.000819888 -0.000693644 0.000224245 -0.000247194 
-0.000955909 -3.05904e-05 0.000332315 -0.00150644 0.000894687 -0.00024183 -0.00149488 0.00200494 -0.000650851 
0.000596669 0.000424188 -0.000256188 -0.00153768 -0.00174315 -0.000280852 -0.0022597 -0.00144819 0.000406266 
-0.00382733 -0.00208939 0.000107218 0.00151908 -0.00109892 -0.000194886 -0.00121624 -0.00047902 2.0716e-05 
-1.11857e-05 -0.000280829 0.000313997 0.000696897 -4.12603e-05 -0.000373995 -0.000242036 -0.000442368 -0.000175947 
0.000670538 0.000141555 -0.000252979 -0.000694616 -0.000446159 0.00104429 -0.00179392 -0.000765694 -0.000321792 
-0.00776245 -0.00633836 -0.00520607 -0.000538527 -0.000622393 0.000112578 0.0013611 0.000347658 9.99822e-05 
-0.000958676 0.000638288 -0.000691529 0.00139132 -0.00131986 -0.000727198 -0.000932652 0.00109872 -0.000299149 
0.000205713 0.00025454 0.000482932 -0.000851726 -7.77814e-05 0.000692683 -0.000882429 1.44466e-05 0.00117434 
-0.0031213 -0.000506746 -4.81407e-05 -0.00960735 -0.000413255 -0.0114595 -0.00186691 0.00149068 0.000250562 
0.000228356 -0.000772327 -0.00126257 0.000722523 -0.000940657 -0.000177293 0.000998746 -0.000278099 0.000368329 
0.000725042 -0.000397697 0.00143288 0.0014376 0.0002895 -0.000466307 0.00182133 -0.00132306 2.01794e-05 
-0.00182486 -3.25498e-05 -0.000477802 -0.00136805 -0.00291229 -0.000664973 -0.00115677 -0.00469299 -0.001373 
0.0011747 -7.60234e-05 -0.000249466 -0.00853479 0.00308734 -0.00048105 -0.00346187 -0.000497908 0.000324059 
0.00324635 0.00106302 0.00122259 0.00052623 -6.94538e-05 0.00081562 -0.00093635 -0.00202401 -0.000583883 
-0.00273328 -0.000645829 -0.000300751 -0.00490963 -0.0031482 -0.00103903 0.00133667 0.000831244 -0.00110908 
0.000944227 -0.00266859 -0.000152107 -0.000918773 0.000439896 -0.000268927 -0.0018605 -0.000579358 0.00029824 
0.00415736 0.00196194 0.000637502 0.0105631 -0.000517062 -0.000262879 0.004856 -0.00132196 8.70085e-05 
-0.00127205 0.000520223 -0.000378145 0.00141625 -0.000776025 0.000729879 -0.00176584 0.000468245 0.00104327 
-0.00396735 -0.00551878 -0.00477544 -0.00263135 0.000169071 -0.000159035 -0.00222648 -0.00240695 -0.00176497 
0.000521077 -0.00157362 -0.000782707 -0.000843902 -0.000525975 -0.00178619 0.00130148 0.00241854 2.34171e-05 
0.00835601 -0.00231704 -0.00051124 0.000703331 0.00259228 -0.00134612 0.00132015 -0.00152174 -0.000170992 
0.00256166 -0.000922913 0.00102159 -0.00328683 -0.000343626 -0.000363045 9.89903e-05 -0.00417277 0.00163677 
-0.00333754 -0.00230643 -8.33663e-05 -0.00167121 -0.00718526 0.0027396 0.000805128 -0.00457825 -0.000928848 
0.000869184 -0.00211097 -0.00051304 0.00164007 0.00376575 0.000405867 0.000751186 -0.000541298 0.000519545 
9.22045e-05 -0.00362207 -0.00386371 0.000460767 -0.000498821 0.000230094 0.00730625 -0.00141397 5.92278e-07 
0.000253064 0.00201419 0.000436828 0.000683205 -0.00132917 0.00114493 -0.000179194 -0.000542803 0.000828813 
0.00184063 -0.00272888 8.54596e-05 -0.00586377 -0.00296154 -0.000414791 -0.00344472 -0.00352366 -0.000909003 
0.000225517 0.00133369 -0.00106597 1.97769e-05 0.000677543 -0.00193494 0.0008947 0.000362171 -0.00165985 
0.000854831 0.000187415 -0.000330254 0.00148377 0.000171672 0.00498485 0.0016083 -0.000762298 0.00340208 
-0.000385206 -0.00369652 0.000879387 0.0013508 -0.000805337 0.00362587 0.00389668 0.00177059 0.000613331 
-0.000241078 -0.0036997 -0.00142155 -0.000447503 0.00323596 -0.00107705 0.000435796 0.00192155 -0.000828025 
0.00171481 0.000396889 -0.00228118 0.000133229 0.000747134 -0.00290918 0.000128432 0.000686075 0.000329191 
0.000665081 -0.000457417 -0.000535518 -0.00110334 -0.00125062 0.00217904 0.000352553 0.000642184 0.00182097 
-0.000822215 -0.00047581 -0.000112634 -8.43127e-06 -0.00117446 0.000721026 -0.000210433 -0.00198273 0.000534842 
-0.00131126 0.00156226 -0.000831768 0.000760079 0.00086015 -4.94242e-05 -0.00281268 -0.00114477 0.00106042 
0.000855819 9.36027e-05 -0.00128418 0.00252393 -0.000703319 -0.00179752 0.000291127 0.000250883 -0.000552254 
-0.00132902 0.00111279 0.000427155 -0.00178464 0.000934495 -0.00127081 0.000765803 -0.00103629 -0.000343643 
0.000935033 0.000975874 0.000394781 -8.71969e-05 -0.00120182 -0.000561139 -0.00193407 -0.000785345 -0.000215493 
-0.00017903 -0.000751155 0.00126225 -0.00191934 -0.000208726 -0.00341324 0.000941476 0.00114422 -0.00102915 
1.36468e-05 -0.00362642 -0.00081158 -0.0069547 -0.00151744 -0.00311894 -0.000338115 -0.000392425 0.000380059 
3.81807e-05 -0.000617352 0.000510112 0.000622178 -1.87891e-06 -0.00138871 0.00226546 0.000734139 -0.000468654 
0.000605184 0.000773655 0.000651687 0.00286226 -0.000288752 0.000902053 0.00020553 -1.696e-05 -0.000634079 
0.000365707 -0.00077717 0.00226998 -8.38836e-05 -0.00133611 0.000665188 -0.0041618 -0.00145003 0.00556794 
-0.00470428 -0.00207417 -0.0032936 -0.0110783 -0.00165859 -0.0084291 0.0037046 -0.00660679 -0.00846992 
0.00376998 0.00405685 -0.00788328 0.00214784 0.000975107 -0.0024638 -0.00111906 0.00143684 -0.000429442 
-0.00103168 -0.00134746 0.00129888 0.00148737 0.00106329 0.000577394 0.00337938 -0.00657439 0.0026757 
0.00206797 0.0010996 0.00146382 -0.00336999 0.000662876 0.0027285 6.20605e-05 0.00322226 0.000205911 
-0.0115014 -0.00857819 -0.0167743 -0.00172173 -3.89125e-05 0.00186527 -0.000715134 -0.00110429 0.000370948 
0.0107181 0.00436006 0.00956007 0.0040723 0.0032332 -0.00045253 0.00303986 -0.0112948 0.00369128 
0.00473641 -0.000408264 -0.00143529 0.00176247 -0.00488795 -0.000936743 -0.00650973 -0.000306416 -0.00147252 
-0.0102311 0.00879311 -0.011394 -0.00191788 -0.00380533 -0.0058463 0.000136341 0.00292729 -0.000734945 
0.00164993 -0.00364032 -0.0028261 0.000412103 -0.00023908 -0.00126326 0.00488116 0.00419215 -0.000856373 
0.00309267 -0.00196304 0.00353298 0.0035015 0.000146735 0.00170705 0.000260538 0.00291797 -0.00326734 
-0.000874374 0.00388431 -0.00251867 -0.00153891 -0.00282708 8.73161e-05 -0.00265507 -0.00216443 -0.00370971 
-0.0129505 -0.00605219 0.00821905 -0.0170587 0.0112194 -0.00401259 -0.000391967 -0.00444224 -0.00268898 
0.00319838 -0.004127 -0.00891673 -0.00286317 0.0010711 -0.0038837 0.00449219 0.00329072 0.00042699 
0.00895359 0.00234984 -0.00517436 0.000709138 0.00368758 -0.00179216 -0.00180967 -0.00175681 0.000187289 
-0.000877698 0.00260042 -0.00558716 0.00252369 -0.000855087 0.000599586 -0.00595062 -0.000343437 -0.00500654 
-0.0131664 -0.00341614 -0.00632758 -0.00102311 -0.0123767 0.000268076 0.00507956 -0.00210503 -0.000833347 
4.22375e-05 0.00401545 -0.00165717 0.00383681 0.00986198 -0.00294332 -0.0031084 -0.00151533 -0.00337327 
-0.00358028 0.0010684 0.00100711 -0.000593139 -0.00219467 -3.97876e-05 -1.09258e-05 -0.00837118 -0.000176713 
-0.00240194 -0.003485 -0.00327781 -0.000913187 0.000466717 -0.00016993 0.000789029 0.000667383 0.00364075 
-0.000889931 -0.00407812 -0.0100067 8.19706e-05 -0.00423159 0.00122693 -0.00109877 -0.00561808 0.00579317 
-0.0081439 -0.003722 -0.00159711 -0.000753422 -0.00295843 -0.00280891 0.000798325 -0.00887095 -0.00395278 
-0.00219622 -0.00213363 -0.00212625 0.00169014 -0.0033318 0.00086998 0.0012413 -0.00667652 -0.00308832 
-0.00429549 0.000675738 -0.00156547 -0.00204962 -0.0014123 0.000179017 -0.00115609 0.000669608 0.000371205 
-0.00037042 -0.000346289 0.000426296 -0.00275135 -0.00844653 0.00218106 -0.00153415 -0.00515173 -0.00103926 
-0.00418961 -0.00271427 0.00064427 0.00119271 -0.00335645 0.00546773 0.00258717 -0.00102162 -0.00422653 
-0.000629791 -0.00296911 -0.00392989 0.000574082 0.00202872 -0.000951543 -0.000904495 0.00192816 -0.00178473 
0.00160666 -0.00294024 -0.00847179 -0.0032667 -0.000904004 0.0032632 0.00156106 -5.44831e-05 0.00150979 
0.000946055 -0.00563219 -0.000865681 -0.000360929 -0.000701858 -0.00122856 -0.00131276 -0.00176481 0.000748912 
0.00247301 -0.00210276 -0.000865053 0.000905943 0.000317451 -0.00107406 0.0012002 -0.00336743 0.00105171 
0.0172401 0.0101788 -0.00403906 0.0071222 0.0046558 0.000458606 0.00814644 0.0176822 -0.0034704 
-0.0015665 -0.000355706 0.00344757 -0.00111235 -0.00188754 0.000286414 -0.00350519 -0.00542134 -0.0037202 
-0.00182472 -0.00134052 -0.000210843 0.000327388 -0.00170969 -0.00192982 -0.00232486 -0.00479867 -0.000803619 
-0.00199056 3.34333e-05 0.000894903 -0.000176318 0.000854439 0.00274163 -0.000532807 0.000661617 -0.00118461 
0.000309932 -0.0001934 -0.000339465 -0.00150769 0.000923121 -0.000894113 0.00183558 -0.00312823 -0.000401464 
-0.000100028 -0.00123497 -0.000654891 -0.0117175 -0.00871033 0.000973294 -0.00902775 -0.00630062 0.000892885 
-0.0027773 -0.00293138 -0.000962581 -0.00273147 0.00142779 0.0034807 -0.00191761 -0.000292162 9.79184e-05 
0.00113061 4.43545e-05 -0.000500603 -0.000119653 -0.00286267 0.00305319 0.0029487 -0.00334342 -2.70708e-05 
-0.00228077 -0.00720921 -0.000830534 -0.00424244 -0.00353485 -0.00119926 -0.00459276 -0.000325828 0.00256323 
0.000931968 0.000599767 -0.00505218 0.00291114 0.00299156 -0.00200147 0.00747002 0.00586383 0.00349377 
-0.00420578 0.00332056 -0.000848025 -0.00355324 -0.0136146 0.00420317 0.00727744 -0.00417649 0.00638023 
0.00463514 0.00356279 0.00311293 -0.0115162 0.0177196 -0.00635428 -0.00797866 0.00372745 -0.0057987 
-0.00982677 0.000184201 0.00503182 0.00308772 -0.000919141 0.00302091 -0.00416863 -0.00704558 0.00470219 