# vtk DataFile Version 4.0
Generated by LIGGGHTS
ASCII
DATASET POLYDATA
POINTS 736 float
-4336.1 -4885.77 499.497 -3769.34 -4062.73 499.781 -3313.02 -4953.76 499.366 
-2650.96 -4204.23 499.744 -1602.67 -4279.34 499.574 -362.18 -4453.45 497.729 
635.877 -4514.97 499.257 1613.75 -4724.08 499.152 2612.17 -4769.13 498.405 
3669.08 -4757.05 498.398 4666.54 -4822.8 499.305 -4776.78 -3981.67 499.189 
-4207.66 -3159.45 499.581 -3209.8 -3234.7 498.406 -2212.99 -3305.6 498.811 
-896.051 -3572.35 499.357 170.291 -3607.9 499.527 1170.64 -3670.88 498.608 
2151.18 -3881.56 499.491 3150.28 -3903.22 499.275 3701.91 -3070.12 499.06 
4225.18 -3922.19 498.432 4775.77 -3085.86 499.259 -4618.29 -2190.9 499.162 
-3623.66 -2287.36 499.403 -2625.75 -2359.15 499.315 -1408.68 -2714.04 498.296 
-403.739 -2672.98 499.699 386.823 -2056.78 498.684 1354.23 -2316.39 498.801 
2177.95 -2882.31 499.012 4387.14 -2096.05 498.665 -4687.2 -1116.31 499.201 
-3386.9 -1196.11 499.023 -2387.73 -1177.7 498.556 -1529.27 -1700.3 499.423 
-506.967 -1609.52 498.733 1105.33 -1349.24 498.65 2181.99 -1756.16 498.978 
3418.29 -1849.85 498.545 -4404.42 -157.178 498.427 -3385.99 -195.086 497.671 
-2392.71 -55.8164 499.699 -1526.51 -560.13 498.283 213.733 -894.028 498.156 
1938.45 -787.107 499.486 2919.55 -983.267 499.029 2597.45 -36.2595 498.879 
3597.94 -77.9874 498.535 4068.7 -980.908 499.066 4596.45 -130.613 498.275 
-4869.29 727.231 499.343 -3864.04 683.781 499.424 -2872.93 822.183 498.245 
-1503.88 438.925 498.818 -549.963 138.845 499.366 505.91 62.1599 499.443 
1623.94 190.995 498.572 3133.22 807.439 499.607 4132.04 766.471 499.166 
-4488.61 1650.92 498.872 -3487.89 1609.87 499.545 -1633.34 1429.78 498.66 
-558.226 1137.78 499.25 8.27671 1960.49 499.239 442.417 1059.95 498.751 
1491.3 1181.55 498.365 2490.99 1584.27 498.575 3478.75 1745.28 499.455 
4509.78 1691.61 498.278 -4953.24 2536.18 498.383 -3952.76 2494.47 499.311 
-2953.68 2454.89 497.697 -1954.11 2376.48 498.441 -969.216 2177.06 499.179 
-290.367 2913.81 498.598 690.29 2690.51 498.781 1697.57 2193.31 499.706 
2946.91 2598.76 499.307 4035.8 2575.3 499.145 -4416.4 3380.07 498.939 
-3418.19 3338.91 498.855 -2360.69 3288.88 498.753 -1287.87 3125.99 499.699 
-607.213 3861.55 499.152 439.333 3658.24 499.63 1556.77 3188.68 499.092 
2581.25 3529.16 499.661 3588.36 3482.4 498.754 4585.71 3423.18 498.231 
-4879.85 4267.37 498.447 -3881.32 4224.19 499.416 -2187.43 4909.69 499.707 
-2849.42 4160.36 498.916 -1681.7 4046.51 499.697 -1001.65 4779.91 497.911 
56.9129 4612.89 499.105 1044.04 4455.07 498.605 2040.75 4369.97 499.472 
3121.83 4370.42 499.016 4121.75 4330.89 499.699 -4297.08 -4305.61 1313.75 
-3289.47 -4381.14 1318.02 -2332.24 -4415.81 1621.4 -1526.73 -4899.76 1284.32 
-858.292 -4154.04 1311.42 147.909 -4227.98 1324.86 1315.08 -4228.56 1314.2 
2346.2 -4347.97 1363.67 3689.87 -4168.2 1305.02 4705.66 -4241.98 1313.8 
-4741.65 -3404.8 1314.89 -3728.31 -3483.77 1316.42 -2731.37 -3552.77 1316.17 
-1738.53 -3680.83 1294.29 -353.437 -3290.92 1289.99 727.973 -3540.36 1757.24 
1672.74 -3280.11 1268.66 2661.61 -3410.55 1218.07 3418.47 -3154.77 1817.44 
4260.2 -3347.06 1314.61 -4165.87 -2586.24 1317.63 -3155.9 -2648.76 1304.94 
-2071.03 -2678.7 1266.78 -1234.38 -2944.11 1745.01 -972.544 -2151.3 1196.59 
-9.89509 -2355.38 1365.77 715.994 -2919.23 974.936 1912.01 -2248.9 1325.39 
1171.65 -2651.6 1861.64 2860.92 -2441.32 1078.97 3842.64 -2440.69 1261.48 
4839.96 -2488.89 1298.36 -4064.68 -1616.71 1100.66 -4694.28 -1801.4 1854.26 
-3421.27 -1146.44 1929.71 -2878.02 -1694.06 1201.69 -1770.66 -1127.63 1282.13 
-1696.29 -1944.55 1852.5 -904.158 -1317.66 1740.66 889.995 -1849.56 1335.95 
20.0916 -1356.79 1361.61 1701.86 -1266.28 1344.33 2676.33 -1490.41 1325.35 
3667.58 -1359.77 1331.87 4654.89 -1422.37 1186.2 -4914.09 -525.169 1274.86 
-3910.51 -637.673 1221.5 -2895.19 -694.678 1210.27 -2238.31 -98.7304 1669.86 
-1296.97 -65.7845 1336.01 -657.415 -738.46 964.725 817.389 -989.369 1839.34 
202.94 -372.148 1349.46 1138.74 -503.339 1027.23 1190.36 -41.4228 1910.5 
2046.11 -199.262 1316.66 3083.38 -398.911 1292.45 4082.32 -395.258 1312.54 
-4206.41 308.774 1360.3 -3087.48 292.501 1316.79 -2149.96 770.604 1185.79 
-1177.89 985.868 1268.49 -342.343 461.27 1422.44 1025.63 616.92 1177.97 
2267.79 756.326 1011.91 2759.98 396.783 1803.6 3626.88 494.706 1317.06 
4626.48 445.26 1314.09 -4006.76 1286.43 1295.09 -3066.25 1241.45 1628.64 
-2514.32 1658.9 909.306 -1671.46 1953.9 1358.24 -7.3605 1397.93 1324.5 
885.659 1826.93 961.958 1751.77 1518.43 1401.87 3002.23 1356.77 1325.93 
3999.51 1422.21 1313.76 4998.12 1373.05 1309.83 -4464.99 2227.43 1315.03 
-3463.2 2187.25 1315.16 -2558.62 2212.02 1740.47 -1863.59 2961.85 1302.32 
-442.258 2309.67 1337.55 440.331 2174.58 1786.21 1185.62 2691.46 1366.09 
2470.79 2202.22 1283.46 3482.77 2339.95 1302.74 4530.77 2270.47 1311.72 
-4395.93 3956.01 1315.51 -4930.13 3112.01 1313.87 -3928.36 3072.18 1314.97 
-3380.72 3919.87 1310.85 -2901.17 3043.41 1301.79 -2279.76 3893.86 1290.24 
-718.151 3273.77 1326.22 258.747 3062.22 1319.86 732.498 3742.23 1877.49 
1458.77 3887.5 1207.7 2086.4 3122.64 1343.65 3076.07 3252.88 1325.06 
4070.84 3157.82 1311.12 -4855.64 4845.24 1312.51 -3857.36 4797.33 1317.67 
-2787.49 4755.08 1299.18 -1101.5 4195.97 1300.92 -434.374 4940.59 1305.68 
-33.4585 4023.82 1300.97 612.204 4879.31 1293.77 1804.12 4812.49 1363.68 
2582.55 4127.5 1304.6 3143.51 4964.89 1301.79 3615.66 4088.02 1419.38 
4605.56 4002.68 1312.98 4148.03 4927.59 1316.2 -4820.06 -4577.92 2126.94 
-3820.11 -4624.99 2132.07 -3030.02 -4011.99 2211.47 -2272.2 -4507.82 2639.33 
-1459.86 -4301.31 2095.43 -872.908 -4294.57 2909.93 -269.675 -4572.86 2164 
738.249 -4502.97 2082.22 1756.24 -4564.37 2145.27 2486.66 -4497.45 2828.85 
3038.77 -4174.16 2062 3525.25 -4558.51 2882.69 4170.6 -4482.81 2122.6 
4644.94 -4802.28 2941.83 -4274.47 -3735.23 2135.2 -3400.67 -3084.58 2172.45 
-2326.01 -3231.78 2171.52 -1577.36 -3593.09 2790.22 -677.947 -3661.17 2161.98 
308.258 -3785.14 2630.85 1304 -3765.77 2541.36 2168.98 -3649.08 2055.26 
2922.77 -3379.03 2655.79 3890.6 -3629.08 2559.26 4859.56 -3827.35 2702.54 
4706.8 -3012.25 2143.48 -4340.53 -2751.09 2294.04 -3616.83 -2121.44 2016.53 
-3564.51 -2476.59 2949.36 -2617.79 -2272.78 2057.7 -1657.49 -2617.41 2589.99 
-732.463 -2916.12 2825.46 -637.358 -2195.85 2136.95 828.063 -2915.11 2761.73 
22.6353 -2945.68 2170.82 420.222 -2016.83 2202.15 1795.95 -2532.5 2633.25 
2526.76 -2719.66 1977.92 2943.94 -2394.54 2826.09 3246.18 -2026.55 1947.28 
3871.43 -2630.15 2537.69 4926.45 -2222.65 2720.53 -4180.89 -1659.42 2699.84 
-3051.7 -1651 2709.48 -2436.82 -1292.06 2007.48 -1936.93 -1674.66 2784.16 
-1030.3 -1256.37 2730.48 -115.061 -1175.22 2334.47 757.92 -1184.1 2817.31 
1378.97 -1734.47 2199.01 2370.97 -1719.09 2318.77 3234.24 -1204.45 2514.76 
4919.62 -1224.9 2677 4323.28 -1936.29 1976.91 4007.97 -1707.85 2897.69 
-4367.22 -864.169 2079.65 -4330.23 -24.7965 2698.99 -3591.49 -169.525 2043.95 
-3700.34 -791.461 2821.19 -2727.51 -462.337 2481.92 -1533.57 -642.752 2122.18 
-1010.57 -198.879 2849.2 -583.916 -374.705 1964.05 329.565 -280.544 2358.8 
1593.1 -786.793 2438.87 2490.66 -778.338 2001.23 3420.35 -266.835 2223.03 
4125.09 -969.058 2128.08 4834.36 -269.482 2206.95 -4787.9 649.508 2098.39 
-3801.17 804.427 2146.6 -2786.48 506.633 2245.2 -1896.55 183.344 2566.17 
-1052.61 493.171 2128.65 -238.248 523.132 2707.06 454.967 642.959 1997.58 
1351.59 352.591 2813.91 1833.43 719.061 1996.36 2257.08 6.75724 2573.55 
2197.14 945.907 2911.4 3093.46 528.35 2737.94 4127.79 436.502 2179.14 
-4466.91 1623.4 2116.24 -3505.76 1877.22 2264.63 -2626.04 1459.46 2498.52 
-1793.76 1159.63 2035.5 -1175.47 1205.74 2819.59 -932.3 1660.41 1962.66 
-20.585 1467.01 2320.76 647.768 1050.67 2934.35 1044.02 1443.51 2103.45 
1596.66 1744.77 2881.46 2437.01 1525.93 2132.96 3520.76 1231.09 2170.15 
4512.09 1358.38 2182.32 -4144.08 2519.06 2704.93 -4960.42 2536.2 2128.45 
-3407.24 2900.1 2149.62 -2768.15 2414.24 2754.73 -1170.66 2630.43 1941.87 
-1846.94 2081.06 2430.65 -581.185 2196.55 2728.79 -252.582 2960.12 2172.9 
929.221 2866.63 2315.84 644.789 2039.93 2799.19 1779.44 2274.91 2053.96 
2650.05 2767.18 2087.71 3124.3 2069.15 2621.05 3994.85 2212.3 2152.82 
4148.97 2801.19 2945.95 -4419.34 3376.05 2130.34 -4915.45 3990.9 2778.01 
-3008.27 3875.83 2237.31 -3863.6 3924.22 2752.8 -2377.15 3105.92 2149.34 
-1599.7 2993.42 2767.53 -1531.76 3610.55 1985.26 -586.487 3901.66 2123.86 
196.927 3733.17 2720.77 1858.2 3117.6 2585.11 1957.08 3968.88 2070.27 
1190.08 3839.08 2760.87 2976.22 3917 2199.91 2931.46 3220.78 2933.11 
3580.11 3120.74 2179.95 3902.16 3930.52 2668.72 4580.35 3423.31 2128.54 
-4369.01 4529.54 2133.89 -2967.59 4873.74 2275.14 -2058.27 4597.22 1965.14 
-1561.09 4241.83 2757.96 -1038.96 4792.52 2100.19 -470.641 4552 2886.14 
184.182 4538.39 2129.8 1181.51 4602.29 2115.99 1875.99 4712.52 2825.17 
2518.96 4795.32 2063.08 2932.62 4610.68 2953.53 3556.17 4731.39 2181.27 
4620.99 4593.44 2130.15 -4314.87 -4341.36 2956 -4920.98 -4402.31 3748.59 
-2995.8 -4492.12 3334.38 -2131 -4217.51 3755.09 -1590.49 -4895.28 3259.4 
-697.518 -4887.64 3707.48 57.7374 -4627.03 3107.09 712.215 -4695.77 3894.87 
1131.38 -4641.55 2990.06 1899.49 -4615.41 3629.38 4194.32 -4040.63 3417.72 
-4465.54 -3244.38 3154.11 -4054.77 -3907.29 3818.16 -3578.01 -3666.1 2972.19 
-3170.84 -3071.72 3665.42 -2551.28 -3642.44 3054.67 -1225.01 -3798.29 3702.81 
-249.174 -3740.21 3459.37 883.76 -3770.18 3448.31 2089.64 -3634.87 3144.6 
3007.9 -3943.34 3475.83 2692.68 -3058.11 3813.45 3581.4 -3118.38 3360.9 
4562.81 -3016.72 3205.08 -4404.22 -2292.15 3459.89 -2576.31 -2646.8 2982.81 
-1789.94 -2948.23 3523.91 -1127.04 -2113.63 3271.17 -828.32 -2889.2 3825.55 
74.1822 -2796.43 3406.31 758.497 -2066.99 3285.87 1492.4 -2920.45 3508.12 
2221.16 -2236.48 3497.81 3793.51 -2214.61 3732.44 -3624.51 -1506.34 3516.15 
-2551.24 -1829.74 3557.29 -1664.26 -1395.89 3711.16 -186.362 -1925.16 2991.3 
[...]
POINT_DATA 736
FIELD FieldData 7
id 1 736 int
72 12 38 94 7 11 80 109 30 
100 48 107 102 124 89 79 97 81 
90 82 51 91 49 36 60 78 18 
16 28 26 31 14 27 98 15 45 
104 96 22 87 54 37 59 19 1 
2 4 108 43 29 84 33 92 21 
88 42 55 66 46 77 73 20 110 
131 13 40 53 23 35 105 52 8 
119 61 25 34 58 6 85 47 63 
57 32 75 65 93 39 83 67 41 
10 9 17 113 3 56 50 24 166 
44 5 164 139 185 103 194 95 125 
135 86 150 137 223 193 133 149 202 
161 99 274 147 168 128 163 132 157 
179 148 155 186 145 278 281 101 156 
181 141 134 212 187 225 165 136 195 
170 62 159 123 142 224 70 121 172 
152 115 197 130 140 160 171 126 209 
153 217 177 112 316 158 118 127 207 
69 169 154 111 191 143 114 151 129 
175 198 76 167 189 200 116 192 214 
219 196 210 221 146 182 144 74 216 
64 117 68 228 206 138 120 71 122 
183 162 201 178 180 208 215 106 248 
242 276 232 273 378 262 289 337 293 
258 386 266 406 239 322 229 307 275 
312 309 245 292 320 327 330 350 299 
412 259 240 301 254 329 190 227 317 
267 356 282 304 305 368 285 268 314 
310 233 354 264 296 375 315 256 376 
204 298 211 323 231 252 283 213 257 
370 324 374 270 297 243 265 234 253 
235 308 271 381 288 302 380 365 263 
230 261 269 218 357 236 255 367 244 
321 250 174 226 294 173 246 355 279 
272 290 260 333 372 251 205 295 222 
379 277 352 326 349 237 331 184 280 
311 332 238 306 247 377 241 335 334 
176 300 249 286 199 363 188 319 318 
203 360 291 220 427 457 396 397 366 
408 328 417 369 418 402 419 456 437 
422 340 477 423 500 338 450 494 475 
436 488 343 444 345 439 441 429 390 
503 474 428 413 447 336 409 476 443 
467 432 508 445 348 459 416 391 405 
385 325 347 424 341 388 415 344 481 
451 382 400 303 339 435 362 426 440 
364 389 504 358 313 392 438 433 425 
442 469 403 284 414 287 399 463 398 
411 353 401 387 478 346 410 361 393 
502 452 509 394 373 468 404 395 384 
420 454 351 421 448 434 430 342 505 
371 359 383 446 473 431 449 610 520 
560 528 499 548 485 546 529 598 541 
479 532 566 583 501 516 507 558 555 
562 482 613 547 524 491 483 618 466 
565 554 530 556 577 487 596 620 493 
537 511 471 513 553 551 522 563 535 
518 552 495 533 407 526 573 496 557 
461 521 489 621 455 593 512 612 490 
498 531 464 543 462 492 525 536 484 
564 465 581 568 586 584 519 460 470 
559 545 534 453 538 599 609 458 549 
544 480 517 539 569 510 515 514 506 
550 527 486 542 497 605 540 523 589 
472 561 597 587 572 601 631 578 642 
643 590 672 653 575 699 677 658 585 
614 651 616 647 652 571 638 668 667 
679 663 576 579 646 673 574 594 607 
592 622 603 629 567 656 595 635 634 
678 617 619 580 611 648 591 588 644 
649 602 624 675 661 657 615 600 625 
582 627 639 623 637 660 604 608 570 
636 606 640 630 645 655 666 659 669 
650 662 632 654 674 670 671 676 641 
633 628 626 664 729 665 689 730 710 
714 713 694 707 682 724 726 680 683 
688 691 686 697 695 698 693 705 725 
704 706 727 735 708 720 728 711 696 
733 700 709 716 692 701 736 690 731 
718 722 715 687 703 721 719 723 681 
685 684 717 702 712 732 734 
type 1 736 int
1 1 1 1 1 1 1 1 1 
1 1 1 1 1 1 1 1 1 
1 1 1 1 1 1 1 1 1 
1 1 1 1 1 1 1 1 1 
1 1 1 1 1 1 1 1 1 
1 1 1 1 1 1 1 1 1 
1 1 1 1 1 1 1 1 1 
1 1 1 1 1 1 1 1 1 
1 1 1 1 1 1 1 1 1 
1 1 1 1 1 1 1 1 1 
1 1 1 1 1 1 1 1 1 
1 1 1 1 1 1 1 1 1 
1 1 1 1 1 1 1 1 1 
1 1 1 1 1 1 1 1 1 
1 1 1 1 1 1 1 1 1 
1 1 1 1 1 1 1 1 1 
1 1 1 1 1 1 1 1 1 
1 1 1 1 1 1 1 1 1 
1 1 1 1 1 1 1 1 1 
1 1 1 1 1 1 1 1 1 
1 1 1 1 1 1 1 1 1 
1 1 1 1 1 1 1 1 1 
1 1 1 1 1 1 1 1 1 
1 1 1 1 1 1 1 1 1 
1 1 1 1 1 1 1 1 1 
1 1 1 1 1 1 1 1 1 
1 1 1 1 1 1 1 1 1 
1 1 1 1 1 1 1 1 1 
1 1 1 1 1 1 1 1 1 
1 1 1 1 1 1 1 1 1 
1 1 1 1 1 1 1 1 1 
1 1 1 1 1 1 1 1 1 
1 1 1 1 1 1 1 1 1 
1 1 1 1 1 1 1 1 1 
1 1 1 1 1 1 1 1 1 
1 1 1 1 1 1 1 1 1 
1 1 1 1 1 1 1 1 1 
1 1 1 1 1 1 1 1 1 
1 1 1 1 1 1 1 1 1 
1 1 1 1 1 1 1 1 1 
1 1 1 1 1 1 1 1 1 
1 1 1 1 1 1 1 1 1 
1 1 1 1 1 1 1 1 1 
1 1 1 1 1 1 1 1 1 
1 1 1 1 1 1 1 1 1 
1 1 1 1 1 1 1 1 1 
1 1 1 1 1 1 1 1 1 
1 1 1 1 1 1 1 1 1 
1 1 1 1 1 1 1 1 1 
1 1 1 1 1 1 1 1 1 
1 1 1 1 1 1 1 1 1 
1 1 1 1 1 1 1 1 1 
1 1 1 1 1 1 1 1 1 
1 1 1 1 1 1 1 1 1 
1 1 1 1 1 1 1 1 1 
1 1 1 1 1 1 1 1 1 
1 1 1 1 1 1 1 1 1 
1 1 1 1 1 1 1 1 1 
1 1 1 1 1 1 1 1 1 
1 1 1 1 1 1 1 1 1 
1 1 1 1 1 1 1 1 1 
1 1 1 1 1 1 1 1 1 
1 1 1 1 1 1 1 1 1 
1 1 1 1 1 1 1 1 1 
1 1 1 1 1 1 1 1 1 
1 1 1 1 1 1 1 1 1 
1 1 1 1 1 1 1 1 1 
1 1 1 1 1 1 1 1 1 
1 1 1 1 1 1 1 1 1 
1 1 1 1 1 1 1 1 1 
1 1 1 1 1 1 1 1 1 
1 1 1 1 1 1 1 1 1 
1 1 1 1 1 1 1 1 1 
1 1 1 1 1 1 1 1 1 
1 1 1 1 1 1 1 1 1 
1 1 1 1 1 1 1 1 1 
1 1 1 1 1 1 1 1 1 
1 1 1 1 1 1 1 1 1 
1 1 1 1 1 1 1 1 1 
1 1 1 1 1 1 1 1 1 
1 1 1 1 1 1 1 1 1 
1 1 1 1 1 1 1 
i 3 736 int
0 1 0 0 0 0 1 1 0 
0 1 0 0 0 0 0 0 0 
0 1 0 0 0 0 0 1 0 
0 0 0 -1 0 0 0 0 0 
0 0 0 0 0 0 0 0 0 
0 0 0 0 0 0 0 1 0 
0 0 0 0 0 0 0 0 0 
0 0 0 -1 0 0 1 1 0 
0 0 0 0 0 0 0 0 0 
0 0 0 0 0 0 0 0 0 
0 0 0 0 0 0 0 0 0 
0 0 0 0 0 0 0 0 0 
0 0 0 0 0 0 0 0 0 
-1 0 0 0 0 0 0 0 0 
0 0 0 0 0 0 0 0 0 
0 0 0 0 0 0 0 0 0 
0 0 0 0 0 0 0 0 0 
0 0 0 0 0 0 0 0 0 
0 0 0 0 0 0 0 0 0 
0 0 0 0 0 0 0 0 0 
0 -1 0 1 -1 0 0 0 0 
0 0 0 0 0 0 0 0 0 
0 0 0 0 0 0 0 0 0 
-1 0 0 0 0 0 0 0 0 
0 0 0 0 0 0 0 0 0 
0 0 0 0 0 0 0 0 0 
0 0 0 0 0 0 1 -1 0 
0 0 0 0 0 0 0 0 0 
0 -1 0 0 0 0 0 0 0 
0 0 0 0 0 0 0 0 0 
1 0 0 0 0 0 0 -1 0 
0 -1 0 0 -1 0 0 -1 0 
0 -1 0 0 -1 0 0 0 0 
0 0 0 0 0 0 1 0 0 
0 1 0 0 0 0 0 0 0 
0 0 0 0 0 0 0 0 0 
0 1 0 0 0 0 0 1 0 
1 0 0 0 1 0 0 0 0 
0 0 0 0 0 0 0 0 0 
0 0 0 -1 1 0 0 0 0 
0 1 0 0 0 0 0 0 0 
0 0 0 0 1 0 0 0 0 
0 0 0 0 0 0 0 0 0 
0 0 0 0 0 0 0 0 0 
-1 0 0 0 0 0 0 0 0 
0 0 0 0 1 0 0 0 0 
0 0 0 0 0 0 0 0 0 
0 0 0 0 0 0 0 0 0 
-1 0 0 -1 0 0 1 0 0 
1 0 0 0 0 0 0 0 0 
0 0 0 0 0 0 0 0 0 
0 0 0 0 0 0 0 0 0 
0 0 0 -1 0 0 0 0 0 
0 0 0 0 0 0 0 0 0 
0 0 0 0 0 0 0 0 0 
-1 0 0 0 0 0 0 0 0 
0 0 0 0 0 0 0 0 0 
0 0 0 0 0 0 0 0 0 
-1 0 0 0 0 0 0 0 0 
0 0 0 -1 0 0 1 0 0 
0 0 0 0 0 0 0 0 0 
0 0 0 0 0 0 0 0 0 
0 0 0 0 0 0 -1 0 0 
0 0 0 0 0 0 0 -1 0 
0 0 0 0 -1 0 0 0 0 
0 0 0 0 -1 0 0 0 0 
0 0 0 0 0 0 0 0 0 
0 0 0 1 -1 0 0 0 0 
0 0 0 0 0 0 0 0 0 
0 0 0 0 -1 0 0 0 0 
0 0 0 0 0 0 -1 0 0 
0 0 0 -1 0 0 1 0 0 
0 0 0 0 0 0 0 1 0 
0 0 0 0 0 0 0 0 0 
0 0 0 0 0 0 0 0 0 
0 0 0 0 0 0 0 0 0 
0 1 0 0 0 0 0 1 0 
0 0 0 0 0 0 0 0 0 
0 1 0 0 0 0 0 0 0 
0 0 0 0 0 0 0 0 0 
0 0 0 0 0 0 0 0 0 
0 0 0 0 0 0 0 0 0 
0 0 0 0 0 0 0 0 0 
0 0 0 0 0 0 0 0 0 
0 0 0 0 0 0 0 0 0 
-1 0 0 0 0 0 0 0 0 
0 0 0 0 0 0 0 0 0 
0 0 0 0 0 0 0 0 0 
0 0 0 0 0 0 -1 0 0 
-1 0 0 0 0 0 0 0 0 
1 0 0 0 0 0 1 0 0 
0 0 0 1 0 0 0 0 0 
0 0 0 0 0 0 0 0 0 
0 0 0 0 0 0 0 0 0 
0 0 0 0 0 0 1 0 0 
1 0 0 0 0 0 0 0 0 
0 0 0 0 0 0 0 0 0 
0 0 0 0 0 0 0 0 0 
0 0 0 0 0 0 0 0 0 
0 0 0 0 0 0 1 0 0 
0 0 0 0 0 0 0 0 0 
0 0 0 0 0 0 0 0 0 
0 0 0 0 0 0 0 0 0 
0 0 0 0 0 0 1 0 0 
0 0 0 0 0 0 0 0 0 
0 0 0 0 0 0 0 0 0 
0 0 0 0 0 0 0 0 0 
0 0 0 0 0 0 -1 0 0 
-1 0 0 0 0 0 1 0 0 
0 0 0 0 0 0 0 0 0 
0 -1 0 0 0 0 0 0 0 
0 0 0 0 0 0 0 0 0 
0 0 0 0 0 0 0 0 0 
0 0 0 0 0 0 0 0 0 
0 -1 0 0 0 0 0 0 0 
0 0 0 0 -1 0 0 0 0 
0 0 0 0 -1 0 0 0 0 
0 -1 0 0 0 0 0 0 0 
-1 -1 0 0 1 0 1 0 0 
0 0 0 0 0 0 0 0 0 
0 1 0 0 1 0 0 0 0 
0 1 0 0 0 0 -1 1 0 
0 0 0 0 0 0 0 0 0 
0 0 0 0 0 0 0 0 0 
0 0 0 0 0 0 0 0 0 
0 0 0 0 0 0 0 0 0 
0 0 0 0 0 0 0 0 0 
0 1 0 0 0 0 0 0 0 
0 0 0 0 0 0 0 0 0 
0 0 0 0 0 0 0 0 0 
0 0 0 0 0 0 0 0 0 
0 0 0 0 0 0 0 0 0 
0 0 0 0 0 0 0 0 0 
-1 0 0 0 0 0 0 0 0 
0 0 0 0 0 0 0 0 0 
0 0 0 0 0 0 0 0 0 
0 0 0 0 0 0 0 0 0 
0 0 0 0 0 0 -1 0 0 
0 0 0 0 0 0 0 0 0 
0 0 0 0 0 0 0 0 0 
0 0 0 0 0 0 0 0 0 
0 0 0 -1 0 0 0 0 0 
0 0 0 0 0 0 1 0 0 
0 0 0 0 0 0 0 0 0 
0 0 0 0 0 0 0 0 0 
0 0 0 0 0 0 -1 0 0 
0 0 0 0 0 0 0 0 0 
0 0 0 0 0 0 0 0 0 
0 0 0 0 0 0 0 0 0 
0 0 0 0 0 0 -1 0 0 
0 0 0 1 0 0 0 0 0 
0 -1 0 0 0 0 0 0 0 
0 0 0 0 0 0 0 -1 0 
0 0 0 0 0 0 0 0 0 
0 0 0 0 0 0 0 0 0 
1 0 0 1 -1 0 0 0 0 
0 -1 0 0 0 0 0 0 0 
0 0 0 0 0 0 0 -1 0 
0 -1 0 0 0 0 0 0 0 
0 0 0 0 0 0 0 1 0 
0 0 0 0 0 0 0 0 0 
0 0 0 0 0 0 0 0 0 
0 0 0 0 0 0 0 0 0 
0 0 0 0 0 0 0 0 0 
0 1 0 0 0 0 0 0 0 
0 1 0 0 0 0 0 0 0 
1 0 0 0 0 0 0 0 0 
0 0 0 0 0 0 0 0 0 
0 0 0 0 0 0 0 0 0 
-1 0 0 0 0 0 0 0 0 
1 0 0 0 0 0 0 0 0 
0 0 0 0 0 0 0 0 0 
0 0 0 0 0 0 -1 0 0 
0 0 0 0 0 0 0 0 0 
0 0 0 0 0 0 0 0 0 
0 0 0 0 0 0 0 0 0 
0 0 0 0 0 0 0 0 0 
0 0 0 0 0 0 0 0 0 
0 0 0 0 0 0 0 0 0 
0 0 0 -1 0 0 1 0 0 
0 0 0 0 0 0 0 0 0 
0 0 0 0 0 0 0 0 0 
0 0 0 0 0 0 0 0 0 
0 0 0 0 0 0 0 0 0 
0 0 0 0 0 0 0 0 0 
0 0 0 0 0 0 0 0 0 
0 0 0 0 0 0 0 0 0 
0 0 0 0 0 0 0 0 0 
0 0 0 0 0 0 0 0 0 
0 0 0 0 0 0 0 0 0 
0 0 0 0 0 0 0 0 0 
0 0 0 0 0 0 0 0 0 
-1 0 0 1 0 0 0 0 0 
0 0 0 1 0 0 0 -1 0 
0 -1 0 0 0 0 0 0 0 
0 0 0 0 -1 0 0 -1 0 
0 0 0 0 0 0 0 0 0 
0 1 0 0 0 0 -1 0 0 
0 0 0 0 0 0 0 0 0 
0 0 0 0 0 0 0 0 0 
0 0 0 0 0 0 0 0 0 
0 0 0 0 0 0 0 0 0 
0 0 0 0 0 0 0 0 0 
0 0 0 0 0 0 0 0 0 
0 0 0 0 0 0 0 0 0 
0 0 0 0 0 0 -1 0 0 
0 0 0 0 0 0 0 0 0 
0 0 0 0 0 0 0 0 0 
0 0 0 0 0 0 0 0 0 
0 0 0 0 0 0 0 0 0 
1 0 0 0 0 0 0 0 0 
0 0 0 0 0 0 0 0 0 
0 0 0 0 0 0 0 0 0 
0 0 0 0 0 0 0 0 0 
0 0 0 0 0 0 0 0 0 
0 0 0 0 0 0 0 0 0 
0 0 0 0 0 0 0 0 0 
0 -1 0 0 0 0 0 0 0 
1 0 0 0 0 0 0 0 0 
0 0 0 -1 0 0 0 0 0 
0 0 0 0 0 0 0 0 0 
0 1 0 0 0 0 0 0 0 
0 0 0 0 0 0 0 0 0 
0 0 0 0 0 0 0 0 0 
0 0 0 0 0 0 0 0 0 
0 0 0 0 0 0 0 0 0 
0 0 0 0 0 0 0 0 0 
0 0 0 0 0 0 0 0 0 
0 0 0 0 0 0 0 0 0 
0 0 0 0 0 0 0 0 0 
0 0 0 0 0 0 0 0 0 
0 0 0 0 0 0 0 0 0 
0 0 0 0 0 0 0 0 0 
0 0 0 0 0 0 0 0 0 
0 0 0 0 0 0 0 0 0 
0 0 0 0 0 0 0 0 0 
0 0 0 0 0 0 0 0 0 
0 0 0 0 0 0 0 0 0 
0 0 0 0 0 0 0 0 0 
0 0 0 0 0 0 0 0 0 
0 0 0 0 0 0 0 0 0 
0 0 0 0 0 0 0 0 0 
0 0 0 0 0 0 0 0 0 
0 0 0 0 0 0 0 0 0 
0 0 0 0 0 0 0 0 0 
0 0 0 
v 3 736 double
0.000331756 0.000308884 -0.000467887 -0.000802298 0.00159969 2.50493e-05 0.000122248 0.000451451 -0.000641587 
-0.000526913 -0.000866348 -3.45381e-05 -0.00064712 0.000188827 -0.000440685 -0.000482775 -8.16683e-05 -0.000237726 
-0.000286504 4.44085e-05 -0.000341397 0.000544872 -0.000386159 -0.000200609 0.000221669 -0.00020843 -0.000466601 
0.000231527 -0.000503287 -7.48429e-05 0.000257457 -0.000557101 -0.00024725 0.000327501 -0.000217433 -0.000333174 
0.000237824 0.000766448 -0.000297436 0.000322947 0.000917896 0.000132882 -2.98334e-05 -0.000603481 -8.32002e-05 
-0.000367161 -0.000562714 -0.000455147 -0.000146561 -0.000567288 5.23763e-05 0.000648915 -0.000301063 0.000291792 
0.000186364 -0.000504969 0.000112092 0.000383761 0.000112867 -0.000104164 0.00010798 -0.000446214 -0.000401239 
0.000627632 -0.000886452 -0.000291145 0.000229109 -0.000553389 7.05781e-05 -0.000178302 -0.00317103 0.000179892 
-9.76838e-05 -0.000565117 -0.000115838 -0.00155214 -0.000286521 5.75309e-05 0.00111145 -0.00173684 9.28501e-05 
0.00117213 -0.000163074 -1.60088e-09 -0.000610166 -0.000677034 4.92439e-05 -0.000351091 -0.000344766 0.000299322 
-0.000701971 -0.00077077 0.000592917 -0.000136409 -0.00120188 5.86926e-05 0.000169473 -0.00151245 0.000612346 
-0.000662169 -0.00122817 0.000740468 -8.87931e-05 -0.00113019 0.000251422 0.000136068 -0.00103534 6.76451e-05 
0.000198142 -0.000901617 0.000192965 -0.000657196 -0.000672348 0.000303564 -7.88069e-05 -3.24092e-05 0.000262203 
-0.000544883 -0.00151556 -0.0014423 0.000907791 -0.00029946 -0.000876486 0.000291254 -9.08233e-05 0.00079762 
-0.000562462 0.000148588 -5.26874e-08 -8.58798e-05 -0.00035084 -0.000137535 0.000431672 -0.000743599 -3.16026e-06 
-0.000291911 5.63503e-06 2.27364e-05 -0.000640767 -3.4268e-05 -0.000188711 -0.000655824 0.000308619 0.000271151 
-0.000698599 0.00110125 -0.00112023 -0.00132851 -0.00128519 7.72922e-05 -4.36116e-05 -0.000528754 -0.00149791 
9.96758e-05 -0.000597594 -0.000739259 0.000559141 -0.000253196 -0.000511691 -0.000503372 -4.72806e-05 4.25308e-05 
-0.000326616 -0.00022942 -0.000325373 -0.000270125 -0.00106154 -0.000484242 -0.000104793 -0.000659434 -0.000157952 
-0.00106095 -0.00064408 -4.07668e-05 0.000459199 0.000146843 0.000141512 7.00377e-05 -7.65817e-05 -0.000649551 
6.20667e-05 0.00020776 -0.000193153 0.000686371 2.33442e-05 -0.000290011 0.000343621 -0.000393652 -5.47899e-05 
0.000332096 -0.000877161 0.000155487 -4.55717e-05 -0.000258146 0.00025689 8.44417e-05 -0.0001538 0.000351229 
0.00106446 -0.00014086 5.39379e-05 -0.000113186 -0.000780788 3.28063e-06 5.8713e-05 0.000380515 5.78696e-05 
-0.000436505 0.000413284 4.48996e-05 0.000388494 0.00137983 -0.000237002 0.00122555 0.00013642 -0.000132041 
0.00104949 0.000408762 -0.000454069 0.000499444 2.14555e-05 -0.000109057 -0.000594763 0.0011505 -0.000535939 
0.000175943 9.93512e-05 0.000125975 0.000114384 -0.000219063 -8.79822e-05 -0.000367838 0.00132146 7.76031e-05 
-0.000186476 -0.000255453 0.000179708 -0.000611075 0.00100609 -0.000192524 0.000340775 -4.09652e-05 0.000188022 
0.00111049 0.000431406 -0.000777739 0.00081434 0.000490029 -0.0011722 0.00112202 -0.000226499 -4.81714e-08 
0.000124977 0.000374354 -4.15652e-05 3.75621e-05 8.81293e-05 -0.000356372 0.000385224 -0.00089969 -9.87566e-05 
0.000494408 0.000439033 0.000178596 -0.00125285 -0.000735159 -0.000354963 -0.000600554 0.00120599 -3.0626e-05 
0.000401447 0.00051146 -0.000142271 0.00033204 0.000162604 -0.000473435 0.000210408 3.32011e-05 1.13493e-05 
0.000476574 0.000428939 -0.000910649 0.00103729 9.0957e-05 1.52091e-05 -6.17059e-05 0.000170236 -0.000218198 
0.000155483 0.000238635 -0.000229932 0.000143774 0.00045988 -7.07389e-05 0.000255333 6.41462e-06 -3.7021e-05 
0.000119447 0.000405494 -0.000605916 -4.98083e-05 -0.000571631 -3.85212e-06 0.000655512 -4.49482e-05 -0.000431547 
0.00025404 0.000406367 -0.000719549 -0.000425255 -8.65139e-05 -0.000251128 6.184e-05 0.000456722 -0.000127272 
-0.000324944 -0.000285545 -0.000181579 -0.000993721 0.000393704 -0.000495219 0.00105683 -0.000484406 -0.00062334 
-0.0011447 -0.000114981 -0.00183657 0.000690006 -0.000903716 -0.000499995 0.000600331 -0.000886403 -0.000960714 
0.000971984 0.000191638 -0.000751937 -0.000554542 -0.000248115 -0.000380365 -0.000200433 0.00025809 -8.68146e-05 
-0.000932988 -0.00111188 4.8425e-05 -0.000677607 -0.00130847 0.000376585 -0.00128304 0.000238421 -0.000950887 
0.000238389 -0.000419898 0.0012109 0.000264323 -0.0012532 0.000925832 -0.000159525 -0.000592126 -4.95928e-05 
0.000479366 -0.00135406 0.000197521 0.000166363 -0.000761322 0.000618276 3.1653e-05 0.000467465 4.19158e-05 
-0.00202572 -7.60485e-06 0.000669286 -0.00167765 -0.00103395 0.000544215 -5.78795e-05 -0.00199899 0.000641701 
0.000847033 -0.000968839 -5.17499e-05 -0.00026517 -0.000848103 -0.000529745 9.86633e-05 0.00149606 0.000865765 
-0.000725468 0.000453779 0.000136119 0.000154011 -0.00101817 0.000412845 0.000382611 -0.00223566 0.000109275 
-5.94365e-05 -0.000642036 -0.000325731 0.000339166 -0.00166262 0.00136958 0.00118713 -0.00256293 0.00136811 
0.00246213 -0.000523969 0.000587859 -0.000628466 -6.39743e-05 0.000670286 0.000547575 -0.000755263 0.000567385 
-1.9662e-05 0.000125543 0.00138362 -0.00063731 -0.00156251 0.00022788 -0.000789822 -0.000460736 0.000620756 
0.000194988 -0.00209874 7.96967e-05 -0.000322789 -0.000663813 0.000206924 0.000822835 -0.00132957 1.78476e-05 
-0.00314423 -0.00332228 -0.00188651 -0.000716127 -0.00206709 0.000420012 0.00135293 -0.00116259 -0.00200525 
0.0007522 4.10586e-05 0.000938942 0.000794464 -7.52472e-05 0.000392419 0.000996023 -0.000922801 -0.00122425 
0.000103061 -0.000232074 -0.00111208 -0.000466675 -0.00175717 -0.000327803 -0.00112864 -0.000169826 0.000418533 
0.000587573 -0.000327075 -0.00104865 -0.000307614 -0.00106764 -0.000286619 0.00077707 -0.000767924 -0.00116249 
-0.00154594 0.00106142 0.000817241 -0.000673603 -0.000641771 -0.000309154 -0.00152676 -0.00261742 -0.00359451 
0.0013803 -0.00062829 -0.000735439 0.000886952 0.000374396 -0.000393134 -0.000234239 -0.000170586 0.000360341 
0.000497182 -0.000933551 -0.00038483 0.000682673 -0.00104613 -0.00113284 0.00158045 9.91243e-07 -0.000100474 
-0.00132231 -0.000867891 0.000837573 0.000747031 0.000250277 0.000367893 -0.00156554 -0.000995526 -0.0021624 
-0.00131356 0.000363727 -0.00260665 0.000365167 -0.000753381 -0.000452841 -0.000259659 -0.000775019 0.00139089 
0.000148585 0.000197937 0.000520588 0.00112112 -0.00051463 -0.000735973 -5.10954e-05 -0.00109458 -5.28736e-06 
0.000974338 -0.000177817 -0.000121244 0.00109943 -0.000753598 0.000208184 -9.17045e-05 -0.00192648 -0.000902821 
-0.000276317 -0.00067806 0.000424063 0.000185313 -6.27582e-05 -0.00115143 0.000361297 0.000758525 -0.00101328 
0.00134858 -0.000284891 -0.000330799 0.00153031 0.000726726 -0.00057039 -0.000445011 0.00061496 0.000770335 
-0.000670966 0.000590885 -0.000827811 -0.00054779 -0.000971711 -0.000870885 2.01384e-05 -0.00098085 -0.000341503 
0.000931474 -0.00071088 0.000391566 0.000856045 0.000186438 0.000271204 -0.000221721 0.00172997 -0.000112202 
0.000736606 0.00074109 -0.00053196 0.00170978 0.000822672 -0.000933294 0.00348454 0.00136054 0.000581801 
0.00132027 0.00038324 -0.00138394 0.00300467 0.000655339 -0.000963976 0.000181881 0.000803631 -0.00179152 
0.000153485 0.000589859 -7.00869e-05 0.000349512 -0.000130856 -0.000235884 0.000167994 -0.000419478 -0.000767302 
5.55096e-05 -0.000516271 -0.0006867 -0.00036347 -0.00101482 -4.99181e-05 -0.001006 -0.000536495 -0.00061322 
-0.000455306 0.00181555 -0.000202059 0.00118623 0.000549929 -0.000688717 0.000964958 0.000289471 -0.00107288 
0.00010344 0.000437561 -0.00104937 -2.38916e-05 0.000417615 -0.000205017 -0.000217103 -0.000301679 -0.000397979 
0.0007574 0.000443289 -0.00041447 -0.00172509 0.000169829 -0.000818504 0.000390654 -0.000839243 6.73756e-05 
0.000956214 -0.00080813 -0.000888941 0.000493048 0.000130511 -0.000171213 0.000163899 -0.000859344 -0.00185694 
0.000228798 -0.00034422 -0.000217567 0.00134674 -0.00160205 -0.000341343 0.000500441 0.000404022 -0.000669325 
-0.00106698 -0.00171845 0.000271752 -0.000181791 -0.00144558 0.00152219 -0.000742278 -7.81324e-05 -0.000748996 
-0.000294383 0.000600366 2.51467e-05 -0.000219538 -0.000244141 -0.00167581 0.000474856 -0.000447126 -0.000556698 
0.000234601 -0.000546017 -0.00147391 -0.00112693 -0.00108188 -0.000888715 -0.00372635 -0.00103913 -0.00385359 
-0.00071245 -0.000467595 -0.00136229 -0.00309385 -0.000990861 -0.000400501 0.000191438 -3.95475e-06 -0.00083227 
-0.00127486 0.00138212 0.000343429 -0.00271145 -0.00203749 0.00154059 -0.000345083 -0.00227815 0.000254771 
0.00239985 -0.0021169 -0.000899462 -0.00113417 0.000697387 0.000740858 -0.00106187 -0.00075441 -0.000519957 
-0.000325804 -0.00121409 -0.000878963 -0.00144324 -0.000684036 -0.00221896 -0.0012976 0.000429804 -0.00244496 
-0.001062 -0.000413613 -0.000695112 -0.00153714 -0.000226405 -0.00086908 -0.00121557 0.000187428 -0.00161843 
-0.000366779 0.000801869 0.000433641 0.000234688 -0.000903135 0.00148432 0.000514279 -0.00182919 -3.2106e-05 
0.00163543 -0.00176643 0.00149335 -0.000577305 -0.00153336 0.00291937 -0.00148145 0.000502108 0.00153768 
-0.000684426 -0.00087962 -0.00130402 -0.000582483 -0.00287163 0.000176999 -0.000690738 -0.000239958 -0.000867653 
0.000671268 -0.00141391 -0.00112021 -6.29346e-05 0.00155577 0.00175542 -0.00285105 -0.00127577 0.00101327 
-0.000572527 0.00105568 0.000765343 0.000635771 0.000900505 0.00169157 0.00158215 -0.00100533 0.000705787 
-0.000101023 0.000120171 0.000549325 0.000954881 0.000831343 0.000839454 0.00230415 -0.00388885 0.00221456 
0.000322025 0.000806797 0.00266476 0.00208979 -0.00150992 0.00191131 0.000555064 0.00136124 0.00397179 
-3.29784e-05 0.000752966 0.000244143 -0.00102057 -0.000718639 -0.00018611 -0.000316667 -0.00154502 -0.000438091 
0.00229713 0.00111261 -0.000650109 0.00260459 -0.00043413 -0.00243173 0.00147668 0.000661522 0.00102046 
0.00390279 0.000112071 -0.0039198 -0.000101185 -0.0022773 -5.47784e-05 0.0010416 0.00043098 3.55679e-05 
0.00288011 -0.00462568 -0.00249578 0.00635305 0.00160902 0.00558808 0.00581245 0.00174213 0.00298501 
0.00260209 -0.0031753 0.000259244 -0.000573434 -0.00155855 -0.0015168 0.000859873 0.00126274 -0.000501259 
-0.000299315 0.000503353 4.05771e-05 -0.000178582 -2.86257e-05 -0.00195663 -0.000333328 -0.000562432 -0.00141884 
-0.0005161 -0.00154036 -0.00137118 0.00058274 -0.00117084 -0.000481256 0.00170285 -0.00134942 0.000287921 
-0.000287579 -0.00336048 -0.00422742 0.00204697 0.000528446 -0.000777174 -0.00112528 -0.000656925 -0.00175297 
-0.000833122 -0.00144846 -0.000585294 0.00155415 -0.00183823 -0.00103761 -0.000442355 -0.00237223 -9.92126e-05 