# vtk DataFile Version 4.0
Generated by LIGGGHTS
ASCII
DATASET POLYDATA
POINTS 1065 float
-4336.91 -4886.65 498.897 -3769.64 -4064.15 499.151 -3313.59 -4954.81 499.159 
-2654.1 -4203.65 499.833 -1604.8 -4279.42 498.962 -364.944 -4453.37 496.85 
632.525 -4519.55 499.216 1613.55 -4726.18 499.159 2612.26 -4772.06 498.127 
3668.19 -4755.43 497.008 4666.42 -4819.56 498.436 -4775.3 -3981.38 498.643 
-4206.79 -3159.65 499.065 -3210.28 -3236.09 497.961 -2213.31 -3306.53 498.617 
-886.875 -3567.34 499.103 165.995 -3606.63 499.042 1164.16 -3673.07 498.993 
2147.36 -3882.39 499.519 3146.61 -3903.87 498.255 3700.44 -3071.98 498.895 
4226.75 -3921.64 497.638 4777.24 -3087.46 498.859 -4619.27 -2192.84 499.482 
-3624.85 -2286.82 499.191 -2627.94 -2357.37 499.309 -1408.18 -2714.29 497.949 
-405.795 -2673.57 499.699 387.278 -2054.7 497.365 1352.82 -2317.97 498.895 
2175.89 -2884.11 498.842 4386.38 -2099.28 498.329 -4686.87 -1117.7 498.849 
-3389.22 -1194.78 498.371 -2390.18 -1176.7 497.927 -1549.05 -1723.59 499.699 
-506.816 -1608.96 498.412 1105.89 -1349.9 498.389 2181.44 -1759.58 498.585 
3417.52 -1854.78 497.788 -4402.49 -159.123 498.336 -3385.36 -191.825 497.555 
-2394.15 -57.1348 499.699 -1529.34 -559.698 497.241 216.644 -887.892 498.191 
1939.48 -790.094 499.05 2919.81 -986.376 499.064 2597.26 -38.1654 498.57 
3598.15 -78.7401 498.253 4070.1 -983.905 499.104 4598.62 -134.086 498.497 
-4866.78 725.734 499.31 -3866.83 684.148 499.466 -2876.59 820.952 497.343 
-1509.15 438.452 497.429 -551.784 141.793 499.019 511.803 66.8094 499.383 
1624.86 191.988 498.033 3132.36 805.697 499.028 4134.62 764.711 499.162 
-4489.28 1650.39 498.272 -3490.59 1609.44 499.16 -2518.57 1656.88 907.789 
-1636.35 1429.02 498.345 -562.436 1140.93 499.078 5.16025 1963.25 498.682 
440.202 1063.47 499.373 1496.6 1183.29 497.95 2488.76 1591.26 499.087 
3477.03 1743.37 498.626 4511.98 1690.88 497.996 -4953.48 2535.63 498.384 
-3954.81 2494.47 499.086 -2956.35 2453.69 497.699 -1958.37 2374.1 497.464 
-977.093 2180.38 499.205 -291.211 2917.58 498.524 689.056 2691.34 498.408 
1694.84 2198.85 499.633 2953.84 2602.82 498.803 4034.92 2573.01 498.858 
-4417.84 3380.05 499.017 -3419.47 3338.44 498.851 -2363.17 3287.14 498.377 
-1285.01 3131.53 499.653 -606.758 3866.09 499.215 437.797 3658.53 499.096 
1555.72 3188.85 498.523 2580.37 3529.42 499.285 3585.78 3482.13 498.297 
4584.54 3423.34 497.823 -4879.93 4266.99 499.149 -3881.82 4223.61 499.116 
-2190.31 4910.63 499.642 -2849.92 4159.59 498.765 -1686.47 4047.18 499.377 
-1006.68 4781.9 497.478 56.5079 4620.1 498.555 1041.94 4454.92 498.076 
2041.69 4370.89 498.862 3123.51 4368.77 499.567 4122.39 4329.6 499.631 
-4296.79 -4305.49 1313.24 -3290.3 -4381.22 1316.48 -2340.13 -4419.03 1622.05 
-1531.17 -4894.47 1282.72 -852.102 -4147.5 1312.02 143.973 -4229.15 1324.06 
1310.05 -4232.95 1313.75 2349.99 -4350.11 1364.16 3683.83 -4162.2 1299.97 
4706.67 -4240.88 1312.33 -4741.61 -3405.59 1315.06 -3728.95 -3483.64 1315.93 
-2731.98 -3553.27 1315.57 -1741.61 -3688.4 1292.92 -349.105 -3281.84 1291.52 
726.895 -3543.32 1753.99 1669.94 -3282.04 1266.77 2659.16 -3411.74 1217.19 
3414.67 -3153.62 1816.3 4260.19 -3346.35 1313.93 -4167.51 -2586.44 1316.04 
-3156.98 -2649.8 1303.67 -2073.73 -2680.44 1265.37 -1233.78 -2949.84 1734.78 
-970.559 -2152.07 1195.87 -5.99896 -2346.16 1366.4 712.464 -2918.8 974.477 
1909.87 -2248.46 1326.25 1164.35 -2651.92 1854.3 2858.18 -2443.01 1078.72 
3840.15 -2441.32 1260.48 4837.46 -2492.44 1298.87 -4064.7 -1617.37 1099.98 
-4699.93 -1799 1848.96 -3421.7 -1147.1 1929.41 -2883.14 -1693.77 1202.03 
-1773.19 -1127 1280.17 -1691.25 -1939.87 1853.12 -906.254 -1316.17 1736.99 
885.908 -1845.86 1336.49 19.1756 -1348.5 1361.6 1701 -1268.14 1343.75 
2674.45 -1492.97 1325.01 3664.28 -1362.6 1329.74 4651.64 -1423.25 1184.5 
-4910.68 -529.549 1274.68 -3907.96 -638.612 1220.7 -2898.34 -694.439 1209.82 
-2241.54 -99.6007 1668.89 -1301.79 -64.4325 1333.75 -661.894 -736.689 960.958 
818.473 -985.932 1839.15 206.612 -366.477 1349.8 1141.21 -503.218 1026.27 
1194.03 -38.2004 1908.24 2046.55 -195.433 1317.81 3083.4 -400.489 1291.66 
4082.58 -394.761 1312.86 -4204.49 305.513 1360.71 -3089.61 295.115 1317.78 
-2153.89 769.073 1184.19 -1181.16 983.523 1267.27 -342.434 464.213 1421.47 
1028.35 619.473 1175.29 2267.24 760.644 1008.98 2756.51 399.726 1802.43 
3621.82 497.239 1313.67 4626.96 443.314 1313.08 -4006.76 1282.91 1291.47 
-3068.84 1244 1630.32 -1677.89 1952.32 1358.42 -11.3857 1401.82 1324.27 
889.022 1828.09 960.985 1757.84 1528.98 1397.48 3004.09 1357.42 1322.59 
4000.54 1421.82 1312.41 4998.48 1370.87 1309.56 -4469.64 2224.36 1315.56 
-3471.03 2183.11 1316.79 -2566.1 2208.24 1739.09 -1862.07 2959.64 1298.02 
-437.856 2309.72 1330.23 441.046 2174.4 1785.63 1184.35 2693.29 1365.4 
2481.36 2207.97 1285.48 3475.84 2330.85 1305.58 4530.95 2268.84 1311.83 
-4395.35 3955.1 1316.08 -4931.29 3111.17 1313.94 -3930.53 3070.52 1314.83 
-3381.43 3919.94 1310.46 -2903.91 3042.77 1301.8 -2280.74 3893.49 1288.58 
-715.92 3283.17 1325.15 259.13 3066.27 1318.58 734.131 3745.96 1875.56 
1459.75 3888.89 1205.54 2085.09 3123.25 1342.25 3075.2 3245.44 1322.54 
4070.2 3155.37 1309.45 -4856.27 4848.33 1311.55 -3858.02 4797.29 1316.49 
-2794.58 4750.99 1301.43 -1110.37 4200.01 1301.6 -438.792 4942.56 1304.4 
-31.0005 4029.92 1299.12 628.001 4883.28 1300.11 1807.38 4811.79 1363.78 
2581.2 4123.89 1302.96 3145.79 4966.68 1300.54 3612.99 4083.33 1384.88 
4606.19 4000.56 1313.84 4146.88 4923.31 1310.92 -4824.35 -4577.15 2128.54 
-4311.41 -4323.05 2951.25 -3826.66 -4628.78 2133.15 -3038.06 -4018.69 2212.83 
-2271.2 -4497.8 2638.56 -1464.26 -4296.26 2085.89 -872.713 -4283.09 2909.83 
-262.236 -4566.85 2171.65 731.765 -4503.88 2082.7 1760.23 -4563.99 2142.66 
2527.48 -4526.56 2844.75 3042.63 -4178.79 2064.08 3551.02 -4609.07 2892.49 
4164.71 -4483.86 2114.09 4628.85 -4793.69 2940.47 -4278.64 -3738.26 2136.05 
-3395.64 -3086.42 2170.73 -2299.91 -3217.62 2150.5 -1595.66 -3593.08 2781.49 
-670.16 -3654.67 2161.43 312.308 -3781.6 2632.13 1306.34 -3765.67 2536.11 
2174.71 -3652.54 2057.02 2926.8 -3383.27 2657.65 3889 -3631.82 2553.46 
4857.39 -3825.98 2705.27 4708.22 -3013.42 2142.46 -4338.03 -2752.8 2285.94 
-3611.86 -2122.47 2018.89 -3560.57 -2482.63 2950.18 -2612.16 -2273.19 2050.43 
-1634 -2614.4 2585.89 -709.711 -2909.37 2826.03 -627.763 -2191.15 2134.04 
834.445 -2914.33 2758.94 34.3491 -2946.64 2161.36 415.255 -2007.01 2206.8 
1788.12 -2537.94 2625.61 2527.35 -2721.4 1978.78 2945.19 -2398.68 2826.93 
3246.49 -2027.51 1948.99 3871.81 -2633.88 2536.68 4930.74 -2224.08 2713.67 
-4185.06 -1656.4 2692.44 -3051.39 -1658.04 2704.67 -2436.75 -1291.6 2006.6 
-1953.94 -1689.05 2785.69 -1045.65 -1269.69 2725.74 -120.828 -1172.78 2334.63 
749.778 -1156.81 2820.49 1376.34 -1732.64 2200.02 2368.72 -1722.86 2316.73 
3232.11 -1210.22 2523.97 4912.99 -1226.69 2671.61 4319.26 -1937.6 1976.97 
4009.08 -1714.36 2900.17 -4371.69 -868.251 2074.41 -4336.23 -28.0754 2693.08 
-3591.71 -169.547 2043.48 -3703.35 -789.906 2817.81 -2736.18 -460.595 2471.88 
-1535.49 -642.277 2120.08 -1007.18 -203.563 2844.81 -587.072 -375.759 1955.55 
327.339 -276.833 2343.03 1594.61 -785.867 2435.66 2494.73 -782.268 2002.6 
3410.86 -272.49 2225.95 4117.22 -971.348 2127.02 4829.41 -276.311 2204.95 
-4785.63 640.037 2101.52 -3800.73 802.494 2147.87 -2783.43 510.8 2244.62 
-1897.84 176.273 2565.93 -1056.09 490.462 2127.08 -239.516 541.891 2699.52 
456.147 652.42 1992.37 1358.34 359.065 2809.91 1831.08 727.438 1989.88 
2260.25 2.82274 2572.96 2192.11 946.375 2896.3 3095.12 526.062 2737.28 
4121.93 427.668 2174.82 -4463.75 1622.06 2113.55 -3507.31 1876.77 2267.74 
-2625.08 1464.7 2496.95 -1797.82 1153.54 2034.02 -1183.11 1199.71 2820.54 
-938.881 1658.72 1961.8 -26.2556 1470.3 2320.38 650.459 1053.22 2924.62 
1051.62 1448.48 2099.52 1595.49 1752.66 2881.99 2440.18 1536.27 2128.27 
3521.11 1227.08 2167.25 4513.66 1346.79 2182.99 -4140.08 2518.47 2700.13 
-4959.98 2532.41 2129.34 -3410.05 2930.11 2155.9 -2784.75 2418.21 2743.81 
-1160.18 2633.85 1939.96 -1840.76 2077.31 2413.32 -1600.52 2983.86 2765.9 
-600.281 2197.26 2730.65 -248.372 2970.4 2174.48 926.765 2870.39 2314.38 
642.392 2042.59 2794.02 1778.16 2281.75 2054.85 2646 2775.12 2091.06 
3119.85 2078.04 2625.11 3990.48 2195.85 2149.34 4127.2 2778.42 2947.48 
-4420.59 3373.25 2131.27 -4922.45 3998.19 2771.25 -3838.96 3912.86 2736.87 
-2981.13 3887.74 2225.41 -2372.96 3100.34 2144.64 -1524.73 3599.95 1983.13 
-586.533 3909.85 2119.59 193.421 3730.02 2714.99 1853.45 3124.78 2588.14 
1955.72 3972.53 2069.18 1184.5 3845.54 2764.26 2981.65 3907.55 2192.61 
2946.61 3207.01 2940.56 3583.02 3109.41 2178.33 3905.61 3916.16 2671.95 
4579.16 3418.94 2127.92 -4369.38 4531.59 2132.61 -2967.24 4884.92 2276.52 
-2060.19 4598.1 1962.52 -1534.53 4209.04 2772.81 -1035 4802.48 2094.24 
-468.692 4568.27 2881.4 186.824 4542.17 2128.89 1183.49 4605.53 2115.64 
1880.79 4713.11 2822.44 2523.1 4795.19 2061.92 2959.25 4576.92 2934.47 
3578.13 4709.54 2162.32 4598.86 4607.12 2142.16 -4924.36 -4390.23 3737.11 
-3034.19 -4467.63 3283.66 -2152.66 -4232.35 3694.77 -1580.92 -4907.07 3232.78 
-702.203 -4921.45 3706.98 46.7153 -4609.99 3122.03 696.029 -4645.78 3880.77 
1136.51 -4640.87 2984.89 1910.2 -4674.6 3615.97 4187.27 -4035.39 3417.38 
-4461.03 -3242.95 3146.82 -3967.84 -3991.72 3829.45 -3567.97 -3655.67 2976.79 
-3141.37 -3064.03 3659.57 -2569.81 -3624.08 3021.75 -1233.89 -3780.28 3694.19 
-262.142 -3702.46 3446.39 891.304 -3735.97 3445.4 2099.11 -3672.91 3136.11 
2660.27 -3091.81 3723.5 3058.41 -3976.97 3488.8 3589 -3124.88 3360.33 
4569.16 -3012.59 3208.74 -4397.97 -2269.56 3453.02 -2551.14 -2627.13 2982 
-1757.73 -2942.09 3520.84 -1111.19 -2108.59 3269.56 -806.729 -2885.06 3819.46 
103.332 -2773.27 3423.6 790.368 -2052.24 3262.42 1508.61 -2951.18 3494.25 
2206.64 -2236.36 3480.44 3776.26 -2216.21 3732.91 -3627.85 -1506.82 3507.41 
-2573.16 -1822.72 3573.07 -1674.31 -1405.64 3701.92 -166.622 -1903.12 3014.27 
[...]
POINT_DATA 1065
FIELD FieldData 7
id 1 1065 int
72 12 38 94 7 11 80 109 30 
100 48 107 102 124 89 79 97 81 
90 82 51 91 49 36 60 78 18 
16 28 26 31 14 27 98 15 45 
104 96 22 87 54 37 59 19 1 
2 4 108 43 29 84 33 92 21 
88 42 55 66 46 77 73 20 69 
110 131 13 40 53 23 35 105 52 
8 119 61 25 34 58 6 85 47 
63 57 32 75 65 93 39 83 67 
41 10 9 17 113 3 56 50 24 
166 44 5 164 139 185 103 194 95 
125 135 86 150 137 223 193 133 149 
202 161 99 274 147 168 128 163 132 
157 179 148 155 186 145 278 281 101 
156 181 141 134 212 187 225 165 136 
195 170 62 159 123 142 224 70 121 
172 152 115 197 130 140 160 171 126 
209 153 217 177 112 316 158 118 127 
207 169 154 111 191 143 114 151 129 
175 198 76 167 189 200 116 192 214 
219 196 210 221 146 182 144 74 216 
64 117 68 228 206 138 120 71 122 
183 162 201 178 180 208 215 106 248 
427 242 276 232 273 378 262 289 337 
293 258 386 266 406 239 322 229 307 
275 312 309 245 292 320 327 330 350 
299 412 259 240 301 254 329 190 227 
317 267 356 282 304 305 368 285 268 
314 310 233 354 264 296 375 315 256 
376 204 298 211 323 231 252 283 213 
257 370 324 374 270 297 243 265 234 
253 235 308 271 381 288 302 380 365 
263 230 261 269 218 357 236 255 367 
244 321 250 174 226 294 173 246 355 
279 272 331 290 260 333 372 251 205 
295 222 379 277 352 349 326 237 184 
280 311 332 238 306 247 377 241 335 
334 176 300 249 286 199 363 188 319 
318 203 360 291 220 457 396 397 366 
408 328 417 369 418 402 419 456 437 
422 340 477 423 500 338 494 450 475 
436 488 343 444 345 439 441 429 390 
503 474 428 413 447 336 409 476 443 
467 432 508 445 348 459 416 391 405 
385 325 347 424 341 388 415 344 481 
451 382 400 303 339 435 362 426 440 
364 389 504 287 358 313 392 438 433 
425 442 469 403 284 414 399 463 398 
411 353 401 387 478 346 410 361 393 
502 452 509 394 373 468 404 395 384 
420 454 351 421 448 434 430 342 505 
371 359 383 446 473 431 449 610 520 
560 528 499 589 548 485 555 546 562 
529 598 541 532 479 566 583 501 516 
507 558 530 482 613 658 547 524 491 
614 483 618 466 565 616 471 554 579 
556 571 577 487 620 493 537 511 495 
513 553 551 574 522 563 535 518 552 
533 407 526 640 573 496 557 461 521 
489 621 455 593 512 612 490 617 498 
531 464 543 462 492 525 536 484 564 
465 581 568 586 519 460 602 470 559 
545 534 453 538 514 599 550 609 458 
549 544 480 517 539 510 515 506 527 
486 542 608 497 605 540 523 472 569 
561 597 669 641 572 728 713 653 601 
631 664 720 699 578 642 700 736 643 
590 666 672 575 694 716 587 659 677 
710 650 741 673 714 585 757 707 709 
651 680 647 652 701 726 596 781 638 
630 668 679 667 663 692 646 731 718 
654 693 730 688 594 607 629 592 682 
576 633 724 622 687 698 674 722 603 
567 656 595 635 645 634 655 678 628 
619 580 611 661 695 648 591 588 644 
662 584 649 624 717 675 729 657 615 
665 704 600 637 676 684 625 582 725 
627 626 639 708 670 696 660 604 706 
775 570 711 632 782 636 671 623 734 
606 773 780 804 747 776 889 783 831 
764 813 862 840 762 744 833 828 836 
752 765 834 793 816 733 763 880 797 
761 841 805 792 740 789 860 690 823 
790 811 817 772 750 778 870 838 691 
771 795 846 760 786 835 742 779 715 
768 737 802 751 721 774 697 854 703 
801 766 723 683 739 784 807 770 681 
753 759 787 819 719 754 829 686 850 
822 844 738 746 748 812 689 788 712 
755 798 727 685 826 791 749 745 843 
756 809 732 769 803 814 702 743 837 
785 825 824 808 767 810 876 842 735 
777 806 758 705 818 861 899 927 863 
910 895 883 932 946 878 912 928 884 
956 872 923 888 945 877 994 868 953 
830 913 864 920 799 917 935 942 921 
852 885 869 902 898 949 796 926 919 
851 886 896 820 909 866 952 904 925 
849 858 874 944 839 894 907 845 918 
827 951 933 915 832 901 800 892 893 
873 943 881 897 950 857 930 848 887 
948 908 882 906 922 905 815 875 938 
937 821 867 853 916 900 941 879 856 
903 891 855 911 847 934 940 859 794 
947 955 871 890 924 939 936 865 970 
972 960 975 973 962 958 961 981 1004 
990 997 965 998 964 999 966 971 1011 
976 983 957 996 979 1009 1003 1002 986 
992 914 929 1010 959 989 978 1008 967 
977 954 1006 963 993 987 1001 931 982 
985 1000 988 974 1007 991 980 984 969 
1005 968 995 1014 1028 1049 1056 1047 1015 
1022 1019 1061 1041 1048 1026 1033 1037 1021 
1013 1020 1032 1044 1023 1042 1027 1058 1017 
1034 1025 1055 1012 1053 1040 1030 1035 1059 
1043 1063 1038 1052 1016 1057 1050 1060 1051 
1062 1024 1039 1046 1018 1031 1029 1036 1065 
1045 1054 1064 
type 1 1065 int
1 1 1 1 1 1 1 1 1 
1 1 1 1 1 1 1 1 1 
1 1 1 1 1 1 1 1 1 
1 1 1 1 1 1 1 1 1 
1 1 1 1 1 1 1 1 1 
1 1 1 1 1 1 1 1 1 
1 1 1 1 1 1 1 1 1 
1 1 1 1 1 1 1 1 1 
1 1 1 1 1 1 1 1 1 
1 1 1 1 1 1 1 1 1 
1 1 1 1 1 1 1 1 1 
1 1 1 1 1 1 1 1 1 
1 1 1 1 1 1 1 1 1 
1 1 1 1 1 1 1 1 1 
1 1 1 1 1 1 1 1 1 
1 1 1 1 1 1 1 1 1 
1 1 1 1 1 1 1 1 1 
1 1 1 1 1 1 1 1 1 
1 1 1 1 1 1 1 1 1 
1 1 1 1 1 1 1 1 1 
1 1 1 1 1 1 1 1 1 
1 1 1 1 1 1 1 1 1 
1 1 1 1 1 1 1 1 1 
1 1 1 1 1 1 1 1 1 
1 1 1 1 1 1 1 1 1 
1 1 1 1 1 1 1 1 1 
1 1 1 1 1 1 1 1 1 
1 1 1 1 1 1 1 1 1 
1 1 1 1 1 1 1 1 1 
1 1 1 1 1 1 1 1 1 
1 1 1 1 1 1 1 1 1 
1 1 1 1 1 1 1 1 1 
1 1 1 1 1 1 1 1 1 
1 1 1 1 1 1 1 1 1 
1 1 1 1 1 1 1 1 1 
1 1 1 1 1 1 1 1 1 
1 1 1 1 1 1 1 1 1 
1 1 1 1 1 1 1 1 1 
1 1 1 1 1 1 1 1 1 
1 1 1 1 1 1 1 1 1 
1 1 1 1 1 1 1 1 1 
1 1 1 1 1 1 1 1 1 
1 1 1 1 1 1 1 1 1 
1 1 1 1 1 1 1 1 1 
1 1 1 1 1 1 1 1 1 
1 1 1 1 1 1 1 1 1 
1 1 1 1 1 1 1 1 1 
1 1 1 1 1 1 1 1 1 
1 1 1 1 1 1 1 1 1 
1 1 1 1 1 1 1 1 1 
1 1 1 1 1 1 1 1 1 
1 1 1 1 1 1 1 1 1 
1 1 1 1 1 1 1 1 1 
1 1 1 1 1 1 1 1 1 
1 1 1 1 1 1 1 1 1 
1 1 1 1 1 1 1 1 1 
1 1 1 1 1 1 1 1 1 
1 1 1 1 1 1 1 1 1 
1 1 1 1 1 1 1 1 1 
1 1 1 1 1 1 1 1 1 
1 1 1 1 1 1 1 1 1 
1 1 1 1 1 1 1 1 1 
1 1 1 1 1 1 1 1 1 
1 1 1 1 1 1 1 1 1 
1 1 1 1 1 1 1 1 1 
1 1 1 1 1 1 1 1 1 
1 1 1 1 1 1 1 1 1 
1 1 1 1 1 1 1 1 1 
1 1 1 1 1 1 1 1 1 
1 1 1 1 1 1 1 1 1 
1 1 1 1 1 1 1 1 1 
1 1 1 1 1 1 1 1 1 
1 1 1 1 1 1 1 1 1 
1 1 1 1 1 1 1 1 1 
1 1 1 1 1 1 1 1 1 
1 1 1 1 1 1 1 1 1 
1 1 1 1 1 1 1 1 1 
1 1 1 1 1 1 1 1 1 
1 1 1 1 1 1 1 1 1 
1 1 1 1 1 1 1 1 1 
1 1 1 1 1 1 1 1 1 
1 1 1 1 1 1 1 1 1 
1 1 1 1 1 1 1 1 1 
1 1 1 1 1 1 1 1 1 
1 1 1 1 1 1 1 1 1 
1 1 1 1 1 1 1 1 1 
1 1 1 1 1 1 1 1 1 
1 1 1 1 1 1 1 1 1 
1 1 1 1 1 1 1 1 1 
1 1 1 1 1 1 1 1 1 
1 1 1 1 1 1 1 1 1 
1 1 1 1 1 1 1 1 1 
1 1 1 1 1 1 1 1 1 
1 1 1 1 1 1 1 1 1 
1 1 1 1 1 1 1 1 1 
1 1 1 1 1 1 1 1 1 
1 1 1 1 1 1 1 1 1 
1 1 1 1 1 1 1 1 1 
1 1 1 1 1 1 1 1 1 
1 1 1 1 1 1 1 1 1 
1 1 1 1 1 1 1 1 1 
1 1 1 1 1 1 1 1 1 
1 1 1 1 1 1 1 1 1 
1 1 1 1 1 1 1 1 1 
1 1 1 1 1 1 1 1 1 
1 1 1 1 1 1 1 1 1 
1 1 1 1 1 1 1 1 1 
1 1 1 1 1 1 1 1 1 
1 1 1 1 1 1 1 1 1 
1 1 1 1 1 1 1 1 1 
1 1 1 1 1 1 1 1 1 
1 1 1 1 1 1 1 1 1 
1 1 1 1 1 1 1 1 1 
1 1 1 1 1 1 1 1 1 
1 1 1 1 1 1 1 1 1 
1 1 1 1 1 1 1 1 1 
1 1 1 1 1 1 1 1 1 
1 1 1 1 1 1 1 1 1 
1 1 1 
i 3 1065 int
0 1 0 0 0 0 1 1 0 
0 1 0 0 0 0 0 0 0 
0 1 0 0 0 0 0 1 0 
0 0 0 -1 0 0 0 0 0 
0 0 0 0 0 0 0 0 0 
0 0 0 0 0 0 0 1 0 
0 0 0 0 0 0 0 0 0 
0 0 0 -1 0 0 1 1 0 
0 0 0 0 0 0 0 0 0 
0 0 0 0 0 0 0 0 0 
0 0 0 0 0 0 0 0 0 
0 0 0 0 0 0 0 0 0 
0 0 0 0 0 0 0 0 0 
-1 0 0 0 0 0 0 0 0 
0 0 0 0 0 0 0 0 0 
0 0 0 0 0 0 0 0 0 
0 0 0 0 0 0 0 0 0 
0 0 0 0 0 0 0 0 0 
0 0 0 0 0 0 0 0 0 
0 0 0 0 0 0 0 0 0 
0 -1 0 1 -1 0 0 0 0 
0 0 0 0 0 0 0 0 0 
0 0 0 0 0 0 0 0 0 
0 0 0 -1 0 0 0 0 0 
0 0 0 0 0 0 0 0 0 
0 0 0 0 0 0 0 0 0 
0 0 0 0 0 0 0 0 0 
1 -1 0 0 0 0 0 0 0 
0 0 0 0 -1 0 0 0 0 
0 0 0 0 0 0 0 0 0 
0 0 0 1 0 0 0 0 0 
0 -1 0 0 -1 0 0 -1 0 
0 -1 0 0 -1 0 0 -1 0 
0 0 0 0 0 0 0 0 0 
1 0 0 0 1 0 0 0 0 
0 0 0 0 0 0 0 0 0 
0 0 0 0 1 0 0 0 0 
0 1 0 1 0 0 0 1 0 
0 0 0 0 0 0 0 0 0 
0 0 0 0 0 0 -1 1 0 
0 0 0 0 1 0 0 0 0 
0 0 0 0 0 0 0 1 0 
0 0 0 0 0 0 0 0 0 
0 0 0 0 0 0 0 0 0 
0 0 0 -1 0 0 0 0 0 
0 0 0 0 0 0 0 1 0 
0 0 0 0 0 0 0 0 0 
0 0 0 0 0 0 0 0 0 
0 0 0 -1 0 0 -1 0 0 
1 0 0 1 0 0 0 0 0 
0 0 0 0 0 0 0 0 0 
0 0 0 0 0 0 0 0 0 
0 0 0 0 0 0 -1 0 0 
0 0 0 0 0 0 0 0 0 
0 0 0 0 0 0 0 0 0 
0 0 0 -1 0 0 0 0 0 
0 0 0 0 0 0 0 0 0 
0 0 0 0 0 0 0 0 0 
-1 0 0 0 0 0 0 0 0 
0 0 0 -1 0 0 1 0 0 
0 0 0 0 0 0 0 0 0 
0 0 0 0 0 0 0 0 0 
0 0 0 0 0 0 -1 0 0 
0 0 0 0 0 0 0 -1 0 
0 0 0 0 -1 0 0 0 0 
0 0 0 0 -1 0 0 0 0 
0 0 0 0 0 0 0 0 0 
0 0 0 1 -1 0 0 0 0 
0 0 0 0 0 0 0 0 0 
0 0 0 0 -1 0 0 0 0 
0 0 0 0 0 0 -1 0 0 
0 0 0 -1 0 0 1 0 0 
0 1 0 0 0 0 0 0 0 
0 1 0 0 0 0 0 0 0 
0 0 0 0 0 0 0 0 0 
0 0 0 0 0 0 0 0 0 
0 0 0 0 1 0 0 0 0 
0 1 0 0 0 0 0 0 0 
0 0 0 0 1 0 0 0 0 
0 0 0 0 0 0 0 0 0 
0 0 0 0 0 0 0 0 0 
0 0 0 0 0 0 0 0 0 
0 0 0 0 0 0 0 0 0 
0 0 0 0 0 0 0 0 0 
0 0 0 0 0 0 0 0 0 
0 0 0 -1 0 0 0 0 0 
0 0 0 0 0 0 0 0 0 
0 0 0 0 0 0 0 0 0 
0 0 0 0 0 0 0 0 0 
-1 0 0 -1 0 0 0 0 0 
0 0 0 1 0 0 0 0 0 
1 0 0 0 0 0 1 0 0 
0 0 0 0 0 0 0 0 0 
0 0 0 0 0 0 0 0 0 
0 0 0 0 0 0 0 0 0 
1 0 0 1 0 0 0 0 0 
0 0 0 0 0 0 0 0 0 
0 0 0 0 0 0 0 0 0 
0 0 0 0 0 0 0 0 0 
0 0 0 0 0 0 0 0 0 
1 0 0 0 0 0 0 0 0 
0 0 0 0 0 0 0 0 0 
0 0 0 0 0 0 0 0 0 
0 0 0 0 0 0 0 0 0 
1 0 0 0 0 0 0 0 0 
0 0 0 0 0 0 0 -1 0 
0 0 0 0 0 0 0 0 0 
0 0 0 0 0 0 0 0 0 
0 0 0 -1 0 0 -1 0 0 
0 0 0 1 0 0 0 0 0 
0 0 0 0 0 0 0 0 0 
0 0 0 0 0 0 0 0 0 
0 0 0 0 0 0 0 0 0 
0 0 0 0 0 0 0 0 0 
0 0 0 0 -1 0 0 0 0 
0 0 0 0 0 0 0 -1 0 
0 0 0 0 0 0 0 -1 0 
0 0 0 0 -1 0 0 0 0 
0 0 0 -1 -1 0 1 0 0 
0 0 0 0 0 0 0 0 0 
0 1 0 0 1 0 0 0 0 
0 1 0 0 0 0 -1 1 0 
0 0 0 0 0 0 0 0 0 
0 0 0 0 0 0 0 0 0 
0 0 0 0 0 0 0 0 0 
0 0 0 0 0 0 0 0 0 
0 0 0 0 0 0 0 0 0 
0 1 0 0 0 0 0 0 0 
0 0 0 0 0 0 0 0 0 
0 0 0 0 0 0 0 0 0 
0 0 0 0 0 0 0 0 0 
0 0 0 0 0 0 0 0 0 
0 0 0 0 0 0 0 0 0 
-1 0 0 0 0 0 0 0 0 
0 0 0 0 0 0 0 0 0 
0 0 0 0 0 0 0 0 0 
0 0 0 0 0 0 0 0 0 
0 0 0 0 0 0 -1 0 0 
0 0 0 0 0 0 0 0 0 
0 0 0 0 0 0 0 0 0 
0 0 0 0 0 0 0 0 0 
0 0 0 -1 0 0 0 0 0 
-1 0 0 0 0 0 0 0 0 
1 0 0 0 0 0 0 0 0 
0 0 0 0 0 0 0 0 0 
0 0 0 0 0 0 0 0 0 
0 0 0 0 0 0 0 0 0 
0 0 0 0 0 0 0 0 0 
0 0 0 0 0 0 0 0 0 
0 0 0 0 0 0 -1 0 0 
0 0 0 1 0 0 0 0 0 
0 -1 0 0 0 0 0 0 0 
0 0 0 0 0 0 0 -1 0 
0 0 0 0 0 0 0 0 0 
0 0 0 0 0 0 0 0 0 
1 0 0 1 -1 0 0 0 0 
0 -1 0 0 0 0 0 0 0 
0 0 0 0 0 0 0 -1 0 
0 -1 0 0 0 0 0 0 0 
0 0 0 0 0 0 0 1 0 
0 0 0 0 0 0 0 0 0 
0 0 0 0 0 0 0 1 0 
0 0 0 0 0 0 0 0 0 
0 0 0 0 0 0 0 0 0 
0 0 0 0 0 0 0 0 0 
0 1 0 0 0 0 0 0 0 
0 0 0 0 0 0 0 0 0 
1 0 0 0 0 0 0 0 0 
0 0 0 0 0 0 0 0 0 
0 0 0 0 0 0 0 0 0 
0 0 0 0 0 0 0 0 0 
-1 0 0 0 0 0 0 0 0 
0 0 0 0 0 0 0 0 0 
0 0 0 0 0 0 0 0 0 
0 0 0 0 0 0 -1 0 0 
0 0 0 0 0 0 0 0 0 
0 0 0 0 0 0 0 0 0 
0 0 0 0 0 0 0 0 0 
0 0 0 0 0 0 0 0 0 
0 0 0 0 0 0 0 0 0 
0 0 0 0 0 0 0 0 0 
0 0 0 0 0 0 -1 0 0 
1 0 0 0 0 0 0 0 0 
0 0 0 0 0 0 0 0 0 
0 0 0 0 0 0 0 0 0 
0 0 0 0 0 0 0 0 0 
0 0 0 0 0 0 0 0 0 
0 0 0 0 0 0 0 0 0 
0 0 0 0 0 0 0 0 0 
0 0 0 0 0 0 0 0 0 
0 0 0 0 0 0 0 0 0 
0 0 0 0 0 0 0 0 0 
0 0 0 0 0 0 0 0 0 
0 0 0 0 0 0 0 0 0 
0 0 0 0 0 0 1 0 0 
0 0 0 0 0 0 0 0 0 
1 0 0 0 -1 0 0 -1 0 
0 0 0 0 0 0 0 0 0 
0 -1 0 0 -1 0 1 0 0 
0 0 0 0 0 0 0 0 0 
0 0 0 0 0 0 0 0 0 
0 1 0 0 0 0 0 0 0 
0 0 0 0 0 0 -1 0 0 
0 0 0 0 0 0 0 0 0 
0 0 0 0 1 0 0 0 0 
0 0 0 0 0 0 0 0 0 
0 0 0 0 0 0 0 0 0 
0 0 0 -1 0 0 1 0 0 
-1 0 0 0 0 0 0 0 0 
0 0 0 0 0 0 0 0 0 
0 0 0 0 0 0 0 0 0 
0 0 0 0 0 0 0 0 0 
1 0 0 0 0 0 0 0 0 
0 0 0 0 0 0 0 0 0 
0 0 0 0 0 0 0 0 0 
0 0 0 0 0 0 -1 0 0 
0 0 0 1 0 0 1 0 0 
0 0 0 0 0 0 0 0 0 
0 0 0 0 0 0 0 0 0 
0 0 0 0 0 0 0 0 0 
0 0 0 0 0 0 1 0 0 
0 0 0 0 0 0 0 0 0 
0 0 0 0 0 0 0 0 0 
0 0 0 0 0 0 0 0 0 
0 0 0 0 0 0 0 0 0 
0 0 0 0 0 0 0 0 0 
0 0 0 0 0 0 0 0 0 
0 0 0 0 0 0 0 0 0 
0 0 0 0 0 0 0 0 0 
0 0 0 0 0 0 0 0 0 
0 0 0 0 0 0 0 0 0 
0 0 0 0 0 0 0 0 0 
0 0 0 -1 0 0 0 0 0 
0 0 0 0 0 0 0 0 0 
0 0 0 0 0 0 0 0 0 
0 0 0 0 0 0 0 -1 0 
0 0 0 1 0 0 0 0 0 
0 0 0 0 0 0 0 -1 0 
0 -1 0 0 0 0 0 0 0 
0 0 0 0 -1 0 0 0 0 
-1 0 0 0 0 0 1 0 0 
0 0 0 0 0 0 0 0 0 
0 0 0 0 0 0 0 1 0 
0 0 0 0 0 0 0 0 0 
0 0 0 0 0 0 1 0 0 
0 0 0 0 0 0 0 0 0 
0 0 0 0 0 0 0 0 0 
0 0 0 0 0 0 0 0 0 
0 0 0 0 0 0 0 0 0 
0 0 0 0 0 0 0 0 0 
0 0 0 0 0 0 0 0 0 
0 0 0 0 0 0 0 0 0 
-1 0 0 0 0 0 0 0 0 
0 0 0 0 0 0 0 0 0 
0 0 0 0 0 0 0 0 0 
0 0 0 0 0 0 0 0 0 
0 0 0 0 0 0 0 0 0 
0 0 0 0 0 0 0 0 0 
0 0 0 0 0 0 0 0 0 
0 0 0 0 0 0 0 0 0 
0 0 0 0 0 0 0 0 0 
0 0 0 0 0 0 0 0 0 
0 0 0 0 0 0 0 0 0 
0 0 0 0 0 0 0 0 0 
1 0 0 0 0 0 0 0 0 
0 0 0 0 0 0 0 0 0 
0 0 0 0 0 0 0 0 0 
0 0 0 0 0 0 0 0 0 
1 0 0 0 0 0 0 0 0 
0 0 0 0 0 0 0 0 0 
0 0 0 0 0 0 0 0 0 
0 0 0 0 0 0 0 0 0 
0 0 0 0 0 0 0 0 0 
0 0 0 0 0 0 0 0 0 
0 0 0 0 0 0 0 0 0 
0 0 0 -1 0 0 0 0 0 
1 0 0 0 0 0 0 -1 0 
0 0 0 0 0 0 0 0 0 
0 0 0 0 -1 0 0 0 0 
0 0 0 0 0 0 0 0 0 
-1 0 0 0 0 0 1 0 0 
0 0 0 0 0 0 0 0 0 
0 1 0 0 0 0 0 0 0 
0 0 0 0 0 0 -1 1 0 
1 0 0 0 0 0 0 0 0 
0 1 0 0 0 0 0 0 0 
0 0 0 0 0 0 0 0 0 
-1 0 0 0 0 0 0 0 0 
0 0 0 0 0 0 0 0 0 
0 0 0 0 0 0 0 0 0 
0 0 0 0 0 0 0 0 0 
0 0 0 1 0 0 0 0 0 
0 0 0 0 0 0 0 0 0 
0 0 0 0 0 0 0 0 0 
0 0 0 0 0 0 0 0 0 
0 0 0 0 0 0 0 0 0 
0 0 0 0 0 0 0 0 0 
0 0 0 0 0 0 0 0 0 
-1 0 0 -1 0 0 0 0 0 
0 0 0 0 0 0 0 0 0 
0 0 0 0 0 0 0 0 0 
0 0 0 0 0 0 0 0 0 
0 0 0 1 0 0 0 0 0 
0 0 0 0 0 0 0 0 0 
0 0 0 0 0 0 0 0 0 
0 0 0 0 0 0 0 0 0 
0 0 0 0 0 0 0 0 0 
0 0 0 0 0 0 0 0 0 
0 0 0 0 0 0 0 0 0 
0 0 0 0 0 0 0 0 0 
0 0 0 0 0 0 0 0 0 
0 0 0 0 0 0 0 0 0 
0 -1 0 0 0 0 0 0 0 
0 0 0 0 0 0 0 0 0 
0 0 0 0 0 0 0 0 0 
0 0 0 0 -1 0 0 0 0 
0 -1 0 0 -1 0 0 0 0 
0 0 0 0 0 0 0 1 0 
0 0 0 0 1 0 0 0 0 
1 0 0 0 0 0 0 0 0 
0 0 0 0 0 0 0 0 0 
0 0 0 0 0 0 0 0 0 
0 0 0 0 0 0 0 0 0 
0 0 0 0 0 0 0 0 0 
0 0 0 0 0 0 0 0 0 
0 0 0 -1 0 0 0 0 0 
0 0 0 0 0 0 0 0 0 
0 0 0 0 0 0 0 0 0 
0 0 0 0 0 0 1 0 0 
0 0 0 0 0 0 0 0 0 
0 0 0 1 0 0 0 0 0 
0 0 0 0 0 0 0 0 0 
0 0 0 0 -1 0 0 0 0 
0 0 0 0 0 0 0 0 0 
0 0 0 0 0 0 0 0 0 
0 0 0 0 0 0 0 0 0 
0 0 0 0 0 0 0 0 0 
0 0 0 0 0 0 0 0 0 
0 0 0 0 0 0 0 0 0 
0 0 0 0 0 0 0 0 0 
0 0 0 0 0 0 0 0 0 
0 0 0 0 0 0 0 0 0 
0 0 0 0 0 0 0 0 0 
0 0 0 0 0 0 0 0 0 
0 0 0 0 0 0 0 0 0 
0 0 0 0 0 0 0 0 0 
0 0 0 0 0 0 0 0 0 
0 0 0 0 0 0 0 0 0 
0 0 0 0 0 0 0 0 0 
0 0 0 0 0 0 0 0 0 
0 0 0 0 0 0 0 0 0 
0 0 0 0 0 0 0 0 0 
0 0 0 0 0 0 0 0 0 
0 0 0 0 0 0 0 0 0 
0 0 0 0 0 0 0 0 0 

v 3 1065 double
9.30576e-05 3.95429e-05 -1.98953e-05 0.000105444 0.000118294 8.69969e-06 0.000176557 4.59263e-05 -6.98455e-06 
0.000187195 3.83971e-05 -5.02352e-06 0.00016803 5.55633e-05 -1.36015e-06 0.000221904 3.33305e-05 -7.79313e-06 
0.000233441 -0.000249767 -9.61166e-05 5.82982e-05 -0.000130422 -1.68611e-06 -9.77921e-05 -0.000175701 -6.6808e-05 
-8.83545e-05 -2.25205e-05 4.78323e-05 -3.48393e-06 -2.96088e-05 -1.61496e-05 5.36574e-05 9.90851e-05 4.34351e-05 
8.84934e-05 0.000163453 -1.27266e-05 0.000144784 8.08618e-05 -2.45469e-05 0.000135577 2.02696e-05 7.00981e-06 
0.000242336 0.000129618 -2.77572e-05 5.31507e-05 0.000122917 -1.69545e-06 4.57185e-05 -0.000125462 8.31002e-05 
-0.00015368 -1.86994e-05 -3.44422e-06 -5.99606e-05 1.2348e-05 3.89686e-05 -8.67632e-05 -9.97647e-06 2.10012e-05 
2.02552e-05 -1.18425e-05 2.58021e-05 3.84591e-05 3.48483e-05 -1.1758e-05 3.51903e-05 0.000149034 1.52702e-05 
0.000103253 0.000200151 -4.22193e-05 -6.73652e-05 -6.02921e-05 3.79431e-05 0.000288591 9.75313e-05 2.63681e-05 
-0.000191723 -0.000382245 2.10317e-15 -6.22503e-06 0.000244973 3.40512e-05 8.77573e-05 -6.06767e-05 -5.02492e-06 
2.90457e-05 -7.84347e-05 -6.69404e-06 -2.37908e-05 -2.74049e-05 -7.3645e-05 0.000175897 0.000160022 -0.00016775 
0.000185623 0.000146875 9.55796e-05 0.000214342 2.05376e-05 -1.98943e-05 0.000367595 -2.29668e-06 -3.35835e-15 
0.000177686 0.000335346 3.49537e-05 -3.00223e-05 -1.75996e-05 9.71736e-05 -6.63533e-05 4.47501e-05 7.30806e-06 
9.98606e-05 -0.000299672 1.52071e-05 0.000138853 0.000187543 8.65381e-06 0.000183206 0.000134456 -1.10114e-05 
-1.82049e-05 -3.90665e-05 2.71096e-15 8.87985e-05 0.000168598 6.69054e-05 9.62827e-06 7.89684e-05 1.84646e-06 
-8.14331e-05 1.64582e-06 4.18978e-05 -0.000135863 1.39191e-05 -1.9637e-05 -4.84251e-05 0.00010349 8.3559e-05 
5.48033e-06 -0.000195555 -6.93678e-05 0.000213339 -0.000380158 -1.58716e-05 4.72119e-05 -8.05128e-06 -3.67536e-06 
0.000115337 -4.54785e-05 3.01994e-05 6.59142e-05 0.000174989 -3.06634e-05 4.24703e-05 0.000169076 3.70985e-05 
-2.29321e-05 0.000210626 7.56864e-05 -2.95069e-05 0.000320885 3.97142e-05 -1.28968e-08 9.44025e-06 2.78401e-05 
-0.000264878 -2.48078e-05 1.72154e-05 0.000178984 -0.000103731 -3.24492e-06 0.000125775 -0.000227363 0.000189696 
5.34947e-05 -1.36372e-06 4.99611e-05 7.38534e-05 8.06812e-05 1.87724e-05 3.35923e-06 0.000210341 6.87042e-05 
-5.78157e-07 0.000169347 1.23416e-05 -1.64017e-05 0.000142588 2.55138e-05 -1.09513e-05 2.71064e-05 -1.37025e-06 
-1.7699e-06 8.70229e-06 0.000118287 -0.000419581 -0.00025266 3.04976e-05 4.79599e-05 -0.000411993 -2.64777e-05 
0.000218082 -0.000143525 -2.61145e-05 3.9861e-05 -0.000118357 9.65124e-05 6.62321e-05 -7.62801e-05 0.000143581 
4.85273e-05 2.95867e-05 0.00011224 2.32549e-05 8.69575e-05 8.89941e-05 9.41972e-05 0.000102068 5.03447e-05 
-0.000185254 0.000145186 -2.59656e-05 -0.000179855 -6.11063e-05 4.4694e-05 -0.000119891 -6.178e-05 -0.000125467 
-0.000187295 -0.000271388 -2.28213e-05 -5.89958e-05 -0.000342995 -3.69958e-05 0.00016808 -0.000203192 1.49502e-05 
3.924e-05 1.8171e-05 0.000104397 3.83643e-05 3.11084e-05 0.00012862 8.57081e-05 5.04037e-05 0.000140542 
-3.82927e-05 4.01954e-05 -3.45406e-05 6.88301e-06 -4.45606e-06 -2.32615e-05 -8.68447e-06 -0.000135206 -4.50204e-05 
-0.00011502 -0.000210473 1.20931e-05 -8.05575e-05 -0.00012917 -2.3565e-05 6.21888e-05 -0.00026503 -1.78655e-05 
6.22462e-05 -0.000123384 8.57105e-05 -7.38746e-06 -1.31159e-05 8.07274e-06 6.56055e-05 4.71675e-05 2.08366e-05 
0.00019307 -1.12979e-05 6.78614e-05 1.28923e-05 2.06661e-05 7.17287e-05 6.94892e-05 3.23684e-05 3.65108e-05 
0.000199014 1.14452e-05 5.86339e-05 0.000134318 -9.01149e-05 3.86685e-06 7.07885e-05 -0.000213591 -0.000110535 
0.000268561 2.54965e-05 -0.00012457 0.000166679 -9.89682e-05 -0.000133118 -1.15888e-06 0.000200439 -9.06043e-05 
0.000228082 0.000141032 -4.49222e-05 0.000329219 7.68664e-05 2.15176e-05 0.000421943 0.00010894 3.63218e-05 
0.000433094 0.000179968 9.23939e-06 0.00038304 0.000109655 -3.33342e-05 0.000397157 -4.08022e-05 -6.79574e-05 
0.000204054 -0.000241302 -6.70379e-06 -1.04286e-05 -0.000183522 0.000129492 6.11957e-05 3.48231e-05 3.789e-05 
0.000105606 -0.000108974 1.33945e-05 2.62833e-05 0.000119896 7.20565e-05 0.000201035 0.000191289 3.79466e-05 
0.000198509 0.00013146 5.72144e-05 0.0002656 0.000234767 -8.36151e-05 0.00028008 0.000213836 -6.92702e-05 
0.000285638 6.13758e-05 0.0001226 -0.000255927 0.00012452 0.00015139 -0.000104325 -7.68914e-05 0.000156211 
9.9817e-05 -0.000272254 0.000121583 4.25753e-05 -1.56007e-05 -9.74402e-06 0.000193143 0.000231962 -3.6901e-05 
0.000272061 0.000206331 -7.68095e-05 -9.19137e-05 -0.000264456 -1.19855e-06 0.000192572 0.000226235 -0.000195717 
0.000280211 0.000302986 0.000159423 0.000264096 0.000393252 0.000161984 2.88476e-05 0.000119243 2.46092e-05 
-0.000194098 4.28102e-05 -6.57676e-05 -0.000168927 0.000240132 0.000246579 -3.13612e-05 -0.000131746 5.96691e-05 
0.000105591 -0.000156991 5.03225e-05 0.000111145 1.4967e-05 -2.14194e-05 6.11519e-05 0.000282811 3.2427e-05 
-4.7911e-06 0.000261133 -8.51698e-05 5.81403e-05 0.000273583 -0.00011431 0.0004553 0.000210033 0.000110798 
0.000215499 0.000201871 2.79921e-05 4.17658e-05 0.000137999 -0.000103902 9.19103e-05 0.000498021 9.30727e-05 
-0.000179581 0.000174625 0.000190109 1.29046e-05 0.000348166 7.22613e-05 -7.63707e-07 9.29952e-05 0.000205903 
7.64918e-05 -6.37572e-05 -9.71371e-05 0.000160758 -0.000352531 -8.277e-05 0.000314405 -7.86026e-05 -0.000377244 
0.000419649 -0.000141326 -8.54992e-05 0.0001235 0.000324173 5.37962e-05 0.000231142 0.000312676 -4.65053e-05 
5.66289e-05 0.000442679 4.0883e-05 1.23006e-05 0.000484235 4.69176e-05 0.000109143 0.000389365 4.13626e-05 
-0.000108804 0.000248339 0.000120197 8.72478e-06 0.000353484 -0.000113635 1.76596e-05 1.28655e-05 8.69543e-05 
4.54086e-05 4.43609e-05 0.000256577 1.19566e-06 1.96361e-05 8.65747e-05 0.000123551 -0.000127549 -7.04711e-05 
1.07398e-05 -0.000154756 -0.000126467 0.000506102 0.00033765 0.000171132 5.26335e-05 0.000264448 0.000105306 
-6.83719e-05 0.000446625 0.00010346 -0.000112855 0.000515762 0.00016292 -7.68508e-05 0.000389591 4.03678e-05 
-0.000462511 -0.000223702 0.000130143 -0.000301664 -0.000155862 5.3894e-05 -0.000103842 7.01554e-06 0.000307326 
-0.000192902 -0.000136891 0.000143197 -0.000114989 -4.74127e-05 -1.68446e-05 0.000138478 0.00038203 0.000167319 
7.3117e-05 0.000329562 0.000196694 -0.000344128 0.00037428 0.000484431 -0.000205934 0.00038877 0.000259281 