/*--------------------------------*- C++ -*----------------------------------*\
| =========                 |                                                 |
| \\      /  F ield         | OpenFOAM: The Open Source CFD Toolbox           |
|  \\    /   O peration     | Version:  5.x                                   |
|   \\  /    A nd           | Web:      www.OpenFOAM.org                      |
|    \\/     M anipulation  |                                                 |
\*---------------------------------------------------------------------------*/
FoamFile
{
    version     2.0;
    format      ascii;
    class       volVectorField;
    location    "100000";
    object      stored_U;
}
// * * * * * * * * * * * * * * * * * * * * * * * * * * * * * * * * * * * * * //

dimensions      [0 1 -1 0 0 0 0];

internalField   nonuniform List<vector> 
2250
(
(-1.33554e-10 8.7005e-11 -0.001)
(-1.58876e-11 2.21391e-10 -0.000999999)
(-1.19472e-10 2.23843e-10 -0.001)
(-7.3307e-11 2.44896e-10 -0.001)
(-3.14687e-11 2.5623e-10 -0.001)
(-5.17869e-11 2.65366e-10 -0.000999999)
(-7.4072e-11 1.79446e-10 -0.000999999)
(-8.31892e-11 2.21978e-10 -0.000999999)
(-5.40195e-11 2.37902e-10 -0.000999999)
(-2.12278e-11 2.52958e-10 -0.000999999)
(-6.42682e-11 1.6573e-10 -0.000999999)
(-5.92484e-11 1.66976e-10 -0.000999999)
(-6.09663e-11 1.90056e-10 -0.000999999)
(-4.17144e-11 2.01622e-10 -0.000999999)
(-1.58439e-11 2.08283e-10 -0.000999999)
(-6.22279e-11 1.21993e-10 -0.000999998)
(-4.97222e-11 1.23409e-10 -0.000999999)
(-4.85023e-11 1.32111e-10 -0.000999999)
(-3.52942e-11 1.37988e-10 -0.000999999)
(-1.40905e-11 1.38999e-10 -0.000999999)
(-6.30505e-11 4.65426e-11 -0.000999998)
(-4.89818e-11 4.62153e-11 -0.000999998)
(-4.63334e-11 4.71816e-11 -0.000999998)
(-3.45099e-11 4.84539e-11 -0.000999999)
(-1.45113e-11 4.79657e-11 -0.000999999)
(-3.33461e-10 2.87444e-10 -0.000999999)
(-5.41899e-11 5.99167e-10 -0.001)
(-2.81042e-10 6.14185e-10 -0.001)
(-1.69424e-10 6.61416e-10 -0.001)
(-6.89422e-11 6.87919e-10 -0.001)
(-1.60973e-10 7.11666e-10 -0.000999999)
(-1.71928e-10 5.24224e-10 -0.000999999)
(-2.00101e-10 6.15481e-10 -0.000999999)
(-1.19753e-10 6.52592e-10 -0.000999999)
(-4.21989e-11 6.88409e-10 -0.000999999)
(-1.73714e-10 4.7991e-10 -0.000999999)
(-1.50388e-10 4.65607e-10 -0.000999999)
(-1.52591e-10 5.13249e-10 -0.000999999)
(-9.50105e-11 5.36362e-10 -0.000999999)
(-3.17566e-11 5.45755e-10 -0.000999999)
(-1.69312e-10 3.41323e-10 -0.000999998)
(-1.38547e-10 3.32384e-10 -0.000999998)
(-1.29251e-10 3.4782e-10 -0.000999998)
(-8.6055e-11 3.58247e-10 -0.000999999)
(-3.16642e-11 3.55123e-10 -0.000999999)
(-1.73902e-10 1.27459e-10 -0.000999998)
(-1.43592e-10 1.21133e-10 -0.000999998)
(-1.26569e-10 1.22173e-10 -0.000999998)
(-8.67886e-11 1.23731e-10 -0.000999998)
(-3.40399e-11 1.21069e-10 -0.000999998)
(-4.41025e-10 8.18338e-10 -0.000999999)
(-2.17708e-10 1.09045e-09 -0.001)
(-3.7131e-10 1.11788e-09 -0.001)
(-2.17247e-10 1.15931e-09 -0.001)
(-7.51732e-11 1.18333e-09 -0.001)
(-3.22723e-10 1.15504e-09 -0.000999999)
(-2.82848e-10 1.01005e-09 -0.000999999)
(-2.92951e-10 1.0913e-09 -0.000999999)
(-1.63965e-10 1.13148e-09 -0.000999999)
(-4.86212e-11 1.16053e-09 -0.000999999)
(-3.24263e-10 8.81663e-10 -0.000999998)
(-2.8142e-10 8.45032e-10 -0.000999998)
(-2.49715e-10 8.8536e-10 -0.000999999)
(-1.45628e-10 9.05328e-10 -0.000999999)
(-4.39027e-11 9.03119e-10 -0.000999999)
(-3.22819e-10 5.90098e-10 -0.000999998)
(-2.79079e-10 5.72825e-10 -0.000999998)
(-2.32491e-10 5.83337e-10 -0.000999998)
(-1.44279e-10 5.89756e-10 -0.000999998)
(-4.89684e-11 5.79163e-10 -0.000999998)
(-3.2872e-10 2.10699e-10 -0.000999998)
(-2.87569e-10 2.01905e-10 -0.000999998)
(-2.32457e-10 2.01798e-10 -0.000999998)
(-1.4841e-10 2.01857e-10 -0.000999998)
(-5.32158e-11 1.97152e-10 -0.000999998)
(-4.90809e-10 1.61028e-09 -0.000999999)
(-4.60007e-10 1.70924e-09 -0.000999999)
(-4.18745e-10 1.72849e-09 -0.001)
(-2.33145e-10 1.74061e-09 -0.001)
(-7.15672e-11 1.7484e-09 -0.001)
(-5.01625e-10 1.62166e-09 -0.000999999)
(-4.39723e-10 1.58593e-09 -0.000999999)
(-3.71977e-10 1.63141e-09 -0.000999999)
(-2.08809e-10 1.64847e-09 -0.000999999)
(-6.12551e-11 1.65217e-09 -0.000999999)
(-5.08356e-10 1.31442e-09 -0.000999998)
(-4.50209e-10 1.28577e-09 -0.000999998)
(-3.5596e-10 1.30129e-09 -0.000999998)
(-2.0908e-10 1.30415e-09 -0.000999998)
(-6.47333e-11 1.28941e-09 -0.000999999)
(-5.11986e-10 8.49218e-10 -0.000999998)
(-4.52757e-10 8.40152e-10 -0.000999998)
(-3.53352e-10 8.41498e-10 -0.000999998)
(-2.17994e-10 8.38439e-10 -0.000999998)
(-7.34156e-11 8.22398e-10 -0.000999998)
(-5.13417e-10 2.94265e-10 -0.000999997)
(-4.57079e-10 2.90599e-10 -0.000999998)
(-3.57066e-10 2.8926e-10 -0.000999998)
(-2.26191e-10 2.86516e-10 -0.000999998)
(-7.90475e-11 2.80276e-10 -0.000999998)
(-6.00204e-10 2.52216e-09 -0.000999999)
(-6.97338e-10 2.48756e-09 -0.000999999)
(-4.84376e-10 2.47496e-09 -0.000999999)
(-2.74648e-10 2.45487e-09 -0.001)
(-8.67296e-11 2.44577e-09 -0.001)
(-7.00301e-10 2.20987e-09 -0.000999998)
(-6.35202e-10 2.25658e-09 -0.000999999)
(-4.80147e-10 2.26487e-09 -0.000999999)
(-2.89098e-10 2.25093e-09 -0.000999999)
(-9.48259e-11 2.22996e-09 -0.000999999)
(-7.20354e-10 1.80781e-09 -0.000999998)
(-6.42354e-10 1.8039e-09 -0.000999998)
(-4.89685e-10 1.79743e-09 -0.000999998)
(-3.05198e-10 1.78309e-09 -0.000999998)
(-1.03542e-10 1.76184e-09 -0.000999998)
(-7.25205e-10 1.15894e-09 -0.000999997)
(-6.45444e-10 1.16139e-09 -0.000999997)
(-5.00596e-10 1.15266e-09 -0.000999998)
(-3.21063e-10 1.13926e-09 -0.000999998)
(-1.12646e-10 1.12266e-09 -0.000999998)
(-7.23133e-10 3.98557e-10 -0.000999997)
(-6.47532e-10 4.0003e-10 -0.000999997)
(-5.10882e-10 3.95599e-10 -0.000999997)
(-3.32467e-10 3.89092e-10 -0.000999997)
(-1.17871e-10 3.83004e-10 -0.000999998)
(-8.09724e-10 3.57697e-09 -0.000999999)
(-9.20868e-10 3.48058e-09 -0.000999999)
(-6.27952e-10 3.43829e-09 -0.001)
(-3.90673e-10 3.40262e-09 -0.001)
(-1.36427e-10 3.38499e-09 -0.001)
(-9.34424e-10 3.04299e-09 -0.000999998)
(-8.7122e-10 3.10726e-09 -0.000999998)
(-6.55652e-10 3.08694e-09 -0.000999999)
(-4.25569e-10 3.05422e-09 -0.000999999)
(-1.52058e-10 3.02424e-09 -0.000999999)
(-9.74522e-10 2.46991e-09 -0.000999997)
(-8.76892e-10 2.47428e-09 -0.000999997)
(-6.80562e-10 2.45079e-09 -0.000999998)
(-4.47464e-10 2.42598e-09 -0.000999998)
(-1.60806e-10 2.40652e-09 -0.000999998)
(-9.87274e-10 1.59431e-09 -0.000999996)
(-8.90171e-10 1.58989e-09 -0.000999997)
(-7.03453e-10 1.56874e-09 -0.000999997)
(-4.64989e-10 1.54857e-09 -0.000999997)
(-1.67011e-10 1.5367e-09 -0.000999997)
(-9.92252e-10 5.50402e-10 -0.000999996)
(-9.00954e-10 5.4783e-10 -0.000999996)
(-7.20444e-10 5.38378e-10 -0.000999997)
(-4.75737e-10 5.29714e-10 -0.000999997)
(-1.69681e-10 5.25877e-10 -0.000999997)
(-1.13466e-09 4.90649e-09 -0.000999999)
(-1.1896e-09 4.79311e-09 -0.001)
(-8.75923e-10 4.7391e-09 -0.001)
(-5.82204e-10 4.7054e-09 -0.001)
(-2.11457e-10 4.68699e-09 -0.001)
(-1.24767e-09 4.24724e-09 -0.000999998)
(-1.18253e-09 4.27745e-09 -0.000999998)
(-9.20855e-10 4.23378e-09 -0.000999998)
(-6.15817e-10 4.19725e-09 -0.000999999)
(-2.24017e-10 4.17121e-09 -0.000999999)
(-1.31633e-09 3.41138e-09 -0.000999996)
(-1.20304e-09 3.39511e-09 -0.000999997)
(-9.55476e-10 3.35613e-09 -0.000999997)
(-6.36654e-10 3.32747e-09 -0.000999997)
(-2.29897e-10 3.31357e-09 -0.000999998)
(-1.34691e-09 2.20741e-09 -0.000999995)
(-1.23752e-09 2.17864e-09 -0.000999996)
(-9.87804e-10 2.14725e-09 -0.000999996)
(-6.51872e-10 2.12682e-09 -0.000999996)
(-2.3197e-10 2.12255e-09 -0.000999997)
(-1.36523e-09 7.62271e-10 -0.000999995)
(-1.26096e-09 7.49e-10 -0.000999995)
(-1.00514e-09 7.36894e-10 -0.000999996)
(-6.56173e-10 7.2988e-10 -0.000999996)
(-2.30139e-10 7.30109e-10 -0.000999996)
(-1.60184e-09 6.65854e-09 -0.000999999)
(-1.56501e-09 6.5606e-09 -0.001)
(-1.23365e-09 6.50944e-09 -0.001)
(-8.29153e-10 6.48373e-09 -0.001)
(-2.97307e-10 6.46571e-09 -0.001)
(-1.70685e-09 5.91349e-09 -0.000999997)
(-1.60297e-09 5.88352e-09 -0.000999997)
(-1.2825e-09 5.82438e-09 -0.000999998)
(-8.49825e-10 5.79343e-09 -0.000999998)
(-3.02593e-10 5.77484e-09 -0.000999998)
(-1.78988e-09 4.70308e-09 -0.000999995)
(-1.65407e-09 4.64934e-09 -0.000999996)
(-1.32286e-09 4.60158e-09 -0.000999996)
(-8.67596e-10 4.57489e-09 -0.000999997)
(-3.05634e-10 4.5655e-09 -0.000999997)
(-1.83771e-09 3.02152e-09 -0.000999994)
(-1.70411e-09 2.97545e-09 -0.000999995)
(-1.35601e-09 2.94457e-09 -0.000999995)
(-8.77116e-10 2.93159e-09 -0.000999995)
(-3.04018e-10 2.93495e-09 -0.000999996)
(-1.86058e-09 1.03842e-09 -0.000999993)
(-1.72783e-09 1.02064e-09 -0.000999994)
(-1.36373e-09 1.01189e-09 -0.000999994)
(-8.70152e-10 1.01044e-09 -0.000999995)
(-2.96793e-10 1.01549e-09 -0.000999995)
(-2.25816e-09 8.99012e-09 -0.000999999)
(-2.10325e-09 8.92737e-09 -0.000999999)
(-1.70437e-09 8.89109e-09 -0.001)
(-1.12469e-09 8.87168e-09 -0.001)
(-3.92841e-10 8.85118e-09 -0.001)
(-2.35701e-09 8.09923e-09 -0.000999996)
(-2.16469e-09 8.02277e-09 -0.000999997)
(-1.74101e-09 7.96765e-09 -0.000999997)
(-1.13141e-09 7.94677e-09 -0.000999998)
(-3.92099e-10 7.93317e-09 -0.000999998)
(-2.42341e-09 6.4008e-09 -0.000999994)
(-2.23477e-09 6.32943e-09 -0.000999994)
(-1.77917e-09 6.28641e-09 -0.000999995)
(-1.1442e-09 6.26742e-09 -0.000999995)
(-3.92706e-10 6.26082e-09 -0.000999996)
(-2.47208e-09 4.08686e-09 -0.000999992)
(-2.2786e-09 4.04925e-09 -0.000999993)
(-1.80173e-09 4.03129e-09 -0.000999993)
(-1.14503e-09 4.02977e-09 -0.000999994)
(-3.87865e-10 4.03754e-09 -0.000999994)
(-2.48483e-09 1.40119e-09 -0.000999991)
(-2.28611e-09 1.39085e-09 -0.000999992)
(-1.79473e-09 1.38994e-09 -0.000999992)
(-1.12839e-09 1.39463e-09 -0.000999993)
(-3.77412e-10 1.40215e-09 -0.000999993)
(-3.13732e-09 1.21315e-08 -0.000999998)
(-2.86445e-09 1.20986e-08 -0.000999999)
(-2.30043e-09 1.20837e-08 -0.001)
(-1.49163e-09 1.20682e-08 -0.001)
(-5.13162e-10 1.20436e-08 -0.001)
(-3.21919e-09 1.09342e-08 -0.000999995)
(-2.90614e-09 1.08728e-08 -0.000999996)
(-2.31867e-09 1.08368e-08 -0.000999996)
(-1.49052e-09 1.08253e-08 -0.000999997)
(-5.10021e-10 1.08122e-08 -0.000999997)
(-3.2472e-09 8.64333e-09 -0.000999992)
(-2.96169e-09 8.59564e-09 -0.000999992)
(-2.34631e-09 8.56725e-09 -0.000999993)
(-1.49596e-09 8.55795e-09 -0.000999994)
(-5.07616e-10 8.55166e-09 -0.000999994)
(-3.27884e-09 5.52652e-09 -0.000999989)
(-2.98156e-09 5.5164e-09 -0.00099999)
(-2.3546e-09 5.51232e-09 -0.000999991)
(-1.48967e-09 5.51812e-09 -0.000999992)
(-5.01365e-10 5.5237e-09 -0.000999992)
(-3.27745e-09 1.90019e-09 -0.000999988)
(-2.97046e-09 1.90198e-09 -0.000999989)
(-2.33953e-09 1.90648e-09 -0.00099999)
(-1.47163e-09 1.91296e-09 -0.00099999)
(-4.9168e-10 1.91866e-09 -0.000999991)
(-4.29452e-09 1.64176e-08 -0.000999998)
(-3.87544e-09 1.64119e-08 -0.000999999)
(-3.07644e-09 1.6407e-08 -0.001)
(-1.98536e-09 1.6394e-08 -0.001)
(-6.83859e-10 1.6365e-08 -0.001)
(-4.33365e-09 1.47727e-08 -0.000999993)
(-3.89593e-09 1.4752e-08 -0.000999994)
(-3.08621e-09 1.47328e-08 -0.000999995)
(-1.98431e-09 1.47249e-08 -0.000999996)
(-6.80674e-10 1.4708e-08 -0.000999996)
(-4.33514e-09 1.1708e-08 -0.000999989)
(-3.91519e-09 1.17018e-08 -0.00099999)
(-3.10129e-09 1.16864e-08 -0.000999991)
(-1.98239e-09 1.16828e-08 -0.000999992)
(-6.75229e-10 1.16731e-08 -0.000999992)
(-4.3501e-09 7.52819e-09 -0.000999985)
(-3.91668e-09 7.53622e-09 -0.000999987)
(-3.10286e-09 7.5355e-09 -0.000999988)
(-1.97496e-09 7.53953e-09 -0.000999988)
(-6.69665e-10 7.53823e-09 -0.000999989)
(-4.34295e-09 2.59837e-09 -0.000999984)
(-3.90079e-09 2.60489e-09 -0.000999985)
(-3.09133e-09 2.60797e-09 -0.000999986)
(-1.96205e-09 2.61112e-09 -0.000999987)
(-6.62324e-10 2.61304e-09 -0.000999987)
(-5.83665e-09 2.23185e-08 -0.000999997)
(-5.21645e-09 2.2335e-08 -0.000999999)
(-4.14073e-09 2.23249e-08 -0.001)
(-2.68136e-09 2.23125e-08 -0.001)
(-9.30078e-10 2.22792e-08 -0.001)
(-5.82982e-09 2.01196e-08 -0.00099999)
(-5.2426e-09 2.01078e-08 -0.000999992)
(-4.15679e-09 2.00898e-08 -0.000999993)
(-2.68078e-09 2.00813e-08 -0.000999995)
(-9.24907e-10 2.00582e-08 -0.000999995)
(-5.82774e-09 1.59748e-08 -0.000999984)
(-5.24599e-09 1.59794e-08 -0.000999986)
(-4.16419e-09 1.59691e-08 -0.000999988)
(-2.67484e-09 1.59659e-08 -0.000999989)
(-9.17964e-10 1.59494e-08 -0.000999989)
(-5.83715e-09 1.02984e-08 -0.00099998)
(-5.24707e-09 1.03015e-08 -0.000999982)
(-4.167e-09 1.02961e-08 -0.000999983)
(-2.66953e-09 1.0295e-08 -0.000999984)
(-9.13082e-10 1.02878e-08 -0.000999985)
(-5.83241e-09 3.55829e-09 -0.000999978)
(-5.23896e-09 3.5598e-09 -0.00099998)
(-4.16177e-09 3.55812e-09 -0.000999981)
(-2.65911e-09 3.558e-09 -0.000999982)
(-9.05795e-10 3.5579e-09 -0.000999983)
(-7.92684e-09 3.04267e-08 -0.000999996)
(-7.05773e-09 3.04487e-08 -0.000999999)
(-5.6276e-09 3.04316e-08 -0.001)
(-3.64729e-09 3.04192e-08 -0.001)
(-1.26557e-09 3.03757e-08 -0.001)
(-7.89809e-09 2.75116e-08 -0.000999987)
(-7.11286e-09 2.74699e-08 -0.000999989)
(-5.65147e-09 2.74451e-08 -0.000999991)
(-3.64269e-09 2.74377e-08 -0.000999993)
(-1.25713e-09 2.74038e-08 -0.000999994)
(-7.89997e-09 2.18376e-08 -0.000999979)
(-7.12392e-09 2.1827e-08 -0.000999981)
(-5.65557e-09 2.18187e-08 -0.000999983)
(-3.63623e-09 2.18161e-08 -0.000999985)
(-1.25113e-09 2.17889e-08 -0.000999986)
(-7.90873e-09 1.40645e-08 -0.000999973)
(-7.13007e-09 1.40563e-08 -0.000999975)
(-5.65796e-09 1.40503e-08 -0.000999977)
(-3.63013e-09 1.405e-08 -0.000999979)
(-1.24559e-09 1.40358e-08 -0.00099998)
(-7.90436e-09 4.85339e-09 -0.00099997)
(-7.12555e-09 4.84926e-09 -0.000999972)
(-5.64989e-09 4.84683e-09 -0.000999974)
(-3.61804e-09 4.84785e-09 -0.000999976)
(-1.23891e-09 4.84447e-09 -0.000999977)
(-1.07913e-08 4.14597e-08 -0.000999995)
(-9.60392e-09 4.14826e-08 -0.000999998)
(-7.66212e-09 4.14663e-08 -0.001)
(-4.94193e-09 4.14517e-08 -0.001)
(-1.70505e-09 4.13849e-08 -0.001)
(-1.07425e-08 3.75449e-08 -0.000999982)
(-9.68296e-09 3.74734e-08 -0.000999985)
(-7.68625e-09 3.74487e-08 -0.000999988)
(-4.93537e-09 3.74434e-08 -0.00099999)
(-1.69695e-09 3.73893e-08 -0.000999991)
(-1.07383e-08 2.977e-08 -0.000999971)
(-9.69977e-09 2.97509e-08 -0.000999975)
(-7.68639e-09 2.97496e-08 -0.000999977)
(-4.92974e-09 2.97498e-08 -0.000999979)
(-1.69308e-09 2.97041e-08 -0.000999981)
(-1.07411e-08 1.91443e-08 -0.000999964)
(-9.7011e-09 1.91356e-08 -0.000999967)
(-7.68132e-09 1.91381e-08 -0.00099997)
(-4.92314e-09 1.91407e-08 -0.000999972)
(-1.68986e-09 1.9109e-08 -0.000999973)
(-1.07293e-08 6.59792e-09 -0.000999959)
(-9.68903e-09 6.59328e-09 -0.000999963)
(-7.66503e-09 6.59503e-09 -0.000999965)
(-4.91439e-09 6.5968e-09 -0.000999967)
(-1.68874e-09 6.58426e-09 -0.000999968)
(-1.46634e-08 5.63847e-08 -0.000999993)
(-1.30605e-08 5.64182e-08 -0.000999997)
(-1.03824e-08 5.64071e-08 -0.001)
(-6.65818e-09 5.63866e-08 -0.001)
(-2.28557e-09 5.62852e-08 -0.00100001)
(-1.45843e-08 5.10515e-08 -0.000999976)
(-1.31392e-08 5.09796e-08 -0.00099998)
(-1.0404e-08 5.09621e-08 -0.000999984)
(-6.65658e-09 5.09535e-08 -0.000999987)
(-2.28147e-09 5.0867e-08 -0.000999988)
(-1.45674e-08 4.04678e-08 -0.000999961)
(-1.31494e-08 4.04559e-08 -0.000999966)
(-1.04008e-08 4.04631e-08 -0.000999969)
(-6.65595e-09 4.04596e-08 -0.000999972)
(-2.28219e-09 4.03818e-08 -0.000999974)
(-1.4563e-08 2.60116e-08 -0.000999951)
(-1.31409e-08 2.60085e-08 -0.000999955)
(-1.03921e-08 2.60164e-08 -0.000999959)
(-6.65931e-09 2.60112e-08 -0.000999961)
(-2.28749e-09 2.59527e-08 -0.000999963)
(-1.45407e-08 8.96146e-09 -0.000999945)
(-1.31218e-08 8.95799e-09 -0.000999949)
(-1.03763e-08 8.96052e-09 -0.000999953)
(-6.65937e-09 8.95678e-09 -0.000999956)
(-2.29164e-09 8.93411e-09 -0.000999957)
(-1.98173e-08 7.66053e-08 -0.000999991)
(-1.76787e-08 7.66441e-08 -0.000999996)
(-1.40003e-08 7.66289e-08 -0.001)
(-8.95067e-09 7.65971e-08 -0.001)
(-3.06678e-09 7.6451e-08 -0.00100001)
(-1.97275e-08 6.92941e-08 -0.000999967)
(-1.7749e-08 6.92341e-08 -0.000999973)
(-1.40285e-08 6.92147e-08 -0.000999978)
(-8.96423e-09 6.91889e-08 -0.000999982)
(-3.07123e-09 6.90527e-08 -0.000999984)
(-1.97154e-08 5.49532e-08 -0.000999948)
(-1.77574e-08 5.49435e-08 -0.000999953)
(-1.40349e-08 5.49438e-08 -0.000999958)
(-8.98054e-09 5.49194e-08 -0.000999962)
(-3.08105e-09 5.47988e-08 -0.000999964)
(-1.97172e-08 3.53312e-08 -0.000999933)
(-1.77543e-08 3.53228e-08 -0.000999939)
(-1.40414e-08 3.53172e-08 -0.000999944)
(-9.0025e-09 3.52925e-08 -0.000999948)
(-3.09432e-09 3.52094e-08 -0.00099995)
(-1.96921e-08 1.21741e-08 -0.000999925)
(-1.77409e-08 1.21668e-08 -0.000999931)
(-1.40361e-08 1.21608e-08 -0.000999936)
(-9.00657e-09 1.21494e-08 -0.00099994)
(-3.0975e-09 1.21211e-08 -0.000999942)
(-2.66908e-08 1.04078e-07 -0.000999987)
(-2.38478e-08 1.04096e-07 -0.000999995)
(-1.88563e-08 1.04057e-07 -0.001)
(-1.20498e-08 1.04002e-07 -0.00100001)
(-4.13047e-09 1.03796e-07 -0.00100001)
(-2.66423e-08 9.40676e-08 -0.000999956)
(-2.39365e-08 9.39878e-08 -0.000999964)
(-1.89093e-08 9.39422e-08 -0.00099997)
(-1.20939e-08 9.38807e-08 -0.000999975)
(-4.15108e-09 9.36747e-08 -0.000999978)
(-2.66714e-08 7.46381e-08 -0.000999929)
(-2.39724e-08 7.46008e-08 -0.000999937)
(-1.8949e-08 7.45666e-08 -0.000999944)
(-1.21376e-08 7.45067e-08 -0.000999948)
(-4.17051e-09 7.43401e-08 -0.000999951)
(-2.67043e-08 4.80019e-08 -0.000999909)
(-2.40024e-08 4.79674e-08 -0.000999917)
(-1.89881e-08 4.79294e-08 -0.000999924)
(-1.21753e-08 4.78823e-08 -0.000999929)
(-4.1851e-09 4.77735e-08 -0.000999932)
(-2.66933e-08 1.6543e-08 -0.000999899)
(-2.40041e-08 1.65254e-08 -0.000999907)
(-1.8995e-08 1.6506e-08 -0.000999914)
(-1.21827e-08 1.64882e-08 -0.000999919)
(-4.18883e-09 1.64505e-08 -0.000999921)
(-3.59784e-08 1.41433e-07 -0.000999983)
(-3.21806e-08 1.41404e-07 -0.000999994)
(-2.54418e-08 1.41323e-07 -0.001)
(-1.62784e-08 1.41226e-07 -0.00100001)
(-5.58926e-09 1.40944e-07 -0.00100001)
(-3.60133e-08 1.27768e-07 -0.00099994)
(-3.23228e-08 1.27626e-07 -0.000999951)
(-2.55383e-08 1.27527e-07 -0.00099996)
(-1.63602e-08 1.27416e-07 -0.000999966)
(-5.6267e-09 1.27127e-07 -0.00099997)
(-3.6123e-08 1.01421e-07 -0.000999904)
(-3.2421e-08 1.01321e-07 -0.000999914)
(-2.56324e-08 1.01225e-07 -0.000999923)
(-1.64337e-08 1.01122e-07 -0.00099993)
(-5.65272e-09 1.00898e-07 -0.000999934)
(-3.62161e-08 6.52443e-08 -0.000999877)
(-3.25111e-08 6.51629e-08 -0.000999888)
(-2.57167e-08 6.50775e-08 -0.000999897)
(-1.64895e-08 6.4999e-08 -0.000999904)
(-5.66966e-09 6.48476e-08 -0.000999908)
(-3.62387e-08 2.24883e-08 -0.000999862)
(-3.25335e-08 2.24553e-08 -0.000999873)
(-2.57437e-08 2.24189e-08 -0.000999883)
(-1.65134e-08 2.23878e-08 -0.000999889)
(-5.68126e-09 2.23301e-08 -0.000999893)
(-4.86078e-08 1.92223e-07 -0.000999977)
(-4.34822e-08 1.92127e-07 -0.000999992)
(-3.43836e-08 1.91981e-07 -0.001)
(-2.20363e-08 1.91825e-07 -0.00100001)
(-7.57933e-09 1.91441e-07 -0.00100002)
(-4.87498e-08 1.73638e-07 -0.000999919)
(-4.37181e-08 1.73386e-07 -0.000999933)
(-3.45486e-08 1.73195e-07 -0.000999946)
(-2.2156e-08 1.73019e-07 -0.000999955)
(-7.62669e-09 1.72628e-07 -0.00099996)
(-4.89885e-08 1.37886e-07 -0.000999869)
(-4.3924e-08 1.37674e-07 -0.000999884)
(-3.47237e-08 1.37481e-07 -0.000999896)
(-2.22693e-08 1.37314e-07 -0.000999905)
(-7.66207e-09 1.37005e-07 -0.00099991)
(-4.91851e-08 8.87298e-08 -0.000999833)
(-4.41129e-08 8.85617e-08 -0.000999848)
(-3.48807e-08 8.84003e-08 -0.00099986)
(-2.23632e-08 8.82676e-08 -0.000999869)
(-7.68988e-09 8.80558e-08 -0.000999874)
(-4.92667e-08 3.05883e-08 -0.000999813)
(-4.41813e-08 3.05234e-08 -0.000999828)
(-3.49477e-08 3.04575e-08 -0.000999841)
(-2.24098e-08 3.04026e-08 -0.00099985)
(-7.70663e-09 3.03233e-08 -0.000999855)
(-6.57271e-08 2.61304e-07 -0.00099997)
(-5.87418e-08 2.61084e-07 -0.000999989)
(-4.64549e-08 2.60817e-07 -0.00100001)
(-2.98028e-08 2.6058e-07 -0.00100002)
(-1.02616e-08 2.60052e-07 -0.00100002)
(-6.60337e-08 2.36098e-07 -0.00099989)
(-5.91598e-08 2.35631e-07 -0.00099991)
(-4.67448e-08 2.35277e-07 -0.000999926)
(-2.99765e-08 2.34994e-07 -0.000999938)
(-1.0316e-08 2.34465e-07 -0.000999945)
(-6.64859e-08 1.87535e-07 -0.000999822)
(-5.95606e-08 1.87117e-07 -0.000999842)
(-4.70562e-08 1.86763e-07 -0.000999859)
(-3.01601e-08 1.86488e-07 -0.000999871)
(-1.03702e-08 1.86053e-07 -0.000999878)
(-6.68671e-08 1.20706e-07 -0.000999773)
(-5.99181e-08 1.20378e-07 -0.000999793)
(-4.73348e-08 1.20093e-07 -0.00099981)
(-3.03191e-08 1.19881e-07 -0.000999822)
(-1.04156e-08 1.19589e-07 -0.000999829)
(-6.70431e-08 4.16173e-08 -0.000999746)
(-6.00771e-08 4.14884e-08 -0.000999766)
(-4.74591e-08 4.13759e-08 -0.000999784)
(-3.0388e-08 4.12931e-08 -0.000999796)
(-1.04348e-08 4.1189e-08 -0.000999803)
(-8.88418e-08 3.55218e-07 -0.000999959)
(-7.92917e-08 3.54765e-07 -0.000999985)
(-6.26697e-08 3.54294e-07 -0.00100001)
(-4.01972e-08 3.53935e-07 -0.00100002)
(-1.38423e-08 3.53198e-07 -0.00100003)
(-8.94419e-08 3.2105e-07 -0.000999851)
(-8.00191e-08 3.20213e-07 -0.000999877)
(-6.31691e-08 3.19587e-07 -0.0009999)
(-4.04635e-08 3.19122e-07 -0.000999916)
(-1.39109e-08 3.1839e-07 -0.000999925)
(-9.02455e-08 2.55064e-07 -0.000999759)
(-8.07517e-08 2.54301e-07 -0.000999786)
(-6.37107e-08 2.53687e-07 -0.000999808)
(-4.07741e-08 2.53235e-07 -0.000999825)
(-1.40019e-08 2.52606e-07 -0.000999834)
(-9.09406e-08 1.64189e-07 -0.000999691)
(-8.13774e-08 1.63611e-07 -0.000999719)
(-6.41831e-08 1.63139e-07 -0.000999742)
(-4.10432e-08 1.62802e-07 -0.000999759)
(-1.40807e-08 1.62372e-07 -0.000999768)
(-9.12632e-08 5.66153e-08 -0.000999655)
(-8.16756e-08 5.63903e-08 -0.000999683)
(-6.43964e-08 5.62095e-08 -0.000999706)
(-4.11652e-08 5.60841e-08 -0.000999723)
(-1.41206e-08 5.59292e-08 -0.000999732)
(-1.19975e-07 4.82778e-07 -0.000999945)
(-1.06911e-07 4.81954e-07 -0.00099998)
(-8.43435e-08 4.81169e-07 -0.00100001)
(-5.40244e-08 4.80598e-07 -0.00100003)
(-1.85876e-08 4.79544e-07 -0.00100004)
(-1.21069e-07 4.3643e-07 -0.000999798)
(-1.08088e-07 4.35046e-07 -0.000999834)
(-8.51739e-08 4.33983e-07 -0.000999864)
(-5.44656e-08 4.33215e-07 -0.000999885)
(-1.87025e-08 4.32149e-07 -0.000999897)
(-1.22455e-07 3.4687e-07 -0.000999673)
(-1.09354e-07 3.4556e-07 -0.000999709)
(-8.61068e-08 3.44514e-07 -0.00099974)
(-5.50116e-08 3.4375e-07 -0.000999762)
(-1.88702e-08 3.42802e-07 -0.000999774)
(-1.23672e-07 2.23345e-07 -0.000999581)
(-1.1042e-07 2.22376e-07 -0.000999618)
(-8.69135e-08 2.21586e-07 -0.00099965)
(-5.54926e-08 2.21014e-07 -0.000999672)
(-1.90232e-08 2.20347e-07 -0.000999685)
(-1.24258e-07 7.70285e-08 -0.000999532)
(-1.10948e-07 7.66596e-08 -0.000999569)
(-8.7307e-08 7.6361e-08 -0.000999601)
(-5.57413e-08 7.61464e-08 -0.000999623)
(-1.91131e-08 7.59006e-08 -0.000999636)
(-1.61734e-07 6.55986e-07 -0.000999926)
(-1.43799e-07 6.54558e-07 -0.000999973)
(-1.1312e-07 6.53279e-07 -0.00100001)
(-7.23139e-08 6.52332e-07 -0.00100004)
(-2.48473e-08 6.50781e-07 -0.00100005)
(-1.63666e-07 5.93164e-07 -0.000999727)
(-1.45682e-07 5.90919e-07 -0.000999775)
(-1.14514e-07 5.89111e-07 -0.000999814)
(-7.30963e-08 5.87803e-07 -0.000999843)
(-2.50764e-08 5.86182e-07 -0.000999859)
(-1.66069e-07 4.7178e-07 -0.000999556)
(-1.47846e-07 4.69544e-07 -0.000999605)
(-1.16144e-07 4.67726e-07 -0.000999646)
(-7.40856e-08 4.66393e-07 -0.000999676)
(-2.53979e-08 4.64918e-07 -0.000999693)
(-1.68187e-07 3.03953e-07 -0.000999432)
(-1.49702e-07 3.02294e-07 -0.000999482)
(-1.17569e-07 3.00921e-07 -0.000999524)
(-7.49669e-08 2.99908e-07 -0.000999554)
(-2.56918e-08 2.98863e-07 -0.000999572)
(-1.69282e-07 1.04866e-07 -0.000999364)
(-1.50666e-07 1.04244e-07 -0.000999415)
(-1.1832e-07 1.03726e-07 -0.000999458)
(-7.54535e-08 1.03341e-07 -0.000999488)
(-2.5865e-08 1.02957e-07 -0.000999506)
(-2.17464e-07 8.91096e-07 -0.000999901)
(-1.92685e-07 8.88655e-07 -0.000999963)
(-1.5106e-07 8.86544e-07 -0.00100001)
(-9.63442e-08 8.84967e-07 -0.00100005)
(-3.30602e-08 8.82637e-07 -0.00100007)
(-2.20858e-07 8.06187e-07 -0.000999631)
(-1.95801e-07 8.02436e-07 -0.000999695)
(-1.53438e-07 7.99307e-07 -0.000999747)
(-9.77589e-08 7.97032e-07 -0.000999785)
(-3.35173e-08 7.94496e-07 -0.000999806)
(-2.25077e-07 6.41873e-07 -0.000999399)
(-1.99557e-07 6.38002e-07 -0.000999465)
(-1.56338e-07 6.3478e-07 -0.00099952)
(-9.95718e-08 6.32414e-07 -0.000999559)
(-3.41301e-08 6.30077e-07 -0.000999582)
(-2.28805e-07 4.13935e-07 -0.000999229)
(-2.02849e-07 4.11034e-07 -0.000999297)
(-1.58895e-07 4.08594e-07 -0.000999354)
(-1.01178e-07 4.06795e-07 -0.000999394)
(-3.46758e-08 4.05136e-07 -0.000999418)
(-2.30843e-07 1.42886e-07 -0.000999137)
(-2.04631e-07 1.41806e-07 -0.000999206)
(-1.60309e-07 1.40887e-07 -0.000999264)
(-1.02096e-07 1.40204e-07 -0.000999305)
(-3.49993e-08 1.39595e-07 -0.000999329)
(-2.91441e-07 1.20983e-06 -0.00099987)
(-2.56958e-07 1.2058e-06 -0.000999951)
(-2.00655e-07 1.20221e-06 -0.00100002)
(-1.27626e-07 1.19963e-06 -0.00100006)
(-4.37417e-08 1.19605e-06 -0.00100009)
(-2.97359e-07 1.0956e-06 -0.000999503)
(-2.62199e-07 1.08923e-06 -0.000999587)
(-2.04716e-07 1.08374e-06 -0.000999656)
(-1.30147e-07 1.07978e-06 -0.000999705)
(-4.46247e-08 1.07572e-06 -0.000999733)
(-3.04827e-07 8.73617e-07 -0.000999188)
(-2.68808e-07 8.66893e-07 -0.000999276)
(-2.0993e-07 8.61112e-07 -0.000999349)
(-1.33473e-07 8.56907e-07 -0.0009994)
(-4.57889e-08 8.53113e-07 -0.000999431)
(-3.11455e-07 5.64205e-07 -0.000998955)
(-2.74644e-07 5.59143e-07 -0.000999047)
(-2.14524e-07 5.5476e-07 -0.000999124)
(-1.36384e-07 5.51577e-07 -0.000999177)
(-4.67976e-08 5.48874e-07 -0.000999209)
(-3.152e-07 1.94926e-07 -0.000998829)
(-2.77927e-07 1.93043e-07 -0.000998922)
(-2.1716e-07 1.91389e-07 -0.000999001)
(-1.38096e-07 1.90183e-07 -0.000999056)
(-4.74098e-08 1.89184e-07 -0.000999089)
(-3.88785e-07 1.64102e-06 -0.000999831)
(-3.4036e-07 1.63475e-06 -0.000999934)
(-2.64605e-07 1.62837e-06 -0.00100002)
(-1.67798e-07 1.62431e-06 -0.00100008)
(-5.74832e-08 1.6186e-06 -0.00100011)
(-3.99033e-07 1.48843e-06 -0.000999335)
(-3.49156e-07 1.47779e-06 -0.000999442)
(-2.7153e-07 1.46788e-06 -0.000999533)
(-1.7214e-07 1.46112e-06 -0.000999595)
(-5.91562e-08 1.45439e-06 -0.000999631)
(-4.12403e-07 1.18962e-06 -0.000998906)
(-3.60894e-07 1.17809e-06 -0.000999019)
(-2.81045e-07 1.16749e-06 -0.000999118)
(-1.78305e-07 1.16008e-06 -0.000999185)
(-6.14372e-08 1.15368e-06 -0.000999226)
(-4.24273e-07 7.70044e-07 -0.000998587)
(-3.71209e-07 7.61358e-07 -0.000998707)
(-2.89298e-07 7.53343e-07 -0.000998813)
(-1.83525e-07 7.47795e-07 -0.000998883)
(-6.33207e-08 7.43252e-07 -0.000998927)
(-4.31138e-07 2.66413e-07 -0.000998413)
(-3.77216e-07 2.63173e-07 -0.000998536)
(-2.94205e-07 2.6013e-07 -0.000998646)
(-1.86688e-07 2.5802e-07 -0.000998718)
(-6.44924e-08 2.56325e-07 -0.000998765)
(-5.15035e-07 2.22201e-06 -0.000999786)
(-4.46131e-07 2.21373e-06 -0.000999913)
(-3.45443e-07 2.20125e-06 -0.00100002)
(-2.18357e-07 2.1958e-06 -0.00100009)
(-7.49788e-08 2.1859e-06 -0.00100014)
(-5.32772e-07 2.02079e-06 -0.000999119)
(-4.60657e-07 2.00427e-06 -0.000999246)
(-3.57196e-07 1.98513e-06 -0.000999368)
(-2.25346e-07 1.97422e-06 -0.000999439)
(-7.8248e-08 1.96228e-06 -0.000999489)
(-5.57148e-07 1.62094e-06 -0.000998536)
(-4.81774e-07 1.60211e-06 -0.000998671)
(-3.75173e-07 1.58163e-06 -0.000998812)
(-2.37092e-07 1.56899e-06 -0.000998892)
(-8.30698e-08 1.55743e-06 -0.000998952)
(-5.78572e-07 1.05292e-06 -0.0009981)
(-4.99864e-07 1.03888e-06 -0.00099824)
(-3.89984e-07 1.02356e-06 -0.000998396)
(-2.46178e-07 1.01439e-06 -0.000998479)
(-8.66859e-08 1.00633e-06 -0.000998546)
(-5.91237e-07 3.65041e-07 -0.000997859)
(-5.1074e-07 3.59808e-07 -0.000998003)
(-3.99211e-07 3.53915e-07 -0.000998168)
(-2.52007e-07 3.5035e-07 -0.000998255)
(-8.90586e-08 3.47265e-07 -0.000998326)
(-6.75199e-07 2.99746e-06 -0.000999747)
(-5.75439e-07 2.99404e-06 -0.000999883)
(-4.45545e-07 2.96466e-06 -0.00100003)
(-2.80412e-07 2.96225e-06 -0.00100011)
(-9.7529e-08 2.9422e-06 -0.00100016)
(-7.05659e-07 2.7384e-06 -0.000998862)
(-5.979e-07 2.71959e-06 -0.00099897)
(-4.6494e-07 2.67733e-06 -0.000999153)
(-2.89228e-07 2.66341e-06 -0.000999211)
(-1.0459e-07 2.63939e-06 -0.000999286)
(-7.51452e-07 2.20864e-06 -0.000998077)
(-6.36482e-07 2.18331e-06 -0.000998184)
(-5.0128e-07 2.1392e-06 -0.000998419)
(-3.12631e-07 2.12006e-06 -0.000998489)
(-1.16147e-07 2.09671e-06 -0.000998593)
(-7.90629e-07 1.44215e-06 -0.00099748)
(-6.67211e-07 1.42413e-06 -0.00099758)
(-5.2774e-07 1.39184e-06 -0.000997853)
(-3.27007e-07 1.37923e-06 -0.000997917)
(-1.23519e-07 1.36364e-06 -0.000998035)
(-8.14448e-07 5.01456e-07 -0.000997146)
(-6.86454e-07 4.94783e-07 -0.000997244)
(-5.45719e-07 4.821e-07 -0.000997541)
(-3.37704e-07 4.76677e-07 -0.000997608)
(-1.28833e-07 4.70383e-07 -0.000997738)
(-8.71183e-07 4.00774e-06 -0.000999752)
(-7.23866e-07 4.04917e-06 -0.000999836)
(-5.69396e-07 3.96153e-06 -0.00100005)
(-3.54704e-07 3.98839e-06 -0.00100013)
(-1.29548e-07 3.93859e-06 -0.00100022)
(-9.21347e-07 3.69098e-06 -0.000998613)
(-7.51779e-07 3.70305e-06 -0.000998548)
(-5.98377e-07 3.5908e-06 -0.000998899)
(-3.52744e-07 3.59157e-06 -0.000998841)
(-1.47563e-07 3.53395e-06 -0.000998983)
(-1.0122e-06 3.00257e-06 -0.000997568)
(-8.24014e-07 2.99132e-06 -0.000997467)
(-6.80267e-07 2.88188e-06 -0.000997961)
(-4.03469e-07 2.86297e-06 -0.000997934)
(-1.79315e-07 2.80861e-06 -0.000998159)
(-1.08535e-06 1.97557e-06 -0.000996757)
(-8.72295e-07 1.9714e-06 -0.000996597)
(-7.2612e-07 1.894e-06 -0.000997184)
(-4.19303e-07 1.88783e-06 -0.000997103)
(-1.95445e-07 1.85422e-06 -0.000997357)
(-1.13168e-06 6.89971e-07 -0.000996293)
(-9.05513e-07 6.8796e-07 -0.000996107)
(-7.63484e-07 6.57026e-07 -0.000996758)
(-4.39027e-07 6.50781e-07 -0.000996679)
(-2.087e-07 6.3613e-07 -0.000996963)
(-1.09699e-06 5.25081e-06 -0.000999905)
(-8.7606e-07 5.49259e-06 -0.00099978)
(-7.35551e-07 5.20409e-06 -0.00100019)
(-4.45236e-07 5.36581e-06 -0.00100022)
(-1.8769e-07 5.22528e-06 -0.00100041)
(-1.17103e-06 4.9218e-06 -0.000998511)
(-8.83542e-07 5.0891e-06 -0.000997846)
(-7.57946e-07 4.76875e-06 -0.000998631)
(-3.65116e-07 4.85564e-06 -0.000998157)
(-2.37589e-07 4.70212e-06 -0.000998471)
(-1.36626e-06 4.06461e-06 -0.000997115)
(-1.02905e-06 4.13383e-06 -0.000996386)
(-9.68155e-07 3.85419e-06 -0.000997507)
(-5.00018e-07 3.85749e-06 -0.000997205)
(-3.28954e-07 3.72235e-06 -0.000997733)
(-1.50365e-06 2.70566e-06 -0.000996012)
(-1.09376e-06 2.77331e-06 -0.000995087)