FoamFile
{version 2.0; format ascii;class Cloud<passiveParticle>; location 0;object  positions;}
356
(
( -0.00268221 -0.00397701 0.000498315 ) 0 
( -0.00293297 -0.00299383 0.000499078 ) 0 
( -0.00296301 -0.00103306 0.000498374 ) 0 
( -0.00161966 -0.00420573 0.000497759 ) 0 
( -0.00437891 -0.00438553 0.000498226 ) 0 
( -0.000995847 -0.00306764 0.000498102 ) 0 
( -0.000343668 -0.00231223 0.000498493 ) 0 
( -0.00392632 -0.000760468 0.000497132 ) 0 
( -0.00485007 -0.00242946 0.000497705 ) 0 
( -0.00273154 -0.00200803 0.00049916 ) 0 
( -0.000495131 -0.00499151 0.000498255 ) 0 
( -0.00342172 -0.00467337 0.000498046 ) 0 
( -0.00369139 -0.00173219 0.000499782 ) 0 
( -0.00286899 -0.00148956 0.00138072 ) 0 
( -0.00364165 -0.00369833 0.000497537 ) 0 
( -0.00424497 -0.00214515 0.00123915 ) 0 
( -0.00244289 -0.00494689 0.00049861 ) 0 
( -0.0020019 -0.00130955 0.000496956 ) 0 
( -0.00389157 -0.00271275 0.000497891 ) 0 
( -0.00464963 -0.00145061 0.000498649 ) 0 
( -0.0019736 -0.00327152 0.00049879 ) 0 
( -0.00319422 -6.13485e-05 0.000497781 ) 0 
( -0.00177437 -0.00229202 0.000497729 ) 0 
( -0.00308358 -0.00356874 0.00131662 ) 0 
( -0.00125563 -0.000623578 0.000499206 ) 0 
( -0.00460552 -0.00341232 0.000497261 ) 0 
( -0.00223412 -0.00033819 0.000497867 ) 0 
( -0.00328166 -0.00240921 0.00123089 ) 0 
( -0.00375653 -0.000205147 0.00130994 ) 0 
( -0.00232952 -0.00271152 0.00124498 ) 0 
( -0.00403983 -0.00327557 0.00130878 ) 0 
( -0.00192234 -0.00180647 0.00135714 ) 0 
( -0.000641142 -0.00400202 0.000498917 ) 0 
( -0.00477298 -0.00396199 0.00131309 ) 0 
( -0.00279042 -0.000483205 0.00131485 ) 0 
( -0.00455034 -0.00493499 0.00131448 ) 0 
( -0.00288343 -0.00463249 0.00133822 ) 0 
( -0.00104585 -0.00160127 0.000498817 ) 0 
( -0.00121653 -0.0046523 0.0012935 ) 0 
( -0.00483681 -0.000845859 0.00127087 ) 0 
( -0.00106068 -0.00233864 0.0011935 ) 0 
( -0.00031211 -0.00296845 0.00139475 ) 0 
( -0.00311246 -0.00292022 0.00207547 ) 0 
( -0.00381554 -0.00424928 0.00131167 ) 0 
( -0.000376368 -0.000708208 0.00111859 ) 0 
( -0.00385255 -0.0012357 0.00136984 ) 0 
( -0.00203862 -0.00483788 0.00183097 ) 0 
( -0.00499602 -0.00298806 0.00131229 ) 0 
( -0.00102595 -0.00138016 0.0014725 ) 0 
( -0.00139942 -0.00399195 0.00201833 ) 0 
( -0.000551448 -0.00393386 0.00149133 ) 0 
( -0.00253031 -0.00210894 0.00208909 ) 0 
( -0.00212668 -0.00397946 0.00132783 ) 0 
( -0.00160423 -0.00247733 0.0020228 ) 0 
( -0.00448295 -0.00161056 0.00204796 ) 0 
( -0.00110867 -6.36912e-05 0.00132712 ) 0 
( -0.00145636 -0.00323912 0.00136599 ) 0 
( -0.00218497 -0.00328913 0.00204644 ) 0 
( -0.00415314 -0.00460993 0.00217808 ) 0 
( -0.00407317 -0.00264916 0.00208423 ) 0 
( -0.00278926 -0.00407484 0.00216092 ) 0 
( -0.00020522 -0.00115378 0.00199673 ) 0 
( -0.00180788 -0.00077601 0.00131781 ) 0 
( -0.00349199 -0.0018372 0.00207884 ) 0 
( -0.00371914 -0.00371099 0.00214716 ) 0 
( -0.00468077 -0.00343783 0.00215744 ) 0 
( -0.000580364 -0.00207978 0.00202955 ) 0 
( -0.00328569 -0.000854487 0.00209882 ) 0 
( -0.00110381 -0.000650198 0.00214893 ) 0 
( -0.000264134 -0.000151307 0.00193995 ) 0 
( -0.00249291 -0.00277948 0.00284692 ) 0 
( -0.00425897 -0.000635529 0.00205727 ) 0 
( -0.000791539 -0.00137463 0.00277478 ) 0 
( -0.00383396 -0.00027516 0.00297279 ) 0 
( -0.00390269 -0.00125215 0.00277687 ) 0 
( -0.00330999 -0.00222104 0.00298071 ) 0 
( -0.00275484 -0.000179662 0.00287489 ) 0 
( -0.00186307 -0.00375521 0.00286955 ) 0 
( -0.000187592 -0.000583324 0.00283624 ) 0 
( -0.00229758 -0.000740279 0.00218647 ) 0 
( -0.00060606 -0.00475463 0.00207551 ) 0 
( -0.000887786 -0.00315101 0.00219045 ) 0 
( -0.00101456 -2.5353e-05 0.00292341 ) 0 
( -0.00277566 -0.00140752 0.00275554 ) 0 
( -0.00147368 -0.00469478 0.00272297 ) 0 
( -0.00163862 -0.00148755 0.002259 ) 0 
( -0.000690263 -0.00399882 0.00272205 ) 0 
( -0.00491959 -0.00404278 0.00291457 ) 0 
( -0.00108341 -0.0023249 0.00286035 ) 0 
( -0.00435993 -0.00213546 0.00288934 ) 0 
( -0.00462475 -0.00499485 0.00296942 ) 0 
( -0.000212571 -0.00362765 0.00352284 ) 0 
( -0.00364316 -0.00316081 0.00297571 ) 0 
( -0.00475081 -0.000713626 0.00292122 ) 0 
( -0.00280803 -0.00366794 0.00317865 ) 0 
( -0.00326899 -0.000926543 0.00347718 ) 0 
( -0.00347527 -0.00435652 0.00286962 ) 0 
( -0.00199502 -0.00194373 0.00307276 ) 0 
( -0.00109061 -0.00324616 0.00324301 ) 0 
( -0.00199875 -0.00312969 0.00364094 ) 0 
( -0.00166898 -0.000778813 0.00296273 ) 0 
( -0.000231609 -0.00286055 0.00288459 ) 0 
( -0.00302401 -0.0044535 0.00375577 ) 0 
( -0.00292417 -0.00276179 0.00374765 ) 0 
( -0.000838483 -0.000765166 0.00357068 ) 0 
( -0.000179453 -0.00461251 0.00336267 ) 0 
( -0.00384777 -0.00172079 0.00365707 ) 0 
( -0.00484251 -0.00164568 0.00361145 ) 0 
( -0.00120343 -0.00169303 0.00362753 ) 0 
( -0.00278749 -0.00177319 0.00370225 ) 0 
( -0.000631711 -0.00250582 0.0037326 ) 0 
( -0.00111142 -0.00431292 0.00357 ) 0 
( -0.00258541 -0.000301343 0.00385163 ) 0 
( -0.00411118 -0.00388348 0.00348009 ) 0 
( -0.00463209 -0.00309839 0.00309505 ) 0 
( -0.000215944 -0.00154094 0.00365961 ) 0 
( -0.00202923 -0.00113549 0.00382294 ) 0 
( -0.00243723 -0.00456818 0.00295338 ) 0 
( -0.0010812 -0.00210487 0.00452929 ) 0 
( -0.00339317 -0.00218457 0.00441488 ) 0 
( -0.00102581 -0.00354105 0.00419527 ) 0 
( -0.00453235 -0.00213562 0.00442491 ) 0 
( -0.000510327 -0.000126762 0.00426569 ) 0 
( -0.00402038 -0.00269752 0.00377624 ) 0 
( -0.00453567 -0.00461617 0.00400795 ) 0 
( -0.001954 -0.00221242 0.00403423 ) 0 
( -0.0039267 -0.00135747 0.0045846 ) 0 
( -0.00421844 -0.000799484 0.00376184 ) 0 
( -0.000160624 -0.00308615 0.00439492 ) 0 
( -0.00341626 -0.000524061 0.00437805 ) 0 
( -0.0028765 -0.0013352 0.00459412 ) 0 
( -0.00141362 -0.00462387 0.00446842 ) 0 
( -0.000404242 -0.00485462 0.00462899 ) 0 
( -0.00338005 -0.00358156 0.00409055 ) 0 
( -0.00430996 -0.00340459 0.00442014 ) 0 
( -3.50903e-05 -0.00209783 0.00446862 ) 0 
( -0.0020727 -0.00412679 0.00377305 ) 0 
( -0.00245337 -0.00348975 0.00445346 ) 0 
( -0.00449364 -0.000182493 0.00449726 ) 0 
( -0.00488196 -0.00110165 0.00444516 ) 0 
( -0.00159428 -0.000247935 0.00396785 ) 0 
( -0.00368661 -0.00443831 0.00450268 ) 0 
( -0.00250004 -0.00447643 0.00460595 ) 0 
( -0.0016446 -0.00291813 0.00466985 ) 0 
( -0.000377218 -0.00125583 0.00489116 ) 0 
( -0.00188648 -0.00477553 0.00533545 ) 0 
( -0.00396337 -0.00214404 0.00524558 ) 0 
( -0.00128356 -1.64826e-05 0.004888 ) 0 
( -0.00252395 -0.00246852 0.00481511 ) 0 
( -0.00484113 -0.00420681 0.00486757 ) 0 
( -0.00144832 -0.00381829 0.00505621 ) 0 
( -0.00215986 -0.000645376 0.00468723 ) 0 
( -0.00195546 -0.00162811 0.00484459 ) 0 
( -0.00399229 -0.00385369 0.00525378 ) 0 
( -0.000456395 -0.00386178 0.0049514 ) 0 
( -0.00341663 -0.000945563 0.00533829 ) 0 
( -0.000777991 -0.00294035 0.00516619 ) 0 
( -0.00417978 -0.00483426 0.00527555 ) 0 
( -0.00352513 -0.0030375 0.00491714 ) 0 
( -0.00124381 -0.0010587 0.00443538 ) 0 
( -0.00244558 -0.00105587 0.00555058 ) 0 
( -0.00187632 -0.00255511 0.00557142 ) 0 
( -0.00360813 -0.00435753 0.00602579 ) 0 
( -0.00487214 -0.00255756 0.00526398 ) 0 
( -0.00317517 -0.00483478 0.00526336 ) 0 
( -0.00290472 -0.00282125 0.00566891 ) 0 
( -0.00299623 -0.00385333 0.00520848 ) 0 
( -0.000911961 -0.00459106 0.00545929 ) 0 
( -0.00486943 -0.00350507 0.00557899 ) 0 
( -0.00120728 -0.00181864 0.00547748 ) 0 
( -0.00217773 -0.00350419 0.00565873 ) 0 
( -0.00440364 -0.000808707 0.00527086 ) 0 
( -0.00147907 -0.000860768 0.00538636 ) 0 
( -0.00175386 -0.00138431 0.00619204 ) 0 
( -0.0028925 -0.000173276 0.00569188 ) 0 
( -0.00379169 -0.00317772 0.00596097 ) 0 
( -0.000568222 -0.000592737 0.00569788 ) 0 
( -0.00302456 -0.0018601 0.00542989 ) 0 
( -0.000264589 -0.00214933 0.00549659 ) 0 
( -0.00460715 -0.0043519 0.00604 ) 0 
( -0.00258507 -0.00440651 0.00594673 ) 0 
( -0.000856111 -0.00366852 0.00584707 ) 0 
( -9.73147e-05 -0.00486912 0.00596823 ) 0 
( -0.00407825 -0.00145371 0.00596031 ) 0 
( -0.00352249 -0.00224704 0.00620485 ) 0 
( -0.00216089 -0.000466921 0.00630584 ) 0 
( -0.00313344 -0.00128419 0.00623815 ) 0 
( -0.00391494 -0.00375938 0.00676428 ) 0 
( -0.000692055 -0.00151947 0.00627847 ) 0 
( -0.00168641 -0.003886 0.00643818 ) 0 
( -0.00459406 -0.00170344 0.00677899 ) 0 
( -0.00213011 -0.00299238 0.00651403 ) 0 
( -0.00449074 -0.00249978 0.00618485 ) 0 
( -0.00101285 -0.00259628 0.00607358 ) 0 
( -0.00294893 -0.00356186 0.00633728 ) 0 
( -0.00177717 -0.0048749 0.00632356 ) 0 
( -4.43908e-05 -0.00275294 0.00626247 ) 0 
( -0.00482339 -0.00339019 0.00657071 ) 0 
( -0.000873663 -0.00446693 0.00644957 ) 0 
( -0.00247377 -0.00209766 0.00622873 ) 0 
( -0.0044259 -0.000442522 0.00620016 ) 0 
( -0.000136554 -0.00379706 0.00652859 ) 0 
( -0.00303335 -0.00442112 0.00683969 ) 0 
( -0.00110312 -0.00142409 0.00718443 ) 0 
( -0.0012006 -0.0006435 0.0065703 ) 0 
( -0.00159966 -0.00218496 0.00676921 ) 0 
( -0.00388597 -0.000999402 0.00682971 ) 0 
( -0.000228253 -0.000775411 0.00675652 ) 0 
( -0.00217085 -0.00473418 0.00723133 ) 0 
( -0.00340433 -0.00291042 0.00694253 ) 0 
( -0.00485684 -0.000784621 0.00707166 ) 0 
( -8.27475e-05 -0.00306852 0.00720969 ) 0 
( -0.00370532 -0.00197349 0.00714833 ) 0 
( -0.00393479 -9.47538e-06 0.0069551 ) 0 
( -0.000960404 -0.00329438 0.00678595 ) 0 
( -0.00484191 -0.00428788 0.00700965 ) 0 
( -0.0024874 -0.00235416 0.00719414 ) 0 
( -0.00242374 -0.0013907 0.00693316 ) 0 
( -0.00437699 -0.00271276 0.00715414 ) 0 
( -0.0023792 -0.00372962 0.00714143 ) 0 
( -0.00169897 -0.00305054 0.0074131 ) 0 
( -0.000683606 -0.000387217 0.00755617 ) 0 
( -0.00299277 -0.00470387 0.00779866 ) 0 
( -0.00132056 -0.00421618 0.00730597 ) 0 
( -0.00191692 -0.000595793 0.00726596 ) 0 
( -0.00442766 -0.00360207 0.0076069 ) 0 
( -0.000154649 -0.0014459 0.00749511 ) 0 
( -0.000617642 -0.00227145 0.00693256 ) 0 
( -0.00317126 -0.00124957 0.00758179 ) 0 
( -0.00296573 -0.000551654 0.00689671 ) 0 
( -0.000326824 -0.00430329 0.0073689 ) 0 
( -0.00428252 -0.0013244 0.0076865 ) 0 
( -0.00397171 -0.00475925 0.00686655 ) 0 
( -0.00226705 -0.00152117 0.00791082 ) 0 
( -0.000808844 -0.00348561 0.00775476 ) 0 
( -0.000935469 -0.0045322 0.00817067 ) 0 
( -0.0036372 -0.000789319 0.00833717 ) 0 
( -0.00336462 -8.07732e-06 0.00777592 ) 0 
( -0.00263424 -0.00308428 0.00786085 ) 0 
( -0.00435128 -0.000334548 0.00780586 ) 0 
( -0.0032946 -0.00376601 0.00754792 ) 0 
( -0.00149466 -0.00213763 0.00776241 ) 0 
( -0.00396137 -0.00445952 0.00781957 ) 0 
( -0.00142123 -0.00100237 0.00803207 ) 0 
( -0.00476263 -0.00217339 0.0079024 ) 0 
( -0.00056492 -0.00252673 0.00789762 ) 0 
( -0.000621587 -0.000651385 0.00851746 ) 0 
( -0.00257598 -0.000576305 0.00801732 ) 0 
( -0.0015585 -0.00326637 0.00837784 ) 0 
( -0.00387501 -0.00371901 0.00848471 ) 0 
( -0.00201668 -0.00407349 0.00800731 ) 0 
( -0.000695653 -0.00162833 0.00831573 ) 0 
( -0.00394418 -0.00191601 0.00841652 ) 0 
( -0.00289501 -0.00390921 0.00845355 ) 0 
( -0.00220551 -0.00237762 0.0084225 ) 0 
( -0.00308916 -0.0021728 0.0079693 ) 0 
( -0.00373293 -0.0029324 0.00788551 ) 0 
( -0.000151572 -0.00324283 0.00846614 ) 0 
( -0.00458369 -0.00301916 0.00840242 ) 0 
( -0.00240682 -0.00477172 0.00860562 ) 0 
( -0.00325495 -0.00277586 0.00874886 ) 0 
( -0.00463515 -0.000487878 0.00876489 ) 0 
( -9.0847e-05 -0.00427352 0.00863615 ) 0 
( -0.00179024 -0.0015408 0.00878885 ) 0 
( -0.00191348 -0.00053365 0.00876412 ) 0 
( -0.00294665 -0.0014458 0.00863938 ) 0 
( -0.00237747 -0.00321105 0.00894719 ) 0 
( -0.000261134 -0.00233643 0.00887186 ) 0 
( -0.000327864 -0.000250651 0.00938448 ) 0 
( -0.00287562 -0.000532771 0.00903817 ) 0 
( -0.000162563 -0.00131846 0.00910251 ) 0 
( -0.00464314 -0.00225556 0.00904385 ) 0 
( -0.00381818 -0.000376123 0.00933116 ) 0 
( -0.00124498 -0.00237398 0.00870054 ) 0 
( -0.00347328 -0.00197419 0.00930396 ) 0 
( -0.00321121 -0.00457892 0.00916686 ) 0 
( -0.0041851 -0.00128905 0.00915591 ) 0 
( -0.0048384 -0.00397899 0.00852009 ) 0 
( -0.00117392 -0.000938738 0.00929936 ) 0 
( -0.00251109 -0.00227363 0.00936819 ) 0 
( -0.00146089 -0.00309609 0.00935763 ) 0 
( -0.00181056 -0.00160283 0.00978593 ) 0 
( -0.00119065 -0.000119359 0.00987199 ) 0 
( -0.000464221 -0.00315263 0.00941173 ) 0 
( -0.000894134 -0.00187776 0.00949401 ) 0 
( -0.00446845 -0.00345127 0.00929561 ) 0 
( -0.00290184 -0.000120953 0.00994822 ) 0 
( -0.00333045 -0.00359723 0.00931313 ) 0 
( -0.000958922 -0.00386173 0.00891106 ) 0 
( -0.00381544 -0.00281976 0.00971203 ) 0 
( -0.00206925 -0.000635275 0.0097458 ) 0 
( -0.00479164 -0.00273213 0.00990967 ) 0 
( -0.00276666 -0.00134007 0.00961702 ) 0 
( -0.00468004 -0.00173886 0.00989812 ) 0 
( -0.000471457 -0.00102093 0.0100054 ) 0 
( -0.00147029 -0.00473412 0.00899001 ) 0 
( -0.00421669 -0.00441022 0.00917358 ) 0 
( -0.00284608 -0.000934317 0.0105269 ) 0 
( -0.00194125 -0.00397 0.00942972 ) 0 
( -0.00224598 -0.0049817 0.00956949 ) 0 
( -0.00268089 -0.00310667 0.00989349 ) 0 
( -0.00105194 -0.00426446 0.00982057 ) 0 
( -0.0048156 -0.000173836 0.00969662 ) 0 
( -0.00313576 -0.00226955 0.0101967 ) 0 
( -0.00367379 -0.00111101 0.00999564 ) 0 
( -0.000124485 -0.00235813 0.00991371 ) 0 
( -0.00498358 -0.00395784 0.00998591 ) 0 
( -0.00187178 -0.00255319 0.0100895 ) 0 
( -0.00468011 -0.00491031 0.0100058 ) 0 
( -0.00277145 -0.00409899 0.00997146 ) 0 
( -0.00138434 -0.000943699 0.0104047 ) 0 
( -0.00396263 -0.00393036 0.0100125 ) 0 
( -0.0040084 -0.000186021 0.0102939 ) 0 
( -0.00206887 -0.000511132 0.0109908 ) 0 
( -0.00140112 -0.0034533 0.0102893 ) 0 
( -0.000162835 -0.00170285 0.0106675 ) 0 
( -0.00234996 -0.00180397 0.010603 ) 0 
( -0.000659167 -0.000320686 0.0106959 ) 0 
( -0.00253715 -0.00276797 0.0108228 ) 0 
( -0.00188399 -0.00432508 0.0103706 ) 0 
( -0.0033967 -0.00165769 0.0109429 ) 0 
( -0.00332921 -0.00341495 0.0105888 ) 0 
( -0.000975684 -0.0022358 0.0104232 ) 0 
( -0.000512031 -0.00404232 0.0106319 ) 0 
( -0.00408901 -0.00227214 0.0105023 ) 0 
( -0.000216222 -0.00479839 0.0100489 ) 0 
( -0.00321976 -4.00568e-05 0.0108923 ) 0 
( -0.00117098 -0.00472547 0.0109452 ) 0 
( -0.00478627 -0.00437665 0.0108717 ) 0 
( -0.00119819 -0.000773105 0.0114061 ) 0 
( -0.00299004 -0.00436858 0.0109089 ) 0 
( -0.00255608 -0.00127004 0.0114227 ) 0 
( -0.00485001 -0.000132466 0.010831 ) 0 
( -0.0043227 -0.00323564 0.0106347 ) 0 
( -0.00147989 -0.00167503 0.0110793 ) 0 
( -0.00155874 -0.00277778 0.0110271 ) 0 
( -0.00208432 -0.00362732 0.0110573 ) 0 
( -0.00345581 -0.00262606 0.0111899 ) 0 
( -0.00402472 -0.00051731 0.0112433 ) 0 
( -0.00388109 -0.00471912 0.0106212 ) 0 
( -0.00218916 -0.00218981 0.0115601 ) 0 
( -0.00431557 -0.00132525 0.0107317 ) 0 
( -0.00443511 -0.00258519 0.0113864 ) 0 
( -0.00200755 -0.000646308 0.0119794 ) 0 
( -0.00295059 -0.0034258 0.011514 ) 0 
( -0.00025303 -0.00109484 0.0114556 ) 0 
( -0.000528972 -0.00289633 0.0110259 ) 0 
( -0.00112 -0.0036472 0.01132 ) 0 
( -0.00101452 -0.0022937 0.0117119 ) 0 
( -0.00390572 -0.00392445 0.0112273 ) 0 
( -0.00316442 -0.000548119 0.0117517 ) 0 
( -0.0019403 -0.00309896 0.0118937 ) 0 
( -0.00488898 -0.00165662 0.0114807 ) 0 
( -3.6695e-05 -0.00218841 0.0115322 ) 0 
( -0.00490894 -0.000677369 0.0116815 ) 0 
( -0.00204836 -0.00456644 0.0113974 ) 0 
)
