FoamFile
{version 2.0; format ascii;class vectorField; location 0;object  v;}
356
(
( 5.50177e-07 -4.13667e-06 -1.30743e-05 )  
( 2.51566e-07 -1.96394e-06 -9.65897e-06 )  
( 8.29172e-06 6.5935e-06 -1.2901e-05 )  
( 2.89845e-07 -2.3049e-06 -1.49059e-05 )  
( 1.21426e-06 -9.02795e-07 -1.57346e-05 )  
( 3.59373e-07 3.77225e-06 -1.26693e-05 )  
( -2.27524e-07 5.77975e-07 -1.25209e-05 )  
( 8.62115e-07 -1.31492e-07 -1.68295e-05 )  
( 1.68885e-07 -3.61519e-06 -1.58367e-05 )  
( 1.50023e-07 -5.34232e-07 -7.36865e-06 )  
( 9.19952e-06 -4.12304e-06 -1.28668e-05 )  
( 2.23827e-06 -2.59149e-06 -1.5283e-05 )  
( -4.00918e-07 1.13372e-06 -6.50032e-06 )  
( 4.09724e-06 -3.0332e-07 -3.11971e-05 )  
( 7.85588e-07 -2.84157e-06 -1.39414e-05 )  
( -1.21626e-06 -5.91292e-06 -2.86855e-05 )  
( 2.76803e-06 -6.84722e-07 -1.26141e-05 )  
( 2.08096e-06 -1.8115e-07 -1.45623e-05 )  
( -6.62162e-07 -4.19329e-06 -1.29872e-05 )  
( -1.02557e-06 -2.57211e-06 -1.25213e-05 )  
( -1.34409e-06 -2.84031e-07 -1.13598e-05 )  
( 1.33645e-06 2.6894e-07 -1.58289e-05 )  
( -1.93873e-06 4.04179e-07 -1.46659e-05 )  
( -1.05913e-06 -1.3173e-06 -2.47106e-05 )  
( 4.24273e-06 -4.45436e-06 -1.04347e-05 )  
( 9.35755e-07 -3.02087e-06 -1.62014e-05 )  
( 4.48056e-06 2.85909e-06 -1.40574e-05 )  
( -2.44547e-06 -4.42158e-06 -1.76751e-05 )  
( 2.20085e-06 -1.99157e-06 -2.82804e-05 )  
( -1.258e-06 2.11787e-07 -2.68483e-05 )  
( -8.12679e-07 -4.65937e-06 -2.42095e-05 )  
( -3.46194e-06 -2.43919e-06 -3.19443e-05 )  
( 1.06132e-06 -4.77844e-07 -1.31094e-05 )  
( 2.15629e-06 -1.65146e-06 -2.69428e-05 )  
( -1.12278e-06 4.12706e-06 -2.60227e-05 )  
( 4.61375e-06 -1.77094e-06 -2.92788e-05 )  
( -3.09179e-07 3.1192e-06 -2.76013e-05 )  
( 2.30676e-07 -4.46397e-06 -1.38167e-05 )  
( 3.48287e-06 1.29495e-06 -3.25188e-05 )  
( 6.00272e-07 -4.29929e-06 -2.91637e-05 )  
( -4.03346e-06 1.4743e-06 -2.39669e-05 )  
( -1.07063e-06 7.94441e-06 -3.12235e-05 )  
( -1.07294e-06 -3.61064e-07 -4.29238e-05 )  
( 1.61233e-06 -7.76143e-07 -2.33688e-05 )  
( 7.76105e-07 -9.22828e-08 -2.66716e-05 )  
( -1.65119e-06 -2.40529e-06 -3.7353e-05 )  
( 1.35203e-07 2.72332e-06 -3.1862e-05 )  
( 1.66542e-06 -3.57218e-06 -2.58174e-05 )  
( -2.33596e-06 -1.39186e-06 -3.04937e-05 )  
( 2.99283e-06 6.05169e-07 -5.06993e-05 )  
( 3.06574e-06 3.97334e-06 -3.4424e-05 )  
( -2.43195e-06 -2.78584e-06 -4.5999e-05 )  
( 9.66458e-07 1.91013e-06 -2.69644e-05 )  
( -3.20885e-06 -1.46076e-06 -4.79939e-05 )  
( 1.05706e-06 -4.60826e-06 -4.34983e-05 )  
( 9.03091e-07 7.15683e-07 -2.97523e-05 )  
( 1.18441e-06 2.83772e-06 -3.15247e-05 )  
( -1.81563e-06 4.90657e-07 -4.50634e-05 )  
( 3.15558e-06 -3.22442e-06 -4.25832e-05 )  
( 2.08608e-06 -3.8849e-06 -3.6245e-05 )  
( 1.24392e-06 3.70568e-06 -4.97494e-05 )  
( 1.96193e-07 -5.60352e-06 -3.8514e-05 )  
( 4.24264e-07 3.99129e-06 -2.87334e-05 )  
( -2.05236e-06 -6.03323e-06 -5.13822e-05 )  
( 1.74939e-06 -1.06666e-06 -3.75221e-05 )  
( 2.12729e-06 -5.15128e-06 -4.16025e-05 )  
( 1.45192e-05 -6.66952e-06 -4.83294e-05 )  
( -4.43156e-06 -2.5512e-06 -4.72282e-05 )  
( -2.00901e-06 1.66732e-06 -5.26745e-05 )  
( 4.24039e-07 -2.80514e-06 -4.07311e-05 )  
( 3.64505e-06 6.92289e-07 -6.16191e-05 )  
( -6.40378e-07 -2.25022e-06 -4.50214e-05 )  
( -5.36211e-06 -1.31311e-06 -6.11866e-05 )  
( 1.38522e-06 -2.22527e-06 -6.52181e-05 )  
( 1.28139e-06 -1.86263e-06 -5.98021e-05 )  
( -1.57013e-06 -1.42821e-06 -6.39502e-05 )  
( -7.0815e-06 -1.39097e-06 -5.86571e-05 )  
( 2.02895e-06 2.00672e-06 -6.0756e-05 )  
( 1.51423e-06 -9.43892e-06 -6.38302e-05 )  
( -6.45849e-06 4.60405e-06 -5.23144e-05 )  
( 2.97857e-06 -1.53408e-06 -4.86747e-05 )  
( -1.96084e-06 4.4146e-06 -5.15933e-05 )  
( -8.87623e-06 -2.68337e-06 -6.5409e-05 )  
( -3.70295e-06 -1.49894e-06 -6.05691e-05 )  
( 3.23305e-06 1.17212e-06 -6.47783e-05 )  
( -5.74427e-06 3.56909e-06 -5.45242e-05 )  
( 3.33069e-06 1.11904e-06 -6.16203e-05 )  
( 1.11794e-05 -9.68016e-06 -5.67486e-05 )  
( 3.86517e-06 -2.07362e-06 -7.12296e-05 )  
( -4.2081e-06 -7.65222e-06 -4.95956e-05 )  
( 4.43458e-06 -8.89607e-06 -6.0414e-05 )  
( 1.59664e-06 -1.76848e-06 -8.84124e-05 )  
( 4.703e-06 8.47396e-07 -5.60872e-05 )  
( -5.82206e-06 -3.32474e-06 -7.07146e-05 )  
( 4.08002e-06 -9.25762e-07 -6.19158e-05 )  
( -4.74422e-07 3.35665e-07 -7.41725e-05 )  
( 4.69662e-06 -1.41754e-06 -5.67192e-05 )  
( -1.77521e-06 2.39457e-06 -6.97123e-05 )  
( 6.3604e-06 -5.53136e-07 -7.90543e-05 )  
( 1.24142e-05 3.1637e-06 -8.05092e-05 )  
( -3.76096e-06 -6.67457e-08 -6.58818e-05 )  
( 4.74933e-07 6.28894e-06 -6.21117e-05 )  
( 7.34887e-06 -7.14649e-06 -8.16426e-05 )  
( -2.59255e-06 6.05403e-07 -7.85123e-05 )  
( -1.31637e-06 -3.90247e-06 -7.81616e-05 )  
( 5.04182e-06 3.93995e-06 -7.6619e-05 )  
( -4.57332e-06 1.75061e-06 -7.53992e-05 )  
( -5.47032e-06 -1.27154e-07 -7.5165e-05 )  
( -2.82125e-06 -2.60158e-06 -7.94454e-05 )  
( -2.03843e-06 -2.01925e-07 -8.13191e-05 )  
( 4.60704e-06 -2.62138e-06 -8.49658e-05 )  
( 7.61992e-06 -2.1742e-06 -7.97141e-05 )  
( -5.7045e-07 -1.12113e-06 -7.62614e-05 )  
( 7.2835e-06 -4.5026e-06 -7.24299e-05 )  
( 5.82866e-06 1.0188e-06 -5.82001e-05 )  
( -2.74272e-06 2.58893e-07 -8.54901e-05 )  
( -1.86587e-06 -4.49817e-06 -8.6152e-05 )  
( 7.39888e-06 8.446e-07 -6.81493e-05 )  
( -3.33767e-06 -7.76591e-06 -9.70604e-05 )  
( -7.08241e-06 -3.94144e-06 -9.11639e-05 )  
( 8.97656e-07 -7.5139e-07 -9.45431e-05 )  
( -3.61542e-06 1.05812e-05 -8.61579e-05 )  
( -2.83908e-06 -1.3304e-06 -9.37079e-05 )  
( -5.57462e-06 1.08189e-05 -7.33389e-05 )  
( 7.49599e-06 -6.99126e-06 -8.81763e-05 )  
( -1.30271e-06 -4.06177e-06 -8.59096e-05 )  
( -8.90835e-07 1.43167e-06 -8.98328e-05 )  
( -3.57765e-06 8.39993e-07 -8.05843e-05 )  
( -1.11032e-06 -3.88028e-06 -9.95458e-05 )  
( -1.51962e-06 -6.24664e-07 -8.94177e-05 )  
( 1.01502e-06 9.40712e-07 -9.7625e-05 )  
( 5.19669e-06 -1.98161e-06 -9.45309e-05 )  
( 8.12257e-06 -1.83364e-06 -9.44898e-05 )  
( 7.38875e-06 -7.89749e-06 -8.41876e-05 )  
( -4.21482e-06 5.95941e-06 -8.81822e-05 )  
( 7.36331e-06 -5.8526e-06 -0.000101772 )  
( 5.33605e-06 -4.20871e-06 -7.32311e-05 )  
( 9.46698e-06 -8.61196e-06 -9.30557e-05 )  
( -4.03861e-06 -1.15782e-06 -9.18049e-05 )  
( 8.90343e-07 1.12917e-06 -9.29086e-05 )  
( -1.03662e-06 -3.45466e-06 -8.42804e-05 )  
( 8.66786e-06 -9.18768e-06 -9.50239e-05 )  
( 4.90617e-06 -7.9128e-06 -9.40175e-05 )  
( -1.4012e-06 -5.37287e-06 -0.000103917 )  
( 4.80962e-06 -7.77997e-06 -0.000113551 )  
( 3.05169e-06 -8.24755e-06 -0.000105314 )  
( 2.57318e-06 -5.93476e-06 -0.000102535 )  
( 3.39724e-06 -3.23124e-06 -0.000100934 )  
( -9.65945e-07 -7.37319e-06 -0.000111035 )  
( 5.94606e-06 -5.20955e-06 -0.000102399 )  
( -1.84769e-06 -3.28573e-06 -0.000105116 )  
( 3.43698e-06 -4.94404e-06 -9.6424e-05 )  
( -3.07226e-06 -3.91764e-06 -9.68854e-05 )  
( 6.3986e-06 -9.06943e-06 -0.000109881 )  
( -1.88814e-06 -4.00639e-06 -0.000107096 )  
( -1.20657e-06 8.73122e-07 -0.000104191 )  
( 1.40066e-07 -3.3485e-06 -0.000109397 )  
( 2.27871e-06 -6.09397e-06 -0.000107741 )  
( 3.53021e-06 -5.75083e-06 -0.000105989 )  
( -2.86724e-06 -5.84977e-06 -9.40081e-05 )  
( 2.69515e-08 -4.68069e-06 -0.000113878 )  
( -3.92975e-07 -4.77697e-06 -0.000114314 )  
( 4.12263e-06 -6.63218e-06 -0.000114597 )  
( 1.47729e-06 -3.53808e-06 -0.000104294 )  
( 3.37728e-06 -8.65117e-06 -0.000106433 )  
( 3.82094e-06 -4.32938e-06 -0.000116429 )  
( 1.53989e-06 -8.62481e-06 -0.000106396 )  
( 1.27695e-06 -6.55167e-06 -0.000113002 )  
( 3.66089e-06 -4.62269e-06 -0.00011422 )  
( -2.84892e-06 -5.10848e-06 -0.000113394 )  
( -9.01066e-07 -3.82064e-06 -0.000116418 )  
( -3.0763e-06 5.43671e-07 -0.000102669 )  
( 1.97888e-06 -8.50682e-06 -0.000104966 )  
( -1.12313e-06 -6.84093e-06 -0.000119903 )  
( -2.25937e-06 -2.11221e-06 -0.000114204 )  
( 5.77044e-06 -6.87958e-06 -0.000119597 )  
( 1.21536e-06 -6.8222e-06 -0.000111498 )  
( 1.88031e-07 -4.51222e-06 -0.000114136 )  
( -5.10514e-07 -1.14105e-06 -0.000120145 )  
( 5.5757e-06 -5.00553e-06 -0.000113874 )  
( 2.79204e-06 -6.20197e-06 -0.000114792 )  
( 2.49299e-06 -2.46981e-06 -0.000111317 )  
( 1.0511e-06 -4.47772e-06 -0.000114162 )  
( 1.60409e-06 -2.04794e-06 -0.000120041 )  
( -1.56178e-06 -6.40507e-06 -0.000125363 )  
( 5.91314e-07 -4.79904e-06 -0.000123516 )  
( 1.42006e-06 -3.46735e-06 -0.000122616 )  
( 3.5081e-06 -4.31038e-06 -0.000123276 )  
( -9.52398e-07 -4.64293e-06 -0.000128667 )  
( 6.68832e-07 -4.30294e-06 -0.000126298 )  
( -1.14455e-06 -6.4628e-06 -0.000128886 )  
( 2.15073e-06 -4.31862e-06 -0.000127569 )  
( 3.81814e-06 -1.01336e-05 -0.000119821 )  
( -2.31824e-08 -3.35174e-06 -0.00012162 )  
( 2.58866e-06 -3.12857e-06 -0.00012286 )  
( 2.71167e-06 -6.97383e-06 -0.000118529 )  
( 4.30153e-07 -4.47272e-06 -0.000123647 )  
( 4.94402e-06 -2.71312e-06 -0.000122299 )  
( 9.31766e-07 -5.09103e-06 -0.000121698 )  
( 9.0997e-07 -4.40266e-06 -0.000123418 )  
( -4.27467e-06 -4.42952e-06 -0.000116093 )  
( 1.55131e-06 -4.63635e-06 -0.000123433 )  
( 2.11305e-06 -4.03368e-06 -0.000124785 )  
( 2.46812e-07 -4.86558e-06 -0.000134262 )  
( -1.23725e-06 -5.60992e-06 -0.000127041 )  
( 6.25668e-07 -4.8701e-06 -0.000127476 )  
( 7.20353e-07 -4.00864e-06 -0.000125164 )  
( -9.05109e-07 -4.4185e-06 -0.00013304 )  
( 4.03874e-07 -3.3221e-06 -0.000129487 )  
( -3.96719e-06 -5.09292e-06 -0.000128172 )  
( -4.16675e-06 -4.81536e-06 -0.000129995 )  
( -1.00784e-06 -5.0056e-06 -0.000132306 )  
( -1.76848e-06 -1.27874e-06 -0.0001325 )  
( -1.88486e-06 -4.43441e-06 -0.000127177 )  
( 6.86201e-07 -5.24176e-06 -0.000129683 )  
( 5.95565e-06 -3.80755e-06 -0.000123279 )  
( 9.28494e-08 -6.11224e-06 -0.000130708 )  
( -7.69579e-07 -3.51716e-06 -0.000129769 )  
( 2.04848e-06 -3.2534e-06 -0.000125191 )  
( 1.21274e-06 -4.7316e-06 -0.000128552 )  
( -1.09748e-07 -3.83704e-06 -0.000133757 )  
( -2.81049e-06 -5.2857e-06 -0.000140726 )  
( 4.45097e-07 -4.68195e-06 -0.0001321 )  
( 3.06213e-07 -3.44457e-06 -0.000130541 )  
( 5.67544e-07 -7.22932e-06 -0.000134445 )  
( 3.23893e-06 -3.10113e-06 -0.000128312 )  
( -1.51325e-06 -4.81243e-06 -0.00013868 )  
( 1.13181e-06 -5.47359e-06 -0.000132024 )  
( -2.22541e-06 -1.82203e-07 -0.000140424 )  
( 5.77088e-06 2.19125e-07 -0.00012929 )  
( -3.71761e-08 -5.27393e-06 -0.000133199 )  
( -1.47933e-06 -3.78451e-06 -0.000134293 )  
( 4.15845e-06 -6.37676e-06 -0.00012463 )  
( -2.94157e-06 -4.26946e-06 -0.00013831 )  
( -1.77403e-06 -3.34928e-06 -0.000134261 )  
( 1.48053e-07 -3.57269e-06 -0.0001368 )  
( -4.16258e-06 -2.66866e-06 -0.000143787 )  
( -3.06607e-07 -1.01998e-06 -0.000137749 )  
( 8.13641e-07 -4.35768e-06 -0.000134203 )  
( -2.38638e-06 -1.29349e-06 -0.000139395 )  
( 2.59513e-06 -5.80341e-06 -0.000126887 )  
( -1.95282e-06 -3.36886e-06 -0.000138077 )  
( 4.61098e-07 -3.21275e-06 -0.000131125 )  
( -1.72702e-06 -3.69337e-06 -0.000141241 )  
( -4.87614e-07 -4.07846e-06 -0.000135434 )  
( -9.79044e-07 -2.48444e-06 -0.000138221 )  
( -9.04524e-07 -2.98437e-06 -0.000146809 )  
( -2.02409e-06 -4.96498e-06 -0.000143058 )  
( -1.00349e-06 -2.38857e-06 -0.000138991 )  
( 4.17736e-07 -4.42388e-06 -0.000134375 )  
( 6.05825e-07 -4.64681e-06 -0.000134085 )  
( 3.01496e-07 -2.89109e-06 -0.000143925 )  
( -4.01385e-06 -4.82484e-06 -0.000141627 )  
( -3.6115e-07 -4.3957e-06 -0.000138365 )  
( -3.45525e-07 -3.36888e-06 -0.000140404 )  
( -2.47881e-06 -7.20164e-06 -0.000138124 )  
( -1.92185e-06 -6.06004e-06 -0.000132947 )  
( -6.22457e-07 -3.93731e-06 -0.000142136 )  
( 4.27065e-08 -2.74188e-06 -0.000134524 )  
( -1.0319e-06 -5.03843e-06 -0.000135083 )  
( -9.47336e-07 -3.92787e-06 -0.000139112 )  
( -2.59384e-06 -3.05996e-06 -0.000147256 )  
( -5.83569e-07 -3.77905e-06 -0.000138653 )  
( 2.664e-07 -1.75621e-06 -0.000144299 )  
( -1.89026e-06 -3.67255e-06 -0.000147627 )  
( -7.41576e-06 -4.32941e-06 -0.000143634 )  
( -2.07659e-06 -2.71624e-06 -0.000141415 )  
( 9.35546e-07 -3.46202e-06 -0.000146743 )  
( 1.07491e-06 -3.27569e-06 -0.000151204 )  
( -5.54193e-06 -3.4416e-06 -0.000149939 )  
( -1.2088e-06 -3.63989e-06 -0.000147841 )  
( -3.40866e-06 -1.7022e-06 -0.000142594 )  
( -4.85651e-06 -9.32806e-07 -0.000150646 )  
( -1.71033e-07 -2.44783e-06 -0.000144378 )  
( -6.43119e-06 -3.32951e-06 -0.000143585 )  
( -1.83769e-06 -3.98304e-06 -0.000139066 )  
( -3.92871e-06 -2.36777e-06 -0.000146608 )  
( -9.65704e-08 -1.5962e-06 -0.000131004 )  
( 5.9049e-08 -1.25602e-06 -0.00015183 )  
( -5.14603e-06 -3.63569e-06 -0.00014704 )  
( -2.3642e-06 -2.9525e-06 -0.000145085 )  
( 8.57995e-07 -1.5384e-06 -0.000150514 )  
( -2.72171e-06 -6.33409e-06 -0.000152602 )  
( -2.20486e-06 -1.51784e-06 -0.000144446 )  
( 2.89137e-06 1.17564e-06 -0.000153591 )  
( -1.29855e-06 -3.32586e-07 -0.000138414 )  
( -3.02637e-06 -6.01261e-06 -0.000151747 )  
( 2.80895e-07 -2.63858e-06 -0.000136768 )  
( -1.94814e-06 -2.19828e-06 -0.000138962 )  
( -2.09717e-06 -1.07892e-06 -0.000140708 )  
( -4.46221e-06 -8.03236e-06 -0.000151292 )  
( -4.04172e-06 2.65072e-06 -0.000141012 )  
( -3.71163e-06 -4.19946e-06 -0.000148955 )  
( -3.44053e-06 2.09451e-06 -0.000147087 )  
( -2.99686e-06 2.8371e-08 -0.0001523 )  
( -1.62218e-06 -4.062e-06 -0.000142006 )  
( -4.28242e-07 -1.43746e-06 -0.000136293 )  
( -4.41744e-06 -1.88027e-07 -0.000150231 )  
( -3.87525e-06 -4.23968e-06 -0.000146465 )  
( 4.38091e-06 -4.6169e-06 -0.000135213 )  
( -9.9576e-07 -1.33343e-06 -0.000140848 )  
( 2.03613e-06 -3.83312e-07 -0.000138375 )  
( -5.12935e-06 -1.80524e-06 -0.000148073 )  
( -1.76244e-06 6.15871e-07 -0.000145454 )  
( -1.80483e-07 -8.58578e-06 -0.000151372 )  
( -1.20738e-07 1.01426e-06 -0.000151014 )  
( 1.12646e-06 8.50527e-06 -0.000133303 )  
( -4.48763e-06 9.27181e-07 -0.0001505 )  
( 5.53802e-06 6.48837e-06 -0.000134409 )  
( 6.61636e-07 -4.16594e-06 -0.000139225 )  
( -3.17128e-06 -3.95701e-07 -0.000152753 )  
( -1.51316e-06 7.30775e-06 -0.000140199 )  
( -8.67579e-07 -6.18259e-06 -0.000152765 )  
( -2.0334e-06 1.39708e-06 -0.000148544 )  
( -1.5665e-05 4.68392e-06 -0.000143308 )  
( -1.80479e-06 3.55489e-06 -0.000153928 )  
( -2.98083e-06 6.42058e-06 -0.000151042 )  
( -8.40383e-07 -2.6894e-06 -0.000147105 )  
( 1.27848e-06 3.69049e-07 -0.000146611 )  
( 2.00178e-06 -4.48423e-06 -0.000138398 )  
( -1.73312e-06 -1.01056e-06 -0.000146962 )  
( -1.10431e-05 1.01827e-05 -0.000135204 )  
( -2.75799e-06 -1.41946e-06 -0.000161043 )  
( 4.05728e-06 4.66152e-07 -0.000142663 )  
( 6.19774e-06 1.72251e-05 -0.000148472 )  
( 6.47666e-06 -1.80588e-06 -0.00014047 )  
( 4.89694e-06 -8.65553e-06 -0.000149352 )  
( 6.36189e-06 2.24262e-06 -0.000135933 )  
( -7.68494e-06 -5.23465e-06 -0.000139618 )  
( -3.86415e-06 -1.05249e-05 -0.000151437 )  
( -8.96586e-06 -1.45392e-06 -0.00014162 )  
( -8.08418e-06 2.27822e-06 -0.000148655 )  
( 6.52695e-07 5.53036e-06 -0.000158981 )  
( -3.29722e-05 -1.48618e-05 -0.000139455 )  
( -3.14292e-06 -2.85551e-06 -0.000161544 )  
( 1.26214e-06 -5.85124e-06 -0.000164957 )  
( -3.83733e-06 -7.29423e-07 -0.000144446 )  
( 1.03691e-05 2.77491e-05 -0.000146259 )  
( -3.84728e-06 6.40988e-06 -0.000149011 )  
( -4.70296e-06 2.95358e-06 -0.000147477 )  
( 1.11617e-05 4.70094e-06 -0.000152685 )  
( -1.63728e-06 6.53811e-06 -0.000150106 )  
( 7.67185e-06 1.70838e-05 -0.000156 )  
( -2.13152e-06 1.54361e-06 -0.000149812 )  
( 2.26264e-07 2.84989e-05 -0.000133204 )  
( -4.58863e-06 -4.44417e-06 -0.000149434 )  
( -5.22087e-06 3.56895e-06 -0.000154483 )  
( -1.35071e-06 1.1552e-06 -0.000148732 )  
( -2.32867e-06 -7.11783e-06 -0.000166906 )  
( -2.33214e-05 -5.33891e-06 -0.000141728 )  
( -3.79229e-06 5.35971e-06 -0.000148882 )  
( 4.70404e-05 7.57238e-06 -0.000152006 )  
( -3.23974e-06 1.29572e-05 -0.00014634 )  
( -3.0165e-06 8.44935e-06 -0.000156088 )  
( -2.85989e-06 1.59496e-05 -0.000150547 )  
( 8.93556e-07 -3.23123e-06 -0.000142553 )  
)
