/*--------------------------------*- C++ -*----------------------------------*\
| =========                 |                                                 |
| \\      /  F ield         | OpenFOAM: The Open Source CFD Toolbox           |
|  \\    /   O peration     | Version:  5.x                                   |
|   \\  /    A nd           | Web:      www.OpenFOAM.org                      |
|    \\/     M anipulation  |                                                 |
\*---------------------------------------------------------------------------*/
FoamFile
{
    version     2.0;
    format      ascii;
    class       volScalarField;
    location    "50000";
    object      p;
}
// * * * * * * * * * * * * * * * * * * * * * * * * * * * * * * * * * * * * * //

dimensions      [0 2 -2 0 0 0 0];

internalField   nonuniform List<scalar> 
2250
(
-3.10001e-10
-2.70839e-10
-2.31684e-10
-2.02817e-10
-1.85621e-10
-3.30285e-10
-2.84376e-10
-2.4054e-10
-2.09411e-10
-1.90295e-10
-3.37758e-10
-2.9202e-10
-2.42573e-10
-2.10968e-10
-1.94621e-10
-3.15529e-10
-2.9541e-10
-2.51787e-10
-2.30191e-10
-2.24327e-10
-2.10072e-10
-2.66112e-10
-2.73403e-10
-2.89998e-10
-3.01875e-10
-8.36002e-10
-7.31124e-10
-6.38073e-10
-5.65399e-10
-5.17743e-10
-8.7228e-10
-7.55341e-10
-6.56492e-10
-5.78703e-10
-5.27119e-10
-8.83697e-10
-7.59417e-10
-6.56499e-10
-5.83535e-10
-5.44726e-10
-8.37959e-10
-7.5503e-10
-6.81939e-10
-6.43094e-10
-6.30545e-10
-5.96736e-10
-6.60208e-10
-7.19406e-10
-7.80209e-10
-8.01315e-10
-1.12571e-09
-1.01746e-09
-9.22666e-10
-8.36694e-10
-7.72715e-10
-1.15406e-09
-1.03687e-09
-9.39316e-10
-8.48886e-10
-7.85385e-10
-1.17555e-09
-1.0238e-09
-9.30597e-10
-8.60258e-10
-8.24047e-10
-1.20477e-09
-1.02218e-09
-9.68299e-10
-9.5478e-10
-9.53771e-10
-1.1165e-09
-9.70919e-10
-1.0308e-09
-1.12162e-09
-1.15308e-09
-1.15571e-09
-1.11909e-09
-1.06399e-09
-9.95463e-10
-9.38499e-10
-1.17331e-09
-1.13242e-09
-1.07513e-09
-1.00885e-09
-9.60955e-10
-1.18596e-09
-1.09973e-09
-1.05983e-09
-1.03186e-09
-1.02132e-09
-1.27143e-09
-1.09519e-09
-1.10249e-09
-1.14471e-09
-1.17246e-09
-1.44799e-09
-1.18456e-09
-1.22383e-09
-1.32726e-09
-1.37777e-09
-1.0267e-09
-1.05373e-09
-1.04936e-09
-1.02351e-09
-9.9549e-10
-1.03539e-09
-1.05881e-09
-1.056e-09
-1.04419e-09
-1.03115e-09
-1.00769e-09
-1.01199e-09
-1.04172e-09
-1.07768e-09
-1.10041e-09
-1.04557e-09
-9.91844e-10
-1.07862e-09
-1.18076e-09
-1.23637e-09
-1.31563e-09
-1.15941e-09
-1.22689e-09
-1.34532e-09
-1.40626e-09
-7.502e-10
-8.10331e-10
-8.69918e-10
-9.10644e-10
-9.25585e-10
-7.36243e-10
-8.01608e-10
-8.74696e-10
-9.38383e-10
-9.65528e-10
-6.73647e-10
-7.53416e-10
-8.66808e-10
-9.72145e-10
-1.02394e-09
-6.37226e-10
-7.18101e-10
-8.84063e-10
-1.03558e-09
-1.11018e-09
-8.05243e-10
-8.18668e-10
-9.65304e-10
-1.12256e-09
-1.20031e-09
-2.7916e-10
-4.02721e-10
-5.45451e-10
-6.61158e-10
-7.18031e-10
-2.53593e-10
-3.87154e-10
-5.52076e-10
-6.91389e-10
-7.54022e-10
-2.01613e-10
-3.46678e-10
-5.51391e-10
-7.22716e-10
-8.01307e-10
-1.67245e-10
-3.06995e-10
-5.4933e-10
-7.53353e-10
-8.5193e-10
-2.36109e-10
-3.1569e-10
-5.49895e-10
-7.79168e-10
-9.01583e-10
2.95674e-10
9.00921e-11
-1.22243e-10
-2.98408e-10
-3.886e-10
3.08993e-10
1.06015e-10
-1.32646e-10
-3.32412e-10
-4.27341e-10
3.53423e-10
1.43227e-10
-1.48373e-10
-3.84806e-10
-4.96172e-10
3.48452e-10
1.70483e-10
-1.64364e-10
-4.41182e-10
-5.76508e-10
1.94379e-10
1.03686e-10
-2.09416e-10
-5.17615e-10
-6.8629e-10
8.99702e-10
6.47435e-10
3.78292e-10
1.44787e-10
1.92596e-11
9.31621e-10
6.6559e-10
3.5476e-10
9.2212e-11
-4.3426e-11
1.01621e-09
6.81233e-10
2.86248e-10
-2.60231e-11
-1.80692e-10
1.00264e-09
6.51341e-10
1.84685e-10
-1.79867e-10
-3.56967e-10
6.74654e-10
3.97929e-10
-2.99376e-11
-4.02122e-10
-5.9413e-10
1.7048e-09
1.3404e-09
9.46596e-10
6.17763e-10
4.36841e-10
1.76689e-09
1.32874e-09
8.79744e-10
5.21078e-10
3.24846e-10
1.82228e-09
1.23985e-09
6.99128e-10
2.92321e-10
8.24175e-11
1.7457e-09
1.06116e-09
4.41516e-10
-1.12005e-11
-2.32261e-10
1.3148e-09
6.28662e-10
3.26477e-11
-4.12723e-10
-6.30275e-10
2.83188e-09
2.15334e-09
1.51913e-09
1.03644e-09
7.69891e-10
2.80407e-09
2.04109e-09
1.37142e-09
8.69729e-10
5.88729e-10
2.63103e-09
1.74855e-09
1.02883e-09
5.02994e-10
2.24405e-10
2.32153e-09
1.32392e-09
5.60907e-10
1.64603e-11
-2.55331e-10
1.82032e-09
7.44351e-10
-3.96522e-11
-5.83744e-10
-8.4009e-10
4.07249e-09
2.94879e-09
1.99578e-09
1.29923e-09
9.13747e-10
3.83693e-09
2.69808e-09
1.74622e-09
1.04645e-09
6.57672e-10
3.32719e-09
2.16658e-09
1.22625e-09
5.40609e-10
1.75002e-10
2.66256e-09
1.45054e-09
5.27584e-10
-1.34974e-10
-4.75448e-10
1.98367e-09
6.77718e-10
-2.801e-10
-9.28621e-10
-1.23698e-09
5.2497e-09
3.6488e-09
2.30433e-09
1.32105e-09
7.85076e-10
4.84042e-09
3.26936e-09
1.94697e-09
9.80255e-10
4.57903e-10
4.03654e-09
2.51901e-09
1.26359e-09
3.49537e-10
-1.41619e-10
3.01265e-09
1.53021e-09
3.54456e-10
-5.02391e-10
-9.66809e-10
2.04837e-09
5.16689e-10
-6.52407e-10
-1.4743e-09
-1.91518e-09
6.45029e-09
4.26042e-09
2.40711e-09
1.05502e-09
3.36106e-10
5.91306e-09
3.75402e-09
1.93985e-09
6.23101e-10
-7.82194e-11
4.85637e-09
2.809e-09
1.10124e-09
-1.50691e-10
-8.35136e-10
3.52485e-09
1.58491e-09
-1.61572e-11
-1.21422e-09
-1.88531e-09
2.25708e-09
3.19592e-10
-1.25561e-09
-2.44367e-09
-3.11716e-09
7.74341e-09
4.79696e-09
2.30401e-09
4.90519e-10
-4.63897e-10
7.04867e-09
4.15686e-09
1.71404e-09
-6.90382e-11
-1.01729e-09
5.75831e-09
3.01109e-09
6.6762e-10
-1.0719e-09
-2.01271e-09
4.15415e-09
1.51224e-09
-7.53781e-10
-2.45627e-09
-3.37339e-09
2.53464e-09
-1.07772e-10
-2.38162e-09
-4.08633e-09
-4.98084e-09
9.22112e-09
5.34361e-09
2.03742e-09
-3.75627e-10
-1.64197e-09
8.37501e-09
4.54843e-09
1.26961e-09
-1.13413e-09
-2.38915e-09
6.84208e-09
3.10754e-09
-1.16078e-10
-2.48677e-09
-3.71187e-09
4.865e-09
1.16125e-09
-2.01522e-09
-4.3255e-09
-5.49518e-09
2.70571e-09
-1.04332e-09
-4.22789e-09
-6.4794e-09
-7.5955e-09
1.11852e-08
6.03459e-09
1.63712e-09
-1.56127e-09
-3.21972e-09
1.01361e-08
4.98787e-09
5.98643e-10
-2.58451e-09
-4.20069e-09
8.18179e-09
3.05959e-09
-1.28804e-09
-4.41404e-09
-5.97996e-09
5.55881e-09
4.24377e-10
-3.85792e-09
-6.88884e-09
-8.41205e-09
2.58804e-09
-2.6171e-09
-6.86192e-09
-9.80335e-09
-1.13305e-08
1.38727e-08
6.96108e-09
1.11396e-09
-3.10633e-09
-5.27272e-09
1.24263e-08
5.53378e-09
-2.8288e-10
-4.46043e-09
-6.57446e-09
9.7698e-09
2.9091e-09
-2.84674e-09
-6.95757e-09
-9.04828e-09
6.19353e-09
-6.7467e-10
-6.3433e-09
-1.03812e-08
-1.24869e-08
2.10111e-09
-4.83317e-09
-1.04597e-08
-1.44646e-08
-1.6632e-08
1.75592e-08
8.31114e-09
4.91867e-10
-5.14385e-09
-8.05244e-09
1.55991e-08
6.39985e-09
-1.37831e-09
-6.97222e-09
-9.86554e-09
1.20053e-08
2.84069e-09
-4.88205e-09
-1.04478e-08
-1.33636e-08
7.12819e-09
-2.05161e-09
-9.70108e-09
-1.52493e-08
-1.82049e-08
1.49064e-09
-7.74611e-09
-1.53896e-08
-2.09429e-08
-2.39325e-08
2.29061e-08
1.03525e-08
-2.93921e-10
-7.98117e-09
-1.19981e-08
2.03315e-08
7.77453e-09
-2.85479e-09
-1.05349e-08
-1.45784e-08
1.54525e-08
2.90815e-09
-7.69664e-09
-1.53992e-08
-1.94749e-08
8.73498e-09
-3.82575e-09
-1.43854e-08
-2.21e-08
-2.61975e-08
9.33356e-10
-1.16799e-08
-2.22648e-08
-2.99823e-08
-3.40909e-08
3.04713e-08
1.31994e-08
-1.42452e-09
-1.20103e-08
-1.75833e-08
2.69427e-08
9.65036e-09
-4.98106e-09
-1.55975e-08
-2.11978e-08
2.02437e-08
2.95678e-09
-1.16876e-08
-2.23498e-08
-2.79605e-08
1.09938e-08
-6.31828e-09
-2.09546e-08
-3.16374e-08
-3.72587e-08
2.12663e-10
-1.7172e-08
-3.18758e-08
-4.25846e-08
-4.82177e-08
4.07058e-08
1.70626e-08
-2.99734e-09
-1.75698e-08
-2.52411e-08
3.58327e-08
1.21847e-08
-7.91728e-09
-2.25379e-08
-3.02022e-08
2.66633e-08
2.97198e-09
-1.71807e-08
-3.18396e-08
-3.95021e-08
1.40156e-08
-9.76905e-09
-2.99633e-08
-4.46588e-08
-5.23375e-08
-7.96554e-10
-2.47057e-08
-4.50275e-08
-5.97868e-08
-6.74588e-08
5.48357e-08
2.25136e-08
-5.0202e-09
-2.50378e-08
-3.55289e-08
4.81981e-08
1.58124e-08
-1.17912e-08
-3.18382e-08
-4.22967e-08
3.55915e-08
3.10503e-09
-2.45597e-08
-4.46365e-08
-5.51184e-08
1.82404e-08
-1.44005e-08
-4.21617e-08
-6.23152e-08
-7.2837e-08
-2.1219e-09
-3.49286e-08
-6.28852e-08
-8.31372e-08
-9.36688e-08
7.4449e-08
3.01091e-08
-7.65309e-09
-3.50562e-08
-4.93794e-08
6.53069e-08
2.08698e-08
-1.69444e-08
-4.43521e-08
-5.86729e-08
4.79093e-08
3.36073e-09
-3.45268e-08
-6.20025e-08
-7.6405e-08
2.40098e-08
-2.07144e-08
-5.8769e-08
-8.63795e-08
-1.00859e-07
-4.01731e-09
-4.89734e-08
-8.72624e-08
-1.14996e-07
-1.29538e-07
1.00956e-07
4.03376e-08
-1.12399e-08
-4.86544e-08
-6.82577e-08
8.83639e-08
2.7639e-08
-2.39913e-08
-6.14466e-08
-8.11247e-08
6.4494e-08
3.58867e-09
-4.81901e-08
-8.57939e-08
-1.05592e-07
3.16381e-08
-2.94811e-08
-8.14801e-08
-1.19254e-07
-1.39142e-07
-6.78167e-09
-6.82298e-08
-1.20416e-07
-1.58344e-07
-1.78343e-07
1.36719e-07
5.41193e-08
-1.62024e-08
-6.72835e-08
-9.41646e-08
1.19479e-07
3.66817e-08
-3.37729e-08
-8.49857e-08
-1.11976e-07
8.67441e-08
3.65332e-09
-6.70499e-08
-1.18476e-07
-1.45567e-07
4.1707e-08
-4.16469e-08
-1.12583e-07
-1.64201e-07
-1.91381e-07
-1.08197e-08
-9.44802e-08
-1.65602e-07
-2.17467e-07
-2.4479e-07
1.85512e-07
7.29149e-08
-2.30339e-08
-9.27582e-08
-1.29541e-07
1.61787e-07
4.88893e-08
-4.73065e-08
-1.17237e-07
-1.54087e-07
1.16779e-07
3.48452e-09
-9.30592e-08
-1.63265e-07
-2.00199e-07
5.52196e-08
-5.8507e-08
-1.55389e-07
-2.2587e-07
-2.62922e-07
-1.65013e-08
-1.30645e-07
-2.27928e-07
-2.98735e-07
-3.35893e-07
2.52111e-07
9.8716e-08
-3.22488e-08
-1.27174e-07
-1.77424e-07
2.19384e-07
6.55266e-08
-6.57953e-08
-1.61019e-07
-2.11308e-07
1.57571e-07
2.9974e-09
-1.28864e-07
-2.24537e-07
-2.74944e-07
7.34374e-08
-8.20472e-08
-2.14521e-07
-3.10656e-07
-3.61224e-07
-2.45441e-08
-1.80954e-07
-3.14072e-07
-4.10551e-07
-4.61187e-07
3.42978e-07
1.34569e-07
-4.44131e-08
-1.72965e-07
-2.42011e-07
2.97836e-07
8.8527e-08
-9.09255e-08
-2.20093e-07
-2.89158e-07
2.12872e-07
2.01696e-09
-1.78244e-07
-3.08375e-07
-3.77509e-07
9.7533e-08
-1.15015e-07
-2.96165e-07
-4.27212e-07
-4.96461e-07
-3.6637e-08
-2.50634e-07
-4.32566e-07
-5.64292e-07
-6.33693e-07
4.66855e-07
1.85824e-07
-6.0819e-08
-2.32439e-07
-3.2926e-07
4.04651e-07
1.21355e-07
-1.25582e-07
-2.98865e-07
-3.95312e-07
2.87435e-07
5.59331e-10
-2.46935e-07
-4.22889e-07
-5.1868e-07
1.29304e-07
-1.60886e-07
-4.09119e-07
-5.87402e-07
-6.82604e-07
-5.42389e-08
-3.46928e-07
-5.96083e-07
-7.76374e-07
-8.7165e-07
6.32733e-07
2.63955e-07
-8.63974e-08
-3.05516e-07
-4.47257e-07
5.48123e-07
1.7201e-07
-1.76282e-07
-4.00424e-07
-5.40226e-07
3.86342e-07
-1.35911e-10
-3.45009e-07
-5.7804e-07
-7.13989e-07
1.70871e-07
-2.2422e-07
-5.66733e-07
-8.06803e-07
-9.38782e-07
-8.02217e-08
-4.81726e-07
-8.24203e-07
-1.07054e-06
-1.20132e-06
8.42028e-07
3.95463e-07
-1.34634e-07
-3.86392e-07
-6.06084e-07
7.31012e-07
2.61091e-07
-2.58121e-07
-5.23705e-07
-7.37507e-07
5.09446e-07
6.01296e-09
-4.92648e-07
-7.86186e-07
-9.86841e-07
2.21867e-07
-3.08758e-07
-7.8943e-07
-1.10388e-06
-1.29001e-06
-1.22456e-07
-6.74769e-07
-1.1483e-06
-1.48499e-06
-1.66589e-06
1.09119e-06
6.19226e-07
-2.20957e-07
-4.60695e-07
-8.18442e-07
9.53782e-07
4.21961e-07
-3.89847e-07
-6.60386e-07
-1.00432e-06
6.45987e-07
2.75725e-08
-7.2358e-07
-1.06867e-06
-1.37707e-06
2.783e-07
-4.10746e-07
-1.10295e-06
-1.49468e-06
-1.76044e-06
-2.00327e-07
-9.62601e-07
-1.62233e-06
-2.08609e-06
-2.33669e-06
1.38835e-06
9.71703e-07
-3.6235e-07
-5.04063e-07
-1.09766e-06
1.24637e-06
6.8831e-07
-5.9077e-07
-7.88852e-07
-1.35836e-06
7.87076e-07
4.28636e-08
-1.09229e-06
-1.47305e-06
-1.95676e-06
3.56949e-07
-5.17971e-07
-1.52263e-06
-1.9855e-06
-2.36982e-06
-3.55609e-07
-1.4123e-06
-2.32614e-06
-2.97218e-06
-3.30525e-06
1.7501e-06
1.46614e-06
-6.14068e-07
-5.75158e-07
-1.41056e-06
1.66386e-06
1.09785e-06
-9.08451e-07
-9.26007e-07
-1.76568e-06
9.31541e-07
-9.92021e-09
-1.68391e-06
-2.11422e-06
-2.74175e-06
5.01524e-07
-6.36371e-07
-2.09206e-06
-2.62001e-06
-3.17489e-06
-6.19751e-07
-2.13133e-06
-3.34681e-06
-4.27313e-06
-4.66864e-06
2.26683e-06
2.17794e-06
-1.03441e-06
-6.79683e-07
-1.9873e-06
2.33706e-06
1.76345e-06
-1.34741e-06
-9.30799e-07
-2.31928e-06
1.20138e-06
-1.43591e-07
-2.55182e-06
-2.97872e-06
-3.80458e-06
7.12995e-07
-8.0465e-07
-2.9299e-06
-3.45613e-06
-4.26372e-06
-9.55327e-07
-3.26762e-06
-4.70023e-06
-6.15045e-06
-6.47174e-06
4.45129e-06
6.9575e-06
2.75448e-06
5.6216e-06
3.21982e-06
5.17207e-06
5.31393e-06
8.49603e-07
3.37811e-06
8.03212e-07
2.62657e-06
9.10482e-08
-3.28054e-06
-3.33256e-06
-4.02072e-06
7.45671e-07
-9.1275e-07
-4.17265e-06
-4.47595e-06
-5.46514e-06
-1.28606e-06
-5.12011e-06
-6.15986e-06
-8.29209e-06
-7.55772e-06
-3.67583e-06
-6.37134e-06
-1.18801e-05
-1.1267e-05
-1.31174e-05
-4.02598e-06
-6.65142e-06
-1.18497e-05
-1.13026e-05
-1.31947e-05
-4.65857e-06
-8.04678e-06
-1.01637e-05
-1.24395e-05
-1.367e-05
-4.45332e-06
-6.98343e-06
-1.01105e-05
-1.07914e-05
-1.23429e-05
-7.44065e-06
-1.01344e-05
-1.42521e-05
-1.75366e-05
-1.8958e-05
1.47743e-05
2.89106e-05
1.59364e-05
3.50874e-05
2.49129e-05
2.16676e-05
2.47939e-05
8.32438e-06
2.7986e-05
1.37588e-05
1.71031e-05
3.06978e-06
-7.67815e-06
-4.58535e-06
-1.89853e-06
3.09827e-07
5.90962e-06
-4.65282e-06
-1.58235e-06
-4.79396e-06
2.78318e-06
-1.29081e-05
-3.86658e-06
-1.13586e-05
4.51249e-08
-8.18311e-06
-3.2839e-05
-3.64747e-05
-4.12098e-05
-2.60421e-05
-2.17116e-05
-3.66635e-05
-3.55665e-05
-4.71922e-05
-3.12858e-05
-1.94515e-05
-2.41888e-05
-1.66705e-05
-2.56788e-05
-2.91128e-05
-3.7397e-07
-2.39676e-05
-2.22289e-05
-2.53138e-05
-2.48292e-05
-2.06542e-05
-3.60219e-06
-3.02492e-05
-3.14285e-05
-4.12503e-05
3.13074e-05
4.39281e-05
2.85318e-05
0.00010751
7.98313e-05
5.29969e-05
3.97344e-05
-2.22576e-06
9.88541e-05
1.5656e-05
8.78136e-05
-3.47559e-05
-9.85795e-05
-8.10412e-05
-3.17255e-05
-7.85599e-05
-6.59746e-06
-2.92605e-05
-2.87618e-05
-1.44407e-05
-1.29176e-05
-6.65767e-05
1.99085e-05
-4.05291e-05
4.70284e-05
0.000936346
0.000924046
0.00104654
0.000909007
0.000923557
0.00082392
0.000808316
0.000831645
0.000802832
0.000804363
0.000631975
0.000722374
0.000544814
0.000726878
0.00060267
0.000884213
0.000533048
0.000494951
0.000578937
0.000369526
0.00055976
0.000608401
0.00101507
0.000686812
0.000695023
0.0015721
0.00178808
0.00137504
0.00181028
0.00218861
0.00184021
0.00117976
0.0014226
0.000963081
0.00101311
0.00125067
0.0015061
0.0016331
0.00169217
0.00279511
0.00163766
0.00146575
0.00140696
0.00170639
0.00100791
0.00194678
0.00170901
0.00191129
0.00136459
0.00144613
0.00257898
0.00282383
0.00248294
0.00258131
0.00257638
0.00268372
0.00237881
0.00245771
0.00254711
0.00265611
0.00305016
0.0022657
0.00213525
0.0024569
0.00263321
0.00179499
0.00237774
0.00215721
0.00235706
0.00259829
0.00235612
0.00205542
0.00210471
0.00224015
0.00254853
0.00346583
0.00308378
0.00352256
0.00305701
0.00311874
0.00281801
0.00315883
0.00315515
0.00304764
0.00308168
0.0034661
0.00313257
0.00317079
0.00308378
0.00314746
0.00309335
0.0028385
0.00327404
0.00282686
0.00317785
0.00269383
0.00273479
0.00240399
0.00331043
0.00320125
0.00406909
0.0037198
0.00382381
0.00376752
0.00406672
0.0034001
0.0036859
0.0039121
0.00384829
0.00380278
0.00378067
0.00377481
0.00366667
0.00359557
0.00355924
0.00379113
0.00345736
0.00380771
0.00325105
0.0036593
0.00373924
0.00438855
0.00366399
0.00361177
0.00356636
0.0046174
0.00464749
0.00468431
0.00405105
0.00401554
0.00460003
0.0045606
0.00436891
0.00424602
0.00421468
0.00403998
0.00419491
0.00464435
0.00451886
0.00377416
0.00420264
0.00438655
0.0041981
0.00438833
0.00409777
0.00386889
0.00426753
0.0041341
0.00377871
0.00414905
0.00500513
0.00508164
0.00523164
0.00554967
0.00495914
0.00495821
0.00509155
0.00520916
0.0045487
0.0047342
0.00469549
0.00503356
0.00512165
0.00504934
0.00516695
0.00468677
0.00484427
0.00500327
0.00489835
0.00494451
0.00490819
0.00463816
0.00491158
0.00471763
0.00481401
0.00604296
0.00542787
0.005473
0.00564907
0.00549685
0.00530516
0.00553481
0.00557727
0.00566871
0.00553388
0.00546355
0.00569999
0.00544732
0.00642554
0.0055
0.00543877
0.00610872
0.00557022
0.0052317
0.00521695
0.00536742
0.00542676
0.00542244
0.00577917
0.00491453
0.00673989
0.00595958
0.00631467
0.00583494
0.00551749
0.00630813
0.00620867
0.005592
0.00595456
0.00593102
0.0060361
0.00602585
0.00617738
0.00623192
0.00630453
0.0060468
0.00608452
0.00609285
0.00593093
0.00543241
0.00621369
0.00588584
0.00626606
0.00645684
0.00613011
0.00663907
0.00649159
0.00645574
0.00646293
0.00680458
0.00660543
0.0065646
0.00655756
0.00638622
0.00655453
0.00665142
0.0064231
0.00675465
0.00659257
0.00679289
0.00668182
0.00640772
0.00670318
0.00666883
0.00653181
0.00650538
0.00665074
0.00658526
0.00657088
0.00665308
0.00674605
0.0068247
0.00664078
0.00681423
0.00677872
0.00683741
0.00678002
0.00680597
0.00678071
0.00674077
0.006763
0.00681555
0.0068072
0.0068325
0.00673538
0.00682673
0.00685487
0.0068061
0.00682045
0.00677281
0.00682648
0.00683829
0.00676142
0.00676559
0.00680516
0.00678485
0.00677696
0.00679639
0.00678055
0.00677106
0.00679477
0.00679022
0.00677512
0.00677743
0.00675834
0.0067991
0.00679501
0.00678302
0.00675348
0.00676532
0.00678315
0.00677074
0.00678286
0.00677397
0.00676873
0.00680428
0.00679345
0.00678257
0.00677584
0.0067616
0.00676783
0.00678732
0.0067532
0.00677849
0.00677419
0.00678834
0.00678827
0.00677972
0.00678483
0.00677688
0.00678053
0.00679128
0.00677714
0.00678019
0.00677158
0.00679001
0.00679723
0.00678195
0.00678573
0.00677738
0.00678698
0.00679277
0.00677728
0.006774
0.00677631
0.00678779
0.006791
0.0067833
0.00678388
0.00678064
0.00679037
0.00679161
0.0067848
0.00678683
0.00678281
0.00678995
0.00679194
0.00678413
0.00678216
0.00678003
0.00679138
0.0067924
0.0067865
0.00678735
0.00678428
0.00679562
0.00679437
0.00678872
0.0067858
0.0067838
0.00678899
0.00679179
0.00678408
0.00678702
0.00678481
0.00679159
0.00679227
0.00678745
0.00678877
0.00678647
0.0067914
0.00679253
0.0067875
0.00678676
0.00678528
0.00679283
0.00679339
0.00678922
0.00678961
0.00678778
0.00679439
0.00679462
0.00679049
0.00678901
0.00678794
0.00679209
0.00679284
0.00678875
0.00678962
0.00678827
0.00679316
0.00679316
0.00679013
0.00679052
0.00678923
0.00679337
0.0067934
0.00679041
0.00678985
0.00678891
0.00679423
0.00679413
0.00679152
0.00679146
0.00679036
0.00679537
0.00679504
0.00679257
0.00679171
0.00679091
0.00679392
0.0067937
0.00679155
0.00679155
0.00679081
0.0067944
0.00679394
0.00679218
0.00679202
0.00679133
0.0067947
0.00679421
0.00679251
0.00679197
0.00679141
0.00679528
0.00679476
0.00679325
0.00679283
0.00679226
0.00679607
0.00679545
0.00679403
0.00679337
0.00679288
0.00679506
0.00679448
0.00679335
0.00679303
0.00679264
0.0067953
0.00679465
0.00679365
0.00679328
0.00679291
0.00679557
0.00679491
0.00679395
0.00679345
0.00679312
0.00679598
0.00679533
0.00679445
0.00679397
0.00679365
0.00679651
0.00679585
0.00679501
0.00679449
0.00679418
0.00679575
0.00679517
0.00679452
0.00679416
0.00679393
0.00679589
0.0067953
0.00679468
0.00679431
0.00679409
0.0067961
0.00679551
0.00679491
0.00679452
0.0067943
0.00679641
0.00679583
0.00679526
0.00679488
0.00679466
0.00679678
0.00679622
0.00679567
0.00679528
0.00679507
0.0067962
0.00679573
0.0067953
0.00679502
0.00679486
0.00679629
0.00679583
0.00679541
0.00679512
0.00679496
0.00679645
0.00679599
0.00679558
0.00679529
0.00679514
0.00679667
0.00679623
0.00679583
0.00679555
0.00679539
0.00679695
0.00679651
0.00679613
0.00679585
0.0067957
0.00679651
0.00679616
0.00679586
0.00679565
0.00679553
0.00679657
0.00679623
0.00679593
0.00679572
0.0067956
0.00679669
0.00679635
0.00679606
0.00679585
0.00679574
0.00679686
0.00679653
0.00679624
0.00679604
0.00679593
0.00679706
0.00679674
0.00679646
0.00679626
0.00679615
0.00679673
0.00679648
0.00679626
0.0067961
0.00679602
0.00679678
0.00679653
0.00679631
0.00679616
0.00679608
0.00679687
0.00679662
0.00679641
0.00679625
0.00679617
0.00679699
0.00679675
0.00679654
0.00679639
0.00679631
0.00679714
0.0067969
0.0067967
0.00679655
0.00679648
0.00679689
0.00679671
0.00679655
0.00679644
0.00679638
0.00679693
0.00679675
0.00679659
0.00679648
0.00679642
0.00679699
0.00679681
0.00679666
0.00679655
0.00679649
0.00679708
0.00679691
0.00679676
0.00679665
0.00679659
0.00679719
0.00679702
0.00679687
0.00679677
0.00679671
0.00679701
0.00679688
0.00679677
0.00679668
0.00679664
0.00679704
0.00679691
0.00679679
0.00679671
0.00679667
0.00679709
0.00679696
0.00679684
0.00679676
0.00679672
0.00679715
0.00679703
0.00679692
0.00679684
0.00679679
0.00679723
0.00679711
0.006797
0.00679692
0.00679688
0.0067971
0.006797
0.00679692
0.00679686
0.00679683
0.00679712
0.00679702
0.00679694
0.00679688
0.00679685
0.00679716
0.00679706
0.00679698
0.00679692
0.00679689
0.0067972
0.00679711
0.00679703
0.00679697
0.00679694
0.00679726
0.00679717
0.00679709
0.00679704
0.00679701
0.00679717
0.0067971
0.00679704
0.00679699
0.00679697
0.00679718
0.00679711
0.00679705
0.00679701
0.00679698
0.00679721
0.00679714
0.00679708
0.00679703
0.00679701
0.00679724
0.00679717
0.00679712
0.00679707
0.00679705
0.00679729
0.00679722
0.00679716
0.00679712
0.0067971
0.00679721
0.00679716
0.00679712
0.00679709
0.00679707
0.00679722
0.00679717
0.00679713
0.0067971
0.00679708
0.00679724
0.00679719
0.00679715
0.00679712
0.0067971
0.00679727
0.00679722
0.00679718
0.00679715
0.00679713
0.0067973
0.00679725
0.00679721
0.00679718
0.00679716
0.00679725
0.00679721
0.00679718
0.00679716
0.00679714
0.00679726
0.00679722
0.00679719
0.00679716
0.00679715
0.00679727
0.00679723
0.0067972
0.00679718
0.00679717
0.00679729
0.00679725
0.00679722
0.0067972
0.00679719
0.00679731
0.00679728
0.00679725
0.00679722
0.00679721
0.00679727
0.00679725
0.00679722
0.00679721
0.0067972
0.00679728
0.00679725
0.00679723
0.00679721
0.0067972
0.00679729
0.00679726
0.00679724
0.00679722
0.00679721
0.0067973
0.00679728
0.00679726
0.00679724
0.00679723
0.00679732
0.00679729
0.00679727
0.00679726
0.00679725
0.00679729
0.00679727
0.00679726
0.00679724
0.00679724
0.0067973
0.00679728
0.00679726
0.00679725
0.00679724
0.0067973
0.00679728
0.00679727
0.00679726
0.00679725
0.00679731
0.0067973
0.00679728
0.00679727
0.00679726
0.00679733
0.00679731
0.00679729
0.00679728
0.00679727
0.00679731
0.00679729
0.00679728
0.00679727
0.00679727
0.00679731
0.00679729
0.00679728
0.00679727
0.00679727
0.00679732
0.0067973
0.00679729
0.00679728
0.00679727
0.00679732
0.00679731
0.0067973
0.00679729
0.00679728
0.00679733
0.00679732
0.00679731
0.0067973
0.00679729
0.00679732
0.00679731
0.0067973
0.00679729
0.00679729
0.00679732
0.00679731
0.0067973
0.00679729
0.00679729
0.00679732
0.00679731
0.0067973
0.0067973
0.00679729
0.00679733
0.00679732
0.00679731
0.0067973
0.0067973
0.00679734
0.00679733
0.00679732
0.00679731
0.00679731
0.00679732
0.00679732
0.00679731
0.0067973
0.0067973
0.00679733
0.00679732
0.00679731
0.00679731
0.0067973
0.00679733
0.00679732
0.00679731
0.00679731
0.00679731
0.00679733
0.00679733
0.00679732
0.00679731
0.00679731
0.00679734
0.00679733
0.00679732
0.00679732
0.00679732
0.00679733
0.00679732
0.00679732
0.00679731
0.00679731
0.00679733
0.00679732
0.00679732
0.00679732
0.00679731
0.00679733
0.00679733
0.00679732
0.00679732
0.00679732
0.00679734
0.00679733
0.00679733
0.00679732
0.00679732
0.00679734
0.00679733
0.00679733
0.00679733
0.00679732
0.00679733
0.00679733
0.00679733
0.00679732
0.00679732
0.00679733
0.00679733
0.00679733
0.00679732
0.00679732
0.00679734
0.00679733
0.00679733
0.00679733
0.00679732
0.00679734
0.00679733
0.00679733
0.00679733
0.00679733
0.00679734
0.00679734
0.00679733
0.00679733
0.00679733
0.00679734
0.00679733
0.00679733
0.00679733
0.00679733
0.00679734
0.00679733
0.00679733
0.00679733
0.00679733
0.00679734
0.00679734
0.00679733
0.00679733
0.00679733
0.00679734
0.00679734
0.00679733
0.00679733
0.00679733
0.00679734
0.00679734
0.00679734
0.00679733
0.00679733
0.00679734
0.00679734
0.00679733
0.00679733
0.00679733
0.00679734
0.00679734
0.00679734
0.00679733
0.00679733
0.00679734
0.00679734
0.00679734
0.00679733
0.00679733
0.00679734
0.00679734
0.00679734
0.00679734
0.00679733
0.00679734
0.00679734
0.00679734
0.00679734
0.00679734
0.00679734
0.00679734
0.00679734
0.00679734
0.00679734
0.00679734
0.00679734
0.00679734
0.00679734
0.00679734
0.00679734
0.00679734
0.00679734
0.00679734
0.00679734
0.00679734
0.00679734
0.00679734
0.00679734
0.00679734
0.00679734
0.00679734
0.00679734
0.00679734
0.00679734
0.00679734
0.00679734
0.00679734
0.00679734
0.00679734
0.00679734
0.00679734
0.00679734
0.00679734
0.00679734
0.00679734
0.00679734
0.00679734
0.00679734
0.00679734
0.00679734
0.00679734
0.00679734
0.00679734
0.00679734
0.00679734
0.00679734
0.00679734
0.00679734
0.00679734
0.00679734
0.00679734
0.00679734
0.00679734
0.00679734
0.00679734
0.00679734
0.00679734
0.00679734
0.00679734
0.00679734
0.00679734
0.00679734
0.00679734
0.00679734
0.00679734
0.00679734
0.00679734
0.00679734
0.00679734
0.00679734
0.00679734
0.00679734
0.00679734
0.00679734
0.00679734
0.00679734
0.00679734
0.00679734
0.00679734
0.00679734
0.00679734
0.00679734
0.00679734
0.00679734
0.00679734
0.00679734
0.00679734
0.00679734
0.00679734
0.00679734
0.00679734
0.00679734
0.00679734
0.00679734
0.00679734
0.00679734
0.00679734
0.00679734
0.00679734
0.00679734
0.00679734
0.00679734
0.00679734
0.00679734
0.00679734
0.00679734
0.00679734
0.00679734
0.00679734
0.00679734
0.00679734
0.00679734
0.00679734
0.00679734
0.00679734
0.00679734
0.00679734
0.00679734
0.00679734
0.00679734
0.00679734
0.00679734
0.00679734
0.00679734
0.00679734
0.00679734
0.00679734
0.00679734
0.00679734
0.00679734
0.00679734
0.00679734
0.00679734
0.00679734
0.00679734
0.00679734
0.00679734
0.00679734
0.00679734
0.00679734
0.00679734
0.00679734
0.00679734
0.00679734
0.00679734
0.00679734
0.00679734
0.00679734
0.00679734
0.00679734
0.00679734
0.00679734
0.00679734
0.00679734
0.00679734
0.00679734
0.00679734
0.00679734
0.00679734
0.00679734
0.00679734
0.00679734
0.00679734
0.00679734
0.00679734
0.00679734
0.00679734
0.00679734
0.00679734
0.00679734
0.00679734
0.00679734
0.00679734
0.00679734
0.00679734
0.00679734
0.00679734
0.00679734
0.00679734
0.00679734
0.00679734
0.00679734
0.00679734
0.00679734
0.00679734
0.00679734
0.00679734
0.00679734
0.00679734
0.00679734
0.00679734
0.00679734
0.00679734
0.00679734
0.00679734
0.00679734
0.00679734
0.00679734
0.00679734
0.00679734
0.00679734
0.00679734
0.00679734
0.00679734
0.00679734
0.00679734
0.00679734
0.00679734
0.00679734
0.00679734
0.00679734
0.00679734
0.00679734
0.00679734
0.00679734
0.00679734
0.00679734
0.00679734
0.00679734
0.00679734
0.00679734
0.00679734
0.00679734
0.00679734
0.00679734
0.00679734
0.00679734
0.00679734
0.00679734
0.00679734
0.00679734
0.00679734
0.00679734
0.00679734
0.00679734
0.00679734
0.00679734
0.00679734
0.00679734
0.00679734
0.00679734
0.00679734
0.00679734
0.00679734
0.00679734
0.00679734
0.00679734
0.00679734
0.00679734
0.00679734
0.00679734
0.00679734
0.00679734
0.00679734
0.00679734
0.00679734
0.00679734
0.00679734
0.00679734
0.00679734
0.00679734
0.00679734
0.00679734
0.00679734
0.00679734
0.00679734
0.00679734
0.00679734
0.00679734
0.00679734
0.00679734
0.00679734
0.00679734
0.00679734
0.00679734
0.00679734
0.00679734
0.00679734
0.00679734
0.00679734
0.00679734
0.00679734
0.00679734
0.00679734
0.00679734
0.00679734
0.00679734
0.00679734
0.00679734
0.00679734
0.00679734
0.00679734
0.00679734
0.00679734
0.00679734
0.00679734
0.00679734
0.00679734
0.00679734
)
;

boundaryField
{
    inlet
    {
        type            zeroGradient;
    }
    outlet
    {
        type            fixedValue;
        value           uniform 0;
    }
    repeat_boundary
    {
        type            zeroGradient;
    }
    procBoundary1to0
    {
        type            processor;
        value           nonuniform List<scalar> 
450
(
-3.10948e-10
-3.37347e-10
-3.64308e-10
-3.98359e-10
-4.57653e-10
-8.31334e-10
-8.67445e-10
-9.016e-10
-9.55047e-10
-1.09693e-09
-1.10248e-09
-1.10659e-09
-1.09566e-09
-1.07371e-09
-1.09703e-09
-1.10851e-09
-1.10456e-09
-1.07673e-09
-9.9105e-10
-7.65022e-10
-9.40298e-10
-9.51424e-10
-9.39494e-10
-8.77343e-10
-5.9534e-10
-6.10699e-10
-6.09945e-10
-6.00635e-10
-6.05009e-10
-5.0891e-10
-8.4415e-11
-5.70634e-11
-1.7194e-11
-1.08692e-11
-2.71228e-11
5.47958e-10
5.81373e-10
6.85035e-10
8.1705e-10
9.7818e-10
1.24252e-09
1.29591e-09
1.4576e-09
1.67378e-09
2.03382e-09
2.21448e-09
2.28949e-09
2.38163e-09
2.43445e-09
2.6183e-09
3.60385e-09
3.58465e-09
3.4087e-09
3.06333e-09
2.69206e-09
5.19279e-09
4.96309e-09
4.43756e-09
3.66202e-09
2.70126e-09
6.80433e-09
6.38993e-09
5.56111e-09
4.43431e-09
3.06581e-09
8.56138e-09
8.00314e-09
6.90345e-09
5.48288e-09
3.83449e-09
1.05955e-08
9.87158e-09
8.52847e-09
6.84531e-09
4.8983e-09
1.30804e-08
1.22075e-08
1.06309e-08
8.60537e-09
6.20879e-09
1.64266e-08
1.53558e-08
1.33721e-08
1.07272e-08
7.59018e-09
2.10126e-08
1.95492e-08
1.6871e-08
1.32585e-08
8.94751e-09
2.73071e-08
2.53359e-08
2.17294e-08
1.6781e-08
1.07734e-08
3.62468e-08
3.36665e-08
2.87918e-08
2.19872e-08
1.37049e-08
4.87465e-08
4.5221e-08
3.85406e-08
2.92059e-08
1.79788e-08
6.57064e-08
6.08596e-08
5.17194e-08
3.89861e-08
2.38755e-08
8.8984e-08
8.24068e-08
6.98549e-08
5.24361e-08
3.19142e-08
1.21076e-07
1.12019e-07
9.47135e-08
7.08468e-08
4.27547e-08
1.64593e-07
1.521e-07
1.28354e-07
9.57299e-08
5.73469e-08
2.23463e-07
2.06357e-07
1.73832e-07
1.2924e-07
7.6879e-08
3.0365e-07
2.80159e-07
2.35607e-07
1.74662e-07
1.03297e-07
4.13073e-07
3.8078e-07
3.19808e-07
2.36548e-07
1.39207e-07
5.6268e-07
5.18243e-07
4.34527e-07
3.20601e-07
1.8743e-07
7.68635e-07
7.06999e-07
5.91139e-07
4.34995e-07
2.52618e-07
1.05727e-06
9.69989e-07
8.06938e-07
5.92492e-07
3.40648e-07
1.47571e-06
1.34741e-06
1.1098e-06
8.1549e-07
4.5773e-07
2.09846e-06
1.90458e-06
1.54014e-06
1.14995e-06
6.09599e-07
3.02448e-06
2.72419e-06
2.12606e-06
1.67086e-06
7.88896e-07
4.3933e-06
3.90984e-06
2.90076e-06
2.45907e-06
9.86503e-07
6.54877e-06
5.64338e-06
3.9872e-06
3.6447e-06
1.25514e-06
1.19287e-05
8.92027e-06
6.07265e-06
5.86334e-06
1.74822e-06
4.38969e-06
3.14368e-06
7.61538e-07
7.27059e-07
-7.92485e-07
4.88269e-05
2.43104e-05
1.93445e-05
2.58615e-05
8.53941e-06
-1.02905e-05
3.86179e-06
-2.82843e-06
-1.05546e-05
7.89678e-06
0.000222785
-1.40281e-05
4.54461e-05
0.000104353
1.24586e-06
0.000854484
0.000894461