/*--------------------------------*- C++ -*----------------------------------*\
  =========                 |
  \\      /  F ield         | OpenFOAM: The Open Source CFD Toolbox
   \\    /   O peration     | Website:  https://openfoam.org
    \\  /    A nd           | Version:  9
     \\/     M anipulation  |
\*---------------------------------------------------------------------------*/
FoamFile
{
    format      ascii;
    class       surfaceScalarField;
    location    "90000";
    object      phi;
}
// * * * * * * * * * * * * * * * * * * * * * * * * * * * * * * * * * * * * * //

dimensions      [0 3 -1 0 0 0 0];

internalField   nonuniform List<scalar> 
25100
(
-2.14982e-05
6.19622e-05
-1000
-1.3593e-05
6.60774e-05
-1000
-2.13547e-06
6.79236e-05
-1000
4.12567e-06
7.24469e-05
-1000
-4.44794e-05
7.37842e-05
-1000
-6.66875e-05
7.96775e-05
-1000
-6.53303e-05
7.5291e-05
-1000
-4.82246e-05
7.44306e-05
-1000
-2.31382e-05
7.63443e-05
-1000
7.59452e-05
-1000
-1.59301e-05
0.000140527
-1000
-8.50727e-06
0.000143934
-1000
1.56996e-06
0.000140461
-1000
6.78351e-06
0.000134953
-1000
-4.05456e-05
0.000129021
-1000
-7.40742e-05
0.000132128
-1000
-6.59182e-05
0.000127881
-1000
-4.59483e-05
0.000130533
-1000
-2.30114e-05
0.000132614
-1000
0.000133152
-1000
-1.53343e-05
0.000197689
-1000
-1.26113e-05
0.000197295
-1000
-5.66571e-06
0.000187118
-1000
-3.25235e-06
0.000175537
-1000
-4.21907e-05
0.00017453
-1000
-7.00858e-05
0.000173564
-1000
-6.05067e-05
0.000176044
-1000
-4.37793e-05
0.000181493
-1000
-2.24515e-05
0.000182122
-1000
0.000182498
-1000
-1.82764e-05
0.000237064
-1000
-2.24363e-05
0.000226431
-1000
-1.91664e-05
0.000209676
-1000
-2.94084e-05
0.000199467
-1000
-3.43411e-05
0.000202344
-1000
-6.97189e-05
0.000221046
-1000
-5.90392e-05
0.000222606
-1000
-4.25718e-05
0.000223173
-1000
-2.29813e-05
0.00022179
-1000
0.000220356
-1000
-2.16099e-05
0.000261747
-1000
-3.00107e-05
0.000259042
-1000
-2.78432e-05
0.00025785
-1000
-3.46943e-05
0.000264232
-1000
-1.43849e-05
0.0002791
-1000
-8.01763e-05
0.000224205
-1000
-6.57168e-05
0.000227253
-1000
-4.68387e-05
0.000224889
-1000
-2.77452e-05
0.000224786
-1000
0.000222103
-1000
-2.62141e-05
0.000256369
-999.999
-3.96847e-05
0.00026215
-999.999
-3.01042e-05
0.000261853
-999.999
-1.91525e-05
0.000251676
-1000
-7.3502e-05
0.000244195
-1000
-4.47882e-05
0.000245029
-1000
-5.239e-05
0.000215849
-1000
-4.90561e-05
0.000209449
-1000
-2.78896e-05
0.000205948
-1000
0.000205124
-1000
-2.42989e-05
0.000219585
-999.999
-4.05406e-05
0.00022284
-999.999
-4.27231e-05
0.000219325
-999.999
-5.58517e-05
0.000216691
-999.999
-5.48833e-05
0.000209677
-999.999
-6.05356e-05
0.000199258
-999.999
-6.00538e-05
0.000186168
-999.999
-5.02641e-05
0.000183363
-1000
-2.78773e-05
0.000178298
-1000
0.000174379
-1000
-2.24705e-05
0.00015675
-999.999
-3.88033e-05
0.000155802
-999.999
-4.4724e-05
0.000151504
-999.999
-5.05694e-05
0.000149829
-999.999
-6.29178e-05
0.000148574
-999.999
-7.36886e-05
0.000143139
-999.999
-6.97792e-05
0.000134043
-999.999
-5.37849e-05
0.000129624
-999.999
-3.16142e-05
0.000125703
-999.999
0.000122186
-999.999
-2.46365e-05
7.89132e-05
-999.998
-4.17392e-05
7.78705e-05
-999.998
-4.85354e-05
7.6124e-05
-999.998
-5.02843e-05
7.45521e-05
-999.998
-6.84951e-05
7.45144e-05
-999.999
-8.06759e-05
6.97039e-05
-999.999
-7.2693e-05
6.68425e-05
-999.999
-5.75195e-05
6.33278e-05
-999.999
-3.41523e-05
6.23959e-05
-999.999
6.10786e-05
-999.999
-2.66498e-05
-999.998
-4.3792e-05
-999.998
-5.02977e-05
-999.998
-5.47177e-05
-999.998
-7.00988e-05
-999.998
-8.48252e-05
-999.999
-7.53187e-05
-999.999
-6.0227e-05
-999.999
-3.43999e-05
-999.999
-999.999
-4.81058e-05
0.00017086
-1000
-2.719e-05
0.000184017
-1000
-4.37118e-06
0.000187681
-1000
-1.92279e-06
0.0001929
-1000
-0.000112641
0.000192206
-1000
-0.000171736
0.000201651
-1000
-0.000159166
0.00019449
-1000
-0.000116146
0.000194494
-1000
-5.73969e-05
0.000199263
-1000
0.00019868
-1000
-3.38228e-05
0.000384588
-1000
-1.68147e-05
0.000390093
-1000
-1.35765e-06
0.000378242
-1000
-8.71854e-06
0.000361593
-1000
-0.000104477
0.000344234
-1000
-0.000181007
0.000346987
-1000
-0.00015622
0.00034241
-1000
-0.00011073
0.000349268
-1000
-5.79097e-05
0.000353739
-1000
0.000356227
-1000
-3.42371e-05
0.00053516
-1000
-2.88175e-05
0.000529714
-1000
-1.99177e-05
0.000503481
-1000
-3.22668e-05
0.000472392
-1000
-0.000108676
0.000467519
-1000
-0.000172729
0.000467883
-1000
-0.000144263
0.000472897
-1000
-0.000104861
0.000485192
-1000
-5.69523e-05
0.000486641
-1000
0.000488196
-1000
-4.47153e-05
0.000625421
-1000
-5.31098e-05
0.000602932
-1000
-5.41342e-05
0.00056869
-1000
-9.84155e-05
0.000543638
-1000
-9.40227e-05
0.000538031
-1000
-0.000153647
0.000585819
-1000
-0.000140171
0.000593462
-1000
-0.000102457
0.000587533
-1000
-5.84145e-05
0.000578637
-1000
0.000575388
-1000
-5.90867e-05
0.000698919
-1000
-6.96077e-05
0.000689115
-1000
-7.8705e-05
0.00068245
-1000
-0.000145908
0.000705522
-1000
-3.86666e-05
0.000726177
-1000
-0.000177658
0.000598046
-1000
-0.000159445
0.000596986
-1000
-0.000110452
0.000598051
-1000
-6.32537e-05
0.000598655
-1000
0.000590245
-1000
-6.66857e-05
0.000701474
-999.999
-9.73464e-05
0.000716837
-999.999
-8.19809e-05
0.000712759
-999.999
-6.53193e-05
0.000686278
-999.999
-0.000233674
0.000664262
-1000
-0.000109853
0.00066653
-1000
-0.000128893
0.000599313
-1000
-0.000117421
0.000566127
-1000
-6.41245e-05
0.000550589
-1000
0.000540537
-1000
-6.0227e-05
0.000591419
-999.999
-9.68931e-05
0.000594291
-999.999
-0.000107929
0.000580393
-999.999
-0.000126852
0.000567452
-999.999
-0.000179998
0.000559015
-999.999
-0.000154403
0.000534099
-999.999
-0.000155055
0.000498687
-999.999
-0.000128155
0.000483119
-999.999
-7.21907e-05
0.000465607
-1000
0.000450483
-1000
-5.9919e-05
0.000415824
-999.998
-9.98655e-05
0.000409912
-999.998
-0.00011968
0.000397912
-999.998
-0.00013689
0.000390984
-999.999
-0.000166623
0.000386645
-999.999
-0.000195443
0.000373442
-999.999
-0.000182641
0.000349815
-999.999
-0.000144596
0.000334956
-999.999
-8.5092e-05
0.000324778
-999.999
0.000314533
-999.999
-6.83512e-05
0.000207741
-999.998
-0.000110375
0.000207135
-999.998
-0.000132857
0.000203087
-999.998
-0.000150846
0.000198402
-999.998
-0.000182289
0.000192103
-999.998
-0.000215634
0.000181788
-999.999
-0.000194682
0.000172016
-999.999
-0.000155933
0.000162254
-999.999
-9.02559e-05
0.000159873
-999.999
0.00015786
-999.999
-7.34383e-05
-999.998
-0.000115676
-999.998
-0.000138648
-999.998
-0.000163634
-999.998
-0.00018644
-999.998
-0.000227592
-999.998
-0.000204461
-999.999
-0.00016141
-999.999
-9.03504e-05
-999.999
-999.999
-7.25221e-05
0.000320591
-1000
-6.40199e-05
0.000339993
-1000
-6.7161e-05
0.000342674
-1000
-9.96788e-05
0.000340358
-1000
-0.000223144
0.000336674
-1000
-0.000273874
0.000342261
-1000
-0.000254157
0.00033472
-1000
-0.000181966
0.000336562
-1000
-9.16533e-05
0.000343315
-1000
0.000342945
-1000
-5.69728e-05
0.00068583
-1000
-5.9036e-05
0.000688839
-1000
-7.332e-05
0.000670741
-1000
-0.000119675
0.000645324
-1000
-0.000219066
0.000621322
-1000
-0.000280739
0.000609494
-1000
-0.000249848
0.00061346
-1000
-0.00017454
0.000616387
-1000
-9.22917e-05
0.000620769
-1000
0.000623101
-1000
-5.99074e-05
0.00094371
-1000
-7.81256e-05
0.000935318
-1000
-0.000101024
0.000906242
-1000
-0.000149618
0.000870349
-1000
-0.000232648
0.000849176
-1000
-0.000274888
0.000842221
-1000
-0.000237278
0.000849896
-1000
-0.000168379
0.000852211
-1000
-9.22694e-05
0.000853107
-1000
0.000853831
-1000
-7.10233e-05
0.0010882
-1000
-0.000102464
0.00107873
-1000
-0.00013657
0.00105336
-1000
-0.000194331
0.00101689
-1000
-0.000234013
0.000999017
-1000
-0.000269769
0.00102273
-1000
-0.000234266
0.00103002
-1000
-0.000168698
0.00101732
-1000
-9.10329e-05
0.0010072
-1000
0.00100774
-1000
-8.6158e-05
0.00119474
-999.999
-0.000131461
0.00118391
-999.999
-0.000178079
0.00116113
-1000
-0.000311176
0.0011503
-1000
-0.000186046
0.00113926
-1000
-0.000282127
0.0010748
-1000
-0.000259395
0.00104249
-1000
-0.000177167
0.00104375
-1000
-9.10869e-05
0.0010391
-1000
0.0010313
-1000
-9.773e-05
0.00120044
-999.999
-0.000152833
0.00120881
-999.999
-0.000179904
0.00118739
-999.999
-0.000217653
0.00115296
-999.999
-0.000421692
0.00115886
-999.999
-0.000269121
0.00109302
-1000
-0.000242494
0.00102919
-1000
-0.000187699
0.000994089
-1000
-9.70112e-05
0.000958385
-1000
0.000929925
-1000
-9.4958e-05
0.00099372
-999.998
-0.000166519
0.000983178
-999.998
-0.000222333
0.000958829
-999.998
-0.000267117
0.00093809
-999.999
-0.000342212
0.000927245
-999.999
-0.00029361
0.000898232
-999.999
-0.000278082
0.000856304
-999.999
-0.000215475
0.000828659
-999.999
-0.0001226
0.000799184
-1000
0.000774971
-1000
-0.000107193
0.000691396
-999.998
-0.000190469
0.00067904
-999.998
-0.000247577
0.000661235
-999.998
-0.000284923
0.000647949
-999.998
-0.0003253
0.000632588
-999.998
-0.000348222
0.000617438
-999.999
-0.000316213
0.000593554
-999.999
-0.000244486
0.000573535
-999.999
-0.000140891
0.000559746
-999.999
0.000549168
-999.999
-0.000124084
0.000348497
-999.998
-0.000205303
0.00034908
-999.998
-0.000262412
0.000343603
-999.998
-0.000304478
0.000333719
-999.998
-0.000337561
0.000316357
-999.998
-0.00037296
0.000305043
-999.998
-0.000332211
0.000293737
-999.999
-0.000257527
0.000282786
-999.999
-0.000144405
0.000281726
-999.999
0.0002825
-999.999
-0.000127597
-999.997
-0.000208868
-999.997
-0.000269979
-999.998
-0.000332503
-999.998
-0.000341908
-999.998
-0.000389681
-999.998
-0.000342576
-999.998
-0.000260097
-999.999
-0.000140584
-999.999
-999.999
-0.000110241
0.000523993
-1000
-0.000149506
0.000541886
-1000
-0.000208912
0.000540374
-1000
-0.000282745
0.000530676
-1000
-0.000387905
0.000522455
-1000
-0.000405665
0.000520989
-1000
-0.000365279
0.000513966
-1000
-0.000255134
0.000517547
-1000
-0.000133905
0.000524644
-1000
0.000522174
-1000
-9.80611e-05
0.00105695
-1000
-0.00015224
0.00105737
-1000
-0.000221752
0.00103862
-1000
-0.000299965
0.00100882
-1000
-0.00039057
0.000984724
-1000
-0.000408228
0.00096002
-1000
-0.000358948
0.000959223
-1000
-0.000248444
0.000954679
-1000
-0.000136931
0.000956244
-1000
0.000953615
-1000
-0.000100324
0.00145153
-1000
-0.000171512
0.00144701
-1000
-0.000246831
0.00142375
-1000
-0.000327756
0.00138797
-1000
-0.000417978
0.00136466
-1000
-0.0003996
0.00132274
-1000
-0.000356506
0.0013269
-1000
-0.000251044
0.00131481
-1000
-0.000139941
0.00131232
-1000
0.00130902
-1000
-0.000106729
0.00169826
-1000
-0.000197026
0.00170558
-1000
-0.000283591
0.00168715
-1000
-0.000366919
0.00165231
-1000
-0.00045873
0.00162214
-1000
-0.000408565
0.00159387
-1000
-0.000364371
0.00157106
-1000
-0.000260469
0.00155578
-1000
-0.00014078
0.00154967
-1000
0.00154776
-1000
-0.000107339
0.00178244
-999.999
-0.000222403
0.00177209
-999.999
-0.00033519
0.00173713
-1000
-0.000444441
0.00169177
-1000
-0.000502213
0.00162185
-1000
-0.000449777
0.00175175
-1000
-0.000390666
0.00162164
-1000
-0.0002723
0.00159917
-1000
-0.000144395
0.00158207
-1000
0.00157691
-1000
-0.000121373
0.00174135
-999.999
-0.000258841
0.0017289
-999.999
-0.000371307
0.00169149
-999.999
-0.000458067
0.00166514
-999.999
-0.000590867
0.00170053
-999.999
-0.000538369
0.00152709
-999.999
-0.000408848
0.00152287
-1000
-0.000285628
0.0014984
-1000
-0.000150566
0.00144624
-1000
0.00140562
-1000
-0.000141281
0.00143728
-999.998
-0.000280477
0.00141439
-999.998
-0.000395156
0.00138082
-999.998
-0.000462271
0.00135399
-999.998
-0.000511662
0.00134193
-999.999
-0.000516884
0.00129054
-999.999
-0.000443702
0.00126935
-999.999
-0.00032674
0.00124393
-999.999
-0.000183572
0.00121179
-1000
0.00119017
-1000
-0.000168112
0.00100638
-999.997
-0.000311553
0.000988758
-999.997
-0.000422867
0.000968903
-999.998
-0.000479717
0.000946097
-999.998
-0.000529817
0.000918745
-999.998
-0.000546777
0.000899699
-999.998
-0.000478423
0.000889912
-999.999
-0.000357951
0.000874733
-999.999
-0.000198343
0.000864381
-999.999
0.000860825
-999.999
-0.000190023
0.000515447
-999.997
-0.000333087
0.000516704
-999.997
-0.000443809
0.000511613
-999.997
-0.000520289
0.00049629
-999.997
-0.000546971
0.000466039
-999.998
-0.000559816
0.000453146
-999.998
-0.000488906
0.000453584
-999.998
-0.000366102
0.000448604
-999.998
-0.000196837
0.000451192
-999.999
0.000458423
-999.999
-0.000191165
-999.997
-0.000338381
-999.997
-0.000456276
-999.997
-0.000554606
-999.997
-0.000554113
-999.997
-0.000570037
-999.998
-0.0004925
-999.998
-0.000363163
-999.998
-0.000187325
-999.998
-999.998
-0.000170343
0.000783667
-1000
-0.000299295
0.00079251
-1000
-0.000429282
0.000786929
-1000
-0.000536772
0.000772088
-1000
-0.000620529
0.000758162
-1000
-0.000604869
0.000752415
-1000
-0.000521011
0.000750064
-1000
-0.000366657
0.000753429
-1000
-0.000199049
0.000755395
-1000
0.000745694
-1000
-0.000164995
0.00151756
-1000
-0.000309515
0.00151562
-1000
-0.000445269
0.00149826
-1000
-0.000556195
0.00146877
-1000
-0.000626273
0.00144603
-1000
-0.000608074
0.00141204
-1000
-0.000517884
0.00140931
-1000
-0.000366897
0.00139626
-1000
-0.000207088
0.00138727
-1000
0.00137694
-1000
-0.000168234
0.00208975
-1000
-0.000328198
0.00208927
-1000
-0.000469241
0.00207023
-1000
-0.000579722
0.00203651
-1000
-0.000656411
0.0020201
-1000
-0.000610105
0.00195004
-1000
-0.000527871
0.00193888
-1000
-0.00037933
0.00191553
-1000
-0.000214408
0.00190392
-1000
0.0018933
-1000
-0.000171498
0.00247997
-1000
-0.000351101
0.00248583
-1000
-0.000498153
0.00246507
-1000
-0.000593016
0.00242912
-1000
-0.000735042
0.00242903
-1000
-0.000615847
0.00230438
-1000
-0.000548969
0.00226711
-1000
-0.00039868
0.00225122
-1000
-0.000221503
0.00224274
-1000
0.0022305
-1000
-0.000173276
0.0025286
-999.999
-0.000376512
0.00252089
-999.999
-0.000528573
0.00247437
-1000
-0.000609844
0.00240408
-1000
-0.00089185
0.00221476
-1000
-0.000669516
0.00263564
-1000
-0.000575466
0.00238798
-1000
-0.00041861
0.00232765
-1000
-0.00023069
0.00229641
-1000
0.00229246
-1000
-0.000186722
0.00238746
-999.998
-0.000413631
0.0023626
-999.998
-0.000628086
0.00232737
-999.999
-0.000784939
0.00230965
-999.999
-0.000765544
0.00236314
-999.999
-0.000870128
0.00209294
-1000
-0.000650618
0.00215782
-1000
-0.000441124
0.00214833
-1000
-0.000238746
0.0021009
-1000
0.00206459
-1000
-0.00022016
0.00199607
-999.997
-0.000442832
0.00196956
-999.997
-0.000621844
0.00193603
-999.998
-0.000743779
0.00190314
-999.998
-0.000725961
0.00188774
-999.998
-0.000799492
0.00179053
-999.999
-0.000661992
0.00180975
-999.999
-0.000476296
0.00179736
-999.999
-0.000260638
0.00177625
-999.999
0.00176642
-1000
-0.000250931
0.00142004
-999.997
-0.000478833
0.00140383
-999.997
-0.000655797
0.0013835
-999.997
-0.000769338
0.00135312
-999.997
-0.000788753
0.00131611
-999.998
-0.000794168
0.00127927
-999.998
-0.0006798
0.00129534
-999.998
-0.000497892
0.00129224
-999.998
-0.00026556
0.00128992
-999.999
0.00129386
-999.999
-0.000271022
0.000740285
-999.996
-0.00050161
0.000741343
-999.996
-0.000685435
0.000734818
-999.996
-0.000815124
0.000716144
-999.997
-0.000818961
0.000683281
-999.997
-0.000784451
0.000665263
-999.997
-0.000678433
0.000683837
-999.998
-0.000498337
0.000687414
-999.998
-0.000258041
0.0006924
-999.998
0.000701439
-999.998
-0.000269027
-999.996
-0.00050799
-999.996
-0.000699994
-999.996
-0.000848199
-999.996
-0.00083237
-999.997
-0.000775889
-999.997
-0.000673401
-999.997
-0.000491253
-999.997
-0.00024592
-999.998
-999.998
-0.000268297
0.00110087
-1000
-0.000516738
0.0011
-1000
-0.000726377
0.00109071
-1000
-0.00087233
0.00107576
-1000
-0.000935249
0.00105824
-1000
-0.000888582
0.00105628
-1000
-0.000750027
0.00105823
-1000
-0.000541073
0.00105726
-1000.01
-0.000299762
0.00104924
-1000.01
0.00103424
-1000.01
-0.000273192
0.00209266
-1000
-0.000530205
0.00208793
-1000
-0.000742906
0.00207339
-1000
-0.000892588
0.00205049
-1000
-0.000939348
0.00203219
-1000
-0.000889139
0.00200749
-1000
-0.000752602
0.00199772
-1000
-0.000549774
0.00197337
-1000
-0.000312413
0.00195279
-1000.01
0.00193833
-1000.01
-0.000281087
0.00288576
-1000
-0.000545847
0.00288411
-1000
-0.00076273
0.00286842
-1000
-0.00091273
0.00284257
-1000
-0.000959634
0.00283901
-1000
-0.000902189
0.00277927
-1000
-0.000775203
0.00274988
-1000
-0.000569971
0.00270906
-1000
-0.000323634
0.00268357
-1000
0.002667
-1000
-0.000286367
0.00342356
-1000
-0.00056342
0.00341986
-1000
-0.000783133
0.00339891
-1000
-0.000918235
0.00337003
-1000
-0.00101784
0.00339069
-1000
-0.000932004
0.00324845
-1000
-0.000811641
0.00318971
-1000
-0.000597433
0.00316144
-1000
-0.000335494
0.00314573
-1000
0.00312751
-1000
-0.000299588
0.0035156
-999.999
-0.000592401
0.00351778
-999.999
-0.000798006
0.0034757
-1000
-0.000879616
0.0034119
-1000
-0.00120466
0.00318863
-1000
-0.00100516
0.00359579
-1000
-0.000846169
0.0033812
-1000
-0.000617383
0.00331047
-1000
-0.000346858
0.0032701
-1000
0.00325914
-1000
-0.000305685
0.00328385
-999.998
-0.000619417
0.00326841
-999.998
-0.000892634
0.0032382
-999.998
-0.00109884
0.00321495
-999.999
-0.00103115
0.00321415
-999.999
-0.00118458
0.00299412
-1000
-0.000948938
0.00304739
-1000
-0.000658527
0.00304952
-1000
-0.000354635
0.00302367
-1000
0.00300446
-1000
-0.000333708
0.0027811
-999.997
-0.000650924
0.00276412
-999.997
-0.000897015
0.00273002
-999.997
-0.00108005
0.00268148
-999.997
-0.0010165
0.00264889
-999.998
-0.00112071
0.00254322
-999.998
-0.000942509
0.00257597
-999.999
-0.000676981
0.00257704
-999.999
-0.000361555
0.00257151
-999.999
0.00257125
-999.999
-0.000354168
0.00200587
-999.995
-0.000684165
0.00199652
-999.996
-0.000940824
0.00197497
-999.996
-0.00113117
0.0019384
-999.996
-0.00111732
0.00190365
-999.997
-0.00109739
0.00184931
-999.997
-0.000939073
0.00187741
-999.998
-0.00068353
0.00188135
-999.998
-0.000355456
0.00188378
-999.998
0.00188914
-999.998
-0.000367663
0.00105563
-999.995
-0.00070917
0.00105503
-999.995
-0.000977363
0.0010472
-999.995
-0.00117231
0.00103103
-999.995
-0.00115979
0.00101751
-999.996
-0.0010751
0.00099331
-999.996
-0.000932712
0.00101166
-999.997
-0.000680133
0.00101443
-999.997
-0.00034497
0.00101781
-999.997
0.00102315
-999.997
-0.000366894
-999.994
-0.00071646
-999.994
-0.000990053
-999.995
-0.00118559
-999.995
-0.00118133
-999.995
-0.00105923
-999.996
-0.000927668
-999.996
-0.000674499
-999.997
-0.000335356
-999.997
-999.997
-0.000415123
0.00149611
-1000
-0.000796252
0.00148889
-1000
-0.0011001
0.00148232
-1000
-0.00129691
0.00147489
-1000
-0.00135834
0.00146385
-1000.01
-0.00127432
0.00146786
-1000.01
-0.00108456
0.0014673
-1000.01
-0.000798846
0.00145794
-1000.01
-0.000443038
0.00144243
-1000.01
0.00142688
-1000.01
-0.000426859
0.00283555
-1000
-0.000807542
0.00282961
-1000
-0.00111093
0.00282385
-1000
-0.00131061
0.00281615
-1000
-0.00135849
0.00280502
-1000
-0.00127712
0.00279874
-1000.01
-0.00109582
0.00277322
-1000.01
-0.000815019
0.00274216
-1000.01
-0.000456152
0.00271668
-1000.01
0.00270132
-1000.01
-0.000437201
0.00390799
-1000
-0.000814685
0.0039065
-1000
-0.00111854
0.00390152
-1000
-0.00132158
0.00389112
-1000
-0.00136125
0.00388054
-1000
-0.00130323
0.00388445
-1000
-0.00112818
0.00382171
-1000
-0.000840412
0.00376786
-1000.01
-0.000467478
0.00373537
-1000.01
0.00371613
-1000.01
-0.000444313
0.00460586
-1000
-0.000820104
0.00460653
-1000
-0.0011235
0.00459314
-1000
-0.00132229
0.00457418
-1000
-0.00138366
0.00459987
-1000
-0.00136605
0.00452257
-1000
-0.00117662
0.00443478
-1000
-0.000869782
0.00438954
-1000
-0.000478427
0.00436581
-1000
0.00434646
-1000
-0.000460143
0.00483817
-999.999
-0.000844121
0.00484619
-999.999
-0.0011395
0.00482162
-1000
-0.00128443
0.0047766
-1000
-0.00145181
0.00464991
-1000
-0.00147478
0.00473529
-1000
-0.00124277
0.00467414
-1000
-0.00089806
0.00462667
-1000
-0.000489205
0.0045922
-1000
0.00457564
-1000
-0.00045852
0.00457381
-999.997
-0.000854387
0.0045738
-999.997
-0.0011653
0.00453979
-999.998
-0.00141432
0.00447633
-999.998
-0.00155229
0.00439895
-999.999
-0.00151672
0.00428574
-999.999
-0.00129189
0.00430698
-1000
-0.000930503
0.0043147
-1000
-0.000495982
0.00430769
-1000
0.00430058
-1000
-0.000473078
0.00389206
-999.995
-0.000902082
0.00388696
-999.996
-0.00123062
0.00384714
-999.996
-0.00147036
0.00377764
-999.996
-0.00147124
0.00371524
-999.997
-0.00149986
0.00365224
-999.998
-0.0012962
0.00366672
-999.998
-0.000937878
0.00366825
-999.999
-0.000491131
0.00366878
-999.999
0.00366921
-999.999
-0.000482748
0.00282248
-999.994
-0.000935538
0.00281996
-999.994
-0.00128836
0.00279667
-999.994
-0.0015468
0.00276253
-999.995
-0.00155521
0.00274272
-999.995
-0.0014957
0.00268817
-999.996
-0.00128783
0.00269376
-999.997
-0.000936292
0.00268939
-999.997
-0.000481519
0.00268899
-999.997
0.00268886
-999.998
-0.000491658
0.00148854
-999.993
-0.000962829
0.00148596
-999.993
-0.0013252
0.00147717
-999.993
-0.00156741
0.00147008
-999.994
-0.00159571
0.00148131
-999.994
-0.00149326
0.00145864
-999.995
-0.00129141
0.00145018
-999.996
-0.000936351
0.00144333
-999.996
-0.000474937
0.00144198
-999.996
0.00144059
-999.997
-0.000494984
-999.992
-0.000969424
-999.992
-0.00132827
-999.993
-0.00155302
-999.993
-0.00161651
-999.994
-0.00149743
-999.994
-0.00129502
-999.995
-0.00093461
-999.995
-0.000471211
-999.996
-999.996
-0.000607279
0.00202108
-1000.01
-0.00114181
0.00201693
-1000.01
-0.00156241
0.00201885
-1000.01
-0.00182402
0.00202304
-1000.01
-0.00193297
0.00202589
-1000.01
-0.00181855
0.00202979
-1000.01
-0.00156574
0.00201757
-1000.01
-0.00116015
0.00199892
-1000.01
-0.000633108
0.0019817
-1000.01
0.00196961
-1000.01
-0.000617331
0.00384191
-1000
-0.00114548
0.00384112
-1000
-0.00156166
0.00384764
-1000.01
-0.00182547
0.00385447
-1000.01
-0.00193316
0.00384952
-1000.01
-0.00183448
0.00384737
-1000.01
-0.00158663
0.00381123
-1000.01
-0.00117896
0.00378085
-1000.01
-0.000642415
0.00375878
-1000.01
0.00374403
-1000.01
-0.000625198
0.00529311
-1000
-0.00114096
0.00529998
-1000
-0.00155519
0.00530783
-1000
-0.00182878
0.00530877
-1000
-0.00193205
0.00528143
-1000.01
-0.00186887
0.00532311
-1000.01
-0.00161938
0.00524279
-1000.01
-0.00120171
0.00519323
-1000.01
-0.000650025
0.00516658
-1000.01
0.00514828
-1000.01
-0.000629152
0.00621815
-1000
-0.0011352
0.00623494
-1000
-0.00155242
0.00622855
-1000
-0.00183645
0.00620708
-1000
-0.00192476
0.00619856
-1000
-0.00194218
0.00621622
-1000
-0.00166438
0.00612182
-1000
-0.00122386
0.00606898
-1000.01
-0.000655121
0.00604069
-1000.01
0.00601896
-1000.01
-0.000627821
0.0066152
-999.999
-0.00114535
0.00662375
-999.999
-0.00157647
0.00660414
-999.999
-0.00186082
0.00658227
-1000
-0.00184017
0.00655544
-1000
-0.00207833
0.00632872
-1000
-0.0017532
0.0063904
-1000
-0.00125892
0.00639133
-1000
-0.000666327
0.00637734
-1000
0.00636116
-1000
-0.00063076
0.00635143
-999.996
-0.00115983
0.00635547
-999.996
-0.00155641
0.00629664
-999.997
-0.00185301
0.00618864
-999.998
-0.00230902
0.00606526
-999.998
-0.00200134
0.00602492
-999.999
-0.00173345
0.00604235
-1000
-0.0012644
0.00604654
-1000
-0.000665991
0.00604521
-1000
0.0060386
-1000
-0.000643118
0.00539296
-999.994
-0.00122411
0.00539328
-999.994
-0.00167417
0.00534854
-999.995
-0.00198675
0.00527973
-999.995
-0.00210167
0.00520062
-999.996
-0.00202154
0.00517338
-999.997
-0.00174923
0.00516138
-999.998
-0.00127025
0.00515072
-999.998
-0.000659125
0.00514679
-999.999
0.00513936
-999.999
-0.000653035
0.0039148
-999.992
-0.00126563
0.00391477
-999.992
-0.00174222
0.00388983
-999.993
-0.00205997
0.0038664
-999.993
-0.00214356
0.00386276
-999.994
-0.00204452
0.00382926
-999.995
-0.0017553
0.00378958
-999.995
-0.00127245
0.00376811
-999.996
-0.000654349
0.00376064
-999.997
0.00375132
-999.997
-0.000661083
0.00205969
-999.99
-0.00129146
0.00205315
-999.991
-0.00176896
0.00204669
-999.991
-0.00206214
0.00204903
-999.992
-0.00217368
0.00206607
-999.992
-0.00208511
0.0020552
-999.993
-0.00177599
0.0020154
-999.994
-0.00127896
0.00200088
-999.995
-0.000655004
0.00199616
-999.995
0.00199088
-999.995
-0.000669326
-999.99
-0.00129485
-999.99
-0.00176238
-999.99
-0.00203925
-999.991
-0.00218278
-999.992
-0.00212016
-999.992
-0.00178567
-999.993
-0.00127934
-999.994
-0.000653849
-999.994
-999.995
-0.000846402
0.00275039
-1000.01
-0.00158129
0.00275532
-1000.01
-0.00215756
0.00276499
-1000.01
-0.00250894
0.00277581
-1000.01
-0.00271209
0.00278381
-1000.01
-0.00258628
0.00278215
-1000.01
-0.00222938
0.00275697
-1000.01
-0.00164117
0.00273555
-1000.01
-0.000879719
0.00272337
-1000.01
0.0027153
-1000.01
-0.00085119
0.00524053
-1000.01
-0.00157821
0.00525007
-1000.01
-0.0021507
0.00526175
-1000.01
-0.00250821
0.0052668
-1000.01
-0.00271629
0.00525775
-1000.01
-0.00261787
0.00523917
-1000.01
-0.00225458
0.00521076
-1000.01
-0.00165745
0.00518904
-1000.01
-0.000883913
0.00517643
-1000.01
0.00516313
-1000.01
-0.000852891
0.00722281
-1000
-0.00156868
0.00724138
-1000
-0.00214358
0.00724989
-1000.01
-0.00251704
0.00724007
-1000.01
-0.00273174
0.0071892
-1000.01
-0.0026497
0.00720038
-1000.01
-0.00227592
0.00714745
-1000.01
-0.00167067
0.00712318
-1000.01
-0.000886095
0.0071138
-1000.01
0.00709772
-1000.01
-0.000850967
0.00848632
-1000
-0.00156605
0.00851698
-1000
-0.00215444
0.00850786
-1000
-0.00255232
0.00846602
-1000
-0.00272964
0.00836604
-1000
-0.00269423
0.00845476
-1000.01
-0.00229659
0.0083902
-1000.01
-0.00167779
0.0083548
-1000.01
-0.000884788
0.00833597
-1000.01
0.00830961
-1000.01
-0.000838219
0.00901269
-999.998
-0.0015715
0.00901958
-999.998
-0.00218313
0.00898381
-999.999
-0.00263814
0.00895
-1000
-0.00263743
0.00894171
-1000
-0.00278602
0.00867417
-1000
-0.00234737
0.00874874
-1000
-0.00169811
0.00879008
-1000
-0.000893526
0.00879038
-1000
0.00877755
-1000
-0.00085322
0.00868442
-999.995
-0.00161078
0.0086812
-999.995
-0.00220901
0.00861466
-999.996
-0.00259285
0.00849653
-999.997
-0.00306374
0.00835732
-999.998
-0.00272271
0.00835678
-999.999
-0.00233029
0.00837878
-1000
-0.00169303
0.0083734
-1000
-0.000886374
0.00836753
-1000
0.00835217
-1000
-0.000874125
0.00736296
-999.992
-0.00167637
0.00736147
-999.992
-0.00231275
0.00731825
-999.993
-0.00272639
0.00726409
-999.994
-0.00291994
0.0072118
-999.995
-0.00273572
0.00718797
-999.996
-0.0023394
0.00715805
-999.997
-0.00169891
0.00713298
-999.997
-0.00088265
0.00712131
-999.998
0.0071024
-999.998
-0.00089126
0.00534314
-999.989
-0.00172142
0.005343
-999.989
-0.00237146
0.00532288
-999.99
-0.0027788
0.00531018
-999.991
-0.00292526
0.00531071
-999.992
-0.00277906
0.00529744
-999.993
-0.00236465
0.00523238
-999.994
-0.00171063
0.00520087
-999.995
-0.000886129
0.00518842
-999.995
0.00517247
-999.996
-0.000901748
0.0028041
-999.987
-0.00174081
0.00279745
-999.987
-0.00238344
0.00279509
-999.988
-0.0027782
0.00279872
-999.989
-0.00294663
0.00280108
-999.99
-0.00284141
0.00279947
-999.991
-0.00239365
0.00275613
-999.992
-0.00172159
0.00274356
-999.993
-0.000890661
0.00274009
-999.993
0.00273612
-999.994
-0.000911873
-999.986
-0.00173935
-999.986
-0.00237491
-999.987
-0.00276976
-999.988
-0.00294128
-999.989
-0.00287779
-999.99
-0.00240027
-999.991
-0.00172073
-999.992
-0.000885495
-999.992
-999.993
-0.00115913
0.00376458
-1000.01
-0.00217361
0.0037785
-1000.01
-0.00297381
0.00378812
-1000.01
-0.00346958
0.0037921
-1000.01
-0.00376097
0.00378851
-1000.01
-0.00362096
0.00378339
-1000.02
-0.00310184
0.00375442
-1000.02
-0.00226497
0.00373962
-1000.02
-0.00120034
0.00373463
-1000.02
0.00372847
-1000.02
-0.00115817
0.0071771
-1000.01
-0.00217209
0.00719592
-1000.01
-0.00297606
0.00719924
-1000.01
-0.0034837
0.00718393
-1000.01
-0.00377028
0.00715768
-1000.01
-0.00366019
0.00712277
-1000.01
-0.00312317
0.00711021
-1000.02
-0.00227569
0.00710276
-1000.02
-0.00120073
0.00710054
-1000.02
0.00708668
-1000.02
-0.00115509
0.00989427
-1000.01
-0.00217101
0.00991893
-1000.01
-0.00298695
0.00990895
-1000.01
-0.00351106
0.00986377
-1000.01
-0.00380376
0.00978746
-1000.01
-0.0036795
0.00973874
-1000.01
-0.00312794
0.00974378
-1000.01
-0.00227769
0.00975284
-1000.01
-0.00119899
0.0097609
-1000.01
0.00974225
-1000.01
-0.00115412
0.0116364
-1000
-0.00218876
0.0116648
-1000
-0.00303171
0.0116377
-1000
-0.0035936
0.0115643
-1000
-0.00380988
0.0113625
-1000.01
-0.00368247
0.011451
-1000.01
-0.00311389
0.0114434
-1000.01
-0.00226927
0.0114606
-1000.01
-0.00119498
0.0114613
-1000.01
0.0114279
-1000.01
-0.00115069
0.0122586
-999.997
-0.00221245
0.0122685
-999.998
-0.0030718
0.0122182
-999.999
-0.00369961
0.0121715
-1000
-0.00386286
0.012114
-1000
-0.0036748
0.0119849
-1000
-0.00308987
0.0120389
-1000
-0.00226489
0.0120692
-1000.01
-0.00120159
0.0120659
-1000.01
0.0120515
-1000.01
-0.00117059
0.0117383
-999.993
-0.00226622
0.0117279
-999.993
-0.00316277
0.0116721
-999.994
-0.00372102
0.0115967
-999.996
-0.00389675
0.0114827
-999.997
-0.00366695
0.0115347
-999.999
-0.00312237
0.0115115
-1000
-0.00226825
0.0114932
-1000
-0.00119239
0.0114792
-1000
0.0114512
-1000
-0.0012043
0.00995907
-999.989
-0.00231747
0.00995796
-999.989
-0.00321107
0.00992977
-999.99
-0.00377657
0.00990647
-999.991
-0.00395247
0.0098934
-999.993
-0.00368775
0.00985036
-999.994
-0.0031314
0.00982387
-999.995
-0.00227717
0.00979003
-999.997
-0.00119239
0.00977368
-999.997
0.00974658
-999.998
-0.00122697
0.00722933
-999.985
-0.0023504
0.00723382
-999.986
-0.0032406
0.0072253
-999.986
-0.00380349
0.00722033
-999.988
-0.00395755
0.00721506
-999.989
-0.00373826
0.00720355
-999.99
-0.00316693
0.00715461
-999.992
-0.00229566
0.0071256
-999.993
-0.00119939
0.00711454
-999.994
0.00709898
-999.994
-0.00123724
0.0037945
-999.982
-0.00235791
0.00379512
-999.983
-0.00324147
0.00379659
-999.984
-0.00381089
0.00379491
-999.985
-0.00397907
0.00378256
-999.986
-0.00378561
0.00378127
-999.988
-0.00319159
0.00376349
-999.989
-0.00230567
0.00375707
-999.99
-0.0011991
0.00375787
-999.991
0.00375674
-999.991
-0.0012427
-999.981
-0.00235239
-999.981
-0.00323658
-999.982
-0.00381714
-999.983
-0.00396922
-999.985
-0.00379408
-999.986
-0.00319068
-999.988
-0.00229966
-999.989
-0.00118842
-999.99
-999.99
-0.00158409
0.00515375
-1000.01
-0.00299672
0.00517207
-1000.01
-0.00412157
0.00517259
-1000.02
-0.00484406
0.00516043
-1000.02
-0.00517067
0.00514113
-1000.02
-0.00496104
0.00513665
-1000.02
-0.00422989
0.00511205
-1000.02
-0.00307691
0.00510728