/*--------------------------------*- C++ -*----------------------------------*\
| =========                 |                                                 |
| \\      /  F ield         | OpenFOAM: The Open Source CFD Toolbox           |
|  \\    /   O peration     | Version:  5.x                                   |
|   \\  /    A nd           | Web:      www.OpenFOAM.org                      |
|    \\/     M anipulation  |                                                 |
\*---------------------------------------------------------------------------*/
FoamFile
{
    version     2.0;
    format      ascii;
    class       volVectorField;
    location    "7000";
    object      U;
}
// * * * * * * * * * * * * * * * * * * * * * * * * * * * * * * * * * * * * * //

dimensions      [0 1 -1 0 0 0 0];

internalField   nonuniform List<vector> 
180
(
(0.0650121 -0.0750504 63.2454)
(-0.204876 -0.0582306 72.6312)
(-0.0708012 -0.061024 65.1792)
(-0.429619 -0.0417794 68.5937)
(-0.100191 -0.0312592 68.6263)
(-0.0756759 0.0367232 67.3182)
(-0.0435424 -0.170011 67.9685)
(1.04195 -0.66639 68.9944)
(0.627405 -0.556443 63.1622)
(0.597608 -0.520382 67.7207)
(0.785793 -0.220916 67.8995)
(0.954949 -0.428147 66.8165)
(1.16712 -1.20464 66.4142)
(1.36149 -1.28263 67.8658)
(0.943711 -1.05034 62.0603)
(0.84712 -1.0215 65.8787)
(0.920548 -0.899456 66.5376)
(0.940669 -1.05219 66.6546)
(0.322018 -0.654722 62.1315)
(0.0343085 -0.261345 65.0593)
(0.181047 -0.0563781 65.2641)
(0.639681 -0.152174 66.5061)
(0.342383 -0.325759 60.7728)
(0.336908 0.132762 64.9229)
(0.320069 0.364786 65.0982)
(0.675261 1.20159 64.3229)
(0.942755 1.74211 64.135)
(0.4777 0.87573 63.9092)
(0.43822 0.734 64.131)
(0.403901 0.636361 63.9829)
(0.457623 0.327995 65.596)
(0.0447534 0.0703636 60.707)
(-0.306675 0.460394 64.332)
(-0.408802 0.297586 64.8479)
(0.946284 -0.509961 65.9535)
(0.561428 -0.43484 61.702)
(-0.853733 -0.198414 63.991)
(-1.23263 -0.670327 61.2523)
(-1.91647 -0.127149 64.669)
(-1.57322 0.345787 66.3939)
(-0.422588 -0.0311382 61.2298)
(-0.415597 -0.0748207 64.3934)
(-0.994689 -0.323443 65.7651)
(-1.02536 0.468295 61.9748)
(-1.59366 1.67441 64.6861)
(-1.71033 1.22746 65.3696)
(-1.9146 1.67097 65.0346)
(-2.13969 2.03166 65.2937)
(-1.61806 1.26618 65.2594)
(-1.41083 1.17045 65.737)
(-1.32169 1.11587 65.8655)
(-0.876577 1.10157 65.9312)
(-0.505467 1.08908 66.1033)
(-0.317627 1.09068 66.1302)
(0.144836 1.12216 67.8919)
(-0.0640648 0.915151 62.8894)
(0.162582 1.58579 66.7254)
(0.834562 1.52901 67.5447)
(1.79711 2.05012 66.5584)
(2.33684 3.36878 64.6477)
(2.13487 2.20845 67.1862)
(2.94533 1.63177 66.4607)
(2.54377 1.45441 63.5858)
(3.14249 0.902583 65.2552)
(4.03411 0.570566 65.0261)
(5.85965 -0.0872686 65.8718)
(5.07647 -0.0780037 62.0179)
(3.18789 -0.082741 62.025)
(1.94509 0.0500629 61.9619)
(1.36529 0.0619899 61.4519)
(0.910872 0.0725115 60.9025)
(0.186961 0.158927 60.5675)
(-0.402676 0.276804 60.1618)
(-1.03408 0.360037 59.943)
(-1.65821 0.462537 59.8347)
(-2.13199 0.537633 59.8949)
(-2.53022 0.609189 60.0388)
(-2.91476 0.660887 60.3637)
(-3.65821 0.713686 60.8021)
(-4.04813 0.744387 61.3196)
(-4.23645 0.815541 62.0566)
(-4.51547 0.836787 62.7432)
(-4.53681 0.967964 63.5225)
(-4.21911 1.02118 64.1888)
(-4.0102 1.18834 64.8346)
(-3.69973 1.23491 65.3371)
(-3.57199 1.44043 65.9172)
(-3.33226 1.48505 66.3432)
(-3.29908 1.71865 66.8564)
(-3.13612 1.72647 67.2591)
(-3.19767 1.99232 67.6997)
(-3.07768 1.93795 68.1047)
(-3.14668 2.23591 68.4955)
(-3.04337 2.15417 68.672)
(-3.16043 2.42583 69.3202)
(-3.02598 2.30124 69.8719)
(-2.74346 2.39502 70.238)
(-2.1923 2.10421 70.7447)
(-2.3272 2.28091 70.4696)
(-2.73479 2.07206 70.8297)
(-3.97255 2.62809 70.4206)
(-4.87467 2.51712 71.156)
(-5.74558 2.93013 71.4816)
(-6.24699 2.98607 72.5088)
(-6.53683 3.01826 73.3067)
(-7.00948 3.17079 74.8412)
(-6.75134 2.77617 76.1903)
(-6.88866 2.90842 77.622)
(-6.4327 2.47313 79.0758)
(-6.53761 2.66918 80.3002)
(-6.22585 2.56233 81.715)
(-6.24807 2.6958 82.8663)
(-6.23277 3.03357 84.1367)
(-6.12661 3.00055 85.5351)
(-6.17381 3.4923 86.679)
(-6.17668 3.59124 88.2722)
(-6.39794 4.27824 89.3702)
(-6.31539 4.41837 91.1938)
(-6.59066 5.13025 92.2695)
(-6.46927 5.28313 94.2082)
(-6.59307 5.73581 95.3282)
(-6.17981 5.58959 97.2115)
(-6.1219 5.66356 98.3732)
(-5.79434 5.44641 100.021)
(-6.01477 5.67904 101.255)
(-6.60619 6.26555 102.659)
(-7.96495 7.53298 104.102)
(-10.0141 9.3371 105.443)
(-12.592 11.5621 107.276)
(-15.647 13.9137 108.758)
(-18.6981 16.2767 110.962)
(-21.7699 18.1745 112.69)
(-24.4588 19.8561 114.989)
(-26.9215 20.7586 116.901)
(-28.7406 21.4348 119.021)
(-30.2085 21.3131 120.962)
(-31.0063 20.9871 122.774)
(-31.5244 20.1807 124.53)
(-31.4673 19.1744 126.021)
(-31.1848 17.995 127.511)
(-30.5518 16.6575 128.701)
(-29.8226 15.4503 129.933)
(-28.9441 14.1509 130.828)
(-28.1664 13.1325 131.793)
(-27.4976 12.1647 132.446)
(-27.1427 11.5186 133.163)
(-27.1159 11.0383 133.678)
(-27.4818 10.8231 134.202)
(-28.2275 10.8999 134.692)
(-29.3205 11.3045 135.214)
(-30.6694 11.7345 135.804)
(-32.2241 12.1864 136.471)
(-33.9095 12.7385 137.228)
(-35.6654 13.7265 138.039)
(-37.4415 15.1124 138.904)
(-39.1838 17.2868 139.879)
(-40.8255 20.072 140.879)
(-42.2001 23.671 142.086)
(-43.2118 27.6813 143.279)
(-43.5883 32.1284 144.833)
(-43.203 36.4732 146.277)
(-41.7594 40.6054 148.28)
(-39.1296 43.9066 149.99)
(-35.0752 46.2091 152.411)
(-29.4675 46.9083 154.01)
(-22.4316 45.8185 156.35)
(-14.0717 42.3444 157.074)
(-4.95534 36.5223 158.664)
(4.60927 28.1474 157.618)
(13.6611 17.9878 157.919)
(21.986 6.42112 153.991)
(28.7407 -4.92677 153.173)
(34.5446 -16.8881 145.837)
(36.9789 -24.9057 145.105)
(40.6385 -36.4082 132.817)
(37.4633 -35.9663 132.072)
(34.104 -32.4653 129.592)
(31.4275 -32.963 124.35)
(29.2519 -36.6297 113.187)
(23.9135 -31.5744 116.375)
)
;

boundaryField
{
    inlet
    {
        type            zeroGradient;
    }
    outlet
    {
        type            zeroGradient;
    }
    repeat_boundary
    {
        type            slip;
    }
    procBoundary2to0
    {
        type            processor;
        value           nonuniform List<vector> 
180
(
(-0.144892 -0.0746207 63.6078)
(-0.433477 -0.0579752 72.8256)
(-0.308253 -0.0606551 65.5768)
(-0.775516 -0.0416229 68.9375)
(-0.421059 -0.0311799 69.0586)
(-0.0431059 0.0370112 69.9316)
(-0.557601 0.0362056 64.0921)
(0.457943 -0.822148 68.8031)
(0.630083 -1.13177 69.2484)
(0.754229 -1.25282 68.0711)
(0.832366 -0.975669 68.3025)
(0.769759 -0.576736 69.4553)
(0.00389803 -0.655162 64.4267)
(-0.303352 -1.57679 68.9143)
(-0.718406 -1.79532 69.355)
(0.193094 -1.87046 68.5378)
(1.26399 -1.88207 68.517)
(-0.208636 -1.62826 68.3374)
(-0.550703 -1.56165 68.9537)
(-0.691717 -1.382 68.9366)
(-0.629292 -1.24222 69.7717)
(-0.554513 -1.07627 67.9339)
(-0.640267 -0.901763 69.1722)
(-0.5094 -0.55312 69.5191)
(-0.271606 -0.102481 69.3157)
(-0.0805079 0.220521 70.7343)
(-0.0843352 0.349899 65.3298)
(-0.211368 -0.209525 69.395)
(-0.411974 -0.645307 69.9292)
(0.859734 -0.0587857 69.2033)
(2.0929 0.892801 67.9319)
(0.887516 0.108737 68.438)
(1.17353 0.221936 70.3831)
(0.766367 0.439022 63.442)
(0.706731 -0.275764 71.0368)
(0.152896 -0.489536 65.4223)
(0.668461 -1.0116 68.3118)
(0.778033 -0.83424 68.0982)
(0.933531 -0.298423 70.1908)
(0.814215 -0.825454 63.2617)
(0.170813 -0.420848 69.0364)
(-0.0980627 -0.747098 67.3086)
(0.358546 0.0584316 67.6825)
(0.77991 0.98086 67.2354)
(0.260084 0.541563 68.2529)
(-0.0733065 0.0782131 64.1065)
(-0.287662 -0.0367304 67.1471)
(-0.281003 -0.150176 67.3586)
(-0.111944 0.530434 66.8159)
(-0.185708 1.26823 66.0125)
(-0.365212 0.415133 66.3239)
(-0.0363824 0.40161 66.0492)
(0.250963 0.391338 66.0506)
(0.54845 0.390989 65.6571)
(1.15733 0.423203 65.3974)
(1.77818 0.61926 66.3308)
(0.866722 0.34672 62.456)
(1.41185 0.577466 65.4067)
(0.838521 -0.0727177 64.3335)
(1.95096 0.606863 63.2306)
(2.19946 0.28381 62.863)
(1.90243 -0.111816 60.9377)
(2.56097 -0.713076 62.4868)
(3.22006 -0.781895 63.6256)
(4.10047 -0.201133 60.8991)
(3.34093 -0.556707 59.822)
(1.94167 -0.966149 60.4941)
(1.09058 -0.957126 60.2546)
(0.721327 -0.866061 59.9404)
(0.469521 -0.740466 59.8233)
(0.0269517 -0.551242 59.6777)
(-0.573259 -0.333657 59.5933)
(-0.987672 -0.121857 59.6148)
(-1.33577 0.0558088 59.7232)
(-1.94128 0.205996 59.8881)
(-2.50623 0.315517 60.1353)
(-2.99433 0.395142 60.4699)
(-2.8014 0.465621 60.8225)
(-2.76414 0.523436 61.1544)
(-3.06632 0.579848 61.5636)
(-3.37408 0.645387 62.0517)
(-3.28154 0.6965 62.5496)
(-3.36233 0.74534 62.9876)
(-3.37683 0.771418 63.3736)
(-3.31988 0.786802 63.7698)
(-3.27487 0.81463 64.0579)
(-3.26195 0.813694 64.3709)
(-3.34974 0.89003 64.6027)
(-3.38392 0.897637 64.8795)
(-3.58806 1.04302 65.0626)
(-3.67682 1.07446 65.3306)
(-3.9741 1.28665 65.4696)
(-4.15894 1.33567 65.7682)
(-4.55681 1.62471 65.86)
(-4.84691 1.63461 66.2485)
(-5.45035 2.0551 66.2825)
(-5.82849 1.80335 66.891)
(-6.75507 2.38724 66.7899)
(-7.31058 1.87007 67.9188)
(-8.54426 2.71279 67.7136)
(-9.46499 2.48513 69.097)
(-10.9265 3.10808 69.5292)
(-12.557 3.5316 70.8709)
(-16.2824 5.02588 71.3074)
(-19.5794 7.0724 72.9035)
(-22.4605 8.73425 74.9193)
(-25.2751 9.9868 75.3326)
(-27.2234 10.1937 75.8894)
(-29.2126 10.2459 75.3207)
(-31.1866 10.2871 75.4546)
(-32.7461 9.60135 74.9134)
(-34.6478 9.55022 75.0179)
(-37.0464 10.1287 74.4593)
(-39.1038 10.3079 74.9455)
(-41.1363 10.8012 75.0513)
(-43.3225 11.2922 75.4561)
(-45.186 12.1149 75.6111)
(-46.9489 12.4285 76.0962)
(-48.77 13.3505 76.4657)
(-50.257 13.617 76.5921)
(-51.9018 14.6006 76.7793)
(-53.1323 14.8034 76.692)
(-54.6621 15.681 76.664)
(-55.8052 15.9005 76.4033)
(-57.059 16.6092 76.4049)
(-58.0233 16.7224 76.2225)
(-58.857 17.06 76.1566)
(-59.3202 16.7554 76.1932)
(-59.8534 16.4352 75.8355)
(-60.6329 15.7111 76.0436)
(-61.1888 14.7212 75.3455)
(-61.5984 13.3401 75.4465)
(-61.6985 12.0245 75.2133)
(-61.6249 10.2707 75.1075)
(-61.4919 9.01093 75.276)
(-60.0026 7.40115 75.4272)
(-57.9892 6.1773 75.4697)
(-55.6616 4.87643 75.4301)
(-52.512 3.96294 75.1637)
(-49.0939 3.1079 75.0728)
(-44.3954 2.33585 74.5395)
(-39.7004 1.41374 74.1695)
(-33.9903 0.458452 73.379)
(-29.1002 -0.630345 72.7669)
(-23.4298 -1.63179 71.6382)
(-19.2292 -2.72572 71.0899)
(-14.4212 -3.86361 69.3884)
(-10.9938 -4.64219 66.8576)
(-8.46238 -5.65757 69.0294)
(-6.21981 -6.27447 69.107)
(-4.25701 -6.40364 63.6706)
(-2.8575 -6.17639 62.372)
(-4.1774 -6.10436 61.5828)
(-6.78834 -5.93712 60.0353)
(-10.3181 -5.76101 58.5746)
(-14.4408 -5.36671 57.2965)
(-18.4144 -5.0469 55.7506)
(-21.9325 -4.65597 54.5176)
(-24.9313 -4.43139 52.952)
(-27.5933 -4.31535 51.9845)
(-30.0758 -4.50572 50.6359)
(-31.9464 -5.14786 50.1442)
(-33.3371 -6.20272 49.0211)
(-34.2432 -8.0781 48.6593)
(-34.8841 -10.1903 47.5095)
(-34.5768 -13.1462 47.6309)
(-33.2765 -15.2406 46.8822)
(-29.6907 -16.9842 47.3878)
(-22.7612 -17.4853 46.2672)
(-13.1461 -17.7286 47.6417)
(-2.0143 -18.5878 46.6481)
(7.95068 -20.2839 47.9064)
(17.2354 -24.1146 46.7978)
(23.1543 -25.4 49.9984)
(29.7394 -33.4 46.897)
(26.4346 -22.1664 55.2269)
(28.2741 -25.9314 52.9132)
(27.4935 -24.0009 55.0538)
(26.8332 -26.9557 54.2842)
(22.9001 -17.4035 58.6192)
)
;
    }
    procBoundary2to3
    {
        type            processor;
        value           nonuniform List<vector> 
180
(
(0.06963 0.136185 62.8501)
(-0.186243 0.172405 69.5488)
(-0.0117729 0.232783 66.5891)
(0.111144 0.0967863 66.2854)
(-0.120662 0.330019 63.0933)
(0.815915 0.394374 67.4169)
(1.37632 -0.0848337 67.4817)
(1.24635 -0.908076 66.351)
(0.571899 -1.21957 67.742)
(0.44699 0.0910375 63.4783)
(0.681178 0.333239 66.9716)
(0.889697 0.217949 67.1185)
(1.08541 -0.77544 66.5905)
(1.19815 -1.67502 67.061)
(1.0162 -0.389895 65.747)
(0.90119 -0.0715471 66.013)
(0.911162 0.0899092 66.856)
(0.922768 -0.0538604 66.8947)
(0.808579 -0.30492 67.0919)
(0.494463 -0.0641723 67.2577)
(0.24471 0.0334489 64.5254)
(0.566445 0.189322 66.8032)
(0.977066 0.513315 67.7962)
(1.23123 0.731531 67.3974)
(1.13956 0.942729 67.336)
(0.841247 0.908387 67.2737)
(0.770718 0.726707 67.6793)
(0.747426 0.600731 67.7742)
(0.711949 0.455786 67.7836)
(0.681203 0.165068 68.564)
(0.364903 -0.0962519 66.8929)
(0.448272 -0.223817 68.0434)
(0.332705 -0.601525 68.3056)
(0.547817 -0.818784 69.6679)
(0.0883189 -0.96564 64.544)
(-0.124468 -1.48759 71.1615)
(-0.828451 -1.46063 63.3439)
(-0.601171 -1.31816 70.4684)
(-0.327404 -0.729648 64.54)
(-0.226582 -0.399309 67.4651)
(0.186014 -0.640579 67.3424)
(0.0515331 -0.270546 66.8309)
(0.311361 -0.15444 66.4439)
(-0.911841 -0.954163 68.0327)
(-1.03869 -0.939592 62.4308)
(-1.32622 -0.910339 66.3178)
(-1.32365 -1.00494 68.5107)
(-0.970839 -0.525401 61.9598)
(-0.579184 0.364714 65.0498)
(0.0110082 0.42667 66.6468)
(-0.285013 0.571483 65.3193)
(-0.413208 1.0401 63.8378)
(0.428047 0.80453 67.1788)
(0.418164 0.613799 62.5588)
(1.08175 0.708382 65.4905)
(1.25404 0.628636 67.3524)
(0.692482 0.379951 63.153)
(1.44762 0.663517 64.9782)
(1.97305 1.14721 67.1106)
(2.49356 0.821938 66.8047)
(3.35692 0.829247 66.5068)
(3.01466 0.731177 66.3114)
(3.48236 0.267145 68.4027)
(3.07323 -0.0932161 67.8823)
(2.52762 0.061588 65.0646)
(4.00001 0.451612 69.4749)
(5.20862 0.927233 70.6021)
(7.27175 2.00734 72.4692)
(5.63023 2.21255 66.0822)
(5.87288 2.16066 72.8489)
(5.63478 2.05844 73.1015)
(6.41976 3.49405 73.394)
(7.33181 5.01601 72.8908)
(5.19299 3.6161 74.366)
(4.19319 3.38953 74.3741)
(3.01279 3.26476 76.2992)
(0.961174 3.0278 72.3078)
(-0.798066 2.35077 75.0824)
(-2.34476 1.53507 78.0479)
(-2.79489 0.861924 68.8494)
(-5.92772 -0.0159802 76.9064)
(-5.09096 -0.218753 72.1647)
(-5.18512 -0.286565 70.2716)
(-4.26299 0.210429 70.6129)
(-3.5435 0.590717 70.4441)
(-3.34287 0.935134 69.7567)
(-3.0536 1.22841 69.4019)
(-2.83565 1.5829 69.0681)
(-2.60791 1.82508 68.808)
(-2.46393 2.17404 68.6644)
(-2.33395 2.45883 68.4656)
(-2.27107 2.84899 68.5547)
(-2.26753 3.26526 68.2898)
(-2.26642 3.70646 68.806)
(-2.5691 4.2295 68.0227)
(-1.82556 4.94647 69.9462)
(-2.87831 6.04614 65.4996)
(-1.84054 5.41338 71.5037)
(-0.223597 4.86661 71.8302)
(1.95237 4.87065 71.1051)
(2.14536 4.10113 71.3745)
(0.282287 1.91739 72.6194)
(-2.27862 4.22512 71.7281)
(-7.49875 8.80426 70.7076)
(-10.8079 14.9562 71.1419)
(-12.4848 20.2091 72.6)
(-12.47 24.5938 72.8631)
(-12.1892 27.4462 73.2192)
(-11.1429 29.9797 72.9749)
(-10.6335 32.4339 72.6806)
(-9.39712 34.1032 72.7055)
(-8.71991 36.5377 71.8633)
(-8.72588 39.3347 71.6594)
(-7.96721 41.7188 71.1947)
(-7.59674 43.9426 71.9541)
(-7.09541 46.3435 71.5911)
(-6.69078 48.4636 72.4532)
(-6.08455 50.4714 72.5288)
(-5.5219 52.7955 73.6889)
(-4.76488 54.5722 73.6621)
(-3.94853 56.7629 74.805)
(-2.90707 58.2062 74.7605)
(-1.69666 60.1765 75.9118)
(-0.43603 61.3481 75.8601)
(0.988515 62.8284 77.2602)
(2.41131 63.6 77.4489)
(3.93163 64.5272 78.8967)
(5.50978 64.6817 79.5382)
(7.18855 65.2271 80.6228)
(9.02004 65.6608 81.6984)
(10.8791 66.0896 82.2378)
(13.2144 66.1382 83.4429)
(15.066 66.1234 84.076)
(17.633 65.8439 85.2442)
(19.1856 65.5978 86.0065)
(21.4263 64.0879 87.3279)
(22.6006 62.1791 87.9384)
(24.079 59.7607 88.8121)
(24.5452 56.8704 89.248)
(24.9961 53.0167 89.7278)
(24.8796 48.3161 89.9044)
(24.6231 42.661 89.8364)
(24.1252 36.5177 89.5024)
(23.5096 30.0559 89.0254)
(22.9068 23.3981 88.1035)
(22.3063 16.81 87.1561)
(21.8889 10.1707 85.5885)
(21.5851 3.68821 84.1228)
(21.5322 -2.7618 81.9453)
(21.6934 -9.02026 79.8894)
(22.1004 -14.9754 77.0932)
(22.7964 -20.3281 74.3508)
(23.8025 -24.6126 71.0341)
(25.2939 -27.491 67.8087)
(27.2824 -28.3059 64.1791)
(29.9983 -26.4394 60.8548)
(33.0931 -22.0606 57.6167)
(36.2439 -15.0671 54.8287)
(39.1038 -6.35328 52.5706)
(41.1371 3.95563 51.0771)
(41.7911 14.4363 50.1917)
(40.8166 23.3321 49.7173)
(38.1793 30.5677 49.7232)
(34.9101 34.6836 50.1718)
(31.624 37.2963 50.9193)
(27.6765 37.8949 53.6275)
(25.2834 37.9229 52.6324)
(23.4329 34.4179 54.935)
(24.2793 27.3165 56.0735)
(25.5525 17.5695 58.633)
(28.1275 7.28386 59.2031)
(29.5326 -4.47655 61.7684)
(30.9791 -14.0186 62.2762)
(29.8215 -24.05 64.0808)
(28.4859 -29.5103 64.8894)
(23.9817 -34.8409 65.5146)
(19.8329 -33.9376 66.8779)
(13.2631 -31.9823 67.9635)
(7.98713 -29.1453 66.2248)
(-0.110786 -25.7768 66.4611)
)
;
    }
}


// ************************************************************************* //
