FoamFile
{version 2.0; format ascii;class vectorField; location 0;object  v;}
349
(
( 2.06977e-06 2.25918e-06 1.2595e-06 )  
( 2.6764e-06 3.36455e-07 -2.36843e-07 )  
( 2.05221e-05 -3.4766e-05 -2.22785e-12 )  
( 9.23281e-06 -2.28626e-07 1.64418e-06 )  
( 1.88067e-06 4.10036e-06 5.68038e-07 )  
( 5.37786e-06 -1.96564e-07 1.6518e-06 )  
( 5.57679e-06 2.91698e-06 1.13282e-06 )  
( 1.86755e-06 1.95217e-06 3.56645e-07 )  
( 1.71727e-06 -6.18131e-05 -2.30299e-12 )  
( 2.45294e-06 2.69875e-06 4.86886e-07 )  
( 1.60295e-06 3.48302e-06 -1.4843e-07 )  
( 2.08346e-06 1.61694e-06 2.28554e-06 )  
( 2.7793e-07 3.30427e-06 -4.26234e-07 )  
( 3.1387e-06 4.26172e-06 1.5966e-06 )  
( 2.61339e-06 4.03623e-06 6.59866e-07 )  
( 1.02908e-06 2.47718e-06 1.23023e-06 )  
( 1.77544e-06 1.85039e-06 6.78769e-07 )  
( 1.71837e-06 3.33593e-06 -3.19928e-07 )  
( 5.26335e-06 5.36649e-06 3.46718e-06 )  
( 7.30252e-06 2.62221e-06 4.2049e-07 )  
( 2.52625e-06 3.52717e-06 -4.2712e-07 )  
( 1.84303e-06 3.56823e-06 -6.44575e-08 )  
( 1.28689e-05 -6.13251e-06 3.025e-07 )  
( 5.40752e-06 3.24586e-07 2.72239e-06 )  
( 6.40252e-06 5.13367e-06 3.72072e-06 )  
( 2.98845e-06 -2.12576e-06 -1.44416e-07 )  
( 2.70184e-06 3.48583e-06 9.11493e-07 )  
( 2.78266e-06 1.9584e-06 3.15728e-07 )  
( 2.93671e-06 6.66333e-06 -4.945e-07 )  
( 3.48559e-06 5.52689e-06 3.31135e-06 )  
( 7.11329e-06 5.09591e-06 2.92836e-06 )  
( 1.18362e-05 2.11152e-06 2.35291e-06 )  
( 2.24354e-06 -2.16344e-06 -2.44458e-07 )  
( 1.37938e-05 2.77671e-06 4.06e-06 )  
( 4.78464e-06 4.19185e-06 2.28392e-06 )  
( 3.13543e-06 8.86769e-06 1.96861e-06 )  
( 8.64115e-06 4.03707e-06 -8.4924e-08 )  
( 3.41234e-06 6.25859e-06 2.67581e-06 )  
( 1.57491e-06 4.03923e-06 4.28844e-07 )  
( 2.11936e-06 -1.97054e-06 -5.73261e-08 )  
( 3.62636e-06 4.97328e-06 7.14285e-07 )  
( 4.42996e-06 4.25507e-06 1.67606e-06 )  
( 6.23899e-06 4.85487e-06 1.78628e-06 )  
( 4.78108e-06 2.81746e-06 8.7667e-07 )  
( 5.91576e-06 4.50603e-06 4.23983e-06 )  
( 4.03663e-06 4.94185e-06 4.23296e-06 )  
( 4.1142e-06 7.0908e-06 1.52042e-06 )  
( 7.74794e-06 8.81785e-06 5.5445e-06 )  
( 4.19506e-06 6.40933e-06 2.93444e-06 )  
( 1.3999e-05 5.98217e-06 6.91209e-06 )  
( 7.15899e-06 3.0747e-06 2.45112e-07 )  
( 6.20701e-06 2.44096e-06 1.40253e-06 )  
( 6.38353e-06 3.23078e-06 1.73438e-06 )  
( 6.56378e-06 5.52805e-06 2.77768e-06 )  
( 5.4622e-06 5.72921e-06 3.11702e-06 )  
( 6.33147e-06 3.11496e-06 4.627e-06 )  
( 3.76958e-06 4.29339e-06 2.011e-06 )  
( 1.15475e-05 7.71473e-06 5.71798e-06 )  
( 1.12314e-06 3.76529e-06 -2.35018e-07 )  
( 5.91049e-06 6.16913e-06 3.76566e-06 )  
( 4.19914e-06 4.35553e-06 6.76169e-06 )  
( 7.0474e-06 5.3688e-06 1.47086e-06 )  
( 3.84333e-06 8.63023e-06 2.52482e-06 )  
( 8.09031e-06 3.17876e-06 3.10498e-06 )  
( 6.02336e-06 5.09238e-06 1.85029e-06 )  
( 1.12633e-05 5.10342e-06 6.52375e-06 )  
( 7.55259e-06 1.83171e-05 1.20422e-05 )  
( 5.25773e-06 3.78826e-06 4.90325e-06 )  
( 8.61977e-06 4.90617e-06 3.36919e-06 )  
( 7.74546e-06 8.08733e-06 4.02926e-06 )  
( 3.02658e-06 9.17247e-06 9.69947e-07 )  
( 9.67294e-06 6.75936e-06 6.51579e-06 )  
( 6.46679e-06 7.54062e-06 4.53881e-06 )  
( 6.56401e-06 9.24433e-06 1.17536e-06 )  
( 3.79892e-06 5.00355e-06 2.75096e-07 )  
( 7.49605e-06 5.11221e-06 6.24581e-06 )  
( 9.67317e-06 5.23583e-06 4.63006e-06 )  
( 2.54022e-05 1.26055e-05 7.14458e-06 )  
( 8.99178e-06 1.74944e-05 1.01268e-05 )  
( 1.33026e-05 7.95049e-06 3.21127e-06 )  
( 1.21056e-05 5.26726e-06 4.42394e-06 )  
( 1.97064e-06 1.36365e-05 6.09952e-06 )  
( 9.10946e-06 7.17453e-06 3.37713e-06 )  
( 6.46068e-06 9.58125e-06 1.46392e-06 )  
( 1.32761e-05 6.32023e-06 3.808e-06 )  
( 1.13716e-05 8.92081e-06 3.67669e-06 )  
( 1.00066e-05 6.90978e-06 4.64776e-06 )  
( 1.00365e-05 1.58285e-05 6.32565e-06 )  
( 1.27343e-05 1.24601e-05 4.79003e-06 )  
( 5.17478e-06 5.26237e-06 -7.91517e-07 )  
( 1.31646e-05 8.6767e-06 6.27539e-06 )  
( 1.03384e-05 7.09127e-06 4.94995e-06 )  
( 2.36627e-05 1.41233e-05 9.25535e-06 )  
( 1.19898e-05 7.7243e-06 2.83975e-06 )  
( 2.67114e-06 1.26975e-05 6.19167e-07 )  
( 1.23193e-05 8.61759e-06 2.56581e-06 )  
( 8.66295e-06 2.23658e-05 -3.69879e-06 )  
( 1.10057e-05 6.92367e-06 2.50381e-06 )  
( 8.10024e-06 6.33845e-06 4.89438e-06 )  
( 8.76176e-06 7.65105e-06 5.37309e-06 )  
( 1.00894e-05 1.08505e-05 1.78588e-06 )  
( 1.27702e-05 9.54298e-06 4.43454e-06 )  
( 1.01366e-05 7.39696e-06 5.68388e-06 )  
( 1.20185e-05 9.16009e-06 7.19887e-06 )  
( 1.32258e-05 8.59238e-06 -8.31461e-06 )  
( 1.35162e-05 8.45096e-06 8.58225e-06 )  
( 1.2627e-05 7.96607e-06 6.05885e-06 )  
( 7.76921e-06 7.38693e-06 5.67857e-06 )  
( 8.54526e-06 7.17757e-06 9.32161e-06 )  
( 1.20633e-05 8.76282e-06 7.41888e-06 )  
( 1.28115e-05 1.0238e-05 4.33399e-06 )  
( 1.2643e-05 8.98611e-06 5.57641e-06 )  
( 1.09665e-05 3.80252e-06 6.26412e-06 )  
( 8.00887e-06 1.01489e-05 2.95317e-07 )  
( 1.06299e-05 4.96539e-06 1.13916e-05 )  
( 1.41908e-05 8.55384e-06 4.46439e-06 )  
( 1.36828e-05 7.14442e-06 7.94267e-06 )  
( 1.13839e-05 1.0156e-05 -1.10385e-07 )  
( 1.09092e-05 7.10439e-06 7.97593e-06 )  
( 1.41968e-05 7.13011e-06 -1.01452e-05 )  
( 9.03801e-06 1.31647e-05 1.57682e-06 )  
( 1.08314e-05 8.22015e-06 4.37968e-06 )  
( 8.63969e-06 8.37696e-06 5.52427e-06 )  
( 1.27733e-05 2.42477e-05 -5.22147e-06 )  
( 1.25222e-05 8.12234e-06 6.81372e-06 )  
( 1.21485e-05 6.66467e-06 5.20081e-06 )  
( 8.81009e-06 7.31645e-06 6.36949e-06 )  
( 1.18573e-05 9.62726e-06 5.7214e-06 )  
( 5.64916e-06 6.18679e-06 8.25493e-06 )  
( 8.98456e-06 1.18856e-05 7.36e-06 )  
( 1.31286e-05 5.95267e-06 7.24313e-06 )  
( 1.07203e-05 8.82715e-06 5.72062e-06 )  
( 1.13339e-05 1.00392e-05 1.12575e-05 )  
( 1.31775e-05 8.86833e-06 8.21119e-06 )  
( 1.20038e-05 1.16186e-05 1.17001e-05 )  
( 1.04832e-05 9.95427e-06 3.61616e-06 )  
( 7.48687e-06 5.34277e-06 9.59183e-06 )  
( 1.33708e-05 9.93314e-06 4.81609e-06 )  
( 7.78812e-06 7.7428e-06 2.99595e-06 )  
( 1.064e-05 5.47437e-06 1.12464e-05 )  
( 4.95691e-06 1.23446e-05 1.10267e-07 )  
( 1.07438e-05 4.43678e-06 1.11124e-05 )  
( 3.69081e-05 5.80673e-06 2.23763e-06 )  
( 1.13281e-05 8.37746e-06 6.4001e-06 )  
( 8.92307e-06 1.20447e-05 1.30685e-05 )  
( 1.15609e-05 7.65333e-06 3.87904e-06 )  
( 5.75725e-06 1.08315e-05 6.14951e-06 )  
( 6.44361e-06 8.10334e-06 7.38365e-06 )  
( 2.12547e-05 1.15094e-05 2.75757e-06 )  
( 8.81754e-06 5.12641e-06 7.44123e-06 )  
( 1.10909e-05 8.14575e-06 6.05239e-06 )  
( 8.59078e-06 1.05009e-05 9.30071e-06 )  
( 1.82658e-05 3.59789e-06 1.30858e-05 )  
( 1.46431e-05 1.06239e-05 7.86635e-06 )  
( 9.66353e-06 1.03607e-05 2.2455e-06 )  
( 1.52152e-05 2.3485e-05 3.10233e-06 )  
( 1.5074e-06 1.90007e-05 1.4595e-05 )  
( 6.41032e-06 1.13328e-05 1.35631e-05 )  
( 2.34983e-05 7.01761e-06 4.69787e-06 )  
( 2.39735e-05 -6.06267e-06 1.12113e-05 )  
( 5.13387e-06 1.35587e-05 1.17352e-05 )  
( 1.39435e-05 7.12644e-06 5.62074e-06 )  
( 8.55964e-06 7.78418e-06 6.84672e-06 )  
( 1.99932e-05 1.0489e-05 9.6064e-06 )  
( 4.65719e-06 1.00875e-05 7.36352e-06 )  
( 1.20909e-05 8.94415e-06 9.58603e-06 )  
( 1.07295e-05 1.52806e-05 4.77667e-06 )  
( 2.64627e-05 2.89738e-06 4.35958e-06 )  
( 1.85216e-05 -3.14694e-06 1.98592e-05 )  
( 1.78525e-05 1.14779e-05 5.09853e-06 )  
( 1.44745e-05 1.23429e-05 6.04721e-06 )  
( 1.32386e-05 2.54074e-05 1.68296e-05 )  
( 2.4226e-05 1.00161e-05 -2.55831e-06 )  
( 1.47204e-05 5.4135e-06 4.80405e-06 )  
( 8.35205e-06 1.34949e-05 8.81296e-06 )  
( 1.35604e-05 1.21987e-05 2.12078e-06 )  
( 9.8987e-06 4.37986e-06 1.156e-05 )  
( 1.1684e-05 1.57455e-05 6.734e-06 )  
( 2.78082e-05 1.10093e-05 2.70468e-06 )  
( 3.76249e-05 1.20338e-06 1.00482e-05 )  
( 9.24845e-06 1.14846e-05 2.00574e-06 )  
( 7.33897e-06 1.49185e-05 4.79723e-07 )  
( 2.58312e-05 1.90126e-05 7.94588e-06 )  
( 1.44623e-05 7.62027e-06 7.2419e-06 )  
( 2.94826e-06 8.09468e-06 1.13084e-05 )  
( 2.78431e-05 1.76263e-06 4.30405e-06 )  
( 1.26647e-05 1.51011e-05 8.77857e-06 )  
( 3.45107e-05 8.22657e-06 7.34707e-07 )  
( 1.4892e-05 5.17455e-05 -1.03793e-05 )  
( 2.65602e-05 7.97981e-06 1.03897e-05 )  
( 2.29823e-05 2.52196e-05 7.20809e-06 )  
( 1.98647e-05 4.46119e-05 6.40682e-06 )  
( 1.18459e-05 5.57689e-06 3.16288e-06 )  
( 4.95089e-06 9.36775e-06 1.8515e-05 )  
( 2.86576e-05 1.08392e-05 8.59432e-06 )  
( 2.58401e-05 2.87629e-05 4.381e-06 )  
( 1.76125e-05 8.34037e-07 7.18139e-06 )  
( 3.43287e-05 4.39844e-06 7.70568e-06 )  
( 2.54748e-05 2.01275e-05 3.6389e-06 )  
( 1.54542e-05 1.14733e-05 2.9258e-06 )  
( 2.15033e-05 1.71608e-05 2.17853e-05 )  
( -7.13426e-07 4.26105e-05 2.2239e-05 )  
( 9.32015e-06 4.89781e-06 -4.59683e-08 )  
( 9.39548e-06 3.63362e-06 1.48343e-05 )  
( 5.61692e-05 8.90263e-06 6.14244e-06 )  
( 8.61007e-06 2.39027e-05 -1.12261e-05 )  
( 2.26302e-05 1.3523e-05 6.55532e-06 )  
( 1.87186e-05 7.22618e-06 3.43885e-06 )  
( 2.42339e-05 8.46079e-06 9.77279e-06 )  
( 1.89462e-05 -3.89279e-07 8.2073e-06 )  
( 1.68504e-05 2.11305e-05 1.32239e-05 )  
( 2.02179e-05 1.64586e-05 1.90181e-05 )  
( -4.50664e-06 3.8905e-05 3.31811e-05 )  
( 0.00045336 0.000102801 -0.000157391 )  
( 2.01911e-05 7.97742e-06 1.10788e-05 )  
( 2.34086e-05 4.84797e-06 9.19948e-06 )  
( 2.89115e-05 8.27134e-06 4.32319e-06 )  
( 1.62444e-05 7.53992e-06 1.67284e-05 )  
( 2.08428e-05 6.81682e-06 -7.6788e-06 )  
( 1.63257e-05 9.92717e-06 3.86249e-08 )  
( 3.44811e-05 6.40021e-08 1.81799e-05 )  
( 1.37631e-05 8.87466e-06 -2.09941e-06 )  
( 2.03713e-05 1.37365e-05 -5.9505e-06 )  
( 1.49719e-05 -0.000146935 3.67676e-05 )  
( 3.80638e-05 -2.17777e-06 5.80088e-06 )  
( 1.4934e-05 8.69722e-06 7.76373e-06 )  
( 3.11412e-05 4.43453e-06 3.01825e-06 )  
( 3.45543e-05 3.98375e-06 5.58294e-06 )  
( 2.83089e-05 7.4553e-06 -2.602e-06 )  
( 2.00906e-05 9.23146e-06 6.92557e-06 )  
( 2.51503e-05 6.19515e-06 1.22144e-05 )  
( 3.28576e-05 2.60529e-05 8.67638e-07 )  
( 3.34381e-05 2.49002e-07 1.34938e-05 )  
( 2.01314e-05 2.17737e-06 8.51278e-06 )  
( 2.09752e-05 6.52418e-06 -3.22813e-06 )  
( 2.04925e-05 6.242e-06 -3.873e-06 )  
( 1.79681e-05 1.05893e-05 -5.28099e-06 )  
( 5.47119e-05 -0.000109483 -1.77305e-06 )  
( 2.93273e-05 7.81485e-06 2.23952e-05 )  
( 2.89055e-05 -1.29742e-05 -6.80859e-06 )  
( 2.01791e-05 1.09221e-05 -6.89756e-06 )  
( 1.64119e-05 6.86355e-06 5.70851e-06 )  
( 2.97216e-05 4.3449e-06 1.24867e-05 )  
( 2.06496e-05 -1.21511e-05 1.16952e-05 )  
( 3.34372e-05 1.72589e-05 1.07255e-05 )  
( 3.10068e-05 8.05157e-06 9.08553e-06 )  
( 1.28772e-05 8.71848e-06 -1.70517e-07 )  
( 2.87452e-05 -0.000116647 9.02731e-05 )  
( 2.04255e-05 2.24181e-06 8.92525e-06 )  
( 3.53581e-05 3.42804e-06 2.30888e-05 )  
( 2.66469e-05 8.298e-07 1.45388e-05 )  
( -1.50589e-06 -3.24998e-06 4.38131e-06 )  
( -1.09045e-05 1.41598e-05 5.64195e-06 )  
( 2.40915e-05 1.39806e-05 6.07216e-06 )  
( 3.35498e-05 -2.25279e-05 -9.48965e-06 )  
( 1.69983e-05 -3.89087e-06 1.38837e-05 )  
( 1.72519e-05 -8.38058e-06 -2.98015e-06 )  
( -3.21667e-07 -5.96694e-05 -9.20078e-07 )  
( 1.67701e-05 -3.65616e-06 -1.85956e-06 )  
( 2.24355e-05 -5.03267e-06 -2.14429e-06 )  
( -4.49809e-06 -3.66316e-05 1.94276e-05 )  
( 4.72971e-05 -3.63743e-06 1.23198e-05 )  
( 2.12413e-05 4.39816e-06 1.89058e-05 )  
( 1.76849e-05 -7.67041e-06 2.40387e-05 )  
( 2.73708e-05 8.31723e-08 4.92527e-08 )  
( 2.99628e-05 6.53549e-06 4.37388e-06 )  
( 2.8337e-05 -9.01909e-07 4.23874e-07 )  
( 5.48278e-05 -2.38081e-05 4.09795e-05 )  
( 3.71539e-05 5.21247e-06 -5.72805e-06 )  
( 3.16136e-05 5.07464e-06 3.41874e-06 )  
( -0.000210983 -3.07373e-05 4.94362e-05 )  
( 1.30083e-05 -1.63148e-05 3.40005e-05 )  
( 3.37682e-05 9.59068e-06 2.72965e-05 )  
( 6.83805e-05 1.73367e-05 -2.19749e-05 )  
( 5.20506e-05 -2.30542e-05 1.59282e-05 )  
( 1.10704e-05 -1.27002e-05 1.69362e-06 )  
( 1.97151e-05 -2.62365e-06 1.20579e-05 )  
( 2.89441e-05 -8.17e-06 -1.84535e-07 )  
( 3.67825e-05 -3.67561e-06 -3.97115e-06 )  
( -0.000103266 -8.5413e-05 -3.39385e-05 )  
( 5.11308e-05 2.62062e-05 3.39035e-05 )  
( 2.26006e-05 2.98267e-06 -3.95714e-06 )  
( 3.35016e-05 -3.02754e-05 2.56436e-05 )  
( 3.09979e-07 2.30331e-07 1.22626e-05 )  
( 1.68201e-05 -2.92557e-05 9.46678e-06 )  
( 3.73549e-05 7.57217e-06 1.90795e-05 )  
( 2.40709e-05 -3.30446e-06 1.77206e-05 )  
( -4.82027e-05 -7.53783e-05 -4.18219e-06 )  
( 3.09917e-05 1.29219e-05 1.09638e-05 )  
( 3.44887e-05 -1.9683e-05 1.86738e-05 )  
( 1.23045e-05 5.37582e-06 1.91069e-05 )  
( 5.89706e-05 -2.54699e-06 2.22419e-05 )  
( 2.10177e-05 -9.43894e-06 -1.39157e-05 )  
( 2.27208e-05 1.86557e-05 5.41104e-06 )  
( 1.18713e-05 -1.83485e-05 1.66738e-05 )  
( 4.03663e-05 3.85503e-06 1.4585e-06 )  
( 1.04006e-05 -1.08847e-05 2.14201e-05 )  
( 0.000123291 3.39209e-05 -1.91469e-07 )  
( -1.15477e-05 2.01526e-05 5.44023e-07 )  
( 1.84154e-05 2.59485e-05 -1.07714e-06 )  
( 2.14763e-05 8.22986e-06 4.56745e-05 )  
( -9.65348e-05 0.000187046 -1.63888e-05 )  
( 0.000263089 -0.00114285 -0.000840105 )  
( 1.78612e-05 -1.80792e-05 1.08906e-05 )  
( 2.82832e-05 3.84074e-05 -3.47873e-06 )  
( 4.04366e-05 -3.73757e-06 -2.45398e-06 )  
( 1.9e-05 5.21866e-05 1.26843e-05 )  
( 1.64616e-05 2.52104e-05 -7.19771e-06 )  
( 4.8281e-05 3.62877e-05 2.41739e-05 )  
( 4.47755e-05 7.03606e-06 4.97166e-05 )  
( 7.94497e-05 -1.14646e-05 3.99644e-05 )  
( -0.000279278 2.55002e-06 4.64546e-05 )  
( 0.000736647 -0.000743527 -0.000694509 )  
( 2.26585e-05 2.88007e-05 -8.93782e-06 )  
( 6.27776e-05 3.51871e-05 -1.25368e-05 )  
( -3.75031e-05 7.10161e-05 -2.31365e-06 )  
( -1.53322e-05 -2.38091e-05 1.0365e-05 )  
( -2.08907e-05 -0.000437214 -0.000310368 )  
( 2.26282e-07 5.52475e-06 5.90267e-05 )  
( 0.000148948 -2.70377e-05 4.68808e-05 )  
( 1.2428e-05 -9.6019e-06 2.24665e-05 )  
( 1.07571e-07 -6.97715e-05 -0.000297684 )  
( 0.000218346 -2.17145e-05 -3.19195e-05 )  
( -5.82527e-05 9.47958e-05 4.91308e-05 )  
( 3.8337e-05 -3.68062e-05 8.1558e-06 )  
( -2.36391e-05 0.000138472 -4.3187e-05 )  
( 0.00111137 -0.000370118 -0.00132383 )  
( -0.000991939 0.000804301 -0.000595505 )  
( -1.21998e-05 0.00032985 -0.000186468 )  
( -3.14507e-05 -5.49363e-05 -0.000109858 )  
( 2.65029e-05 5.49997e-05 7.5761e-05 )  
( -5.9025e-05 0.000146884 0.000151157 )  
( -0.000239275 0.000174613 1.31077e-05 )  
( 3.03883e-05 -0.000148067 -8.45733e-05 )  
( -0.000414626 -0.000548219 -6.38024e-06 )  
( -6.09133e-05 0.000202624 -7.66516e-05 )  
( -8.49957e-05 6.97323e-05 8.46248e-05 )  
( 6.31959e-05 -3.71125e-05 -2.08812e-05 )  
( 0.000109406 -0.000140709 -6.82129e-05 )  
( 0.000426016 0.000139902 -0.000456166 )  
( -0.000116909 7.92747e-05 0.000315863 )  
( -0.000324321 -0.00038745 0.000170329 )  
( 8.36939e-05 1.59486e-05 6.24474e-06 )  
( 0.000176583 -0.000482993 -0.000124129 )  
( -0.000377775 0.000688361 -0.000128962 )  
( -0.000131402 -0.0010441 -0.000731461 )  
( -0.000135941 6.53131e-05 5.56133e-05 )  
( -0.000205264 0.000376892 -0.000772783 )  
( -0.000112016 0.000119798 -3.35913e-06 )  
)
