FoamFile
{version 2.0; format ascii;class vectorField; location 0;object  v;}
42
(
( -7.91556e-05 -3.13971e-06 -6.55667e-05 )  
( -4.73743e-05 -2.70115e-05 -3.41565e-05 )  
( 2.46703e-05 -1.10601e-05 -7.00413e-06 )  
( 2.67875e-05 -1.66341e-05 -5.77377e-05 )  
( 4.30844e-06 5.9895e-06 -2.45695e-05 )  
( 0.000114715 -2.57904e-05 -0.000133594 )  
( 9.67338e-06 -3.21067e-05 -0.000100155 )  
( 2.69404e-05 -4.95788e-06 -5.13564e-05 )  
( 6.5616e-05 3.68453e-06 -9.09958e-05 )  
( -5.41106e-05 -3.39114e-05 -9.10541e-05 )  
( 8.71618e-05 -2.96571e-05 -0.000125752 )  
( -2.67371e-05 8.03546e-05 -6.29263e-05 )  
( 9.52113e-05 8.37755e-06 -0.000102626 )  
( 3.35395e-05 3.78506e-05 -0.000309456 )  
( -5.86539e-05 -0.000166487 -0.00026174 )  
( 3.34182e-05 8.29989e-06 -0.000175224 )  
( 9.70737e-05 9.40746e-05 -0.000152162 )  
( -4.69903e-05 -6.89055e-05 -0.000243782 )  
( 1.2308e-05 -1.96638e-05 -0.000209533 )  
( 8.55863e-05 -5.00027e-05 -0.000145392 )  
( -3.88135e-05 -0.000117642 -0.000116847 )  
( -1.16284e-05 5.03552e-05 -0.000153281 )  
( -2.71054e-07 -1.77242e-05 -0.000174248 )  
( -3.67922e-05 8.80469e-06 -0.000147369 )  
( 9.75814e-06 1.08575e-05 -0.000168269 )  
( -6.95729e-05 -4.17426e-05 -0.000175156 )  
( -7.72441e-05 9.41e-06 2.72979e-06 )  
( 6.219e-05 -2.20542e-05 -7.09276e-05 )  
( -5.10864e-05 7.96988e-06 8.46479e-05 )  
( 1.30323e-05 8.87399e-06 -2.35264e-05 )  
( -0.000122023 -5.0174e-05 -0.000192553 )  
( 8.18534e-05 -7.87551e-06 0.00013092 )  
( 1.15415e-05 -6.01546e-05 -7.89779e-05 )  
( -3.10556e-05 -2.69281e-05 1.27409e-05 )  
( 2.67824e-05 -2.61381e-05 6.78055e-05 )  
( 8.1774e-05 2.78326e-06 0.00025324 )  
( 0.000104616 3.16202e-05 0.000326708 )  
( -4.77334e-05 2.20035e-05 0.000203827 )  
( -4.16294e-05 8.35872e-06 0.000149485 )  
( 0.000134357 -6.91957e-05 3.12323e-05 )  
( 6.50451e-05 -0.000136212 0.000355047 )  
( -3.40254e-05 0.00011272 0.000164706 )  
)
