# vtk DataFile Version 4.0
Generated by LIGGGHTS
ASCII
DATASET POLYDATA
POINTS 1400 float
-379.431 -380.88 49.98 -460.664 -439.198 49.9633 -256.788 -470.42 49.9843 
-90.5807 -363.727 49.968 -165.226 -430.224 49.9431 90.9349 -486.881 49.9282 
125.619 -361.668 49.9493 25.3782 -411.401 49.9783 182.423 -446.048 49.9935 
221.874 -334.667 49.9495 284.171 -412.834 49.9796 440.594 -454.974 49.9342 
377.609 -377.358 49.9429 476.332 -361.59 49.9822 -442.46 -303.248 49.9896 
-374.088 -230.289 49.9443 -311.06 -307.866 49.9528 -275.459 -214.001 49.943 
-175.587 -209.716 49.9578 -174.648 -309.678 49.9596 -87.088 -261.403 49.9646 
-3.02614 -315.547 49.9523 1.83662 -215.698 49.9528 85.8999 -269.918 49.9744 
270.242 -195.731 49.9358 182.148 -242.948 49.9616 313.364 -286.572 49.9678 
370.172 -193.833 49.9511 476.637 -206.607 49.9861 413.316 -283.984 49.9607 
-441.425 -149.292 49.9624 -479.709 -54.3913 49.9743 -379.792 -45.1302 49.9361 
-339.34 -136.558 49.975 -191.296 -10.4728 49.972 -186.074 -110.307 49.9792 
-280.406 -55.8026 49.929 -82.1662 -161.525 49.9279 -98.1016 -62.812 49.9772 
94.4328 -163.958 49.9859 140.324 -75.1131 49.9416 6.77983 -115.831 49.9531 
308.641 -3.5961 49.9554 240.325 -76.5845 49.9878 431.015 -9.33862 49.9816 
439.323 -113.096 49.9935 337.715 -99.2622 49.9935 -449.945 149.336 49.9795 
-361.619 102.491 49.9667 -437.089 36.8008 49.9544 -265.945 143.495 49.9738 
-277.445 44.1527 49.9748 -24.1363 4.44986 49.9697 -150.577 109.076 49.9144 
-29.3978 104.288 49.9828 75.7837 1.24415 49.9536 70.5473 101.422 49.9685 
267.32 87.4332 49.9341 198.577 14.824 49.9503 170.091 110.648 49.9431 
474.204 84.1813 49.9696 373.374 72.6189 49.9873 413.554 164.188 49.9724 
-364.928 202.396 49.9495 -425.251 282.13 49.9599 -181.695 204.058 49.936 
-273.674 243.193 49.9791 -205.841 316.67 49.9785 -113.849 277.499 49.9759 
-12.2719 247.812 49.9605 80.6553 210.816 49.9917 64.5644 313.86 49.9931 
244.853 291.052 49.953 187.708 209.037 49.9798 285.035 185.996 49.9935 
489.676 229.032 49.9471 342.198 268.366 49.9558 432.581 311.111 49.9914 
-387.12 393.749 49.9518 -482.589 364.037 49.9529 -486.098 464.105 49.9804 
-386.459 493.75 49.9542 -303.775 338.521 49.9815 -197.792 446.158 49.917 
-297.607 438.313 49.9964 -2.40078 476.705 49.9744 -25.897 379.516 49.9452 
-102.426 476.041 49.9469 -125.839 376.744 49.9736 75.026 413.318 49.9935 
157.688 350.301 49.9829 259.634 490.271 49.9454 249.061 390.896 49.9313 
168.232 449.732 49.9496 359.333 482.615 49.9895 429.159 411.044 49.9721 
-413.384 -460.145 135.499 -454.887 -370.006 123.389 -380.968 -383.26 190.555 
-321.551 -424.257 119 -243.742 -375.713 79.2385 -222.332 -423.428 164.444 
-288.102 -348.189 174.613 -136.181 -380.57 137.321 -56.9859 -446.762 94.2792 
-142.679 -480.276 133.44 -50.3247 -474.923 189.956 16.2943 -375.565 142.882 
117.534 -426.854 125.271 30.8966 -476.257 131.66 182.581 -479.936 179.482 
210.682 -391.129 131.661 274.297 -467.838 139.488 301.839 -350.408 126.051 
370.384 -447.587 120.728 466.045 -428.012 142.737 400.145 -352.839 144.172 
-376.794 -307.637 125.276 -448.082 -226.738 116.993 -451.007 -300.376 195.658 
-193.574 -321.498 194.025 -324.601 -223.12 136.503 -242.491 -280.193 117.218 
-145.74 -259.377 131.382 -60.8646 -312.992 131.47 -57.2784 -212.78 132.097 
105.788 -329.078 142.361 121.178 -219.473 128.726 28.1629 -267.045 131.589 
31.6849 -167.145 132.064 197.908 -290.755 136.49 286.139 -243.795 136.12 
206.32 -199.896 177.329 479.157 -294.88 124.373 399.986 -234.949 136.076 
485.917 -220.832 191.803 -392.895 -145.412 137.263 -430.098 -45.1152 136.269 
-215.969 -166.405 195.802 -329.208 -68.3412 136.272 -260.463 -136.594 111.4 
-232.179 -44.0907 136.651 -313.64 -145.25 198.19 -142.752 -153.639 128.998 
-133.042 -55.1843 143.337 -51.5464 -111.768 131.026 24.2278 -47.2369 120.561 
112.986 -109.512 139.697 98.8817 -20.45 182.83 184.065 -39.5769 132.522 
189.208 -152.077 91.001 284.777 -143.855 134.092 283.81 -44.0026 137.956 
221.081 -103.612 199.763 494.797 -145.296 126.846 384.506 -136.279 130.378 
446.646 -58.1554 135.822 369.392 -65.1147 198.915 -352.123 26.3949 114.062 
-423.003 95.1052 129.927 -499.91 25.8578 126.924 -499.988 96.0558 198.094 
-311.666 118.015 135.169 -206.138 61.3313 117.905 -278.875 35.6726 181.466 
-213.673 159.744 133.629 -49.6765 1.78113 168.533 -110.54 28.7757 93.9659 
-110.761 116.874 141.224 -23.2246 111.8 189.188 23.6945 52.694 123.606 
132.785 47.4633 117.81 76.6742 110.422 185.7 24.9398 160.779 116.259 
132.091 166.63 123.504 175.493 97.3471 193.166 239.028 45.3346 136.137 
229.477 143.985 123.15 323.055 100.866 131.78 370.039 5.63679 128.299 
422.426 90.4602 135.27 488.193 165.241 126.891 -492.815 295.647 122.372 
-350.807 280.622 116.661 -416.66 194.744 135.109 -198.635 259.242 131.505 
-293.567 212.535 162.311 -273.915 309.907 173.452 -86.1083 183.835 71.2062 
-49.0496 310.584 118.553 -46.5044 218.069 156.403 -134.578 326.886 167.684 
-139.962 200.612 187.38 135.246 271.699 107.544 39.0001 265.775 133.862 
226.795 243.086 135.722 316.221 199.575 146.064 312.07 299.296 140.202 
398.744 168.267 193.404 405.755 235.406 119.691 471.656 236.689 194.826 
406.438 331.828 146.058 -486.541 495.934 187.585 -428.272 351.708 174.195 
-427.821 441.224 127.927 -339.528 377.993 136.446 -334.999 477.838 134.142 
-235.147 481.759 135.483 -242.228 383.999 114.317 -151.637 420.215 136.212 
-52.3096 437.205 127.19 -49.6238 368.681 199.922 114.609 463.178 133.208 
26.2309 374.378 135.076 125.29 364.35 143.771 16.2611 450.972 198.572 
222.354 342.902 133.436 225.656 443.604 131.575 293.855 384.226 189.746 
341.802 376.795 84.4632 486.367 391.638 140.854 438.596 477.754 123.832 
342.892 459.766 146.39 -412.572 -447.656 261.257 -418.494 -349.089 276.697 
-495.685 -385.415 224.64 -331.123 -395.778 289.98 -321.729 -460.88 212.024 
-236.145 -393.904 258.927 -191.236 -461.376 317.416 -231.129 -497.497 233.177 
-94.4244 -436.516 316.381 -4.5055 -414.479 278.753 -64.8589 -377.612 207.661 
-141.957 -362.153 269.483 -141.203 -453.939 229.82 68.3628 -430.313 212.217 
57.3998 -485.993 311.156 154.521 -379.64 213.546 92.2133 -374.374 291.584 
169.581 -456.433 275.776 252 -426.563 227.733 296.897 -469.754 305.886 
294.103 -366.808 295.931 198.149 -338.814 293.677 224.076 -417.297 349.896 
491.195 -468.667 278.41 406.496 -469.936 211.234 373.939 -379.008 237.021 
494.488 -379.375 323.946 390.673 -368.012 334.965 396.633 -464.806 310.609 
-355.274 -292.366 223.307 -416.988 -207.696 211.669 -460.274 -258.772 286.075 
-367.182 -282.847 331.157 -337.842 -207.235 272.75 -409.312 -192.742 341.164 
-279.665 -309.886 291.135 -264.451 -252.526 210.727 -178.632 -234.529 258.72 
-189.217 -300.858 332.793 -252.685 -218.35 323.9 -76.4844 -228.786 295.466 
-14.1611 -240.515 218.152 -103.233 -285.853 217.849 -95.6778 -172.45 215.152 
-38.6295 -320.776 285.632 45.192 -320.878 221.45 141.958 -274.14 217.674 
129.952 -269.497 316.83 76.5683 -198.515 215.688 89.1094 -171.112 310.974 
31.9519 -252.976 305.986 253.532 -328.087 210.691 180.172 -193.256 276.088 
266.102 -236.78 249.354 226.908 -254.779 339.55 330.662 -184.95 305.386 
346.941 -289.842 200.686 352.975 -282.234 300.155 341.008 -189.636 202.891 
416.577 -214.281 263.493 443.33 -306.294 221.397 450.752 -289.575 319.685 
-366.417 -8.05139 206.814 -459.207 -108.573 207.784 -374.303 -93.3432 258.353 
-490.946 -163.645 284.913 -432.865 -95.6305 339.341 -406.736 -0.629631 298.136 
-279.717 -54.8228 223.917 -244.813 -127.381 283.183 -314.772 -35.7195 315.556 
-210.443 -33.3632 292.747 -328.213 -132.199 338.119 -152.548 -153.876 311.692 
-72.6058 -95.013 323.317 -12.8244 -155.683 270.967 -158.189 -93.4029 232.246 
-59.3666 -79.8529 225.406 -14.6045 -13.168 306.02 -105.539 -1.16736 266.227 
36.6462 -98.9864 205.164 129.496 -115.957 238.041 77.4224 -40.7254 278.315 
25.5125 -97.1941 342.397 170.017 -6.94173 325.569 206.621 -95.8655 298.352 
299.836 -100.718 261.268 271.036 -21.0709 314.35 192.44 -12.1693 228.289 
479.866 -62.6208 272.393 442.969 -132.712 211.395 371.457 -2.86558 277.097 
393.726 -108.108 294.829 -465.801 0.851128 217.507 -480.935 66.0709 291.716 
-405.525 81.6012 227.436 -481.363 161.616 321.148 -382.869 114.234 319.169 
-179.851 11.951 200.729 -319.724 53.611 270.911 -259.57 134.751 218.848 
-217.207 65.0912 276.709 -129.704 90.9637 235.859 -41.8108 80.0132 282.143 
-133.72 79.9524 335.16 26.1073 32.9332 225.851 29.8026 165.238 254.954 
119.079 48.1751 259.468 50.6501 90.9397 318.498 126.233 146.846 273.85 
269.579 124.984 212.758 289.529 10.7438 221.401 214.596 70.7504 281.212 
311.19 71.1352 306.916 239.687 165.866 299.142 436.281 15.0506 203.124 
362.07 79.5365 221.28 437.62 120.634 272.218 432.952 46.2167 338.795 
375.729 134.525 349.465 -353.732 167.105 227.964 -395.696 262.545 205.483 
-452.945 179.441 226.985 -471.185 267.439 270.835 -398.877 321.202 314.129 
-395.745 212.598 306.752 -267.882 176.775 309.182 -222.504 240.902 226.825 
-314.859 252.172 263.336 -215.588 319.886 287.719 -173.152 170.533 277.898 
-302.44 315.308 339.825 -175.212 246.722 342.559 -69.8514 172.986 253.073 
-88.6832 270.887 236.628 -90.6833 299.113 332.525 -20.4044 229.22 319.459 
-101.997 178.814 347.651 97.2855 219.652 200.746 10.4192 259.931 229.459 
93.5555 271.484 286.138 69.6554 192.461 342.502 165.699 292.577 200.464 
192.635 193.291 215.333 275.148 249.244 222.996 192.119 254.772 294.17 
322.101 299.636 295.443 333.372 181.472 267.892 373.41 263.377 211.029 
443.282 218.985 289.009 419.184 312.233 315.808 -491.723 356.518 325.543 
-389.615 465.744 216.972 -367.908 415.302 300.48 -468.085 410.346 244.683 
-450.427 465.645 326.066 -346.396 345.236 232.509 -304.706 495.912 300.549 
-296.483 429.599 212.77 -209.368 380.74 208.656 -177.348 441.147 290.975 
-268.753 402.753 305.006 -10.8874 338.709 287.162 -106.411 448.281 220.857 
-127.487 359.501 261.896 -35.3402 490.18 282.415 -70.1968 408.192 327.74 
140.779 359.492 290.172 50.8472 417.315 286.053 106.934 479.492 231.484 
[...]
POINT_DATA 1400
FIELD FieldData 7
id 1 1400 int
92 20 9 74 35 73 25 53 19 
61 37 101 79 26 29 119 22 31 
82 52 36 84 99 14 4 60 97 
41 80 102 72 27 34 15 110 17 
18 28 142 111 24 85 105 89 33 
39 43 58 91 81 8 69 11 1 
104 21 93 134 46 32 44 5 76 
87 56 23 86 45 129 30 57 100 
2 95 48 3 59 16 10 38 50 
12 63 70 42 7 71 66 62 51 
13 114 6 54 40 55 77 154 249 
106 155 173 157 67 96 127 230 228 
118 185 192 122 171 164 88 175 207 
140 159 279 120 183 161 116 141 112 
167 124 193 169 208 227 216 90 150 
214 133 170 211 68 103 221 240 78 
146 166 123 224 200 151 132 181 245 
272 108 47 158 163 98 109 75 217 
138 152 215 197 210 165 172 271 117 
196 248 115 107 191 178 113 130 223 
156 160 143 65 204 137 219 190 136 
121 176 168 187 145 202 139 194 182 
225 131 162 269 281 256 94 184 125 
147 213 128 220 198 144 64 149 285 
212 148 257 153 49 83 188 393 296 
199 379 195 273 381 270 376 334 254 
290 284 239 300 126 365 345 252 320 
308 317 400 303 246 286 347 439 357 
267 251 352 432 326 426 335 276 307 
389 445 323 189 277 292 306 233 205 
339 186 331 373 218 236 262 364 351 
201 396 174 238 255 318 244 259 293 
366 424 362 302 234 380 359 367 363 
370 324 241 342 392 304 283 301 329 
374 340 297 309 385 319 268 179 287 
388 341 265 258 298 402 229 282 177 
235 253 315 350 180 294 397 346 395 
226 242 289 338 368 209 206 260 356 
358 266 278 330 328 390 401 386 247 
295 384 310 353 399 332 321 403 414 
448 135 263 360 460 325 312 275 313 
291 231 250 237 427 354 264 311 314 
428 232 421 222 280 316 337 377 327 
305 387 349 383 322 203 243 344 261 
336 333 355 382 299 274 288 372 343 
423 453 469 549 534 572 440 411 456 
458 418 567 369 501 484 559 615 624 
430 431 509 472 600 514 450 481 557 
574 556 564 508 544 623 480 498 530 
592 520 553 512 405 478 523 604 570 
443 416 447 536 524 517 542 513 409 
474 516 455 429 420 601 596 595 371 
491 489 582 410 505 482 616 649 538 
408 394 464 528 496 470 522 551 519 
415 378 488 510 548 483 554 404 504 
532 562 476 413 471 537 575 477 507 
452 436 412 444 497 611 451 487 468 
555 525 361 419 462 540 526 493 454 
398 527 597 425 494 490 591 593 434 
459 467 588 547 495 475 546 566 437 
535 485 417 406 492 463 521 457 438 
473 603 531 348 511 422 502 499 461 
466 581 626 550 449 407 500 533 552 
563 433 435 391 518 479 503 442 561 
465 486 375 565 558 568 578 506 541 
441 446 620 731 678 800 690 843 630 
781 699 663 779 515 708 707 599 606 
632 661 713 719 758 621 725 629 721 
715 717 631 722 730 784 792 645 740 
757 709 701 751 666 761 753 780 653 
585 672 718 669 660 685 712 742 579 
573 668 641 696 755 676 694 738 684 
560 605 654 714 726 646 674 644 716 
797 580 642 590 609 681 687 602 583 
634 706 733 643 622 636 665 760 651 
543 594 732 802 798 529 656 776 723 
586 625 652 689 627 569 617 686 795 
613 589 614 693 741 637 670 667 729 
577 704 739 763 683 648 735 664 610 
737 724 700 639 677 598 612 618 655 
695 691 711 571 539 705 675 671 608 
692 778 635 545 576 633 749 744 754 
688 587 659 638 697 787 658 607 647 
698 727 734 679 673 682 762 793 619 
584 657 640 747 703 628 662 702 785 
720 680 650 736 810 878 884 995 811 
839 864 951 844 883 808 902 972 801 
822 891 901 895 821 898 879 769 914 
885 882 816 928 869 828 903 865 954 
932 766 947 812 889 924 799 887 851 
855 948 933 911 746 765 845 896 871 
953 806 764 767 858 880 961 841 786 
892 944 752 904 921 837 750 817 827 
867 950 906 773 756 850 952 789 710 
759 832 925 917 849 833 872 873 809 
846 852 870 877 775 854 909 946 815 
929 886 748 728 796 847 860 777 824 
805 866 743 835 829 945 868 814 770 
842 893 966 876 831 818 772 958 788 
807 820 825 942 894 794 783 859 923 
853 836 774 848 863 968 782 819 888 
957 941 908 791 823 856 927 939 830 
881 922 890 771 813 862 912 943 965 
745 804 838 875 899 803 897 861 834 
900 959 913 826 905 840 768 907 960 
1012 938 874 790 857 978 1026 973 1125 
1105 916 1069 1133 1039 990 1134 993 1109 
1014 979 1021 1037 1049 1001 1135 1131 984 
937 971 1030 982 1081 1112 1073 1044 956 
1065 1032 1020 1083 1099 1103 967 988 1071 
1060 934 963 1019 1058 1130 1000 1176 1034 
1082 1091 1115 1018 1007 1048 1101 962 1075 
1079 1080 935 918 999 1057 1077 1027 1100 
1005 992 1043 1197 980 915 977 983 1092 
955 1062 1053 1182 1003 1024 1033 1078 1136 
1129 1009 936 974 1036 1072 1093 1008 930 
1006 1040 1106 1117 1002 949 986 1052 1070 
1116 920 969 987 1029 1035 1051 1017 1128 
1038 1054 931 1031 1055 1059 998 1046 981 
1098 970 985 1074 1028 1013 989 1067 1056 
997 1104 1068 994 1061 1011 1042 1025 1111 
1186 964 1010 1022 1114 1047 926 1004 1094 
975 919 976 996 1076 991 1045 1066 1138 
910 1016 1023 1063 1113 1110 1064 1015 940 
1146 1132 1241 1308 1273 1126 1177 1209 1266 
1196 1236 1189 1174 1208 1151 1238 1206 1121 
1137 1191 1368 1213 1172 1148 1297 1210 1256 
1244 1084 1219 1263 1124 1153 1253 1306 1262 
1304 1167 1248 1205 1329 1365 1119 1139 1118 
1160 1309 1237 1120 1140 1245 1211 1231 1143 
1254 1195 1235 1283 1158 1145 1204 1221 1127 
1275 1220 1311 1152 1168 1095 1183 1162 1161 
1203 1252 1233 1107 1287 1249 1230 1097 1163 
1154 1228 1088 1194 1242 1293 1250 1251 1224 
1175 1255 1316 1178 1123 1190 1223 1222 1359 
1141 1240 1243 1214 1229 1232 1286 1171 1096 
1200 1234 1284 1165 1086 1187 1207 1144 1201 
1217 1122 1180 1291 1226 1212 1181 1173 1041 
1192 1274 1247 1170 1087 1156 1278 1269 1102 
1179 1150 1142 1268 1218 1090 1108 1188 1294 
1310 1159 1225 1307 1198 1227 1155 1281 1326 
1193 1185 1157 1050 1184 1216 1299 1089 1169 
1164 1202 1366 1302 1199 1166 1149 1215 1285 
1246 1085 1147 1239 1361 1261 1376 1350 1358 
1352 1394 1395 1272 1341 1264 1354 1385 1276 
1390 1336 1367 1303 1320 1380 1296 1260 1343 
1399 1301 1267 1325 1372 1342 1400 1258 1298 
1348 1330 1335 1397 1324 1270 1375 1332 1300 
1322 1381 1360 1271 1265 1349 1339 1259 1295 
1331 1373 1386 1347 1337 1279 1379 1345 1312 
1355 1280 1364 1387 1277 1353 1371 1257 1321 
1323 1369 1374 1389 1305 1292 1398 1393 1282 
1319 1328 1289 1315 1333 1357 1344 1382 1290 
1334 1392 1377 1396 1338 1327 1313 1288 1388 
1383 1314 1317 1378 1384 1370 1391 1362 1351 
1340 1346 1318 1363 1356 
type 1 1400 int
1 1 1 1 1 1 1 1 1 
1 1 1 1 1 1 1 1 1 
1 1 1 1 1 1 1 1 1 
1 1 1 1 1 1 1 1 1 
1 1 1 1 1 1 1 1 1 
1 1 1 1 1 1 1 1 1 
1 1 1 1 1 1 1 1 1 
1 1 1 1 1 1 1 1 1 
1 1 1 1 1 1 1 1 1 
1 1 1 1 1 1 1 1 1 
1 1 1 1 1 1 1 1 1 
1 1 1 1 1 1 1 1 1 
1 1 1 1 1 1 1 1 1 
1 1 1 1 1 1 1 1 1 
1 1 1 1 1 1 1 1 1 
1 1 1 1 1 1 1 1 1 
1 1 1 1 1 1 1 1 1 
1 1 1 1 1 1 1 1 1 
1 1 1 1 1 1 1 1 1 
1 1 1 1 1 1 1 1 1 
1 1 1 1 1 1 1 1 1 
1 1 1 1 1 1 1 1 1 
1 1 1 1 1 1 1 1 1 
1 1 1 1 1 1 1 1 1 
1 1 1 1 1 1 1 1 1 
1 1 1 1 1 1 1 1 1 
1 1 1 1 1 1 1 1 1 
1 1 1 1 1 1 1 1 1 
1 1 1 1 1 1 1 1 1 
1 1 1 1 1 1 1 1 1 
1 1 1 1 1 1 1 1 1 
1 1 1 1 1 1 1 1 1 
1 1 1 1 1 1 1 1 1 
1 1 1 1 1 1 1 1 1 
1 1 1 1 1 1 1 1 1 
1 1 1 1 1 1 1 1 1 
1 1 1 1 1 1 1 1 1 
1 1 1 1 1 1 1 1 1 
1 1 1 1 1 1 1 1 1 
1 1 1 1 1 1 1 1 1 
1 1 1 1 1 1 1 1 1 
1 1 1 1 1 1 1 1 1 
1 1 1 1 1 1 1 1 1 
1 1 1 1 1 1 1 1 1 
1 1 1 1 1 1 1 1 1 
1 1 1 1 1 1 1 1 1 
1 1 1 1 1 1 1 1 1 
1 1 1 1 1 1 1 1 1 
1 1 1 1 1 1 1 1 1 
1 1 1 1 1 1 1 1 1 
1 1 1 1 1 1 1 1 1 
1 1 1 1 1 1 1 1 1 
1 1 1 1 1 1 1 1 1 
1 1 1 1 1 1 1 1 1 
1 1 1 1 1 1 1 1 1 
1 1 1 1 1 1 1 1 1 
1 1 1 1 1 1 1 1 1 
1 1 1 1 1 1 1 1 1 
1 1 1 1 1 1 1 1 1 
1 1 1 1 1 1 1 1 1 
1 1 1 1 1 1 1 1 1 
1 1 1 1 1 1 1 1 1 
1 1 1 1 1 1 1 1 1 
1 1 1 1 1 1 1 1 1 
1 1 1 1 1 1 1 1 1 
1 1 1 1 1 1 1 1 1 
1 1 1 1 1 1 1 1 1 
1 1 1 1 1 1 1 1 1 
1 1 1 1 1 1 1 1 1 
1 1 1 1 1 1 1 1 1 
1 1 1 1 1 1 1 1 1 
1 1 1 1 1 1 1 1 1 
1 1 1 1 1 1 1 1 1 
1 1 1 1 1 1 1 1 1 
1 1 1 1 1 1 1 1 1 
1 1 1 1 1 1 1 1 1 
1 1 1 1 1 1 1 1 1 
1 1 1 1 1 1 1 1 1 
1 1 1 1 1 1 1 1 1 
1 1 1 1 1 1 1 1 1 
1 1 1 1 1 1 1 1 1 
1 1 1 1 1 1 1 1 1 
1 1 1 1 1 1 1 1 1 
1 1 1 1 1 1 1 1 1 
1 1 1 1 1 1 1 1 1 
1 1 1 1 1 1 1 1 1 
1 1 1 1 1 1 1 1 1 
1 1 1 1 1 1 1 1 1 
1 1 1 1 1 1 1 1 1 
1 1 1 1 1 1 1 1 1 
1 1 1 1 1 1 1 1 1 
1 1 1 1 1 1 1 1 1 
1 1 1 1 1 1 1 1 1 
1 1 1 1 1 1 1 1 1 
1 1 1 1 1 1 1 1 1 
1 1 1 1 1 1 1 1 1 
1 1 1 1 1 1 1 1 1 
1 1 1 1 1 1 1 1 1 
1 1 1 1 1 1 1 1 1 
1 1 1 1 1 1 1 1 1 
1 1 1 1 1 1 1 1 1 
1 1 1 1 1 1 1 1 1 
1 1 1 1 1 1 1 1 1 
1 1 1 1 1 1 1 1 1 
1 1 1 1 1 1 1 1 1 
1 1 1 1 1 1 1 1 1 
1 1 1 1 1 1 1 1 1 
1 1 1 1 1 1 1 1 1 
1 1 1 1 1 1 1 1 1 
1 1 1 1 1 1 1 1 1 
1 1 1 1 1 1 1 1 1 
1 1 1 1 1 1 1 1 1 
1 1 1 1 1 1 1 1 1 
1 1 1 1 1 1 1 1 1 
1 1 1 1 1 1 1 1 1 
1 1 1 1 1 1 1 1 1 
1 1 1 1 1 1 1 1 1 
1 1 1 1 1 1 1 1 1 
1 1 1 1 1 1 1 1 1 
1 1 1 1 1 1 1 1 1 
1 1 1 1 1 1 1 1 1 
1 1 1 1 1 1 1 1 1 
1 1 1 1 1 1 1 1 1 
1 1 1 1 1 1 1 1 1 
1 1 1 1 1 1 1 1 1 
1 1 1 1 1 1 1 1 1 
1 1 1 1 1 1 1 1 1 
1 1 1 1 1 1 1 1 1 
1 1 1 1 1 1 1 1 1 
1 1 1 1 1 1 1 1 1 
1 1 1 1 1 1 1 1 1 
1 1 1 1 1 1 1 1 1 
1 1 1 1 1 1 1 1 1 
1 1 1 1 1 1 1 1 1 
1 1 1 1 1 1 1 1 1 
1 1 1 1 1 1 1 1 1 
1 1 1 1 1 1 1 1 1 
1 1 1 1 1 1 1 1 1 
1 1 1 1 1 1 1 1 1 
1 1 1 1 1 1 1 1 1 
1 1 1 1 1 1 1 1 1 
1 1 1 1 1 1 1 1 1 
1 1 1 1 1 1 1 1 1 
1 1 1 1 1 1 1 1 1 
1 1 1 1 1 1 1 1 1 
1 1 1 1 1 1 1 1 1 
1 1 1 1 1 1 1 1 1 
1 1 1 1 1 1 1 1 1 
1 1 1 1 1 1 1 1 1 
1 1 1 1 1 1 1 1 1 
1 1 1 1 1 1 1 1 1 
1 1 1 1 1 1 1 1 1 
1 1 1 1 1 1 1 1 1 
1 1 1 1 1 1 1 1 1 
1 1 1 1 1 1 1 1 1 
1 1 1 1 1 
i 3 1400 int
0 0 0 0 0 0 0 1 0 
0 0 0 0 0 0 0 1 0 
0 1 0 0 0 0 0 0 0 
0 0 0 0 0 0 0 1 0 
0 0 0 -1 0 0 1 0 0 
0 0 0 1 0 0 0 0 0 
0 0 0 0 0 0 0 0 0 
0 0 0 0 0 0 0 0 0 
0 0 0 0 0 0 0 0 0 
0 0 0 -1 0 0 0 0 0 
0 0 0 1 0 0 0 0 0 
0 0 0 0 0 0 0 0 0 
0 0 0 0 0 0 0 0 0 
0 0 0 0 0 0 0 0 0 
0 0 0 0 0 0 -1 0 0 
-1 0 0 0 0 0 0 0 0 
0 0 0 0 0 0 0 0 0 
0 0 0 0 0 0 0 0 0 
0 0 0 0 0 0 0 0 0 
0 0 0 0 0 0 0 0 0 
-1 0 0 0 0 0 0 0 0 
0 0 0 0 0 0 0 0 0 
0 0 0 0 0 0 0 0 0 
0 0 0 0 0 0 0 0 0 
0 0 0 0 0 0 0 0 0 
-1 0 0 0 0 0 -1 0 0 
0 0 0 1 0 0 0 0 0 
0 -1 0 0 0 0 0 0 0 
0 0 0 0 -1 0 0 0 0 
0 -1 0 0 0 0 0 0 0 
0 0 0 0 0 0 0 0 0 
0 0 0 0 -1 0 0 -1 0 
0 0 0 0 0 0 0 0 0 
0 1 0 0 0 0 0 0 0 
1 0 0 0 1 0 0 1 0 
0 0 0 0 1 0 0 0 0 
0 0 0 0 0 0 0 0 0 
0 0 0 0 0 0 0 0 0 
0 0 0 0 1 0 0 0 0 
0 0 0 0 0 0 0 0 0 
0 0 0 0 0 0 0 0 0 
0 0 0 0 0 0 0 0 0 
0 0 0 0 0 0 0 0 0 
0 0 0 0 0 0 0 0 0 
0 0 0 0 0 0 0 0 0 
-1 0 0 0 0 0 0 0 0 
0 0 0 0 0 0 0 0 0 
0 0 0 0 0 0 0 0 0 
0 0 0 0 0 0 0 0 0 
0 0 0 0 0 0 0 0 0 
0 0 0 0 0 0 0 0 0 
0 0 0 0 0 0 0 0 0 
0 0 0 0 0 0 0 0 0 
0 0 0 1 0 0 0 0 0 
0 0 0 0 0 0 0 0 0 
0 0 0 0 0 0 0 0 0 
0 0 0 0 0 0 0 0 0 
0 0 0 0 0 0 0 0 0 
0 0 0 0 0 0 0 0 0 
0 0 0 0 0 0 0 0 0 
0 0 0 -1 0 0 1 0 0 
0 0 0 0 0 0 0 0 0 
0 0 0 0 0 0 0 0 0 
0 0 0 0 0 0 0 0 0 
0 0 0 0 0 0 0 0 0 
0 0 0 0 0 0 0 0 0 
0 0 0 0 0 0 -1 0 0 
0 0 0 0 0 0 0 0 0 
0 0 0 0 0 0 0 0 0 
0 0 0 0 0 0 0 -1 0 
0 0 0 0 0 0 0 0 0 
0 0 0 0 0 0 0 0 0 
0 0 0 0 0 0 0 0 0 
0 0 0 0 0 0 0 0 0 
0 0 0 0 0 0 0 0 0 
1 0 0 0 0 0 0 0 0 
0 0 0 0 0 0 0 1 0 
0 0 0 0 0 0 0 0 0 
0 0 0 0 1 0 0 0 0 
0 1 0 0 0 0 0 0 0 
0 0 0 0 0 0 0 0 0 
0 0 0 0 0 0 0 0 0 
-1 0 0 0 0 0 0 0 0 
0 0 0 0 0 0 0 0 0 
0 0 0 0 0 0 0 0 0 
0 0 0 0 0 0 1 0 0 
0 0 0 0 0 0 0 0 0 
0 0 0 0 0 0 0 0 0 
0 0 0 0 0 0 0 0 0 
0 0 0 0 0 0 0 0 0 
0 0 0 0 0 0 0 0 0 
0 0 0 0 0 0 0 0 0 
0 0 0 0 0 0 0 0 0 
-1 0 0 0 0 0 0 0 0 
0 0 0 0 0 0 -1 0 0 
0 0 0 0 0 0 0 0 0 
0 0 0 0 0 0 0 0 0 
0 0 0 0 0 0 0 0 0 
0 0 0 0 0 0 0 0 0 
0 0 0 0 0 0 0 0 0 
0 0 0 0 0 0 0 0 0 
0 0 0 0 0 0 0 0 0 
0 0 0 0 0 0 0 0 0 
0 0 0 0 0 0 0 0 0 
0 0 0 -1 0 0 0 0 0 
0 0 0 0 0 0 0 0 0 
0 0 0 0 0 0 0 0 0 
0 0 0 0 0 0 0 0 0 
0 0 0 0 0 0 0 0 0 
0 0 0 0 0 0 0 0 0 
0 0 0 0 0 0 0 0 0 
0 0 0 0 0 0 0 0 0 
0 0 0 0 0 0 -1 0 0 
0 0 0 0 0 0 0 0 0 
0 0 0 0 0 0 0 0 0 
0 0 0 0 0 0 0 0 0 
0 0 0 0 0 0 0 0 0 
0 0 0 0 0 0 0 0 0 
0 0 0 0 0 0 0 0 0 
0 0 0 0 0 0 0 0 0 
0 0 0 0 0 0 0 0 0 
0 0 0 0 0 0 0 0 0 
0 0 0 0 0 0 0 0 0 
0 0 0 0 0 0 -1 0 0 
0 0 0 0 0 0 0 0 0 
0 0 0 0 0 0 0 0 0 
1 -1 0 0 0 0 0 -1 0 
0 0 0 0 0 0 0 0 0 
0 0 0 0 0 0 0 0 0 
0 0 0 0 0 0 0 0 0 
0 0 0 0 0 0 0 -1 0 
0 0 0 0 0 0 0 0 0 
0 0 0 0 0 0 0 0 0 
0 0 0 -1 0 0 0 0 0 
0 0 0 0 0 0 -1 0 0 
0 0 0 0 1 0 0 0 0 
1 0 0 1 0 0 0 0 0 
0 0 0 0 0 0 0 0 0 
0 0 0 0 0 0 0 0 0 
0 0 0 0 0 0 0 0 0 
0 1 0 0 0 0 0 1 0 
0 0 0 0 0 0 0 0 0 
0 0 0 0 0 0 0 0 0 
0 0 0 0 0 0 0 0 0 
0 1 0 -1 1 0 -1 0 0 
0 0 0 0 0 0 0 0 0 
1 0 0 1 0 0 0 0 0 
1 0 0 0 0 0 0 0 0 
0 0 0 0 0 0 0 0 0 
0 0 0 0 0 0 0 0 0 
0 0 0 0 0 0 0 0 0 
0 0 0 0 0 0 0 0 0 
0 0 0 0 0 0 0 1 0 
0 0 0 0 0 0 0 0 0 
0 0 0 0 1 0 -1 0 0 
0 0 0 0 0 0 0 0 0 
0 0 0 0 0 0 0 0 0 
0 0 0 0 0 0 0 0 0 
0 0 0 0 0 0 0 0 0 
0 0 0 0 0 0 0 0 0 
0 0 0 0 0 0 0 0 0 
0 0 0 0 0 0 0 0 0 
0 0 0 0 0 0 0 0 0 
0 0 0 0 0 0 0 0 0 
0 0 0 0 0 0 0 0 0 
-1 0 0 0 0 0 0 0 0 
1 0 0 0 0 0 0 0 0 
0 0 0 0 0 0 0 0 0 
0 0 0 0 0 0 0 0 0 
0 0 0 0 0 0 0 0 0 
0 0 0 0 0 0 0 0 0 
0 0 0 0 0 0 0 0 0 
0 0 0 0 0 0 0 0 0 
0 0 0 0 0 0 0 0 0 
0 0 0 0 0 0 0 0 0 
0 0 0 0 0 0 0 0 0 
0 0 0 -1 0 0 0 0 0 
0 0 0 0 0 0 0 0 0 
0 0 0 0 0 0 0 0 0 
0 0 0 0 0 0 0 0 0 
0 0 0 0 0 0 0 0 0 
0 0 0 0 0 0 0 0 0 
0 0 0 0 0 0 0 0 0 
0 0 0 0 0 0 0 0 0 
0 0 0 0 0 0 -1 0 0 
0 0 0 0 0 0 0 0 0 
0 0 0 0 0 0 0 0 0 
0 -1 0 0 0 0 0 0 0 
0 0 0 0 0 0 0 0 0 
0 0 0 0 0 0 0 0 0 
0 0 0 0 0 0 0 0 0 
0 0 0 0 0 0 0 0 0 
0 0 0 0 0 0 0 0 0 
0 0 0 0 0 0 0 -1 0 
0 0 0 0 0 0 0 0 0 
0 0 0 0 0 0 0 0 0 
0 0 0 0 1 0 0 0 0 
0 0 0 0 0 0 0 0 0 
0 0 0 0 0 0 0 0 0 
0 1 0 0 0 0 0 0 0 
0 0 0 0 0 0 0 0 0 
0 0 0 0 0 0 0 0 0 
0 0 0 0 0 0 0 1 0 
0 0 0 0 0 0 0 0 0 
0 1 0 0 1 0 0 0 0 
0 0 0 0 0 0 0 0 0 
0 0 0 0 0 0 0 0 0 
0 0 0 0 0 0 0 0 0 
0 0 0 0 0 0 0 0 0 
0 0 0 0 0 0 0 0 0 
0 0 0 0 0 0 0 0 0 
0 0 0 0 0 0 0 0 0 
0 0 0 0 0 0 0 0 0 
0 0 0 0 0 0 0 0 0 
0 0 0 0 0 0 0 0 0 
0 0 0 0 0 0 0 0 0 
0 0 0 0 0 0 0 0 0 
0 0 0 1 0 0 0 0 0 
0 0 0 0 0 0 0 0 0 
0 0 0 0 0 0 0 0 0 
0 0 0 0 0 0 0 0 0 
0 0 0 0 0 0 0 0 0 
0 0 0 0 0 0 0 0 0 
0 0 0 0 0 0 0 0 0 
0 0 0 0 0 0 0 0 0 
0 0 0 0 0 0 0 0 0 
-1 0 0 0 0 0 0 0 0 
0 0 0 0 0 0 0 0 0 
0 0 0 0 0 0 0 0 0 
0 0 0 0 0 0 0 0 0 
0 0 0 0 0 0 0 0 0 
0 0 0 0 0 0 0 0 0 
0 0 0 0 0 0 0 0 0 
0 0 0 0 0 0 0 0 0 
0 0 0 0 0 0 0 0 0 
0 0 0 0 0 0 0 0 0 
0 0 0 0 0 0 0 0 0 
0 0 0 0 0 0 0 0 0 
0 0 0 0 0 0 0 0 0 
0 0 0 0 0 0 0 0 0 
0 0 0 0 0 0 0 0 0 
0 0 0 0 0 0 0 0 0 
0 0 0 0 0 0 0 0 0 
0 0 0 0 0 0 0 0 0 
0 0 0 0 0 0 0 0 0 
0 0 0 0 0 0 0 -1 0 
0 0 0 0 -1 0 0 0 0 
0 0 0 0 0 0 1 0 0 
0 0 0 0 -1 0 0 0 0 
0 0 0 0 0 0 0 0 0 
0 0 0 0 0 0 0 0 0 
0 0 0 0 0 0 0 0 0 
0 -1 0 0 0 0 0 0 0 
0 0 0 0 0 0 0 0 0 
0 0 0 0 0 0 0 0 0 
0 0 0 0 -1 0 0 0 0 
0 0 0 1 0 0 0 0 0 
0 1 0 0 0 0 0 0 0 
0 0 0 0 0 0 0 0 0 
0 0 0 0 0 0 0 0 0 
0 1 0 0 0 0 0 0 0 
0 0 0 0 1 0 0 0 0 
0 0 0 0 0 0 0 0 0 
0 0 0 0 0 0 0 0 0 
-1 0 0 0 0 0 0 1 0 
0 0 0 0 0 0 0 0 0 
0 0 0 0 0 0 1 0 0 
0 0 0 0 0 0 1 0 0 
0 0 0 0 0 0 0 0 0 
0 0 0 0 0 0 0 0 0 
0 0 0 0 0 0 0 0 0 
0 0 0 0 0 0 0 0 0 
0 0 0 0 0 0 0 0 0 
0 0 0 0 0 0 0 0 0 
0 0 0 0 0 0 0 0 0 
0 0 0 0 0 0 0 0 0 
0 0 0 0 0 0 1 0 0 
0 0 0 0 0 0 0 0 0 
0 0 0 0 0 0 0 0 0 
0 0 0 0 0 0 0 0 0 
0 0 0 0 0 0 0 0 0 
0 0 0 0 0 0 0 0 0 
0 0 0 0 0 0 0 0 0 
0 0 0 0 0 0 0 0 0 
0 0 0 0 0 0 0 0 0 
0 0 0 0 0 0 0 0 0 
0 0 0 1 0 0 0 0 0 
0 0 0 0 0 0 0 0 0 
0 0 0 0 0 0 0 0 0 
0 0 0 0 0 0 0 0 0 
0 0 0 0 0 0 0 0 0 
0 0 0 0 0 0 0 0 0 
0 0 0 0 0 0 0 0 0 
0 0 0 0 0 0 0 0 0 
0 0 0 0 0 0 0 0 0 
0 0 0 0 0 0 0 0 0 
0 0 0 0 0 0 0 0 0 
0 0 0 0 0 0 0 0 0 
0 0 0 0 0 0 0 0 0 
0 0 0 0 0 0 0 0 0 
0 0 0 0 0 0 0 0 0 
0 0 0 0 0 0 0 0 0 
0 0 0 0 0 0 0 0 0 
0 0 0 0 0 0 0 0 0 
0 0 0 0 0 0 0 0 0 
0 0 0 0 0 0 0 0 0 
0 0 0 0 0 0 0 0 0 
0 0 0 1 0 0 0 0 0 
0 0 0 0 0 0 0 0 0 
0 -1 0 0 0 0 0 0 0 
0 0 0 0 -1 0 0 0 0 
0 0 0 0 0 0 0 -1 0 
0 0 0 0 0 0 0 -1 0 
0 0 0 0 0 0 0 -1 0 
0 -1 0 0 0 0 0 0 0 
0 0 0 0 -1 0 0 0 0 
0 0 0 0 0 0 0 0 0 
0 0 0 0 0 0 0 0 0 
0 0 0 0 0 0 0 0 0 
0 0 0 0 1 0 0 0 0 
0 0 0 0 0 0 0 0 0 
0 0 0 0 0 0 0 0 0 
0 0 0 0 0 0 0 0 0 
0 0 0 0 0 0 0 0 0 
0 0 0 0 0 0 0 0 0 
0 0 0 0 0 0 0 0 0 
1 0 0 0 0 0 0 0 0 
0 0 0 0 0 0 0 0 0 
0 0 0 0 0 0 0 0 0 
0 0 0 0 0 0 0 0 0 
0 0 0 0 0 0 0 0 0 
0 0 0 0 0 0 0 0 0 
0 0 0 0 0 0 0 0 0 
0 0 0 0 0 0 1 0 0 
0 0 0 0 0 0 0 0 0 
0 0 0 0 0 0 0 0 0 
0 0 0 0 0 0 0 0 0 
0 0 0 0 0 0 0 0 0 
0 0 0 0 0 0 0 0 0 
0 0 0 0 0 0 0 0 0 
0 0 0 0 0 0 0 0 0 
0 0 0 0 0 0 0 0 0 
0 0 0 0 0 0 0 0 0 
0 0 0 0 0 0 0 0 0 
0 0 0 0 0 0 0 0 0 
0 0 0 0 0 0 0 0 0 
0 0 0 0 0 0 0 0 0 
0 0 0 0 0 0 0 0 0 
0 0 0 0 0 0 0 0 0 
0 0 0 0 0 0 0 0 0 
0 0 0 0 0 0 0 0 0 
0 0 0 0 0 0 0 0 0 
0 0 0 0 0 0 0 0 0 
0 0 0 0 0 0 0 0 0 
0 0 0 0 0 0 0 0 0 
1 0 0 0 0 0 0 0 0 
0 0 0 0 0 0 0 0 0 
0 0 0 0 0 0 0 0 0 
0 0 0 0 0 0 0 0 0 
0 0 0 0 0 0 0 0 0 
0 0 0 0 0 0 0 0 0 
0 0 0 0 0 0 0 0 0 
0 0 0 0 0 0 0 0 0 
0 0 0 0 0 0 0 0 0 
0 0 0 0 0 0 0 -1 0 
0 0 0 0 0 0 0 0 0 
0 0 0 0 0 0 0 0 0 
0 0 0 0 0 0 0 0 0 
0 0 0 0 -1 0 0 -1 0 
0 -1 0 0 0 0 0 0 0 
0 0 0 0 0 0 0 0 0 
0 0 0 -1 0 0 0 0 0 
0 0 0 1 0 0 0 0 0 
0 0 0 0 1 0 0 0 0 
0 1 0 0 0 0 0 0 0 
0 0 0 0 0 0 0 0 0 
0 0 0 0 0 0 0 0 0 
0 0 0 0 0 0 0 1 0 
0 0 0 0 0 0 0 0 0 
0 0 0 0 0 0 0 0 0 
0 0 0 0 0 0 0 0 0 
0 0 0 0 0 0 0 0 0 
0 0 0 1 0 0 0 0 0 
0 0 0 0 0 0 0 0 0 
1 0 0 0 0 0 0 0 0 
0 0 0 0 0 0 0 0 0 
0 0 0 0 0 0 0 0 0 
0 0 0 0 0 0 0 0 0 
0 0 0 0 0 0 0 0 0 
0 0 0 0 0 0 0 0 0 
0 0 0 0 0 0 0 0 0 
0 0 0 0 0 0 0 0 0 
0 0 0 0 0 0 0 0 0 
0 0 0 0 0 0 1 0 0 
0 0 0 0 0 0 0 0 0 
0 0 0 0 0 0 0 0 0 
0 0 0 0 0 0 0 0 0 
0 0 0 0 0 0 0 0 0 
0 0 0 0 0 0 0 0 0 
0 0 0 -1 0 0 0 0 0 
-1 0 0 0 0 0 0 0 0 
0 0 0 0 0 0 0 0 0 
0 0 0 0 0 0 1 0 0 
0 0 0 0 0 0 0 0 0 
0 0 0 0 0 0 0 0 0 
0 0 0 0 0 0 0 0 0 
0 0 0 0 0 0 0 0 0 
0 0 0 0 0 0 0 0 0 
0 0 0 0 0 0 0 0 0 
0 0 0 0 0 0 0 0 0 
0 0 0 0 0 0 0 0 0 
0 0 0 0 0 0 0 0 0 
0 0 0 0 0 0 0 0 0 
0 0 0 0 0 0 0 0 0 
0 0 0 0 0 0 0 0 0 
0 0 0 0 0 0 0 0 0 
0 0 0 0 0 0 0 0 0 
0 0 0 0 0 0 0 0 0 
0 0 0 -1 0 0 -1 0 0 
-1 0 0 0 0 0 0 0 0 
0 0 0 0 0 0 0 0 0 
0 0 0 0 0 0 0 0 0 
0 0 0 0 0 0 0 0 0 
0 -1 0 0 0 0 0 -1 0 
0 0 0 0 0 0 0 0 0 
0 0 0 0 0 0 0 0 0 
0 0 0 0 0 0 0 0 0 
0 0 0 0 0 0 0 0 0 
0 0 0 0 0 0 0 0 0 
0 0 0 0 0 0 0 0 0 
0 0 0 0 0 0 0 0 0 
0 0 0 0 0 0 0 0 0 
0 0 0 0 0 0 0 0 0 
0 0 0 0 0 0 0 0 0 
0 0 0 0 0 0 0 0 0 
0 0 0 0 0 0 1 0 0 
0 0 0 0 0 0 0 0 0 
0 0 0 0 0 0 0 0 0 
0 0 0 0 0 0 0 0 0 
0 0 0 0 0 0 0 0 0 
0 0 0 0 0 0 0 0 0 
0 0 0 0 0 0 0 0 0 
0 0 0 0 0 0 0 0 0 
0 0 0 0 0 0 0 0 0 
0 0 0 0 0 0 0 0 0 
0 0 0 0 0 0 0 0 0 
0 0 0 0 0 0 0 0 0 
0 0 0 0 0 0 0 0 0 
1 0 0 0 0 0 0 0 0 
0 0 0 0 0 0 0 0 0 
0 0 0 0 0 0 0 0 0 
0 0 0 0 0 0 0 0 0 
0 0 0 0 0 0 0 0 0 
0 0 0 -1 0 0 0 0 0 
0 0 0 0 0 0 0 0 0 
0 0 0 0 0 0 0 0 0 
0 0 0 0 0 0 0 0 0 
0 0 0 0 0 0 0 0 0 
0 0 0 0 0 0 0 0 0 
0 0 0 0 0 0 0 0 0 
0 0 0 0 -1 0 0 0 0 
0 0 0 0 -1 0 0 0 0 
0 0 0 0 -1 0 0 0 0 
0 0 0 0 0 0 0 0 0 
0 0 0 0 -1 0 0 -1 0 
0 0 0 0 0 0 0 0 0 
0 0 0 0 0 0 
v 3 1400 double
9.8291e-07 3.21367e-07 -1.80607e-07 1.32647e-06 3.42757e-07 -4.1668e-07 4.25123e-07 4.81943e-07 1.38274e-08 
9.36724e-07 2.44498e-07 -4.6173e-07 7.37936e-07 2.29938e-07 -2.14066e-07 1.1771e-06 4.81275e-07 1.2208e-07 
1.33027e-06 1.34511e-07 -2.0775e-08 8.11597e-07 3.37856e-07 -2.07286e-07 9.76134e-06 4.90217e-06 1.60734e-15 
1.15104e-06 3.02705e-07 -4.91645e-07 8.60176e-07 1.97736e-07 -4.52868e-08 1.14111e-06 3.45675e-07 -9.8325e-08 
9.86871e-07 1.53458e-07 1.14712e-07 1.01976e-06 1.55269e-07 -1.82491e-07 1.078e-06 2.50083e-07 7.34047e-08 
1.24719e-06 -3.23075e-08 3.09024e-07 1.3037e-06 3.25568e-07 1.17369e-07 1.20029e-06 8.86224e-08 1.34869e-07 
1.04442e-06 1.71187e-07 -1.75087e-07 1.17723e-06 1.76442e-07 1.10153e-07 8.67561e-07 2.55995e-07 -5.65526e-08 
6.58403e-07 9.59531e-08 -3.29382e-07 1.52991e-06 1.01919e-08 -5.16852e-07 6.80453e-07 -8.36203e-08 1.34829e-07 
8.46831e-07 -4.06102e-07 2.10653e-07 6.91768e-07 -1.92524e-07 3.52192e-08 1.25678e-06 -1.67525e-07 1.23257e-07 
8.69985e-07 1.4463e-07 -1.29175e-07 1.93546e-06 -7.13846e-07 1.5947e-07 1.15702e-06 2.75533e-07 -1.0639e-07 
2.71649e-06 -1.89941e-06 -3.22085e-07 3.48183e-06 -7.96411e-06 -4.96268e-08 1.66316e-06 5.68329e-07 -1.23271e-07 
1.15427e-06 7.73638e-08 2.54878e-07 1.35986e-06 1.1918e-07 -3.22791e-07 1.17837e-06 6.31433e-08 -2.9346e-08 
1.30366e-06 3.3154e-08 -2.59918e-07 1.52407e-06 1.42261e-07 8.4647e-08 1.24266e-06 -1.0985e-07 -2.56708e-07 
5.07134e-07 6.91637e-08 -5.31275e-08 1.20773e-06 5.68666e-08 -3.48642e-08 1.48462e-06 1.75433e-08 -3.71088e-07 
1.44679e-06 -1.30185e-07 -2.47699e-07 1.09481e-06 -3.55018e-07 1.94251e-07 1.32145e-05 4.08805e-06 -4.9365e-08 
-1.27575e-06 -5.94406e-06 1.60729e-15 6.77751e-07 -4.53154e-08 -3.91797e-07 1.20037e-06 2.60381e-07 -2.93131e-07 
1.44961e-06 3.69619e-07 -9.68338e-08 1.93674e-06 3.99555e-07 -2.07746e-07 1.69362e-06 3.54412e-07 -5.0115e-08 