# vtk DataFile Version 4.0
Generated by LIGGGHTS
ASCII
DATASET POLYDATA
POINTS 798 float
-378.309 -381.735 49.9809 -460.504 -438.885 49.979 -257.292 -470.273 49.9922 
-90.4568 -364.204 49.9745 -165.629 -430.121 49.9754 90.911 -486.83 49.9644 
125.446 -362.408 49.949 25.4245 -411.31 49.9633 183.105 -445.182 49.9935 
221.576 -335.046 49.9776 284.353 -412.831 49.9838 440.78 -454.838 49.9612 
377.748 -377.231 49.9579 476.444 -361.308 49.9756 -441.464 -304.218 49.9826 
-374.111 -230.322 49.9615 -310.924 -307.793 49.9734 -275.372 -214.32 49.9493 
-175.449 -210.321 49.9731 -87.4226 -261.525 49.9479 -3.13978 -315.531 49.8999 
1.68381 -215.681 49.9119 85.7424 -269.796 49.968 270.037 -195.613 49.9289 
182.105 -243.195 49.9778 313.345 -286.902 49.984 369.989 -193.724 49.9542 
476.445 -206.318 49.9831 -440.766 -150.266 49.9236 -479.646 -53.8775 49.9871 
-380.009 -45.3199 49.9555 -339.243 -136.61 49.9533 -191.086 -11.0407 49.9769 
-185.6 -110.863 49.9747 -280.572 -55.6053 49.9141 -82.5747 -161.664 49.9057 
-97.8899 -62.8626 49.9858 94.1145 -164.186 49.9568 140.02 -74.6471 49.9758 
6.44347 -115.827 49.9541 308.665 -3.45083 49.9793 240.037 -76.1599 50.0131 
429.532 -9.58197 49.9794 439.025 -112.316 49.9774 337.322 -99.2335 49.9873 
-449.654 148.483 49.9722 -360.968 102.344 49.9562 -436.993 36.8044 49.9606 
-265.137 143.589 49.9839 -276.621 44.2724 49.9698 -24.7488 5.31118 49.9899 
-150.2 109.153 49.964 -29.4854 105.18 49.9859 75.1598 1.46246 49.9601 
70.4227 101.349 49.9898 267.241 87.5379 49.9517 198.497 14.7788 49.9625 
169.975 110.594 49.9627 474.414 83.4068 49.986 373.129 72.9737 49.9843 
413.639 164.464 49.9856 -365.167 202.25 49.9742 -425.147 282.252 49.9727 
-206.391 316.877 49.9818 -182.011 203.922 49.9468 -273.951 243.177 49.9839 
-114.435 277.634 49.9879 -12.4556 247.57 49.9757 80.5723 210.963 49.9717 
64.4366 313.973 49.99 244.885 291.015 49.9715 187.662 209.012 49.9864 
285 186.001 49.9936 490.432 228.522 49.9286 432.779 310.439 49.9897 
342.204 268.073 49.9724 -387.335 393.766 49.9688 -482.769 363.967 49.9661 
-486.655 464.589 49.9888 -386.638 493.742 49.9679 -304.013 338.523 49.9808 
-197.977 446.836 49.9628 -297.786 438.313 49.9946 -2.21515 476.612 49.9751 
-26.5105 379.63 49.9758 -102.19 475.443 49.9761 -126.459 376.942 49.9839 
75.2499 413.384 49.9917 157.531 350.465 49.9872 259.924 490.24 49.978 
248.992 390.882 49.9467 168.35 449.951 49.9824 359.692 483.042 49.9913 
428.975 410.927 49.9735 -413.629 -460.001 135.72 -454.607 -369.48 124.583 
-380.904 -383.237 190.794 -321.599 -423.902 120.695 -244.037 -375.793 79.8975 
-223.015 -422.824 165.587 -289.012 -346.873 175.541 -137.243 -380.23 136.863 
-56.6933 -447.291 94.2003 -142.601 -480.141 133.412 -50.2789 -475.934 189.792 
16.3627 -375.46 142.864 117.22 -427.206 125.757 31.6677 -478.452 132.584 
182.874 -479.901 179.628 210.389 -391.431 131.784 274.616 -467.656 139.464 
301.429 -350.455 126.249 370.73 -447.29 120.909 466.463 -428.094 142.794 
399.662 -353.71 144.624 -376.229 -307.393 125.714 -449.293 -226.882 115.761 
-452.185 -298.102 196.836 -174.673 -310.312 49.9765 -194.115 -321.542 194.623 
-324.73 -222.347 136.515 -242.27 -280.367 117.283 -145.475 -259.66 131.58 
-61.0667 -313.254 131.354 -57.0223 -212.905 131.802 105.268 -329.332 142.067 
120.075 -219.355 129.159 27.9077 -267.014 131.504 31.8367 -167.12 131.942 
197.399 -291.019 136.443 285.633 -244.049 135.967 205.822 -199.647 176.611 
413.284 -283.81 50.0025 478.375 -295.282 125.002 399.742 -234.549 136.256 
484.999 -220.2 190.817 -392.896 -146.071 137.541 -430.064 -46.0928 136.464 
-216.273 -165.978 196.034 -329.346 -68.8543 136.089 -260.277 -136.73 111.205 
-232.484 -44.0496 136.777 -314.026 -144.997 198.962 -142.749 -154.255 129.34 
-133.391 -55.6927 143.204 -51.7457 -112.15 131.165 23.3198 -46.9451 120.415 
113.087 -109.452 139.75 100.286 -20.568 183.678 184.382 -39.7639 132.514 
188.902 -151.993 90.3612 284.759 -144.093 134.264 284.178 -44.2182 137.931 
495.037 -144.487 126.316 384.319 -135.939 130.251 446.39 -57.6941 135.97 
368.781 -64.6709 198.596 -351.398 26.0797 113.843 -422.02 95.0319 129.82 
-499.233 25.7556 127.398 -310.927 118.008 135.096 -205.254 60.8397 118.006 
-278.337 35.6428 181.42 -212.969 159.244 133.843 -49.9903 2.23081 169.259 
-111.039 28.7969 94.6949 -111.511 116.993 141.825 -23.4704 112.512 189.049 
23.1974 52.984 123.662 132.524 47.3384 117.762 76.7957 111.054 184.938 
24.2489 160.914 115.71 175.417 96.7646 193.322 239.136 44.9957 136.226 
229.509 143.675 123.567 322.895 100.456 131.956 369.752 6.60632 128.482 
422.41 91.3248 135.019 489.236 165.266 127.289 499.418 95.9459 198.588 
-492.842 295.299 122.386 -350.678 280.439 116.647 -415.583 194.601 135.956 
-198.8 259.318 131.427 -292.757 212.619 161.807 -273.918 310.256 173.356 
-86.5422 184.222 72.17 -49.3172 310.418 118.439 -46.0567 218.434 157.517 
-134.755 326.993 167.653 -139.891 201.253 187.601 132.279 167.003 123.382 
135.218 271.773 107.5 38.8682 265.874 133.839 226.699 242.846 135.629 
315.719 198.924 147.661 311.154 298.498 140.016 398.575 168.106 194.487 
404.938 234.918 120.394 471.495 236.6 195.016 406.253 331.528 146.079 
-486.507 495.875 188.054 -428.408 351.308 174.423 -428.241 441.4 127.753 
-339.799 377.833 136.487 -335.231 477.974 134.232 -235.377 482.642 135.467 
-242.592 384.482 114.111 -151.956 420.374 136.347 -51.7793 437.522 127.543 
114.692 463.343 133.315 25.5645 374.521 135.169 124.652 364.39 143.653 
221.654 342.647 133.122 225.925 443.666 131.651 293.784 384.174 188.513 
341.657 376.768 84.6602 486.269 391.266 141.007 439.055 477.681 123.72 
343.198 459.885 145.859 -409.153 -446.919 262.551 -417.839 -348.332 276.907 
-494.429 -384.597 223.858 -332.562 -395.006 300.362 -322.036 -460.796 213.605 
-240.924 -396.631 260.39 -193.106 -462.128 318.852 -231.018 -497.505 233.349 
-96.0823 -437.973 318.626 -6.9854 -416.267 278.824 -65.4184 -378.626 206.911 
-142.801 -364.791 268.747 -139.571 -457.166 230.659 66.1986 -428.099 211.748 
55.8861 -486.586 311.919 153.779 -379.884 213.392 92.0597 -374.082 291.851 
169.888 -456.833 276.054 252.689 -427.453 228.331 300.071 -466.529 307.194 
293.6 -365.856 295.666 196.31 -342.383 295.747 494.522 -467.814 279.262 
406.542 -468.975 211.698 374.587 -378.071 238.295 494.801 -377.86 323.036 
391.133 -367.113 336.29 399.925 -463.539 311.33 -356.157 -290.382 223.6 
-418.83 -205.387 213.713 -459.581 -258.174 288.262 -367.324 -282.136 332.251 
-339.527 -205.198 274.577 -408.034 -191.835 346.595 -280.832 -310.041 290.51 
-264.618 -252.271 210.573 -178.458 -234.568 258.132 -189.756 -302.179 330.97 
-253.147 -219.568 322.854 -76.4185 -229.304 295.419 -14.3123 -240.248 217.94 
-103.273 -286.789 218.04 -94.742 -172.605 215.126 -37.6462 -321.338 285.046 
45.0102 -320.637 221.49 141.74 -273.484 217.633 128.98 -271.54 316.932 
76.218 -197.974 216.412 89.4625 -171.025 311.751 31.479 -252.251 306.012 
252.398 -329.063 210.721 178.475 -196.122 273.797 265.799 -237.125 247.597 
226.921 -256.879 337.569 329.87 -184.865 303.781 346.702 -289.825 200.518 
352.499 -282.185 300.032 341.379 -188.823 203.45 417.417 -212.12 264.011 
443.417 -306.008 220.844 450.393 -288.363 319.581 -366.373 -8.34648 206.507 
-459.252 -109.454 208.044 -374.774 -93.0251 259.014 -484.381 -161.197 289.782 
-429.305 -94.2011 342.825 -465.349 -0.0152279 217.873 -279.587 -54.6353 224.305 
-246.216 -127.938 283.502 -312.882 -33.2816 316.155 -210.057 -33.9586 293.05 
-328.91 -130.054 339.809 -149.186 -155.326 311.633 -70.9095 -94.305 323.739 
-11.8509 -155.599 271.012 -157.599 -93.695 232.442 -58.8157 -79.9145 225.542 
-13.7774 -14.242 305.765 -104.346 -0.507526 265.688 37.1339 -98.7812 204.764 
129.724 -116.443 238.109 78.8856 -40.8067 279.225 27.1191 -98.252 343.049 
170.106 -7.37811 325.549 221.238 -103.649 199.986 206.692 -96.4608 298.649 
299.599 -99.3163 261.891 269.306 -20.1204 314.822 191.919 -11.3749 228.064 
480.525 -63.0499 273.516 443.274 -131.494 210.856 371.812 -3.20725 277.373 
393.73 -108.311 294.556 -405.184 0.707556 298.191 -481.082 65.4582 291.767 
-406.069 80.9604 227.498 -482.529 161.014 321.152 -383.266 117.323 317.797 
-354.081 166.36 225.822 -179.713 11.4187 201.082 -319.074 56.619 270.322 
-259.331 135.143 219.075 -218.507 64.2732 276.587 -131.015 91.2834 236.448 
-42.476 78.2982 281.059 -138.143 79.2413 335.458 27.0242 33.7974 224.607 
30.2147 164.465 255.514 119.058 48.8798 260.575 49.2017 89.6724 319.321 
126.894 147.574 274.65 269.506 124.253 213.12 289.285 10.3805 221.535 
214.291 70.8634 281.719 311.001 70.4096 307.029 236.257 166.352 302.155 
436.887 15.351 203.605 361.934 79.0683 221.444 437.171 119.871 273.089 
433.34 45.2572 339.503 -394.74 262.671 206.137 -453.228 179.239 227.298 
-471.119 267.424 270.903 -400.73 322.146 316.212 -395.939 216.441 312.658 
-269.713 173.296 310.906 -222.56 241.516 226.885 -314.755 249.678 264.693 
-216.766 320.486 287.905 -175.065 170.443 278.725 -303.401 316.121 338.53 
-175.693 247.523 342.511 -69.2959 174.193 253.027 -88.1829 271.358 236.675 
-89.9755 300.101 332.836 -20.0843 229.746 320.033 -102.54 179.553 347.184 
98.229 219.796 201.141 10.7803 259.058 229.561 93.6821 271.85 286.372 
69.3578 191.705 343.49 166.558 292.803 200.076 193.8 192.497 215.476 
274.236 251.445 223.141 192.319 256.475 292.298 320.112 302.33 295.937 
331.074 181.753 266.985 372.784 263.285 211.04 442.262 218.442 288.845 
417.766 311.63 315.437 472.275 333.102 221.129 -493.931 357.495 325.241 
-390.29 466.208 216.843 -368.208 416.192 300.535 -469.039 410.812 243.731 
-452.538 462.528 327.698 -343.935 343.197 236.664 -302.978 497.848 302.6 
-297.753 428.55 212.627 -209.894 381.019 208.52 -177.319 442.466 292.609 
-269.079 403.881 305.157 -50.0889 368.983 200.327 -9.97741 338.511 286.739 
-107.372 448.317 221.379 -128.254 359.389 262.017 -36.0619 487.846 281.909 
-73.4185 408.382 329.764 138.746 361.06 289.177 15.7056 449.716 200.301 
52.8321 416.616 287.027 105.413 481.233 231.249 65.3714 342.401 221.112 
[...]
POINT_DATA 798
FIELD FieldData 7
id 1 798 int
92 20 9 74 35 73 25 53 19 
61 37 101 79 26 29 119 22 31 
82 36 84 99 14 4 60 97 41 
80 72 27 34 15 110 17 18 28 
142 111 24 85 105 89 33 39 43 
58 91 81 8 69 11 1 104 21 
93 134 46 32 44 5 76 87 56 
45 23 86 129 30 57 100 2 95 
48 3 16 59 10 38 50 12 63 
70 42 7 71 66 62 51 13 114 
6 54 40 55 77 154 249 106 155 
173 157 67 96 127 230 228 118 185 
192 122 171 164 88 175 207 140 159 
279 52 120 183 161 116 141 112 167 
124 193 169 208 227 216 102 90 150 
214 133 170 211 68 103 221 240 78 
146 166 123 224 200 151 132 181 245 
108 47 158 163 98 109 75 138 152 
215 197 210 165 172 271 117 196 248 
115 191 178 113 130 223 156 160 217 
143 65 204 137 219 190 136 121 176 
168 187 107 145 202 139 194 182 225 
131 162 269 281 256 94 184 125 147 
213 128 220 144 64 149 212 148 257 
153 49 83 188 393 296 199 379 195 
273 381 270 376 334 254 290 284 239 
300 126 365 345 252 320 308 317 303 
246 286 347 439 357 267 251 352 432 
326 426 335 276 307 389 445 323 189 
277 292 306 233 205 339 186 331 373 
218 236 262 364 351 201 396 174 238 
255 318 244 259 293 366 424 341 302 
234 380 359 367 363 370 324 241 342 
392 304 283 301 329 374 340 272 297 
309 385 319 268 179 287 388 362 265 
258 298 402 266 229 282 177 235 253 
315 350 180 294 397 346 395 226 242 
289 338 368 209 206 260 356 278 330 
328 390 401 386 247 295 384 310 353 
399 332 321 403 414 448 135 263 360 
460 325 312 275 313 291 231 250 237 
427 299 354 264 311 314 428 232 421 
222 280 316 337 198 377 327 305 387 
349 383 285 322 203 243 344 261 336 
333 355 382 274 288 372 343 423 453 
469 549 534 440 411 456 458 418 567 
520 369 501 484 559 615 624 430 431 
509 472 600 514 400 450 481 557 574 
556 564 508 544 623 480 498 530 592 
553 512 405 478 523 604 570 443 416 
447 536 524 517 542 513 409 474 516 
455 429 420 601 595 371 491 489 582 
562 410 505 482 507 616 538 408 394 
464 528 496 470 522 551 415 378 488 
510 548 519 483 554 404 504 532 476 
413 471 537 575 452 436 412 444 497 
611 451 487 468 555 525 361 419 462 
540 526 493 454 398 527 597 358 425 
494 490 591 477 434 459 467 588 547 
495 475 546 566 437 485 535 417 406 
492 463 457 438 473 521 603 348 531 
511 422 502 499 461 466 581 626 550 
449 407 500 533 563 433 435 391 552 
518 479 503 442 561 486 375 465 565 
558 441 446 506 541 596 572 731 630 
515 599 632 584 661 628 621 629 680 
631 645 560 663 666 653 606 585 672 
669 660 580 685 579 573 668 641 791 
676 694 605 654 649 646 674 644 642 
590 609 681 687 602 583 634 613 670 
643 622 651 636 706 543 594 684 529 
656 723 586 625 652 627 569 617 639 
686 589 614 665 667 729 593 577 683 
664 648 688 735 610 737 677 598 612 
618 655 571 539 619 671 608 675 635 
545 576 633 587 659 658 638 607 647 
678 679 673 682 657 568 640 734 578 
662 715 620 650 736 690 719 716 637 
713 701 732 692 703 720 725 740 733 
741 695 704 702 722 689 711 693 712 
696 739 698 724 700 697 730 709 708 
718 728 699 707 721 738 710 760 726 
714 776 727 691 705 762 717 781 773 
770 749 788 796 744 785 754 751 758 
768 784 757 742 753 765 764 755 798 
780 759 752 748 795 775 763 794 778 
747 745 769 792 766 746 767 786 797 
761 789 750 777 756 743 782 783 774 
790 772 771 779 793 787 
type 1 798 int
1 1 1 1 1 1 1 1 1 
1 1 1 1 1 1 1 1 1 
1 1 1 1 1 1 1 1 1 
1 1 1 1 1 1 1 1 1 
1 1 1 1 1 1 1 1 1 
1 1 1 1 1 1 1 1 1 
1 1 1 1 1 1 1 1 1 
1 1 1 1 1 1 1 1 1 
1 1 1 1 1 1 1 1 1 
1 1 1 1 1 1 1 1 1 
1 1 1 1 1 1 1 1 1 
1 1 1 1 1 1 1 1 1 
1 1 1 1 1 1 1 1 1 
1 1 1 1 1 1 1 1 1 
1 1 1 1 1 1 1 1 1 
1 1 1 1 1 1 1 1 1 
1 1 1 1 1 1 1 1 1 
1 1 1 1 1 1 1 1 1 
1 1 1 1 1 1 1 1 1 
1 1 1 1 1 1 1 1 1 
1 1 1 1 1 1 1 1 1 
1 1 1 1 1 1 1 1 1 
1 1 1 1 1 1 1 1 1 
1 1 1 1 1 1 1 1 1 
1 1 1 1 1 1 1 1 1 
1 1 1 1 1 1 1 1 1 
1 1 1 1 1 1 1 1 1 
1 1 1 1 1 1 1 1 1 
1 1 1 1 1 1 1 1 1 
1 1 1 1 1 1 1 1 1 
1 1 1 1 1 1 1 1 1 
1 1 1 1 1 1 1 1 1 
1 1 1 1 1 1 1 1 1 
1 1 1 1 1 1 1 1 1 
1 1 1 1 1 1 1 1 1 
1 1 1 1 1 1 1 1 1 
1 1 1 1 1 1 1 1 1 
1 1 1 1 1 1 1 1 1 
1 1 1 1 1 1 1 1 1 
1 1 1 1 1 1 1 1 1 
1 1 1 1 1 1 1 1 1 
1 1 1 1 1 1 1 1 1 
1 1 1 1 1 1 1 1 1 
1 1 1 1 1 1 1 1 1 
1 1 1 1 1 1 1 1 1 
1 1 1 1 1 1 1 1 1 
1 1 1 1 1 1 1 1 1 
1 1 1 1 1 1 1 1 1 
1 1 1 1 1 1 1 1 1 
1 1 1 1 1 1 1 1 1 
1 1 1 1 1 1 1 1 1 
1 1 1 1 1 1 1 1 1 
1 1 1 1 1 1 1 1 1 
1 1 1 1 1 1 1 1 1 
1 1 1 1 1 1 1 1 1 
1 1 1 1 1 1 1 1 1 
1 1 1 1 1 1 1 1 1 
1 1 1 1 1 1 1 1 1 
1 1 1 1 1 1 1 1 1 
1 1 1 1 1 1 1 1 1 
1 1 1 1 1 1 1 1 1 
1 1 1 1 1 1 1 1 1 
1 1 1 1 1 1 1 1 1 
1 1 1 1 1 1 1 1 1 
1 1 1 1 1 1 1 1 1 
1 1 1 1 1 1 1 1 1 
1 1 1 1 1 1 1 1 1 
1 1 1 1 1 1 1 1 1 
1 1 1 1 1 1 1 1 1 
1 1 1 1 1 1 1 1 1 
1 1 1 1 1 1 1 1 1 
1 1 1 1 1 1 1 1 1 
1 1 1 1 1 1 1 1 1 
1 1 1 1 1 1 1 1 1 
1 1 1 1 1 1 1 1 1 
1 1 1 1 1 1 1 1 1 
1 1 1 1 1 1 1 1 1 
1 1 1 1 1 1 1 1 1 
1 1 1 1 1 1 1 1 1 
1 1 1 1 1 1 1 1 1 
1 1 1 1 1 1 1 1 1 
1 1 1 1 1 1 1 1 1 
1 1 1 1 1 1 1 1 1 
1 1 1 1 1 1 1 1 1 
1 1 1 1 1 1 1 1 1 
1 1 1 1 1 1 1 1 1 
1 1 1 1 1 1 1 1 1 
1 1 1 1 1 1 1 1 1 
1 1 1 1 1 1 
i 3 798 int
0 0 0 0 0 0 0 1 0 
0 0 0 0 0 0 0 1 0 
0 1 0 0 0 0 0 0 0 
0 0 0 0 0 0 0 1 0 
0 0 0 -1 0 0 1 0 0 
0 0 0 1 0 0 0 0 0 
0 0 0 0 0 0 0 0 0 
0 0 0 0 0 0 0 0 0 
0 0 0 0 0 0 0 0 0 
-1 0 0 0 0 0 1 0 0 
0 0 0 0 0 0 0 0 0 
0 0 0 0 0 0 0 0 0 
0 0 0 0 0 0 0 0 0 
0 0 0 0 0 0 0 0 0 
-1 0 0 -1 0 0 0 0 0 
0 0 0 0 0 0 0 0 0 
0 0 0 0 0 0 0 0 0 
0 0 0 0 0 0 0 0 0 
0 0 0 0 0 0 0 0 0 
0 0 0 -1 0 0 0 0 0 
0 0 0 0 0 0 0 0 0 
0 0 0 0 0 0 0 0 0 
0 0 0 0 0 0 0 0 0 
0 0 0 0 0 0 0 0 0 
0 0 0 -1 0 0 -1 0 0 
0 0 0 0 0 0 1 0 0 
0 0 0 0 -1 0 0 0 0 
0 0 0 0 0 0 0 -1 0 
0 0 0 0 -1 0 0 0 0 
0 0 0 0 0 0 0 0 0 
0 0 0 0 0 0 0 -1 0 
0 -1 0 0 0 0 0 0 0 
0 0 0 0 1 0 0 0 0 
0 0 0 1 0 0 0 1 0 
0 1 0 0 0 0 0 1 0 
0 0 0 0 0 0 0 0 0 
0 0 0 0 0 0 0 0 0 
0 0 0 0 0 0 0 1 0 
0 0 0 0 0 0 0 0 0 
0 0 0 0 0 0 0 0 0 
0 0 0 0 0 0 0 0 0 
0 0 0 0 0 0 0 0 0 
0 0 0 0 0 0 0 0 0 
0 0 0 0 0 0 0 0 0 
0 0 0 0 0 0 0 0 0 
-1 0 0 0 0 0 0 0 0 
0 0 0 0 0 0 0 0 0 
0 0 0 0 0 0 0 0 0 
0 0 0 0 0 0 0 0 0 
0 0 0 0 0 0 0 0 0 
0 0 0 0 0 0 0 0 0 
0 0 0 0 0 0 0 0 0 
0 0 0 0 0 0 0 0 0 
1 0 0 0 0 0 0 0 0 
0 0 0 0 0 0 0 0 0 
0 0 0 0 0 0 0 0 0 
0 0 0 0 0 0 0 0 0 
0 0 0 0 0 0 0 0 0 
0 0 0 0 0 0 0 0 0 
0 0 0 -1 0 0 -1 0 0 
1 0 0 0 0 0 0 0 0 
0 0 0 0 0 0 0 0 0 
0 0 0 0 0 0 0 0 0 
0 0 0 0 0 0 0 0 0 
0 0 0 0 0 0 0 0 0 
0 0 0 0 0 0 0 0 0 
0 0 0 -1 0 0 0 0 0 
0 0 0 0 0 0 0 0 0 
0 0 0 0 0 0 0 0 0 
0 0 0 0 -1 0 0 0 0 
0 0 0 0 0 0 0 0 0 
0 0 0 0 0 0 0 0 0 
0 0 0 0 0 0 0 0 0 
0 0 0 0 0 0 0 0 0 
1 0 0 0 0 0 0 0 0 
0 0 0 0 0 0 0 1 0 
0 0 0 0 0 0 0 0 0 
0 0 0 0 1 0 0 0 0 
0 1 0 0 0 0 0 0 0 
0 0 0 0 0 0 0 0 0 
0 0 0 0 0 0 -1 0 0 
0 0 0 0 0 0 0 0 0 
0 0 0 0 0 0 0 0 0 
0 0 0 0 0 0 0 0 0 
0 0 0 1 0 0 0 0 0 
0 0 0 0 0 0 0 0 0 
0 0 0 0 0 0 0 0 0 
0 0 0 0 0 0 0 0 0 
0 0 0 0 0 0 0 0 0 
0 0 0 0 0 0 0 0 0 
0 0 0 0 0 0 0 0 0 
0 0 0 0 0 0 -1 0 0 
0 0 0 0 0 0 0 0 0 
0 0 0 -1 0 0 0 0 0 
0 0 0 0 0 0 0 0 0 
0 0 0 0 0 0 0 0 0 
0 0 0 0 0 0 0 0 0 
0 0 0 0 0 0 0 0 0 
0 0 0 0 0 0 0 0 0 
0 0 0 0 0 0 0 0 0 
0 0 0 0 0 0 0 0 0 
0 0 0 0 0 0 0 0 0 
0 0 0 0 0 0 0 0 0 
0 0 0 -1 0 0 0 0 0 
0 0 0 0 0 0 0 0 0 
0 0 0 0 0 0 0 0 0 
0 0 0 0 0 0 0 0 0 
0 0 0 0 0 0 0 0 0 
0 0 0 0 0 0 0 0 0 
0 0 0 0 0 0 0 0 0 
0 0 0 0 0 0 0 0 0 
0 0 0 0 0 0 0 0 0 
-1 0 0 0 0 0 0 0 0 
0 0 0 0 0 0 0 0 0 
0 0 0 0 0 0 0 0 0 
0 0 0 0 0 0 0 0 0 
0 0 0 0 0 0 0 0 0 
0 0 0 0 0 0 0 0 0 
0 0 0 0 0 0 0 0 0 
0 0 0 0 0 0 0 0 0 
0 0 0 0 0 0 0 0 0 
0 0 0 0 0 0 0 0 0 
0 0 0 -1 0 0 0 0 0 
0 0 0 -1 0 0 0 0 0 
0 0 0 0 0 0 0 0 0 
1 -1 0 0 0 0 0 -1 0 
0 0 0 0 0 0 0 0 0 
0 0 0 0 0 0 0 0 0 
0 0 0 0 0 0 0 0 0 
0 0 0 0 0 0 0 0 0 
0 0 0 0 -1 0 0 0 0 
0 0 0 0 0 0 0 0 0 
0 0 0 0 0 0 0 0 0 
0 0 0 0 0 0 0 0 0 
-1 0 0 0 0 0 0 1 0 
0 0 0 1 0 0 1 0 0 
0 0 0 0 0 0 0 0 0 
0 0 0 0 0 0 0 0 0 
0 0 0 0 0 0 0 0 0 
0 0 0 0 1 0 0 0 0 
0 1 0 0 0 0 0 0 0 
0 0 0 0 0 0 0 0 0 
0 0 0 0 0 0 0 0 0 
0 0 0 0 0 0 0 1 0 
-1 1 0 -1 0 0 0 0 0 
0 0 0 0 0 0 1 0 0 
1 0 0 0 0 0 1 0 0 
0 0 0 0 0 0 0 0 0 
0 0 0 0 0 0 0 0 0 
0 0 0 0 0 0 0 0 0 
0 0 0 0 0 0 0 0 0 
0 0 0 0 0 0 0 0 0 
0 1 0 0 0 0 0 0 0 
0 0 0 0 0 0 0 1 0 
-1 0 0 0 0 0 0 0 0 
0 0 0 0 0 0 0 0 0 
0 0 0 0 0 0 0 0 0 
0 0 0 0 0 0 0 0 0 
0 0 0 0 0 0 0 0 0 
0 0 0 0 0 0 0 0 0 
0 0 0 0 0 0 0 0 0 
0 0 0 0 0 0 0 0 0 
0 0 0 0 0 0 0 0 0 
0 0 0 0 0 0 0 0 0 
0 0 0 -1 0 0 0 0 0 
1 0 0 0 0 0 0 0 0 
0 0 0 0 0 0 0 0 0 
0 0 0 0 0 0 0 0 0 
0 0 0 0 0 0 0 0 0 
0 0 0 0 0 0 0 0 0 
0 0 0 0 0 0 0 0 0 
0 0 0 0 0 0 0 0 0 
0 0 0 0 0 0 0 0 0 
0 0 0 0 0 0 0 0 0 
0 0 0 0 0 0 0 0 0 
0 0 0 0 0 0 0 0 0 
0 0 0 0 0 0 0 0 0 
0 0 0 0 0 0 0 0 0 
0 0 0 0 0 0 0 0 0 
0 0 0 0 0 0 0 0 0 
0 0 0 0 0 0 0 0 0 
0 0 0 0 0 0 0 0 0 
0 0 0 0 0 0 0 0 0 
0 0 0 -1 0 0 0 0 0 
0 0 0 0 0 0 0 0 0 
0 0 0 0 0 0 0 -1 0 
0 0 0 0 0 0 0 0 0 
0 0 0 0 0 0 0 0 0 
0 0 0 0 0 0 0 0 0 
0 0 0 0 0 0 0 0 0 
0 0 0 0 0 0 0 0 0 
0 0 0 0 0 0 0 0 0 
0 0 0 0 0 0 0 0 0 
0 0 0 0 0 0 0 0 0 
0 0 0 0 0 0 0 0 0 
0 0 0 0 0 0 0 0 0 
0 0 0 0 0 0 0 1 0 
0 1 0 0 0 0 0 0 0 
0 0 0 0 0 0 0 0 0 
0 0 0 0 0 0 0 0 0 
0 0 0 0 0 0 0 0 0 
0 0 0 0 0 0 0 0 0 
0 0 0 0 0 0 0 0 0 
0 0 0 0 0 0 0 0 0 
0 0 0 0 0 0 0 0 0 
0 0 0 0 0 0 0 0 0 
0 0 0 0 0 0 0 0 0 
0 0 0 0 0 0 0 0 0 
0 0 0 0 0 0 0 0 0 
0 0 0 0 0 0 0 0 0 
0 0 0 0 0 0 0 0 0 
0 0 0 0 0 0 0 0 0 
0 0 0 0 0 0 0 0 0 
0 0 0 0 0 0 0 0 0 
0 0 0 0 0 0 0 0 0 
0 0 0 0 0 0 0 0 0 
0 0 0 0 0 0 0 0 0 
0 0 0 0 0 0 0 0 0 
-1 0 0 0 0 0 0 0 0 
0 0 0 0 0 0 0 0 0 
0 0 0 0 0 0 0 0 0 
0 0 0 0 0 0 0 0 0 
0 0 0 0 0 0 0 0 0 
0 0 0 0 0 0 0 0 0 
0 0 0 0 0 0 0 0 0 
0 0 0 0 0 0 0 0 0 
0 -1 0 0 0 0 0 0 0 
0 0 0 0 -1 0 0 0 0 
0 0 0 0 0 0 0 0 0 
0 0 0 0 0 0 0 -1 0 
0 0 0 0 0 0 0 0 0 
0 0 0 0 0 0 0 0 0 
0 0 0 0 0 0 0 0 0 
0 0 0 0 0 0 0 0 0 
0 0 0 0 0 0 0 0 0 
0 0 0 0 0 0 0 0 0 
0 0 0 0 0 0 0 0 0 
0 0 0 0 0 0 0 0 0 
0 0 0 0 0 0 0 0 0 
0 0 0 0 0 0 0 0 0 
0 0 0 0 0 0 0 0 0 
0 0 0 0 0 0 0 0 0 
0 0 0 0 0 0 0 0 0 
0 0 0 0 0 0 0 0 0 
0 0 0 0 0 0 0 0 0 
0 0 0 0 0 0 0 0 0 
0 0 0 0 0 0 0 0 0 
0 0 0 0 0 0 0 0 0 
0 0 0 0 0 0 0 0 0 
0 0 0 0 0 0 0 0 0 
0 0 0 0 0 0 0 0 0 
0 0 0 0 0 0 0 0 0 
0 0 0 0 0 0 0 0 0 
0 0 0 0 0 0 0 0 0 
0 0 0 0 0 0 0 0 0 
0 0 0 0 0 0 0 0 0 
0 0 0 0 0 0 0 0 0 
0 0 0 0 0 0 0 0 0 
0 0 0 0 0 0 0 0 0 
0 0 0 0 0 0 0 0 0 
0 0 0 0 0 0 0 0 0 
0 0 0 0 0 0 0 0 0 
0 0 0 0 0 0 0 0 0 
0 0 0 0 0 0 0 0 0 
0 0 0 0 0 0 0 0 0 
0 0 0 0 0 0 0 0 0 

v 3 798 double
-0.000161949 3.24036e-06 -7.31385e-05 -0.000100518 4.09593e-05 -5.19095e-05 0.000123765 -5.03085e-05 -5.16123e-05 
0.000128701 0.000303947 -1.20421e-05 0.00026587 -4.28471e-05 -4.03583e-05 4.3199e-05 0.000120355 -5.17556e-05 
0.00209528 -0.00232706 -0.000143804 -0.000285768 6.19303e-05 -5.83085e-05 0.000211553 -0.000210208 2.12512e-15 
0.00147225 -0.000160547 -0.000174943 0.000569933 -8.9944e-05 -8.64962e-05 5.92114e-05 -6.34134e-05 2.90856e-05 
1.05042e-05 -0.000381313 -9.10288e-05 -0.000141778 -8.97923e-05 -0.000228111 -0.000231215 7.77037e-05 2.99909e-05 
6.65199e-05 0.000131851 0.000159762 -5.96767e-05 -0.000155615 -0.000128026 6.7383e-05 0.000161112 -0.000214704 
-0.000436317 -9.50031e-05 -0.000267214 -0.000294234 -0.000199724 0.000688792 8.12452e-05 0.000319103 0.000368257 
0.000502184 0.000354856 0.000336569 0.000186099 -0.000334411 0.000109754 0.000242396 -0.000479272 0.000188511 
0.000369252 -0.000371171 -1.22906e-05 0.000223744 -0.000295849 0.000118438 -2.43556e-05 -0.000256765 -2.42117e-05 
-0.00092163 -0.000612959 -0.000366176 -0.00120935 8.60567e-06 1.94011e-05 0.00022603 -2.15968e-05 -4.82616e-06 
0.000278454 0.000844651 -0.000137646 -9.50259e-05 0.00046166 -0.000338103 0.000203723 0.000221772 -0.000273174 
0.000171214 4.78386e-05 1.15216e-05 9.93849e-05 0.000930115 -3.1601e-05 -0.00071743 -0.000117042 0.000871455 
5.62443e-05 8.32504e-05 0.000137189 0.000978051 -0.000360148 -0.000871531 0.000153537 -8.8644e-05 5.65271e-05 
0.000331049 1.07608e-05 -0.000289651 -3.04654e-05 -3.43485e-05 -3.27385e-05 -0.000166054 0.000183863 -0.000338579 
-0.000266255 0.000438586 0.000130431 -4.82161e-05 -0.000144197 6.54668e-05 -0.000147808 -0.000192077 0.00013533 
-3.75721e-06 0.000321382 0.000186943 0.000314807 0.00101913 -0.000169424 3.83221e-05 0.000415676 -0.000153742 
-4.75444e-05 0.000580323 2.02699e-05 0.000448589 0.000920781 -0.000401736 0.000172463 3.74895e-05 -6.11062e-05 
0.000108134 0.000202608 -0.00021559 2.21084e-05 -5.50387e-05 -8.945e-05 0.000123139 -0.000139332 -6.71514e-05 
6.18975e-05 -0.000121718 -6.55838e-05 0.000112473 0.000160165 2.46946e-05 0.00026166 0.000366813 -0.000111798 
8.8475e-05 4.23499e-05 4.16537e-05 2.69375e-06 -0.000229127 0.000315443 -0.000262631 7.80696e-05 0.000135734 
-0.000238346 -0.000286484 9.01387e-06 -0.000204233 9.27281e-05 4.65576e-05 -0.000138982 -0.000105131 0.000227849 
-0.000195425 -0.00012546 -0.000177729 6.61517e-05 0.000148811 -0.000130784 3.60467e-05 9.03172e-05 -5.20415e-05 
-0.000120308 -4.8746e-05 -1.02693e-05 -2.58983e-06 -2.84874e-05 7.09037e-05 0.000133072 -1.6706e-05 2.07738e-05 
4.35178e-05 -0.000217575 6.70099e-05 -6.65763e-05 9.07989e-05 3.83155e-05 0.000139922 -3.85146e-05 0.000162145 
0.000140541 0.000248138 -1.30944e-06 -0.000215963 -8.9272e-05 0.000471094 5.50706e-05 -0.000184342 1.14484e-05 
6.86037e-05 -0.000202646 0.000122598 -6.28296e-05 -2.50945e-05 -5.51463e-05 -4.92306e-05 -0.000131109 3.93156e-06 
-0.000232714 -4.45917e-05 -0.000102598 -6.15856e-05 -1.63255e-06 -0.000103206 -0.000141143 1.04251e-05 3.00123e-05 
-0.000105451 -0.000151221 -0.000189694 -5.38281e-05 -7.40754e-06 -1.32247e-05 -7.41861e-05 -0.00015796 -7.29506e-05 
9.61443e-05 -0.000154755 -5.37097e-05 -0.000119427 7.66091e-05 -4.69685e-06 0.000109128 -0.000619944 -0.000138661 
0.000156269 -5.17416e-05 1.44409e-05 3.32796e-05 9.45341e-05 9.7932e-05 -0.000123975 0.000121421 -2.37698e-05 
7.63001e-05 0.000129095 0.000101543 7.86772e-05 0.000214404 1.2945e-05 0.000313139 -0.000145577 -3.92609e-05 
-6.79236e-05 2.69977e-05 -0.000153276 1.65e-05 6.97844e-05 -1.94863e-05 -1.31411e-05 -8.98441e-05 0.000152638 
0.000322722 9.6812e-05 9.18785e-05 -4.66717e-05 -2.99925e-05 -0.000242679 1.28931e-05 2.87297e-05 -0.000189016 
0.000212873 -0.000357766 -0.000426162 0.000268918 0.000318804 -0.000257178 4.35185e-05 3.48727e-05 -0.000260654 
-0.000172585 -3.25181e-05 -0.00023799 -2.59676e-05 -0.000403136 -0.000363955 0.000126394 -0.000681252 -0.000410518 
0.000169514 -0.000239512 -0.000451964 0.000233654 -0.0014011 0.000895261 0.000199523 -0.000481726 -0.000212892 
-0.000123417 -0.00168242 0.00057708 -8.74926e-05 -2.30026e-05 -7.36188e-05 0.00023227 4.75206e-05 -0.000313294 
0.000400094 -0.000495479 -1.82281e-05 0.000430383 -0.000187409 5.9483e-05 7.11569e-05 -0.000196289 0.000259525 
0.000147017 -0.000144865 -0.000201382 0.000103419 0.000180237 -5.70217e-05 -0.000660098 2.0029e-05 -0.000298424 
0.000958089 0.000243107 -0.000481416 0.000141549 -0.000277904 -7.93536e-05 0.000362555 -0.000470095 -0.000899812 
0.000726795 0.00067308 0.000119239 0.000208434 0.000232892 -0.000322888 0.000839177 7.06863e-06 -0.00108191 
0.000724002 -3.27994e-06 -0.000992175 0.000896771 -0.000511303 0.00111312 0.00297364 -0.00106617 -6.55332e-05 
0.00287917 -0.00079915 -0.00178573 0.00285297 0.000389201 0.000542107 0.00134313 0.000164275 -0.000612164 
0.00242933 -0.000806658 -0.000688033 0.00206411 4.45375e-05 9.95831e-05 0.00234019 -0.000567245 -0.000805369 
-0.000230331 -0.000345444 -0.000489161 -6.34712e-05 -0.000147559 -0.000406517 9.96862e-05 -0.000233962 3.2536e-05 
-0.00219028 0.000184503 -0.0020085 0.000132769 0.00125826 0.000273804 0.000787046 0.000467489 -0.000277457 
-0.000350914 0.000104403 -0.000191307 -9.77024e-05 0.000800569 0.000756142 -0.000568009 0.000672288 7.03636e-06 
-1.36836e-06 0.00144713 -0.00108479 0.00135398 -0.000696994 0.00167098 -0.00159529 0.000535526 0.000145377 
-0.000118735 0.000651919 -0.00146076 -0.000212165 -0.000143083 -0.000431481 -6.93296e-05 -2.81271e-05 -0.000305625 
0.00121743 0.000381003 0.000184122 0.000436292 0.000550654 -0.000206778 0.000476814 0.000716194 -0.000132409 
0.000606117 -0.00018731 -9.67297e-05 0.000231248 -0.000242134 0.000402157 -0.000188234 -0.0001885 -0.000263564 
-0.00190418 -0.000177386 -0.000784475 -3.81654e-06 -0.000154487 0.000175926 -0.00050526 0.000162334 -0.000218337 
0.00010664 6.72896e-05 0.000252649 -0.000883833 0.000897776 5.79642e-05 -0.000242498 0.000352844 0.000172666 
0.000237013 -2.51777e-06 0.000227833 -9.09468e-05 0.000952046 -0.000328326 9.39302e-05 0.000256721 -0.000312028 
-0.000509958 0.000622025 -0.000829914 1.39211e-05 0.000110383 -8.86165e-05 0.000231437 0.00115957 -0.000891116 
0.000165972 0.000618888 -0.000702533 -0.000157438 0.000246238 -4.475e-05 -0.000118414 -3.96704e-05 -0.000411535 
-5.18889e-05 -4.8457e-05 -0.000428283 0.000147963 0.000401224 -0.000131551 -0.000132844 2.74357e-05 -0.000182958 
7.49967e-05 -3.71568e-05 -9.04482e-05 0.000407952 0.000140436 -6.25168e-05 0.000234943 9.3586e-05 -0.000443083 
0.000333117 0.000280251 -3.70259e-05 3.34509e-05 0.000353981 0.000149585 -0.000155561 -0.000280088 0.000135189 
-0.000217465 -0.000435109 0.000459571 -0.000396322 -0.000173955 0.000798341 -0.00044586 -0.000275597 0.000585606 
-0.000176569 -0.000256413 0.000593844 -0.000139753 2.32393e-05 5.6407e-05 -0.000351529 0.000200302 0.000488251 
0.000161408 8.75698e-06 -0.000110906 -0.000110629 0.000312005 -2.40575e-05 -0.000105978 -0.000381575 -2.872e-05 
-6.91699e-08 -5.13614e-05 -8.10865e-05 0.000116395 -5.017e-05 0.000155488 -0.000194667 -0.000216375 -0.000231279 
9.62894e-05 -0.000127519 0.000245215 0.000103256 -6.15541e-05 -0.000159062 5.87671e-05 4.70368e-06 5.22155e-05 
-1.66404e-05 0.000104042 0.000128537 0.000136085 -0.000104158 0.000168313 0.00014118 0.000253399 0.000257602 
0.000664653 0.000700261 -0.00069746 -6.31257e-05 0.000799813 -0.000305322 0.000116177 4.64979e-05 9.18436e-05 
0.000478436 -0.000160537 0.000116678 -0.000293794 0.000319566 0.0012195 -0.000171343 5.42042e-05 0.000185626 
-0.000227756 9.78632e-05 -0.000428854 -0.000184288 -0.000163191 0.000344145 -0.000173011 -1.10071e-05 -0.000196121 
-7.45629e-05 -0.000184723 -1.11476e-05 -4.93311e-05 5.53603e-05 -0.000307791 -8.51442e-05 -0.000238651 -0.000405782 
0.000143636 -0.000290516 -0.000139486 -6.9429e-06 -0.000435031 -0.000417471 -0.000181404 -0.000303591 2.92515e-05 
0.000286927 0.000273154 0.000309079 0.000143563 -0.000199559 -0.000112936 -6.99755e-06 1.46925e-05 5.68343e-05 
4.89615e-05 0.000289307 0.000240392 9.29905e-06 -0.000433607 8.94258e-05 -3.13075e-05 0.000262541 0.000546791 
9.54302e-05 5.69248e-05 -0.00014162 -0.000156033 -0.000233719 8.84286e-05 1.80463e-05 -0.000203666 -5.75512e-06 
0.00022262 -3.99688e-06 7.42604e-05 -0.000558388 -0.000168661 -0.00051536 -0.000446416 7.08359e-06 0.000334325 
0.000112336 -0.000229843 0.000428283 0.00016262 -0.000607705 -0.000701732 -0.000133571 -4.35706e-07 -0.000372933 
-9.25612e-05 7.92029e-05 -0.000401387 -0.000528328 -0.000301026 0.000125071 -0.000287959 -0.000506862 -0.000357044 
-5.94064e-06 -0.0011288 -0.000405591 4.29394e-05 -0.00143359 -0.000432373 6.22726e-05 -0.000823556 -0.00132399 
-0.000420609 -6.76708e-05 0.000213723 -0.000172867 -0.000932116 8.90509e-05 0.000289438 -0.000258804 -8.51981e-05 
0.000206459 -0.000466416 0.000213741 3.68732e-05 0.000615555 0.000173537 -0.000380145 0.000303313 -0.000258704 
0.000106528 5.38316e-05 0.000276451 -5.26374e-05 -0.000304911 -0.000517885 -0.000174758 0.000400494 -0.00035062 
3.78275e-05 3.80115e-06 -0.000638996 0.000538472 4.58689e-05 -0.000254762 -0.000440174 -0.000862839 -0.000157591 
0.000941356 0.000265912 8.24857e-05 0.000684326 -0.000190197 0.000191066 -0.000762603 -0.000424324 0.000425922 
0.000367787 0.000291007 0.000200649 -0.000288862 -1.39907e-07 0.000268149 8.69995e-05 -2.32493e-05 -0.000840435 
-0.000376241 0.00208868 -0.00162106 0.00019179 0.000769417 -0.000851686 -0.00115179 0.00138806 -0.00150044 
-0.00183952 -0.00128648 0.00286236 -0.00353502 -0.0011508 -0.000817373 -0.000591251 0.000336977 -0.000331475 
0.000114258 0.000776397 2.83882e-05 0.000638466 -0.000258053 -0.00116825 -0.00155136 0.000150673 -5.57615e-05 
0.00119503 -0.000373031 0.00165649 -0.00137865 -0.000986742 0.00158998 0.00300447 0.000838007 0.00170363 
0.00128235 -0.000173739 -0.00160221 -0.000267747 -0.00114792 0.000490917 -0.000442296 -0.00159417 -0.000473815 