# vtk DataFile Version 4.0
Generated by LIGGGHTS
ASCII
DATASET POLYDATA
POINTS 1311 float
-379.422 -380.887 49.9849 -460.659 -439.199 49.9669 -256.781 -470.427 49.9866 
-90.5708 -363.738 49.9741 -165.223 -430.227 49.9544 90.9293 -486.884 49.9416 
125.618 -361.67 49.9571 25.3772 -411.4 49.9829 182.668 -444.074 49.9935 
221.874 -334.669 49.9549 284.17 -412.832 49.9852 440.597 -454.975 49.9413 
377.612 -377.359 49.9505 476.338 -361.589 49.9905 -442.454 -303.253 49.9944 
-374.088 -230.289 49.9512 -311.059 -307.869 49.9562 -275.456 -214 49.9545 
-175.577 -209.723 49.9646 -174.642 -309.687 49.9654 -87.0908 -261.407 49.9717 
-3.02537 -315.546 49.9577 1.83581 -215.697 49.9618 85.9008 -269.916 49.9808 
270.243 -195.729 49.9435 182.149 -242.948 49.9664 313.367 -286.571 49.9738 
370.175 -193.829 49.956 476.622 -206.594 49.9906 413.32 -283.984 49.9676 
-441.424 -149.306 49.9702 -479.82 -53.8488 49.9794 -379.802 -45.1325 49.9435 
-339.339 -136.557 49.9799 -191.291 -10.4757 49.9781 -186.078 -110.311 49.9849 
-280.408 -55.8041 49.9392 -82.1727 -161.528 49.9359 -98.1067 -62.8107 49.983 
94.4228 -163.968 49.9899 140.326 -75.1152 49.9504 6.76995 -115.83 49.9578 
308.636 -3.59709 49.9654 240.315 -76.5793 49.99 430.345 -9.54063 49.9925 
439.3 -112.917 49.9935 337.712 -99.261 49.9976 -449.947 149.329 49.9885 
-361.613 102.489 49.9702 -437.095 36.8049 49.9655 -265.947 143.49 49.9789 
-277.44 44.1494 49.9836 -24.1384 4.44925 49.9748 -150.572 109.077 49.9238 
-29.4046 104.286 49.9869 75.7808 1.23804 49.9636 70.5409 101.426 49.9758 
267.318 87.4336 49.9463 198.574 14.8241 49.9607 170.088 110.646 49.954 
474.188 84.1856 49.9776 373.356 72.625 49.9945 413.563 164.178 49.9751 
-364.931 202.394 49.9565 -425.251 282.129 49.9707 -181.698 204.058 49.9448 
-273.677 243.19 49.9829 -205.845 316.661 49.9865 -113.851 277.495 49.9786 
-12.2852 247.811 49.9732 80.6291 210.828 49.9918 64.4799 313.922 49.9935 
244.853 291.049 49.9612 187.701 209.038 49.9885 285.654 185.865 49.9935 
489.677 229.031 49.9533 342.199 268.357 49.9604 432.579 311.108 49.9967 
-387.122 393.745 49.966 -482.593 364.035 49.9633 -486.097 464.106 49.9875 
-386.451 493.769 49.9669 -303.78 338.517 49.9829 -197.79 446.156 49.9297 
-297.611 438.309 49.9975 -2.41769 476.711 49.9796 -25.8995 379.496 49.9566 
-102.416 476.031 49.9539 -125.839 376.744 49.9816 75.0365 413.371 49.9935 
157.687 350.299 49.9893 259.624 490.277 49.9543 249.062 390.897 49.9407 
168.225 449.727 49.9668 359.323 482.604 49.9914 429.161 411.041 49.9784 
-413.381 -460.145 135.514 -454.886 -370.006 123.411 -380.953 -383.269 190.587 
-321.544 -424.267 119.015 -243.741 -375.718 79.2467 -222.323 -423.416 164.466 
-288.111 -348.189 174.622 -136.167 -380.58 137.328 -56.9741 -446.778 94.3003 
-142.659 -480.287 133.458 -50.3069 -474.933 189.992 16.3149 -375.564 142.889 
117.535 -426.854 125.291 30.9067 -476.293 131.688 182.591 -479.927 179.514 
210.686 -391.12 131.682 274.292 -467.842 139.514 301.845 -350.405 126.062 
370.385 -447.602 120.734 466.045 -428.014 142.753 400.146 -352.842 144.183 
-376.791 -307.647 125.284 -448.089 -226.723 117.004 -451.019 -300.343 195.71 
-193.586 -321.536 194.032 -324.601 -223.131 136.518 -242.486 -280.207 117.226 
-145.727 -259.401 131.397 -60.8475 -312.997 131.483 -57.272 -212.79 132.099 
105.793 -329.078 142.377 121.178 -219.469 128.744 28.163 -267.045 131.606 
31.6805 -167.142 132.074 197.918 -290.76 136.504 286.15 -243.791 136.131 
206.328 -199.901 177.349 479.156 -294.877 124.397 399.991 -234.937 136.09 
485.93 -220.793 191.841 -392.896 -145.428 137.282 -430.118 -45.1084 136.286 
-215.97 -166.421 195.826 -329.214 -68.3541 136.288 -260.462 -136.596 111.417 
-232.184 -44.0915 136.671 -313.644 -145.264 198.218 -142.757 -153.645 129.015 
-133.048 -55.1868 143.354 -51.5504 -111.767 131.04 24.2144 -47.2446 120.575 
112.987 -109.515 139.716 98.8773 -20.4582 182.873 184.058 -39.5788 132.541 
189.206 -152.077 91.0071 284.776 -143.854 134.113 283.803 -44.0019 137.981 
221.073 -103.611 199.791 494.788 -145.279 126.853 384.507 -136.271 130.387 
446.636 -58.1392 135.85 369.376 -65.1178 198.943 -352.117 26.3891 114.072 
-422.991 95.1055 129.944 -499.915 25.8785 126.952 -311.663 117.997 135.182 
-206.125 61.3235 117.925 -278.874 35.6649 181.489 -213.687 159.742 133.647 
-49.6824 1.77748 168.562 -110.54 28.7755 93.9849 -110.772 116.877 141.25 
-23.2277 111.808 189.216 23.6861 52.6944 123.625 132.765 47.4668 117.835 
76.6697 110.43 185.722 24.9244 160.781 116.259 132.078 166.651 123.5 
175.486 97.3416 193.198 239.014 45.3307 136.157 229.465 143.982 123.173 
323.041 100.859 131.816 499.984 96.0847 198.124 370.025 5.64186 128.322 
422.411 90.4684 135.289 488.184 165.247 126.902 -492.822 295.642 122.394 
-350.827 280.612 116.695 -416.666 194.743 135.13 -198.656 259.231 131.525 
-293.594 212.514 162.343 -273.93 309.894 173.478 -86.1189 183.828 71.2157 
-49.0727 310.576 118.576 -46.5198 218.058 156.42 -134.6 326.875 167.725 
-139.977 200.614 187.407 135.232 271.702 107.558 38.9838 265.786 133.889 
226.784 243.087 135.742 316.209 199.574 146.086 312.061 299.299 140.214 
398.714 168.261 193.439 405.751 235.388 119.706 471.639 236.679 194.859 
406.436 331.814 146.08 -486.537 495.932 187.603 -428.28 351.7 174.228 
-427.827 441.223 127.949 -339.535 377.985 136.473 -334.998 477.83 134.173 
-235.137 481.769 135.503 -242.238 383.986 114.329 -151.649 420.203 136.234 
-52.3095 437.179 127.209 -49.663 368.663 199.959 114.604 463.192 133.245 
26.2037 374.356 135.115 125.275 364.357 143.795 16.2394 450.944 198.628 
222.34 342.904 133.443 225.657 443.61 131.595 293.839 384.221 189.766 
341.805 376.794 84.4753 486.359 391.632 140.879 438.589 477.752 123.846 
342.883 459.754 146.396 -412.544 -447.63 261.293 -418.467 -349.059 276.728 
-495.643 -385.402 224.637 -331.083 -395.737 290.042 -321.686 -460.88 212.049 
-236.104 -393.924 258.969 -191.227 -461.419 317.483 -231.093 -497.521 233.211 
-94.399 -436.576 316.478 -4.49711 -414.5 278.816 -64.7693 -377.609 207.688 
-141.899 -362.214 269.522 -141.14 -453.995 229.869 68.3518 -430.279 212.238 
57.3632 -486.033 311.261 154.532 -379.638 213.58 92.2433 -374.376 291.628 
169.583 -456.429 275.824 252.016 -426.566 227.781 296.913 -469.756 305.95 
294.104 -366.777 295.971 198.141 -338.806 293.727 224.082 -417.292 349.949 
491.22 -468.653 278.422 406.484 -469.939 211.251 373.929 -379.006 237.032 
494.687 -379.29 323.953 390.68 -368.014 334.976 396.662 -464.817 310.645 
-355.272 -292.373 223.34 -416.962 -207.7 211.713 -460.243 -258.738 286.145 
-367.146 -282.846 331.233 -337.81 -207.246 272.802 -409.246 -192.724 341.236 
-279.647 -309.911 291.183 -264.448 -252.548 210.749 -178.621 -234.553 258.735 
-189.176 -300.898 332.791 -252.64 -218.344 323.946 -76.4914 -228.799 295.5 
-14.1515 -240.52 218.189 -103.214 -285.884 217.88 -95.666 -172.468 215.168 
-38.6488 -320.804 285.723 45.2016 -320.895 221.474 141.956 -274.111 217.673 
129.925 -269.487 316.829 76.5577 -198.498 215.708 89.0626 -171.089 311.007 
31.9163 -252.972 306.053 253.546 -328.087 210.713 180.177 -193.253 276.114 
266.11 -236.77 249.377 226.92 -254.765 339.588 330.658 -184.941 305.425 
346.96 -289.838 200.698 353.011 -282.217 300.167 341.025 -189.616 202.922 
416.594 -214.247 263.549 443.361 -306.275 221.396 450.776 -289.58 319.696 
-366.391 -8.04751 206.837 -459.164 -108.549 207.85 -374.255 -93.3241 258.418 
-490.891 -163.594 285.009 -432.821 -95.6128 339.412 -406.724 -0.595117 298.172 
-279.717 -54.833 223.944 -244.793 -127.381 283.209 -314.777 -35.7234 315.596 
-210.46 -33.3771 292.795 -328.174 -132.213 338.181 -152.554 -153.895 311.712 
-72.6242 -95.0101 323.345 -12.8278 -155.688 271.021 -158.206 -93.3996 232.268 
-59.3781 -79.8635 225.433 -14.6131 -13.1514 306.082 -105.529 -1.16323 266.253 
36.6337 -98.9914 205.195 129.487 -115.954 238.073 77.4084 -40.7348 278.373 
25.4851 -97.195 342.467 170.01 -6.93729 325.612 206.61 -95.8656 298.39 
299.816 -100.699 261.316 271.015 -21.0362 314.401 192.423 -12.1727 228.321 
479.853 -62.5913 272.416 442.956 -132.678 211.417 371.453 -2.88505 277.145 
393.711 -108.084 294.875 -465.792 0.881421 217.541 -480.915 66.1202 291.749 
-405.566 81.5715 227.466 -481.405 161.665 321.206 -382.907 114.214 319.21 
-179.862 11.9405 200.767 -319.752 53.6041 270.931 -259.574 134.721 218.878 
-217.2 65.0824 276.766 -129.709 90.9588 235.892 -41.809 80.0396 282.189 
-134.175 79.7315 335.151 26.101 32.9411 225.869 29.8098 165.257 254.98 
119.052 48.1646 259.492 50.6523 90.9753 318.546 126.233 146.83 273.878 
269.723 125.343 212.786 289.496 10.7605 221.43 214.602 70.7556 281.253 
311.19 71.1096 306.984 239.659 165.896 299.225 436.284 15.0559 203.169 
362.063 79.5253 221.333 437.605 120.649 272.267 432.941 46.2139 338.834 
375.688 134.566 349.5 -353.742 167.065 228.02 -395.725 262.532 205.525 
-452.953 179.436 227.025 -471.21 267.42 270.895 -398.901 321.184 314.202 
-395.77 212.597 306.872 -267.908 176.739 309.225 -222.532 240.887 226.852 
-314.891 252.136 263.381 -215.61 319.845 287.794 -173.176 170.525 277.922 
-302.455 315.27 339.869 -175.212 246.675 342.634 -69.8499 173.001 253.094 
-88.6935 270.88 236.67 -90.6879 299.085 332.575 -20.3707 229.221 319.525 
-101.971 178.759 347.631 97.2683 219.647 200.766 10.4138 259.949 229.504 
93.5166 271.431 286.193 69.6688 192.393 342.573 165.678 292.576 200.483 
192.638 193.289 215.372 275.131 249.261 223.027 192.14 254.778 294.214 
322.079 299.645 295.49 333.34 181.481 267.931 373.392 263.373 211.053 
443.212 219.014 289.047 419.145 312.264 315.859 -491.745 356.509 325.611 
-389.62 465.743 217.017 -367.924 415.269 300.527 -468.085 410.332 244.736 
-450.408 465.658 326.117 -346.395 345.189 232.579 -304.667 495.909 300.585 
-296.511 429.552 212.796 -209.407 380.667 208.685 -177.31 441.166 291.053 
-268.775 402.724 305.037 -10.9119 338.726 287.211 -106.427 448.285 220.879 
-127.527 359.479 261.955 -35.3881 490.186 282.481 -70.2452 408.185 327.805 
140.622 359.516 290.118 50.8505 417.308 286.129 106.894 479.524 231.541 
[...]
POINT_DATA 1311
FIELD FieldData 7
id 1 1311 int
92 20 9 74 35 73 25 53 19 
61 37 101 79 26 29 119 22 31 
82 52 36 84 99 14 4 60 97 
41 80 102 72 27 34 15 110 17 
18 28 142 111 24 85 105 89 33 
39 43 58 91 81 8 69 11 1 
104 21 93 134 46 32 44 5 76 
87 56 23 86 45 129 30 57 100 
2 95 48 3 59 16 10 38 50 
12 63 70 42 7 71 66 62 51 
13 114 6 54 40 55 77 154 249 
106 155 173 157 67 96 127 230 228 
118 185 192 122 171 164 88 175 207 
140 159 279 120 183 161 116 141 112 
167 124 193 169 208 227 216 90 150 
214 133 170 211 68 103 221 240 78 
146 166 123 224 200 151 132 181 245 
272 108 47 158 163 98 109 75 138 
152 215 197 210 165 172 271 117 196 
248 115 107 191 178 113 130 217 223 
156 160 143 65 204 137 219 190 136 
121 176 168 187 145 202 139 194 182 
225 131 162 269 281 256 94 184 125 
147 213 128 220 198 144 64 149 285 
212 148 257 153 49 83 188 393 296 
199 379 195 273 381 270 376 334 254 
290 284 239 300 126 365 345 252 320 
308 317 400 303 246 286 347 439 357 
267 251 352 432 326 426 335 276 307 
389 445 323 189 277 292 306 233 205 
339 186 331 373 218 236 262 364 351 
201 396 174 238 255 318 244 259 293 
366 424 362 302 234 380 359 367 363 
370 324 241 342 392 304 283 301 329 
374 340 297 309 385 319 268 179 287 
388 341 265 258 298 402 229 282 177 
235 253 315 350 180 294 397 346 395 
226 242 289 338 368 209 206 260 356 
358 266 278 330 328 390 401 386 247 
295 384 310 353 399 332 321 403 414 
448 135 263 360 460 325 312 275 313 
291 231 250 237 427 354 264 311 314 
428 232 421 222 280 316 337 377 327 
305 387 349 383 322 203 243 344 261 
336 333 355 382 299 274 288 372 343 
423 453 469 549 534 572 440 411 456 
458 418 567 369 501 484 559 615 624 
430 431 509 472 600 514 450 481 557 
574 556 564 508 544 623 480 498 530 
592 520 553 512 405 478 523 604 570 
443 416 447 536 524 517 542 513 409 
474 516 455 429 420 601 596 595 371 
491 489 582 410 505 482 616 649 538 
408 394 464 528 496 470 522 551 519 
415 378 488 510 548 483 554 404 504 
532 562 476 413 471 537 575 477 507 
452 436 412 444 497 611 451 487 468 
555 525 361 419 462 540 526 493 454 
398 527 597 425 494 490 591 593 434 
459 467 588 547 461 495 475 546 566 
437 485 535 417 406 492 463 521 457 
438 473 603 531 348 511 422 502 499 
466 581 626 550 449 407 500 533 552 
563 433 435 391 518 479 503 442 561 
465 486 375 565 558 568 578 506 541 
441 446 620 731 678 800 690 843 630 
781 699 663 779 515 708 707 599 606 
632 661 713 719 758 621 725 629 721 
715 717 631 722 730 784 792 645 740 
757 709 701 751 666 761 753 780 653 
585 672 718 669 660 685 712 742 579 
573 668 641 696 755 676 694 738 684 
560 605 654 714 726 646 674 644 716 
797 580 642 590 609 681 687 602 583 
634 706 733 643 622 636 665 760 651 
543 594 732 802 798 529 656 776 723 
586 625 652 689 627 569 617 686 795 
613 589 614 693 741 637 670 667 729 
577 704 739 763 683 648 735 664 610 
737 724 700 639 677 598 612 618 655 
695 691 711 571 539 705 675 671 608 
692 778 635 545 576 633 749 744 754 
688 587 659 638 697 787 658 607 647 
698 727 734 679 673 682 762 793 619 
584 657 640 747 703 628 662 702 785 
720 680 650 736 810 878 884 995 811 
839 864 951 844 883 808 902 972 801 
822 891 901 895 821 898 879 769 914 
885 882 816 928 869 828 903 865 954 
932 766 947 812 889 924 799 887 851 
855 948 933 911 746 765 845 896 871 
953 806 764 767 858 880 961 841 786 
892 944 809 752 904 921 837 750 817 
827 867 950 906 773 756 850 952 860 
789 710 759 832 925 917 849 833 872 
873 846 852 870 877 775 854 909 946 
815 929 886 748 728 796 847 777 824 
805 866 743 835 829 945 868 814 770 
842 893 966 876 831 818 772 958 788 
807 820 825 942 894 794 783 859 923 
853 836 774 848 863 968 782 819 888 
957 941 908 791 823 856 927 939 830 
881 922 890 771 813 862 912 943 965 
745 804 838 875 899 803 897 861 834 
900 959 913 826 905 840 768 907 960 
1012 938 874 790 857 978 1026 973 1125 
982 916 1069 1133 1039 990 1134 993 1109 
1014 979 1021 1037 1049 1001 934 1135 1131 
984 937 971 1030 1081 1112 1073 1044 956 
1065 1032 1020 1083 1099 967 988 1071 1060 
963 1019 1058 1130 1000 1176 1034 1082 1091 
1115 1018 1007 1048 1101 1092 962 1075 1079 
1129 1080 935 918 999 1057 1077 1027 1100 
1005 992 1043 980 915 977 983 955 1062 
1053 1182 1003 1024 1035 1033 1078 1136 1009 
936 974 1036 1072 1093 1008 930 1006 1040 
1106 1117 1002 949 986 1052 1116 920 969 
987 1029 1051 1017 1128 1038 1054 931 1031 
1055 1059 998 1046 981 1098 970 985 1074 
1028 1013 989 1067 1056 997 1104 1068 994 
1061 1011 1042 1025 1111 1186 964 1010 1022 
1114 1047 926 975 1004 1094 919 976 996 
1076 991 1045 1066 1138 910 1016 1023 1063 
1113 1110 1064 1015 940 1146 1132 1241 1196 
1126 1177 1174 1151 1193 1208 1121 1137 1191 
1172 1148 1199 1084 1219 1124 1153 1228 1253 
1189 1167 1248 1119 1139 1118 1160 1103 1120 
1140 1237 1143 1254 1195 1145 1158 1204 1127 
1152 1168 1095 1162 1161 1197 1233 1107 1097 
1163 1154 1088 1194 1175 1251 1224 1178 1123 
1190 1141 1070 1214 1229 1096 1171 1086 1187 
1165 1144 1218 1122 1181 1227 1173 1041 1192 
1170 1087 1156 1232 1102 1179 1150 1142 1234 
1090 1108 1188 1246 1105 1159 1225 1180 1155 
1185 1157 1089 1050 1184 1169 1164 1202 1166 
1149 1085 1147 1239 1245 1211 1183 1216 1206 
1244 1230 1235 1223 1243 1200 1201 1222 1209 
1210 1221 1238 1231 1205 1250 1203 1249 1242 
1212 1226 1215 1207 1236 1213 1252 1220 1240 
1293 1217 1268 1302 1198 1247 1278 1301 1298 
1274 1291 1310 1308 1266 1272 1297 1275 1262 
1306 1267 1263 1270 1300 1309 1287 1283 1258 
1255 1280 1295 1284 1307 1290 1294 1281 1299 
1269 1261 1303 1288 1296 1264 1276 1260 1256 
1259 1265 1277 1304 1311 1279 1271 1257 1305 
1282 1289 1286 1273 1292 1285 
type 1 1311 int
1 1 1 1 1 1 1 1 1 
1 1 1 1 1 1 1 1 1 
1 1 1 1 1 1 1 1 1 
1 1 1 1 1 1 1 1 1 
1 1 1 1 1 1 1 1 1 
1 1 1 1 1 1 1 1 1 
1 1 1 1 1 1 1 1 1 
1 1 1 1 1 1 1 1 1 
1 1 1 1 1 1 1 1 1 
1 1 1 1 1 1 1 1 1 
1 1 1 1 1 1 1 1 1 
1 1 1 1 1 1 1 1 1 
1 1 1 1 1 1 1 1 1 
1 1 1 1 1 1 1 1 1 
1 1 1 1 1 1 1 1 1 
1 1 1 1 1 1 1 1 1 
1 1 1 1 1 1 1 1 1 
1 1 1 1 1 1 1 1 1 
1 1 1 1 1 1 1 1 1 
1 1 1 1 1 1 1 1 1 
1 1 1 1 1 1 1 1 1 
1 1 1 1 1 1 1 1 1 
1 1 1 1 1 1 1 1 1 
1 1 1 1 1 1 1 1 1 
1 1 1 1 1 1 1 1 1 
1 1 1 1 1 1 1 1 1 
1 1 1 1 1 1 1 1 1 
1 1 1 1 1 1 1 1 1 
1 1 1 1 1 1 1 1 1 
1 1 1 1 1 1 1 1 1 
1 1 1 1 1 1 1 1 1 
1 1 1 1 1 1 1 1 1 
1 1 1 1 1 1 1 1 1 
1 1 1 1 1 1 1 1 1 
1 1 1 1 1 1 1 1 1 
1 1 1 1 1 1 1 1 1 
1 1 1 1 1 1 1 1 1 
1 1 1 1 1 1 1 1 1 
1 1 1 1 1 1 1 1 1 
1 1 1 1 1 1 1 1 1 
1 1 1 1 1 1 1 1 1 
1 1 1 1 1 1 1 1 1 
1 1 1 1 1 1 1 1 1 
1 1 1 1 1 1 1 1 1 
1 1 1 1 1 1 1 1 1 
1 1 1 1 1 1 1 1 1 
1 1 1 1 1 1 1 1 1 
1 1 1 1 1 1 1 1 1 
1 1 1 1 1 1 1 1 1 
1 1 1 1 1 1 1 1 1 
1 1 1 1 1 1 1 1 1 
1 1 1 1 1 1 1 1 1 
1 1 1 1 1 1 1 1 1 
1 1 1 1 1 1 1 1 1 
1 1 1 1 1 1 1 1 1 
1 1 1 1 1 1 1 1 1 
1 1 1 1 1 1 1 1 1 
1 1 1 1 1 1 1 1 1 
1 1 1 1 1 1 1 1 1 
1 1 1 1 1 1 1 1 1 
1 1 1 1 1 1 1 1 1 
1 1 1 1 1 1 1 1 1 
1 1 1 1 1 1 1 1 1 
1 1 1 1 1 1 1 1 1 
1 1 1 1 1 1 1 1 1 
1 1 1 1 1 1 1 1 1 
1 1 1 1 1 1 1 1 1 
1 1 1 1 1 1 1 1 1 
1 1 1 1 1 1 1 1 1 
1 1 1 1 1 1 1 1 1 
1 1 1 1 1 1 1 1 1 
1 1 1 1 1 1 1 1 1 
1 1 1 1 1 1 1 1 1 
1 1 1 1 1 1 1 1 1 
1 1 1 1 1 1 1 1 1 
1 1 1 1 1 1 1 1 1 
1 1 1 1 1 1 1 1 1 
1 1 1 1 1 1 1 1 1 
1 1 1 1 1 1 1 1 1 
1 1 1 1 1 1 1 1 1 
1 1 1 1 1 1 1 1 1 
1 1 1 1 1 1 1 1 1 
1 1 1 1 1 1 1 1 1 
1 1 1 1 1 1 1 1 1 
1 1 1 1 1 1 1 1 1 
1 1 1 1 1 1 1 1 1 
1 1 1 1 1 1 1 1 1 
1 1 1 1 1 1 1 1 1 
1 1 1 1 1 1 1 1 1 
1 1 1 1 1 1 1 1 1 
1 1 1 1 1 1 1 1 1 
1 1 1 1 1 1 1 1 1 
1 1 1 1 1 1 1 1 1 
1 1 1 1 1 1 1 1 1 
1 1 1 1 1 1 1 1 1 
1 1 1 1 1 1 1 1 1 
1 1 1 1 1 1 1 1 1 
1 1 1 1 1 1 1 1 1 
1 1 1 1 1 1 1 1 1 
1 1 1 1 1 1 1 1 1 
1 1 1 1 1 1 1 1 1 
1 1 1 1 1 1 1 1 1 
1 1 1 1 1 1 1 1 1 
1 1 1 1 1 1 1 1 1 
1 1 1 1 1 1 1 1 1 
1 1 1 1 1 1 1 1 1 
1 1 1 1 1 1 1 1 1 
1 1 1 1 1 1 1 1 1 
1 1 1 1 1 1 1 1 1 
1 1 1 1 1 1 1 1 1 
1 1 1 1 1 1 1 1 1 
1 1 1 1 1 1 1 1 1 
1 1 1 1 1 1 1 1 1 
1 1 1 1 1 1 1 1 1 
1 1 1 1 1 1 1 1 1 
1 1 1 1 1 1 1 1 1 
1 1 1 1 1 1 1 1 1 
1 1 1 1 1 1 1 1 1 
1 1 1 1 1 1 1 1 1 
1 1 1 1 1 1 1 1 1 
1 1 1 1 1 1 1 1 1 
1 1 1 1 1 1 1 1 1 
1 1 1 1 1 1 1 1 1 
1 1 1 1 1 1 1 1 1 
1 1 1 1 1 1 1 1 1 
1 1 1 1 1 1 1 1 1 
1 1 1 1 1 1 1 1 1 
1 1 1 1 1 1 1 1 1 
1 1 1 1 1 1 1 1 1 
1 1 1 1 1 1 1 1 1 
1 1 1 1 1 1 1 1 1 
1 1 1 1 1 1 1 1 1 
1 1 1 1 1 1 1 1 1 
1 1 1 1 1 1 1 1 1 
1 1 1 1 1 1 1 1 1 
1 1 1 1 1 1 1 1 1 
1 1 1 1 1 1 1 1 1 
1 1 1 1 1 1 1 1 1 
1 1 1 1 1 1 1 1 1 
1 1 1 1 1 1 1 1 1 
1 1 1 1 1 1 1 1 1 
1 1 1 1 1 1 1 1 1 
1 1 1 1 1 1 1 1 1 
1 1 1 1 1 1 1 1 1 
1 1 1 1 1 1 1 1 1 
1 1 1 1 1 1 
i 3 1311 int
0 0 0 0 0 0 0 1 0 
0 0 0 0 0 0 0 1 0 
0 1 0 0 0 0 0 0 0 
0 0 0 0 0 0 0 1 0 
0 0 0 -1 0 0 1 0 0 
0 0 0 1 0 0 0 0 0 
0 0 0 0 0 0 0 0 0 
0 0 0 0 0 0 0 0 0 
0 0 0 0 0 0 0 0 0 
0 0 0 -1 0 0 0 0 0 
0 0 0 1 0 0 0 0 0 
0 0 0 0 0 0 0 0 0 
0 0 0 0 0 0 0 0 0 
0 0 0 0 0 0 0 0 0 
0 0 0 0 0 0 -1 0 0 
-1 0 0 0 0 0 0 0 0 
0 0 0 0 0 0 0 0 0 
0 0 0 0 0 0 0 0 0 
0 0 0 0 0 0 0 0 0 
0 0 0 0 0 0 0 0 0 
-1 0 0 0 0 0 0 0 0 
0 0 0 0 0 0 0 0 0 
0 0 0 0 0 0 0 0 0 
0 0 0 0 0 0 0 0 0 
0 0 0 0 0 0 0 0 0 
-1 0 0 0 0 0 -1 0 0 
0 0 0 1 0 0 0 0 0 
0 -1 0 0 0 0 0 0 0 
0 0 0 0 -1 0 0 0 0 
0 -1 0 0 0 0 0 0 0 
0 0 0 0 0 0 0 0 0 
0 0 0 0 -1 0 0 -1 0 
0 0 0 0 0 0 0 0 0 
0 1 0 0 0 0 0 0 0 
1 0 0 0 1 0 0 1 0 
0 0 0 0 1 0 0 0 0 
0 0 0 0 0 0 0 0 0 
0 0 0 0 0 0 0 0 0 
0 0 0 0 1 0 0 0 0 
0 0 0 0 0 0 0 0 0 
0 0 0 0 0 0 0 0 0 
0 0 0 0 0 0 0 0 0 
0 0 0 0 0 0 0 0 0 
0 0 0 0 0 0 0 0 0 
0 0 0 0 0 0 0 0 0 
-1 0 0 0 0 0 0 0 0 
0 0 0 0 0 0 0 0 0 
0 0 0 0 0 0 0 0 0 
0 0 0 0 0 0 0 0 0 
0 0 0 0 0 0 0 0 0 
0 0 0 0 0 0 0 0 0 
0 0 0 0 0 0 0 0 0 
0 0 0 0 0 0 0 0 0 
0 0 0 1 0 0 0 0 0 
0 0 0 0 0 0 0 0 0 
0 0 0 0 0 0 0 0 0 
0 0 0 0 0 0 0 0 0 
0 0 0 0 0 0 0 0 0 
0 0 0 0 0 0 0 0 0 
0 0 0 -1 0 0 0 0 0 
0 0 0 -1 0 0 1 0 0 
0 0 0 0 0 0 0 0 0 
0 0 0 0 0 0 0 0 0 
0 0 0 0 0 0 0 0 0 
0 0 0 0 0 0 0 0 0 
0 0 0 0 0 0 0 0 0 
0 0 0 0 0 0 -1 0 0 
0 0 0 0 0 0 0 0 0 
0 0 0 0 0 0 0 0 0 
0 0 0 0 0 0 0 -1 0 
0 0 0 0 0 0 0 0 0 
0 0 0 0 0 0 0 0 0 
0 0 0 0 0 0 0 0 0 
0 0 0 0 0 0 0 0 0 
0 0 0 0 0 0 0 0 0 
1 0 0 0 0 0 0 0 0 
0 0 0 0 0 0 0 1 0 
0 0 0 0 0 0 0 0 0 
0 0 0 0 1 0 0 0 0 
0 1 0 0 0 0 0 0 0 
0 0 0 0 0 0 0 0 0 
0 0 0 0 0 0 0 0 0 
-1 0 0 0 0 0 0 0 0 
0 0 0 0 0 0 0 0 0 
0 0 0 0 0 0 0 0 0 
0 0 0 0 0 0 1 0 0 
0 0 0 0 0 0 0 0 0 
0 0 0 0 0 0 0 0 0 
0 0 0 0 0 0 0 0 0 
0 0 0 0 0 0 0 0 0 
0 0 0 0 0 0 0 0 0 
0 0 0 0 0 0 0 0 0 
0 0 0 0 0 0 0 0 0 
-1 0 0 0 0 0 0 0 0 
0 0 0 0 0 0 -1 0 0 
0 0 0 0 0 0 0 0 0 
0 0 0 0 0 0 0 0 0 
0 0 0 0 0 0 0 0 0 
0 0 0 0 0 0 0 0 0 
0 0 0 0 0 0 0 0 0 
0 0 0 0 0 0 0 0 0 
0 0 0 0 0 0 0 0 0 
0 0 0 0 0 0 0 0 0 
0 0 0 0 0 0 0 0 0 
0 0 0 -1 0 0 0 0 0 
0 0 0 0 0 0 0 0 0 
0 0 0 0 0 0 0 0 0 
0 0 0 0 0 0 0 0 0 
0 0 0 0 0 0 0 0 0 
0 0 0 0 0 0 0 0 0 
0 0 0 0 0 0 0 0 0 
0 0 0 0 0 0 0 0 0 
0 0 0 0 0 0 -1 0 0 
0 0 0 0 0 0 0 0 0 
0 0 0 0 0 0 0 0 0 
0 0 0 0 0 0 0 0 0 
0 0 0 0 0 0 0 0 0 
0 0 0 0 0 0 0 0 0 
0 0 0 0 0 0 0 0 0 
0 0 0 0 0 0 0 0 0 
0 0 0 0 0 0 0 0 0 
0 0 0 0 0 0 0 0 0 
0 0 0 0 0 0 0 0 0 
0 0 0 0 0 0 -1 0 0 
0 0 0 0 0 0 0 0 0 
0 0 0 0 0 0 0 0 0 
1 -1 0 0 0 0 0 -1 0 
0 0 0 0 0 0 0 0 0 
0 0 0 0 0 0 0 0 0 
0 0 0 0 0 0 0 0 0 
0 0 0 0 0 0 0 -1 0 
0 0 0 0 0 0 0 0 0 
0 0 0 0 0 0 0 0 0 
0 0 0 -1 0 0 0 0 0 
0 0 0 0 0 0 -1 0 0 
0 0 0 0 1 0 0 0 0 
1 0 0 1 0 0 0 0 0 
0 0 0 0 0 0 0 0 0 
0 0 0 0 0 0 0 0 0 
0 0 0 0 0 0 0 0 0 
0 1 0 0 0 0 0 1 0 
0 0 0 0 0 0 0 0 0 
0 0 0 0 0 0 0 0 0 
0 0 0 0 0 0 0 0 0 
0 1 0 -1 1 0 -1 0 0 
0 0 0 0 0 0 0 0 0 
1 0 0 1 0 0 0 0 0 
1 0 0 0 0 0 0 0 0 
0 0 0 0 0 0 0 0 0 
0 0 0 0 0 0 0 0 0 
0 0 0 0 0 0 0 0 0 
0 0 0 0 0 0 0 0 0 
0 0 0 0 0 0 0 1 0 
0 0 0 0 0 0 0 0 0 
0 0 0 0 1 0 -1 0 0 
0 0 0 0 0 0 0 0 0 
0 0 0 0 0 0 0 0 0 
0 0 0 0 0 0 0 0 0 
0 0 0 0 0 0 0 0 0 
0 0 0 0 0 0 0 0 0 
0 0 0 0 0 0 0 0 0 
0 0 0 0 0 0 0 0 0 
0 0 0 0 0 0 0 0 0 
0 0 0 0 0 0 0 0 0 
0 0 0 0 0 0 0 0 0 
-1 0 0 0 0 0 0 0 0 
1 0 0 0 0 0 0 0 0 
0 0 0 0 0 0 0 0 0 
0 0 0 0 0 0 0 0 0 
0 0 0 0 0 0 0 0 0 
0 0 0 0 0 0 0 0 0 
0 0 0 0 0 0 0 0 0 
0 0 0 0 0 0 0 0 0 
0 0 0 0 0 0 0 0 0 
0 0 0 0 0 0 0 0 0 
0 0 0 0 0 0 0 0 0 
0 0 0 -1 0 0 0 0 0 
0 0 0 0 0 0 0 0 0 
0 0 0 0 0 0 0 0 0 
0 0 0 0 0 0 0 0 0 
0 0 0 0 0 0 0 0 0 
0 0 0 0 0 0 0 0 0 
0 0 0 0 0 0 0 0 0 
0 0 0 0 0 0 0 0 0 
0 0 0 0 0 0 0 0 0 
-1 0 0 0 0 0 0 0 0 
0 0 0 0 0 0 0 0 0 
0 -1 0 0 0 0 0 0 0 
0 0 0 0 0 0 0 0 0 
0 0 0 0 0 0 0 0 0 
0 0 0 0 0 0 0 0 0 
0 0 0 0 0 0 0 0 0 
0 0 0 0 0 0 0 0 0 
0 0 0 0 0 0 0 -1 0 
0 0 0 0 0 0 0 0 0 
0 0 0 0 0 0 0 0 0 
0 0 0 0 1 0 0 0 0 
0 0 0 0 0 0 0 0 0 
0 0 0 0 0 0 0 0 0 
0 1 0 0 0 0 0 0 0 
0 0 0 0 0 0 0 0 0 
0 0 0 0 0 0 0 0 0 
0 0 0 0 0 0 0 1 0 
0 0 0 0 0 0 0 0 0 
0 1 0 0 1 0 0 0 0 
0 0 0 0 0 0 0 0 0 
0 0 0 0 0 0 0 0 0 
0 0 0 0 0 0 0 0 0 
0 0 0 0 0 0 0 0 0 
0 0 0 0 0 0 0 0 0 
0 0 0 0 0 0 0 0 0 
0 0 0 0 0 0 0 0 0 
0 0 0 0 0 0 0 0 0 
0 0 0 0 0 0 0 0 0 
0 0 0 0 0 0 0 0 0 
0 0 0 0 0 0 0 0 0 
0 0 0 0 0 0 0 0 0 
0 0 0 1 0 0 0 0 0 
0 0 0 0 0 0 0 0 0 
0 0 0 0 0 0 0 0 0 
0 0 0 0 0 0 0 0 0 
0 0 0 0 0 0 0 0 0 
0 0 0 0 0 0 0 0 0 
0 0 0 0 0 0 0 0 0 
0 0 0 0 0 0 0 0 0 
0 0 0 0 0 0 0 0 0 
-1 0 0 0 0 0 0 0 0 
0 0 0 0 0 0 0 0 0 
0 0 0 0 0 0 0 0 0 
0 0 0 0 0 0 0 0 0 
0 0 0 0 0 0 0 0 0 
0 0 0 0 0 0 0 0 0 
0 0 0 0 0 0 0 0 0 
0 0 0 0 0 0 0 0 0 
0 0 0 0 0 0 0 0 0 
0 0 0 0 0 0 0 0 0 
0 0 0 0 0 0 0 0 0 
0 0 0 0 0 0 0 0 0 
0 0 0 0 0 0 0 0 0 
0 0 0 0 0 0 0 0 0 
0 0 0 0 0 0 0 0 0 
0 0 0 0 0 0 0 0 0 
0 0 0 0 0 0 0 0 0 
0 0 0 0 0 0 0 0 0 
0 0 0 0 0 0 0 0 0 
0 0 0 0 0 0 0 -1 0 
0 0 0 0 -1 0 0 0 0 
0 0 0 0 0 0 1 0 0 
0 0 0 0 -1 0 0 0 0 
0 0 0 0 0 0 0 0 0 
0 0 0 0 0 0 0 0 0 
0 0 0 0 0 0 0 0 0 
0 -1 0 0 0 0 0 0 0 
0 0 0 0 0 0 0 0 0 
0 0 0 0 0 0 0 0 0 
0 0 0 0 -1 0 0 0 0 
0 0 0 1 0 0 0 0 0 
0 1 0 0 0 0 0 0 0 
0 0 0 0 0 0 0 0 0 
0 0 0 0 0 0 0 0 0 
0 1 0 0 0 0 0 0 0 
0 0 0 0 1 0 0 0 0 
0 0 0 0 0 0 0 0 0 
0 0 0 0 0 0 0 0 0 
-1 0 0 0 0 0 0 1 0 
0 0 0 0 0 0 0 0 0 
0 0 0 0 0 0 1 0 0 
0 0 0 0 0 0 1 0 0 
0 0 0 0 0 0 0 0 0 
0 0 0 0 0 0 0 0 0 
0 0 0 0 0 0 0 0 0 
0 0 0 0 0 0 0 0 0 
0 0 0 0 0 0 0 0 0 
0 0 0 0 0 0 0 0 0 
0 0 0 0 0 0 0 0 0 
0 0 0 0 0 0 0 0 0 
0 0 0 0 0 0 0 0 0 
1 0 0 0 0 0 0 0 0 
0 0 0 0 0 0 0 0 0 
0 0 0 0 0 0 0 0 0 
0 0 0 0 0 0 0 0 0 
0 0 0 0 0 0 0 0 0 
0 0 0 0 0 0 0 0 0 
0 0 0 0 0 0 0 0 0 
0 0 0 0 0 0 0 0 0 
0 0 0 0 0 0 0 0 0 
0 0 0 0 0 0 1 0 0 
0 0 0 0 0 0 0 0 0 
0 0 0 0 0 0 0 0 0 
0 0 0 0 0 0 0 0 0 
0 0 0 0 0 0 0 0 0 
0 0 0 0 0 0 0 0 0 
0 0 0 0 0 0 0 0 0 
0 0 0 0 0 0 0 0 0 
0 0 0 0 0 0 0 0 0 
0 0 0 0 0 0 0 0 0 
0 0 0 0 0 0 0 0 0 
0 0 0 0 0 0 0 0 0 
0 0 0 0 0 0 0 0 0 
0 0 0 0 0 0 0 0 0 
0 0 0 0 0 0 0 0 0 
0 0 0 0 0 0 0 0 0 
0 0 0 0 0 0 0 0 0 
0 0 0 0 0 0 0 0 0 
0 0 0 0 0 0 0 0 0 
0 0 0 0 0 0 0 0 0 
0 0 0 0 0 0 0 0 0 
0 0 0 1 0 0 0 0 0 
0 0 0 0 0 0 0 0 0 
0 -1 0 0 0 0 0 0 0 
0 0 0 0 -1 0 0 0 0 
0 0 0 0 0 0 0 -1 0 
0 0 0 0 0 0 0 -1 0 
0 0 0 0 0 0 0 -1 0 
0 -1 0 0 0 0 0 0 0 
0 0 0 0 -1 0 0 0 0 
0 0 0 0 0 0 0 0 0 
0 0 0 0 0 0 0 0 0 
0 0 0 0 0 0 0 0 0 
0 0 0 0 1 0 0 0 0 
0 0 0 0 0 0 0 0 0 
0 0 0 0 0 0 0 0 0 
0 0 0 0 0 0 0 0 0 
0 0 0 0 0 0 0 0 0 
0 0 0 0 0 0 0 0 0 
0 0 0 0 0 0 0 0 0 
1 0 0 0 0 0 0 0 0 
0 0 0 0 0 0 0 0 0 
0 0 0 0 0 0 0 0 0 
0 0 0 0 0 0 0 0 0 
0 0 0 0 0 0 0 0 0 
0 0 0 0 0 0 0 0 0 
0 0 0 0 0 0 0 0 0 
1 0 0 0 0 0 0 0 0 
0 0 0 0 0 0 1 0 0 
0 0 0 0 0 0 0 0 0 
0 0 0 0 0 0 0 0 0 
0 0 0 0 0 0 0 0 0 
0 0 0 0 0 0 0 0 0 
0 0 0 0 0 0 0 0 0 
0 0 0 0 0 0 0 0 0 
0 0 0 0 0 0 0 0 0 
0 0 0 0 0 0 0 0 0 
0 0 0 1 0 0 0 0 0 
0 0 0 0 0 0 0 0 0 
0 0 0 0 0 0 0 0 0 
0 0 0 0 0 0 0 0 0 
0 0 0 0 0 0 0 0 0 
0 0 0 0 0 0 0 0 0 
0 0 0 0 0 0 0 0 0 
0 0 0 0 0 0 0 0 0 
0 0 0 0 0 0 0 0 0 
0 0 0 0 0 0 0 0 0 
0 0 0 0 0 0 1 0 0 
0 0 0 0 0 0 0 0 0 
0 0 0 0 0 0 0 0 0 
0 0 0 0 0 0 0 0 0 
0 0 0 0 0 0 0 0 0 
0 0 0 0 0 0 0 0 0 
0 0 0 0 0 0 0 0 0 
0 0 0 0 0 0 0 0 0 
0 0 0 0 0 0 0 0 0 
0 0 0 0 0 0 0 0 0 
0 0 0 0 -1 0 0 0 0 
0 0 0 0 0 0 0 0 0 
0 0 0 0 0 0 0 0 0 
0 0 0 0 0 0 0 0 0 
0 -1 0 0 -1 0 0 -1 0 
0 0 0 0 0 0 0 0 0 
0 0 0 0 0 0 0 0 0 
-1 0 0 0 0 0 0 0 0 
1 0 0 0 0 0 0 0 0 
0 0 0 0 1 0 0 0 0 
0 0 0 0 0 0 0 0 0 
0 1 0 0 0 0 0 0 0 
0 0 0 0 0 0 0 1 0 
0 0 0 0 0 0 1 0 0 
0 0 0 0 0 0 0 0 0 
0 0 0 0 0 0 0 0 0 
0 0 0 0 0 0 0 0 0 
0 0 0 0 0 0 0 0 0 
0 0 0 0 0 0 0 0 0 
0 0 0 0 0 0 0 0 0 
0 0 0 0 0 0 0 0 0 
0 0 0 0 0 0 0 0 0 
0 0 0 0 0 0 0 0 0 
0 0 0 0 0 0 0 0 0 
0 0 0 0 0 0 0 0 0 
-1 0 0 0 0 0 0 0 0 
0 0 0 0 0 0 0 0 0 
0 0 0 0 0 0 0 0 0 
0 0 0 0 0 0 0 0 0 
0 0 0 0 0 0 0 0 0 
0 0 0 0 0 0 0 0 0 
0 0 0 0 0 0 0 0 0 
0 0 0 0 0 0 0 0 0 
0 0 0 0 0 0 0 0 0 
0 0 0 0 0 0 0 0 0 
0 0 0 0 0 0 0 0 0 
-1 0 0 -1 0 0 0 0 0 
0 0 0 0 -1 0 0 0 0 
0 0 0 0 0 0 0 0 0 
0 0 0 0 -1 0 0 0 0 
0 0 0 0 0 0 0 0 0 
0 0 0 0 0 0 0 0 0 
0 0 0 0 0 0 0 0 0 
0 0 0 0 0 0 0 0 0 
0 0 0 0 0 0 0 0 0 
0 0 0 0 0 0 0 0 0 
0 0 0 0 0 0 0 0 0 
0 0 0 0 0 0 0 0 0 
0 0 0 0 0 0 0 0 0 
0 0 0 0 0 0 0 0 0 
0 0 0 0 0 0 0 0 0 
0 0 0 0 0 0 0 0 0 
0 0 0 0 0 0 0 0 0 
0 0 0 0 0 0 0 0 0 
0 0 0 0 0 0 0 0 0 
0 0 0 0 0 0 0 0 0 
0 0 0 0 0 0 0 0 0 
0 0 0 0 0 0 0 0 0 
0 0 0 0 0 0 0 0 0 
0 0 0 0 0 0 0 0 0 
0 0 0 0 0 0 0 0 0 
0 0 0 0 0 0 0 0 0 
0 0 0 0 0 0 0 0 0 
0 0 0 0 0 0 0 0 0 
0 0 0 0 0 0 0 0 0 
0 0 0 0 0 0 0 0 0 
0 0 0 0 0 0 0 0 0 
0 0 0 0 0 0 0 0 0 
0 0 0 0 0 0 0 0 0 
0 0 0 0 0 0 0 0 0 
0 0 0 0 0 0 0 0 0 
0 0 0 0 0 0 0 0 0 
0 0 0 0 0 0 0 0 0 
0 0 0 0 0 0 0 0 0 

v 3 1311 double
-1.72628e-05 6.65992e-05 -8.97272e-06 5.14847e-06 3.17241e-05 -2.15551e-05 9.08595e-06 2.60779e-05 -2.98914e-06 
7.1955e-07 2.82413e-07 -2.12422e-05 -9.10796e-06 1.10549e-05 -1.55591e-05 8.34e-06 6.54913e-06 -9.57517e-06 
-1.77948e-05 8.92305e-06 -7.79936e-06 -2.10459e-06 9.83052e-06 -4.41964e-06 3.17744e-06 -5.42056e-05 3.16069e-15 
-1.25059e-05 -1.57416e-06 -2.9279e-06 1.60275e-06 4.77365e-07 -9.71498e-06 3.58863e-06 8.55104e-06 -6.23932e-06 
-4.40301e-06 1.42722e-06 -8.25593e-06 -2.27324e-06 8.62723e-06 -6.73206e-06 -2.51804e-06 8.68722e-06 -4.21568e-06 
-8.67432e-06 1.57358e-05 -4.9083e-06 -5.24223e-07 2.39544e-05 -1.42249e-06 -4.79989e-06 2.28937e-05 -6.28009e-06 
-2.76109e-06 1.62544e-05 -1.14717e-05 -5.57463e-07 1.67581e-05 -3.62956e-06 -5.45748e-06 2.04169e-05 -1.43329e-05 
-8.95225e-06 1.27827e-05 -6.67557e-06 -5.74469e-06 1.80343e-05 -2.62352e-06 -1.04866e-05 1.61356e-05 -6.03652e-06 
-7.40463e-06 -3.97701e-06 -3.61911e-06 -1.24608e-05 4.38326e-06 -1.53859e-06 -6.08717e-06 -9.58234e-06 -7.03751e-06 
-1.23653e-05 9.23188e-06 -2.83687e-06 3.3949e-06 -3.34131e-06 5.85176e-06 8.72157e-07 8.29923e-06 1.29736e-08 
-1.24568e-05 2.1018e-06 7.55272e-06 8.88025e-06 2.90645e-05 1.03508e-05 6.67723e-06 2.79674e-05 -5.89343e-06 
-3.356e-06 1.76865e-05 -9.82851e-07 3.20429e-06 1.52039e-05 3.65459e-06 -5.75321e-06 1.5431e-05 -1.94016e-06 
-2.57183e-06 2.74989e-05 8.14025e-07 -4.06309e-06 1.23705e-05 -8.67058e-08 1.38634e-06 2.13284e-05 6.94085e-06 
-1.76668e-05 2.47909e-05 -2.94558e-06 -1.01886e-05 3.35894e-06 5.64679e-06 -2.20327e-06 1.9727e-05 -7.03475e-06 
-1.58483e-05 -1.641e-06 3.38179e-06 -1.03475e-06 -3.16238e-06 1.32589e-06 -2.41832e-05 6.11212e-06 -6.09294e-06 
5.68827e-05 8.05667e-05 -1.28569e-11 -2.56441e-05 -1.4166e-06 -2.50221e-06 -3.30691e-05 -2.80871e-05 -5.33098e-06 
-3.20408e-05 8.31855e-06 7.49942e-06 -6.02828e-06 2.69792e-05 -1.5378e-05 3.33151e-06 5.10213e-06 3.3523e-06 
1.14051e-05 1.76708e-05 -4.10469e-06 4.22234e-06 2.0319e-05 6.76558e-06 8.72976e-06 1.19609e-05 -1.07996e-06 
5.54344e-06 1.18832e-05 -3.65816e-06 1.51848e-05 -1.22817e-06 4.87653e-06 1.03463e-05 1.16995e-05 -4.95012e-06 
-1.14731e-05 -2.8237e-06 1.26038e-06 -6.68131e-06 5.45627e-06 2.86374e-06 -1.51227e-06 1.69367e-05 -6.20865e-06 
-3.10148e-05 9.72014e-06 -1.50305e-05 9.9791e-06 -4.58144e-06 -6.20462e-06 1.67939e-05 -1.14706e-05 -7.64001e-06 
-2.43292e-05 2.12714e-05 -4.77449e-06 1.43137e-05 2.72557e-05 -1.55244e-05 4.60856e-06 1.30886e-05 -5.74388e-06 
2.12388e-07 -8.58879e-06 8.76529e-07 -1.35105e-06 9.45566e-06 -6.71076e-06 1.02549e-05 1.4061e-05 -6.92003e-06 
1.86254e-05 1.88678e-05 -1.06465e-05 7.63426e-05 -1.1301e-05 2.62789e-05 -2.96784e-05 -1.06338e-05 1.57669e-10 
3.24435e-07 5.82136e-06 -4.10422e-06 1.12303e-05 8.26522e-06 -8.25233e-07 9.4796e-06 1.33721e-05 5.71725e-16 
1.00197e-05 3.15101e-07 -1.0121e-06 2.29523e-06 -1.13446e-05 1.57155e-07 1.0779e-05 3.02786e-06 3.53466e-06 
-5.3897e-06 4.2138e-06 -5.15139e-06 9.32126e-08 9.76443e-06 -7.22687e-06 -3.52541e-06 1.19306e-05 -1.18586e-05 
-3.33801e-05 1.92744e-05 -2.33354e-05 -8.41609e-06 2.77904e-06 -5.92563e-06 -1.14412e-05 6.32165e-06 -1.58185e-05 