# vtk DataFile Version 4.0
Generated by LIGGGHTS
ASCII
DATASET POLYDATA
POINTS 1197 float
-379.404 -380.871 49.9853 -460.664 -439.196 49.9693 -256.78 -470.429 49.9871 
-90.5657 -363.75 49.9738 -165.219 -430.233 49.9601 90.9178 -486.893 49.9475 
125.605 -361.673 49.9614 25.3744 -411.399 49.9846 183.033 -444.988 49.9935 
221.866 -334.67 49.9578 284.162 -412.831 49.9911 440.595 -454.973 49.9485 
377.607 -377.36 49.9559 476.332 -361.585 49.9966 -442.455 -303.258 49.9959 
-374.087 -230.293 49.9586 -311.057 -307.872 49.9596 -275.452 -214.003 49.9612 
-175.568 -209.733 49.97 -174.637 -309.694 49.9706 -87.0891 -261.399 49.9733 
-3.02683 -315.545 49.9594 1.84306 -215.694 49.9606 85.8973 -269.908 49.9826 
270.247 -195.728 49.9481 182.147 -242.947 49.9692 313.369 -286.574 49.9787 
370.179 -193.818 49.9585 476.608 -206.577 49.987 413.32 -283.978 49.9751 
-441.415 -149.34 49.9706 -479.825 -53.7963 49.9811 -379.801 -45.1376 49.9475 
-339.335 -136.559 49.9852 -191.272 -10.4863 49.9832 -186.077 -110.322 49.9845 
-280.401 -55.8027 49.9388 -82.164 -161.524 49.9442 -98.1094 -62.8098 49.9842 
94.4227 -163.98 49.9874 140.341 -75.1204 49.9556 6.78016 -115.828 49.9615 
308.647 -3.59132 49.9696 240.324 -76.5755 49.9966 430.378 -9.54118 49.9932 
439.134 -112.381 49.9934 337.718 -99.2534 49.9974 -449.933 149.357 49.9901 
-361.615 102.489 49.9771 -437.073 36.815 49.9646 -265.958 143.506 49.9794 
-277.423 44.146 49.9856 -24.1337 4.44658 49.9796 -150.568 109.081 49.9314 
-29.4068 104.286 49.9866 75.7849 1.23236 49.9683 70.5396 101.44 49.981 
267.321 87.4389 49.9534 198.589 14.8227 49.9667 170.089 110.648 49.9605 
474.221 84.1935 49.9767 373.382 72.6248 49.993 413.559 164.194 49.9784 
-364.934 202.397 49.959 -425.253 282.132 49.9718 -181.702 204.062 49.9459 
-273.683 243.197 49.9822 -205.846 316.661 49.9879 -113.851 277.496 49.9808 
-12.2912 247.812 49.9749 80.6322 210.843 49.9896 64.5398 313.843 49.9935 
244.852 291.052 49.9693 187.7 209.041 49.9982 285.608 185.922 49.9926 
489.679 229.043 49.9537 342.204 268.36 49.9627 432.581 311.115 49.9947 
-387.127 393.746 49.9712 -482.595 364.041 49.9658 -486.101 464.107 49.9849 
-386.453 493.763 49.9667 -303.782 338.521 49.9817 -197.792 446.158 49.9319 
-297.617 438.311 49.9986 -2.40123 476.709 49.9765 -25.8946 379.489 49.96 
-102.415 476.021 49.9568 -125.838 376.747 49.9849 75.0371 413.399 49.9934 
157.686 350.284 49.9885 259.602 490.279 49.9631 249.054 390.899 49.9443 
168.209 449.714 49.971 359.309 482.597 49.9897 429.155 411.044 49.98 
-413.387 -460.146 135.515 -454.899 -370.01 123.425 -380.962 -383.288 190.613 
-321.545 -424.27 119.021 -243.738 -375.722 79.2547 -222.328 -423.413 164.484 
-288.029 -348.231 174.629 -136.168 -380.584 137.333 -56.966 -446.791 94.3064 
-142.651 -480.295 133.473 -50.3092 -474.941 189.994 16.3126 -375.582 142.901 
117.531 -426.86 125.3 30.9121 -476.324 131.701 182.594 -479.922 179.516 
210.675 -391.102 131.699 274.273 -467.836 139.533 301.831 -350.399 126.068 
370.363 -447.604 120.731 466.028 -428.014 142.775 400.131 -352.84 144.203 
-376.797 -307.654 125.281 -448.11 -226.714 116.997 -451.014 -300.302 195.729 
-193.605 -321.56 194.046 -324.597 -223.144 136.533 -242.472 -280.205 117.229 
-145.715 -259.41 131.411 -60.8447 -312.982 131.489 -57.2602 -212.793 132.106 
105.785 -329.083 142.386 121.153 -219.461 128.76 28.1647 -267.04 131.609 
31.6935 -167.139 132.073 197.915 -290.766 136.517 286.144 -243.789 136.14 
206.319 -199.889 177.344 479.147 -294.88 124.415 399.97 -234.946 136.094 
485.942 -220.75 191.869 -392.874 -145.452 137.274 -430.116 -45.102 136.29 
-215.968 -166.416 195.85 -329.202 -68.3593 136.293 -260.453 -136.599 111.425 
-232.177 -44.0826 136.672 -313.638 -145.267 198.229 -142.744 -153.649 129.037 
-133.043 -55.1834 143.361 -51.5399 -111.754 131.051 24.2258 -47.2494 120.585 
113.002 -109.514 139.729 98.8889 -20.4616 182.898 184.071 -39.5783 132.557 
189.221 -152.079 91.0157 284.78 -143.852 134.123 283.83 -43.9932 137.994 
221.097 -103.607 199.82 494.787 -145.262 126.847 384.544 -136.253 130.395 
446.67 -58.1078 135.873 369.418 -65.095 198.959 -352.102 26.3845 114.073 
-422.966 95.1276 129.935 -499.879 25.9119 126.969 -311.65 118.003 135.188 
-206.113 61.3176 117.935 -278.867 35.668 181.503 -213.693 159.741 133.649 
-49.6741 1.78336 168.581 -110.529 28.7805 93.9944 -110.76 116.878 141.264 
-23.2166 111.797 189.238 23.7 52.6951 123.638 132.755 47.4789 117.853 
76.6813 110.417 185.769 24.9176 160.803 116.256 175.507 97.3358 193.224 
239.027 45.3349 136.164 229.469 143.986 123.187 323.061 100.85 131.834 
370.049 5.65824 128.319 422.438 90.4849 135.284 488.193 165.283 126.913 
500.01 96.1314 198.131 -492.825 295.651 122.394 -350.845 280.622 116.717 
-416.646 194.765 135.15 -198.692 259.219 131.537 -293.596 212.528 162.352 
-273.945 309.912 173.498 -86.1214 183.828 71.2226 -49.0863 310.577 118.581 
-46.5336 218.064 156.431 -134.622 326.859 167.747 -139.988 200.605 187.421 
132.09 166.7 123.489 135.224 271.697 107.578 38.9674 265.774 133.905 
226.792 243.093 135.764 316.215 199.568 146.101 312.065 299.289 140.2 
398.752 168.275 193.454 405.756 235.402 119.718 471.637 236.709 194.887 
406.42 331.831 146.096 -486.555 495.933 187.606 -428.296 351.706 174.25 
-427.837 441.229 127.953 -339.546 377.984 136.49 -335.004 477.828 134.176 
-235.139 481.773 135.504 -242.246 383.983 114.331 -151.659 420.192 136.242 
-52.3327 437.152 127.223 -49.6707 368.641 199.985 114.594 463.179 133.256 
26.2011 374.317 135.126 125.285 364.348 143.833 16.2228 450.907 198.641 
222.356 342.915 133.46 225.636 443.597 131.608 293.844 384.216 189.822 
341.797 376.81 84.4821 486.348 391.638 140.885 438.571 477.753 123.849 
342.871 459.758 146.435 -412.529 -447.605 261.273 -418.429 -349.033 276.744 
-495.602 -385.356 224.621 -331.056 -395.743 290.129 -321.682 -460.895 212.05 
-236.073 -393.947 259.011 -191.203 -461.469 317.504 -231.061 -497.519 233.207 
-94.3774 -436.611 316.536 -4.47321 -414.502 278.871 -64.7065 -377.603 207.689 
-141.847 -362.257 269.525 -141.079 -454.044 229.9 68.3516 -430.276 212.256 
57.3273 -486.1 311.297 154.531 -379.616 213.605 92.2222 -374.369 291.641 
169.566 -456.431 275.832 252.01 -426.561 227.818 296.929 -469.733 305.996 
294.072 -366.73 296.009 198.091 -338.806 293.803 224.048 -417.313 349.988 
491.23 -468.595 278.411 406.445 -469.942 211.257 373.893 -379.005 237.065 
494.909 -379.236 323.964 390.668 -368.004 335.016 396.675 -464.794 310.647 
-355.256 -292.38 223.339 -416.959 -207.663 211.749 -460.233 -258.719 286.175 
-367.09 -282.862 331.285 -337.804 -207.253 272.824 -409.215 -192.749 341.302 
-279.613 -309.923 291.196 -264.422 -252.565 210.757 -178.592 -234.546 258.747 
-189.121 -300.926 332.788 -252.617 -218.315 323.959 -76.464 -228.79 295.515 
-14.1391 -240.497 218.2 -103.189 -285.892 217.903 -95.6172 -172.464 215.177 
-38.6223 -320.804 285.756 45.1896 -320.892 221.479 141.927 -274.101 217.675 
129.913 -269.433 316.881 76.5525 -198.464 215.732 89.0556 -171.034 311.026 
31.8896 -252.909 306.107 253.558 -328.076 210.731 180.187 -193.248 276.11 
266.145 -236.759 249.424 226.914 -254.741 339.622 330.693 -184.894 305.465 
346.958 -289.828 200.721 353.018 -282.186 300.192 341.049 -189.592 202.949 
416.618 -214.224 263.595 443.372 -306.248 221.396 450.791 -289.61 319.705 
-366.35 -8.03325 206.85 -459.288 -108.579 207.768 -374.375 -93.3571 258.333 
-490.973 -163.607 284.956 -432.833 -95.6447 339.401 -406.54 -0.368537 298.137 
-279.691 -54.8439 223.946 -244.73 -127.341 283.248 -314.639 -35.6193 315.604 
-210.465 -33.3895 292.82 -328.182 -132.133 338.11 -152.533 -153.846 311.696 
-72.5839 -94.9769 323.389 -12.7959 -155.675 271.063 -158.205 -93.3785 232.267 
-59.3647 -79.8559 225.459 -14.6009 -13.1604 306.12 -105.517 -1.15808 266.29 
36.6517 -98.9686 205.23 129.519 -115.922 238.091 77.4264 -40.7176 278.412 
25.5263 -97.1915 342.525 170.09 -6.89606 325.642 206.639 -95.8333 298.412 
299.85 -100.651 261.34 271.045 -20.967 314.403 192.443 -12.1475 228.331 
479.893 -62.5152 272.417 442.988 -132.611 211.424 371.54 -2.87659 277.181 
393.755 -108.036 294.891 -465.696 0.942644 217.555 -480.831 66.2127 291.739 
-405.548 81.5834 227.467 -481.356 161.743 321.231 -382.91 114.259 319.195 
-179.853 11.9434 200.789 -319.66 53.7047 270.97 -259.556 134.711 218.893 
-217.175 65.0892 276.804 -129.681 90.9619 235.916 -41.7747 80.0484 282.229 
-134.654 79.7245 335.15 26.1092 32.9298 225.902 29.8175 165.265 254.996 
119.063 48.1834 259.525 50.6794 91.0386 318.627 126.244 146.85 273.907 
269.916 125.749 212.796 289.502 10.8245 221.421 214.673 70.8042 281.282 
311.27 71.1147 307.012 239.728 165.917 299.264 436.371 15.0856 203.219 
362.126 79.5331 221.351 437.659 120.704 272.297 433.023 46.2497 338.849 
375.737 134.63 349.514 -353.716 167.077 228.045 -395.701 262.551 205.563 
-452.927 179.483 227.041 -471.204 267.447 270.919 -398.951 321.236 314.279 
-395.757 212.662 306.959 -267.929 176.715 309.249 -222.54 240.88 226.878 
-314.881 252.178 263.461 -215.643 319.84 287.804 -173.176 170.525 277.959 
-302.501 315.337 339.966 -175.268 246.675 342.675 -69.8596 172.99 253.131 
-88.7145 270.877 236.689 -90.7221 299.061 332.599 -20.3497 229.226 319.548 
-101.98 178.832 347.7 97.2448 219.617 200.807 10.3867 259.948 229.516 
93.4685 271.342 286.274 69.6387 192.292 342.648 165.657 292.541 200.517 
192.673 193.291 215.411 275.13 249.317 223.065 192.068 254.794 294.241 
322.046 299.668 295.585 333.388 181.56 267.944 373.395 263.376 211.057 
443.207 219.079 289.091 419.103 312.296 315.984 -491.797 356.596 325.655 
-389.63 465.742 217.023 -367.968 415.307 300.573 -468.103 410.351 244.756 
-450.456 465.695 326.132 -346.356 345.168 232.698 -304.623 495.945 300.592 
-296.525 429.542 212.804 -209.411 380.672 208.693 -177.316 441.171 291.084 
-268.768 402.744 305.053 -10.9572 338.725 287.228 -106.449 448.291 220.889 
-127.55 359.475 261.983 -35.4102 490.157 282.469 -70.2891 408.203 327.842 
140.438 359.515 290.046 50.8474 417.28 286.147 106.876 479.512 231.555 
[...]
POINT_DATA 1197
FIELD FieldData 7
id 1 1197 int
92 20 9 74 35 73 25 53 19 
61 37 101 79 26 29 119 22 31 
82 52 36 84 99 14 4 60 97 
41 80 102 72 27 34 15 110 17 
18 28 142 111 24 85 105 89 33 
39 43 58 91 81 8 69 11 1 
104 21 93 134 46 32 44 5 76 
87 56 23 86 45 129 30 57 100 
2 95 48 3 59 16 10 38 50 
12 63 70 42 7 71 66 62 51 
13 114 6 54 40 55 77 154 249 
106 155 173 157 67 96 127 230 228 
118 185 192 122 171 164 88 175 207 
140 159 279 120 183 161 116 141 112 
167 124 193 169 208 227 216 90 150 
214 133 170 211 68 103 221 240 78 
146 166 123 224 200 151 132 181 245 
272 108 47 158 163 98 109 75 138 
152 215 197 210 165 172 271 117 196 
248 115 191 178 113 130 223 156 160 
217 143 65 204 137 219 190 136 121 
176 168 187 107 145 202 139 194 182 
225 131 162 269 281 256 94 184 125 
147 213 128 220 198 144 64 149 285 
212 148 257 153 49 83 188 393 296 
199 379 195 273 381 270 376 334 254 
290 284 239 300 126 365 345 252 320 
308 317 400 303 246 286 347 439 357 
267 251 352 432 326 426 335 276 307 
389 445 323 189 277 292 306 233 205 
339 186 331 373 218 236 262 364 351 
201 396 174 238 255 318 244 259 293 
366 424 362 302 234 380 359 367 363 
370 324 241 342 392 304 283 301 329 
374 340 297 309 385 319 268 179 287 
388 341 265 258 298 402 229 282 177 
235 253 315 350 180 294 397 346 395 
226 242 289 338 368 209 206 260 356 
358 266 278 330 328 390 401 386 247 
295 384 310 353 399 332 321 403 414 
448 135 263 360 460 325 312 275 313 
291 231 250 237 427 354 264 311 314 
428 232 421 222 280 316 337 377 327 
305 387 349 383 322 203 243 344 261 
336 333 355 382 299 274 288 372 343 
423 453 469 549 534 572 440 411 456 
458 418 567 369 501 484 559 615 624 
430 431 509 472 600 514 450 481 557 
574 556 564 508 544 623 480 498 530 
592 520 553 512 405 478 523 604 570 
443 416 447 536 524 517 542 513 409 
474 516 455 429 420 601 596 595 371 
491 489 582 410 505 482 616 649 538 
408 394 464 528 496 470 522 551 519 
415 378 488 510 548 483 554 404 504 
532 562 476 413 471 537 575 477 507 
452 436 412 444 497 611 451 487 468 
555 525 361 419 462 540 526 493 454 
398 527 597 425 494 490 591 593 434 
459 467 588 547 495 475 546 566 437 
485 535 417 406 492 463 521 457 438 
473 603 531 348 511 422 502 499 461 
466 581 626 550 449 407 500 533 552 
563 433 435 391 518 479 503 442 561 
465 486 375 565 558 568 578 506 541 
441 446 620 731 678 800 690 843 630 
781 699 663 779 515 708 707 599 606 
632 661 713 719 758 621 725 629 721 
715 717 631 722 730 784 792 645 740 
757 709 701 751 666 761 753 780 653 
585 672 718 669 660 685 712 742 579 
573 668 641 696 755 676 694 738 684 
560 605 654 714 726 646 674 644 716 
797 580 642 590 609 681 687 602 583 
634 706 733 643 622 636 665 760 651 
543 594 732 802 798 529 656 776 723 
586 625 652 689 627 569 617 686 795 
613 589 614 693 741 637 670 667 729 
577 704 739 763 683 648 735 664 610 
737 724 700 639 677 598 612 618 655 
695 691 711 571 539 705 675 671 608 
692 778 635 545 576 633 749 744 754 
688 587 659 638 697 787 658 607 647 
698 727 734 679 673 682 762 619 584 
657 640 747 703 628 662 702 785 720 
680 650 736 810 878 884 995 811 839 
864 951 844 883 808 902 801 822 891 
901 895 821 898 879 769 914 885 882 
816 928 869 828 903 865 954 932 766 
812 889 924 887 851 855 948 933 911 
746 765 845 896 871 953 806 764 767 
858 880 961 841 786 892 944 809 752 
904 921 837 750 817 799 827 867 950 
906 773 756 850 952 789 710 759 832 
925 917 849 833 872 873 846 852 870 
877 775 854 815 909 946 929 886 748 
728 796 847 860 777 824 805 866 743 
835 829 782 945 868 814 770 842 893 
876 831 818 772 788 807 820 825 942 
894 794 783 859 923 853 836 774 848 
863 968 819 888 957 908 791 823 856 
927 939 830 881 922 890 771 813 862 
912 943 965 745 804 838 875 899 803 
897 793 941 861 834 900 959 913 826 
905 840 768 907 960 1012 938 874 790 
857 978 1026 973 1125 916 1069 1014 972 
990 1134 993 979 967 1021 1037 1049 1001 
934 984 937 971 982 947 1081 1073 1112 
1044 956 1020 1065 1032 1083 1099 988 1071 
1060 963 1000 1019 1058 1091 1034 1082 1018 
1007 1048 962 1075 1079 918 935 999 1057 
1077 1027 992 1002 1043 980 915 977 983 
955 1062 1053 1003 1024 1035 1033 1078 1009 
936 974 1036 1072 1008 930 1006 1005 1040 
949 986 1052 920 966 969 987 1029 1051 
1017 958 1128 1054 931 1031 1055 1059 998 
1046 981 1093 970 985 1074 1028 997 1013 
989 1067 1056 1104 1068 994 1011 1042 1025 
1038 964 1010 1022 1047 926 975 1004 919 
976 996 1050 1076 991 1045 1066 1138 910 
1016 1023 1063 1064 1015 940 1105 1039 1120 
1135 1030 1133 1126 1119 1109 1131 1101 1080 
1129 1127 1095 1100 1097 1092 1108 1136 1117 
1106 1090 1094 1041 1098 1070 1061 1110 1114 
1115 1111 1089 1103 1102 1137 1124 1130 1107 
1088 1123 1116 1086 1122 1087 1121 1113 1085 
1132 1153 1189 1118 1084 1139 1140 1173 1096 
1197 1186 1159 1193 1167 1176 1182 1170 1169 
1150 1187 1146 1174 1157 1152 1162 1151 1172 
1143 1145 1194 1178 1163 1175 1154 1165 1190 
1156 1181 1179 1142 1188 1180 1155 1166 1149 
1191 1148 1196 1160 1158 1168 1183 1195 1161 
1141 1171 1144 1192 1177 1185 1184 1164 1147 

type 1 1197 int
1 1 1 1 1 1 1 1 1 
1 1 1 1 1 1 1 1 1 
1 1 1 1 1 1 1 1 1 
1 1 1 1 1 1 1 1 1 
1 1 1 1 1 1 1 1 1 
1 1 1 1 1 1 1 1 1 
1 1 1 1 1 1 1 1 1 
1 1 1 1 1 1 1 1 1 
1 1 1 1 1 1 1 1 1 
1 1 1 1 1 1 1 1 1 
1 1 1 1 1 1 1 1 1 
1 1 1 1 1 1 1 1 1 
1 1 1 1 1 1 1 1 1 
1 1 1 1 1 1 1 1 1 
1 1 1 1 1 1 1 1 1 
1 1 1 1 1 1 1 1 1 
1 1 1 1 1 1 1 1 1 
1 1 1 1 1 1 1 1 1 
1 1 1 1 1 1 1 1 1 
1 1 1 1 1 1 1 1 1 
1 1 1 1 1 1 1 1 1 
1 1 1 1 1 1 1 1 1 
1 1 1 1 1 1 1 1 1 
1 1 1 1 1 1 1 1 1 
1 1 1 1 1 1 1 1 1 
1 1 1 1 1 1 1 1 1 
1 1 1 1 1 1 1 1 1 
1 1 1 1 1 1 1 1 1 
1 1 1 1 1 1 1 1 1 
1 1 1 1 1 1 1 1 1 
1 1 1 1 1 1 1 1 1 
1 1 1 1 1 1 1 1 1 
1 1 1 1 1 1 1 1 1 
1 1 1 1 1 1 1 1 1 
1 1 1 1 1 1 1 1 1 
1 1 1 1 1 1 1 1 1 
1 1 1 1 1 1 1 1 1 
1 1 1 1 1 1 1 1 1 
1 1 1 1 1 1 1 1 1 
1 1 1 1 1 1 1 1 1 
1 1 1 1 1 1 1 1 1 
1 1 1 1 1 1 1 1 1 
1 1 1 1 1 1 1 1 1 
1 1 1 1 1 1 1 1 1 
1 1 1 1 1 1 1 1 1 
1 1 1 1 1 1 1 1 1 
1 1 1 1 1 1 1 1 1 
1 1 1 1 1 1 1 1 1 
1 1 1 1 1 1 1 1 1 
1 1 1 1 1 1 1 1 1 
1 1 1 1 1 1 1 1 1 
1 1 1 1 1 1 1 1 1 
1 1 1 1 1 1 1 1 1 
1 1 1 1 1 1 1 1 1 
1 1 1 1 1 1 1 1 1 
1 1 1 1 1 1 1 1 1 
1 1 1 1 1 1 1 1 1 
1 1 1 1 1 1 1 1 1 
1 1 1 1 1 1 1 1 1 
1 1 1 1 1 1 1 1 1 
1 1 1 1 1 1 1 1 1 
1 1 1 1 1 1 1 1 1 
1 1 1 1 1 1 1 1 1 
1 1 1 1 1 1 1 1 1 
1 1 1 1 1 1 1 1 1 
1 1 1 1 1 1 1 1 1 
1 1 1 1 1 1 1 1 1 
1 1 1 1 1 1 1 1 1 
1 1 1 1 1 1 1 1 1 
1 1 1 1 1 1 1 1 1 
1 1 1 1 1 1 1 1 1 
1 1 1 1 1 1 1 1 1 
1 1 1 1 1 1 1 1 1 
1 1 1 1 1 1 1 1 1 
1 1 1 1 1 1 1 1 1 
1 1 1 1 1 1 1 1 1 
1 1 1 1 1 1 1 1 1 
1 1 1 1 1 1 1 1 1 
1 1 1 1 1 1 1 1 1 
1 1 1 1 1 1 1 1 1 
1 1 1 1 1 1 1 1 1 
1 1 1 1 1 1 1 1 1 
1 1 1 1 1 1 1 1 1 
1 1 1 1 1 1 1 1 1 
1 1 1 1 1 1 1 1 1 
1 1 1 1 1 1 1 1 1 
1 1 1 1 1 1 1 1 1 
1 1 1 1 1 1 1 1 1 
1 1 1 1 1 1 1 1 1 
1 1 1 1 1 1 1 1 1 
1 1 1 1 1 1 1 1 1 
1 1 1 1 1 1 1 1 1 
1 1 1 1 1 1 1 1 1 
1 1 1 1 1 1 1 1 1 
1 1 1 1 1 1 1 1 1 
1 1 1 1 1 1 1 1 1 
1 1 1 1 1 1 1 1 1 
1 1 1 1 1 1 1 1 1 
1 1 1 1 1 1 1 1 1 
1 1 1 1 1 1 1 1 1 
1 1 1 1 1 1 1 1 1 
1 1 1 1 1 1 1 1 1 
1 1 1 1 1 1 1 1 1 
1 1 1 1 1 1 1 1 1 
1 1 1 1 1 1 1 1 1 
1 1 1 1 1 1 1 1 1 
1 1 1 1 1 1 1 1 1 
1 1 1 1 1 1 1 1 1 
1 1 1 1 1 1 1 1 1 
1 1 1 1 1 1 1 1 1 
1 1 1 1 1 1 1 1 1 
1 1 1 1 1 1 1 1 1 
1 1 1 1 1 1 1 1 1 
1 1 1 1 1 1 1 1 1 
1 1 1 1 1 1 1 1 1 
1 1 1 1 1 1 1 1 1 
1 1 1 1 1 1 1 1 1 
1 1 1 1 1 1 1 1 1 
1 1 1 1 1 1 1 1 1 
1 1 1 1 1 1 1 1 1 
1 1 1 1 1 1 1 1 1 
1 1 1 1 1 1 1 1 1 
1 1 1 1 1 1 1 1 1 
1 1 1 1 1 1 1 1 1 
1 1 1 1 1 1 1 1 1 
1 1 1 1 1 1 1 1 1 
1 1 1 1 1 1 1 1 1 
1 1 1 1 1 1 1 1 1 
1 1 1 1 1 1 1 1 1 
1 1 1 1 1 1 1 1 1 
1 1 1 1 1 1 1 1 1 
1 1 1 1 1 1 1 1 1 
1 1 1 1 1 1 1 1 1 

i 3 1197 int
0 0 0 0 0 0 0 1 0 
0 0 0 0 0 0 0 1 0 
0 1 0 0 0 0 0 0 0 
0 0 0 0 0 0 0 1 0 
0 0 0 -1 0 0 1 0 0 
0 0 0 1 0 0 0 0 0 
0 0 0 0 0 0 0 0 0 
0 0 0 0 0 0 0 0 0 
0 0 0 0 0 0 0 0 0 
0 0 0 -1 0 0 0 0 0 
0 0 0 1 0 0 0 0 0 
0 0 0 0 0 0 0 0 0 
0 0 0 0 0 0 0 0 0 
0 0 0 0 0 0 0 0 0 
0 0 0 0 0 0 -1 0 0 
-1 0 0 0 0 0 0 0 0 
0 0 0 0 0 0 0 0 0 
0 0 0 0 0 0 0 0 0 
0 0 0 0 0 0 0 0 0 
0 0 0 0 0 0 0 0 0 
-1 0 0 0 0 0 0 0 0 
0 0 0 0 0 0 0 0 0 
0 0 0 0 0 0 0 0 0 
0 0 0 0 0 0 0 0 0 
0 0 0 0 0 0 0 0 0 
-1 0 0 0 0 0 -1 0 0 
0 0 0 1 0 0 0 0 0 
0 -1 0 0 0 0 0 0 0 
0 0 0 0 -1 0 0 0 0 
0 -1 0 0 0 0 0 0 0 
0 0 0 0 0 0 0 0 0 
0 0 0 0 -1 0 0 -1 0 
0 0 0 0 0 0 0 0 0 
0 1 0 0 0 0 0 0 0 
1 0 0 0 1 0 0 1 0 
0 0 0 0 1 0 0 0 0 
0 0 0 0 0 0 0 0 0 
0 0 0 0 0 0 0 0 0 
0 0 0 0 1 0 0 0 0 
0 0 0 0 0 0 0 0 0 
0 0 0 0 0 0 0 0 0 
0 0 0 0 0 0 0 0 0 
0 0 0 0 0 0 0 0 0 
0 0 0 0 0 0 0 0 0 
0 0 0 0 0 0 0 0 0 
-1 0 0 0 0 0 0 0 0 
0 0 0 0 0 0 0 0 0 
0 0 0 0 0 0 0 0 0 
0 0 0 0 0 0 0 0 0 
0 0 0 0 0 0 0 0 0 
0 0 0 0 0 0 0 0 0 
0 0 0 0 0 0 0 0 0 
0 0 0 0 0 0 0 0 0 
0 0 0 1 0 0 0 0 0 
0 0 0 0 0 0 0 0 0 
0 0 0 0 0 0 0 0 0 
0 0 0 0 0 0 0 0 0 
0 0 0 0 0 0 0 0 0 
0 0 0 0 0 0 0 0 0 
0 0 0 0 0 0 -1 0 0 
-1 0 0 1 0 0 0 0 0 
0 0 0 0 0 0 0 0 0 
0 0 0 0 0 0 0 0 0 
0 0 0 0 0 0 0 0 0 
0 0 0 0 0 0 0 0 0 
0 0 0 0 0 0 0 0 0 
0 0 0 0 0 0 -1 0 0 
0 0 0 0 0 0 0 0 0 
0 0 0 0 0 0 0 0 0 
0 0 0 0 0 0 0 -1 0 
0 0 0 0 0 0 0 0 0 
0 0 0 0 0 0 0 0 0 
0 0 0 0 0 0 0 0 0 
0 0 0 0 0 0 0 0 0 
0 0 0 0 0 0 0 0 0 
1 0 0 0 0 0 0 0 0 
0 0 0 0 0 0 0 1 0 
0 0 0 0 0 0 0 0 0 
0 0 0 0 1 0 0 0 0 
0 1 0 0 0 0 0 0 0 
0 0 0 0 0 0 0 0 0 
0 0 0 0 0 0 0 0 0 
-1 0 0 0 0 0 0 0 0 
0 0 0 0 0 0 0 0 0 
0 0 0 0 0 0 0 0 0 
0 0 0 0 0 0 1 0 0 
0 0 0 0 0 0 0 0 0 
0 0 0 0 0 0 0 0 0 
0 0 0 0 0 0 0 0 0 
0 0 0 0 0 0 0 0 0 
0 0 0 0 0 0 0 0 0 
0 0 0 0 0 0 0 0 0 
0 0 0 0 0 0 0 0 0 
-1 0 0 0 0 0 0 0 0 
0 0 0 0 0 0 -1 0 0 
0 0 0 0 0 0 0 0 0 
0 0 0 0 0 0 0 0 0 
0 0 0 0 0 0 0 0 0 
0 0 0 0 0 0 0 0 0 
0 0 0 0 0 0 0 0 0 
0 0 0 0 0 0 0 0 0 
0 0 0 0 0 0 0 0 0 
0 0 0 0 0 0 0 0 0 
0 0 0 0 0 0 0 0 0 
0 0 0 -1 0 0 0 0 0 
0 0 0 0 0 0 0 0 0 
0 0 0 0 0 0 0 0 0 
0 0 0 0 0 0 0 0 0 
0 0 0 0 0 0 0 0 0 
0 0 0 0 0 0 0 0 0 
0 0 0 0 0 0 0 0 0 
0 0 0 0 0 0 0 0 0 
0 0 0 0 0 0 -1 0 0 
0 0 0 0 0 0 0 0 0 
0 0 0 0 0 0 0 0 0 
0 0 0 0 0 0 0 0 0 
0 0 0 0 0 0 0 0 0 
0 0 0 0 0 0 0 0 0 
0 0 0 0 0 0 0 0 0 
0 0 0 0 0 0 0 0 0 
0 0 0 0 0 0 0 0 0 
0 0 0 0 0 0 0 0 0 
0 0 0 0 0 0 0 0 0 
0 0 0 0 0 0 -1 0 0 
0 0 0 0 0 0 0 0 0 
0 0 0 0 0 0 0 0 0 
1 -1 0 0 0 0 0 -1 0 
0 0 0 0 0 0 0 0 0 
0 0 0 0 0 0 0 0 0 
0 0 0 0 0 0 0 0 0 
0 0 0 0 0 0 0 -1 0 
0 0 0 0 0 0 0 0 0 
0 0 0 0 0 0 0 0 0 
0 0 0 -1 0 0 0 0 0 
0 0 0 0 0 0 -1 0 0 
0 0 0 0 1 0 0 0 0 
1 0 0 1 0 0 0 0 0 
0 0 0 0 0 0 0 0 0 
0 0 0 0 0 0 0 0 0 
0 0 0 0 0 0 0 0 0 
0 1 0 0 0 0 0 1 0 
0 0 0 0 0 0 0 0 0 
0 0 0 0 0 0 0 0 0 
0 0 0 0 0 0 0 0 0 
0 1 0 -1 1 0 -1 0 0 
0 0 0 0 0 0 0 0 0 
1 0 0 1 0 0 0 0 0 
1 0 0 0 0 0 0 0 0 
0 0 0 0 0 0 0 0 0 
0 0 0 0 0 0 0 0 0 
0 0 0 0 0 0 0 0 0 
0 0 0 0 0 0 0 0 0 
0 0 0 0 0 0 0 1 0 
0 0 0 0 0 0 0 0 0 
0 0 0 0 1 0 -1 0 0 
0 0 0 0 0 0 0 0 0 
0 0 0 0 0 0 0 0 0 
0 0 0 0 0 0 0 0 0 
0 0 0 0 0 0 0 0 0 
0 0 0 0 0 0 0 0 0 
0 0 0 0 0 0 0 0 0 
0 0 0 0 0 0 0 0 0 
0 0 0 0 0 0 0 0 0 
0 0 0 0 0 0 0 0 0 
0 0 0 0 0 0 0 0 0 
-1 0 0 0 0 0 0 0 0 
1 0 0 0 0 0 0 0 0 
0 0 0 0 0 0 0 0 0 
0 0 0 0 0 0 0 0 0 
0 0 0 0 0 0 0 0 0 
0 0 0 0 0 0 0 0 0 
0 0 0 0 0 0 0 0 0 
0 0 0 0 0 0 0 0 0 
0 0 0 0 0 0 0 0 0 
0 0 0 0 0 0 0 0 0 
0 0 0 0 0 0 0 0 0 
0 0 0 -1 0 0 0 0 0 
0 0 0 0 0 0 0 0 0 
0 0 0 0 0 0 0 0 0 
0 0 0 0 0 0 0 0 0 
0 0 0 0 0 0 0 0 0 
0 0 0 0 0 0 0 0 0 
0 0 0 0 0 0 0 0 0 
0 0 0 0 0 0 0 0 0 
0 0 0 0 0 0 -1 0 0 
0 0 0 0 0 0 0 0 0 
0 0 0 0 0 0 0 0 0 
0 -1 0 0 0 0 0 0 0 
0 0 0 0 0 0 0 0 0 
0 0 0 0 0 0 0 0 0 
0 0 0 0 0 0 0 0 0 
0 0 0 0 0 0 0 0 0 
0 0 0 0 0 0 0 0 0 
0 0 0 0 0 0 0 -1 0 
0 0 0 0 0 0 0 0 0 
0 0 0 0 0 0 0 0 0 
0 0 0 0 1 0 0 0 0 
0 0 0 0 0 0 0 0 0 
0 0 0 0 0 0 0 0 0 
0 1 0 0 0 0 0 0 0 
0 0 0 0 0 0 0 0 0 
0 0 0 0 0 0 0 0 0 
0 0 0 0 0 0 0 1 0 
0 0 0 0 0 0 0 0 0 
0 1 0 0 1 0 0 0 0 
0 0 0 0 0 0 0 0 0 
0 0 0 0 0 0 0 0 0 
0 0 0 0 0 0 0 0 0 
0 0 0 0 0 0 0 0 0 
0 0 0 0 0 0 0 0 0 
0 0 0 0 0 0 0 0 0 
0 0 0 0 0 0 0 0 0 
0 0 0 0 0 0 0 0 0 
0 0 0 0 0 0 0 0 0 
0 0 0 0 0 0 0 0 0 
0 0 0 0 0 0 0 0 0 
0 0 0 0 0 0 0 0 0 
0 0 0 1 0 0 0 0 0 
0 0 0 0 0 0 0 0 0 
0 0 0 0 0 0 0 0 0 
0 0 0 0 0 0 0 0 0 
0 0 0 0 0 0 0 0 0 
0 0 0 0 0 0 0 0 0 
0 0 0 0 0 0 0 0 0 
0 0 0 0 0 0 0 0 0 
0 0 0 0 0 0 0 0 0 
-1 0 0 0 0 0 0 0 0 
0 0 0 0 0 0 0 0 0 
0 0 0 0 0 0 0 0 0 
0 0 0 0 0 0 0 0 0 
0 0 0 0 0 0 0 0 0 
0 0 0 0 0 0 0 0 0 
0 0 0 0 0 0 0 0 0 
0 0 0 0 0 0 0 0 0 
0 0 0 0 0 0 0 0 0 
0 0 0 0 0 0 0 0 0 
0 0 0 0 0 0 0 0 0 
0 0 0 0 0 0 0 0 0 
0 0 0 0 0 0 0 0 0 
0 0 0 0 0 0 0 0 0 
0 0 0 0 0 0 0 0 0 
0 0 0 0 0 0 0 0 0 
0 0 0 0 0 0 0 0 0 
0 0 0 0 0 0 0 0 0 
0 0 0 0 0 0 0 0 0 
0 0 0 0 0 0 0 -1 0 
0 0 0 0 -1 0 0 0 0 
0 0 0 0 0 0 1 0 0 
0 0 0 0 -1 0 0 0 0 
0 0 0 0 0 0 0 0 0 
0 0 0 0 0 0 0 0 0 
0 0 0 0 0 0 0 -1 0 
0 0 0 0 0 0 0 0 0 
0 0 0 0 0 0 0 0 0 
0 0 0 0 0 0 0 0 0 
0 -1 0 0 0 0 0 0 0 
1 0 0 0 0 0 0 1 0 
0 0 0 0 0 0 0 0 0 
0 0 0 0 0 0 0 0 0 
0 0 0 0 0 0 0 1 0 
0 0 0 0 0 0 0 1 0 
0 0 0 0 0 0 0 0 0 
0 0 0 0 0 0 0 0 0 
0 0 0 -1 0 0 0 0 0 
0 1 0 0 0 0 0 0 0 
0 0 0 0 0 0 0 0 0 
1 0 0 0 0 0 0 0 0 
0 0 0 0 0 0 0 0 0 
0 0 0 0 0 0 0 0 0 
0 0 0 0 0 0 0 0 0 
0 0 0 0 0 0 0 0 0 
0 0 0 0 0 0 0 0 0 
0 0 0 0 0 0 0 0 0 
0 0 0 0 0 0 0 0 0 
0 0 0 0 0 0 0 0 0 
0 0 0 0 0 0 1 0 0 
0 0 0 0 0 0 0 0 0 
0 0 0 0 0 0 0 0 0 
0 0 0 0 0 0 0 0 0 
0 0 0 0 0 0 0 0 0 
0 0 0 0 0 0 0 0 0 
0 0 0 0 0 0 0 0 0 
0 0 0 0 0 0 0 0 0 
0 0 0 0 0 0 0 0 0 
0 0 0 0 0 0 0 0 0 
0 0 0 1 0 0 0 0 0 
0 0 0 0 0 0 0 0 0 
0 0 0 0 0 0 0 0 0 
0 0 0 0 0 0 0 0 0 
0 0 0 0 0 0 0 0 0 
0 0 0 0 0 0 0 0 0 
0 0 0 0 0 0 0 0 0 
0 0 0 0 0 0 0 0 0 
0 0 0 0 0 0 0 0 0 
0 0 0 0 0 0 0 0 0 
0 0 0 0 0 0 0 0 0 
0 0 0 0 0 0 0 0 0 
0 0 0 0 0 0 0 0 0 
0 0 0 0 0 0 0 0 0 
0 0 0 0 0 0 0 0 0 
0 0 0 0 0 0 0 0 0 
0 0 0 0 0 0 0 0 0 
0 0 0 0 0 0 0 0 0 
0 0 0 0 0 0 0 0 0 
0 0 0 0 0 0 0 0 0 
0 0 0 1 0 0 0 0 0 
0 0 0 0 0 0 0 0 0 
0 -1 0 0 0 0 0 0 0 
0 0 0 0 -1 0 0 0 0 
0 0 0 0 0 0 0 0 0 
0 0 0 0 -1 0 0 0 0 
0 0 0 0 -1 0 0 0 0 
0 0 0 0 -1 0 0 -1 0 
0 0 0 0 0 0 0 0 0 
0 -1 0 0 0 0 0 0 0 
0 0 0 0 0 0 0 0 0 
0 0 0 0 0 0 0 0 0 
0 0 0 0 0 0 0 0 0 
0 0 0 0 0 0 0 0 0 
0 0 0 0 0 0 0 0 0 
0 0 0 0 0 0 0 0 0 
0 0 0 0 0 0 0 0 0 
0 0 0 0 0 0 1 0 0 
0 0 0 1 0 0 0 0 0 
0 0 0 0 0 0 0 0 0 
0 0 0 0 0 0 0 0 0 
0 0 0 0 0 0 0 0 0 
0 0 0 0 0 0 0 0 0 
0 0 0 0 0 0 0 0 0 
0 0 0 0 0 0 0 0 0 
0 0 0 0 0 0 0 0 0 
0 0 0 0 0 0 0 0 0 
0 0 0 0 0 0 0 0 0 
0 0 0 0 0 0 0 0 0 
0 0 0 0 0 0 0 0 0 
0 0 0 0 0 0 0 0 0 
0 0 0 0 0 0 0 0 0 
0 0 0 0 0 0 1 0 0 
0 0 0 0 0 0 0 0 0 
0 0 0 0 0 0 0 0 0 
0 0 0 0 0 0 0 0 0 
0 0 0 0 0 0 0 0 0 
0 0 0 0 0 0 0 0 0 
0 0 0 0 0 0 0 0 0 
0 0 0 0 0 0 0 0 0 
0 0 0 0 0 0 0 0 0 
0 0 0 0 0 0 1 0 0 
0 0 0 0 0 0 0 0 0 
0 0 0 0 0 0 0 0 0 
0 0 0 0 0 0 0 0 0 
0 0 0 0 0 0 0 0 0 
0 0 0 0 0 0 0 0 0 
0 0 0 0 0 0 0 0 0 
0 0 0 0 0 0 0 0 0 
0 0 0 0 0 0 0 0 0 
0 0 0 0 -1 0 0 0 0 
0 0 0 0 0 0 0 0 0 
0 0 0 0 0 0 0 0 0 
0 0 0 0 0 0 0 0 0 
0 -1 0 0 -1 0 0 -1 0 
0 0 0 0 0 0 0 0 0 
0 0 0 -1 0 0 0 0 0 
0 0 0 0 1 0 0 0 0 
0 0 0 0 0 0 0 0 0 
0 0 0 0 0 0 0 0 0 
0 0 0 0 0 0 0 0 0 
0 0 0 0 0 0 0 0 0 
0 0 0 0 0 0 0 0 0 
0 0 0 0 0 0 0 0 0 
0 0 0 0 0 0 0 0 0 
0 0 0 0 0 0 0 0 0 
0 0 0 0 0 0 0 0 0 
0 0 0 0 0 0 0 0 0 
0 0 0 0 0 0 0 0 0 
0 0 0 0 0 0 0 0 0 
0 0 0 0 0 0 0 0 0 
0 0 0 0 0 0 0 0 0 
0 0 0 0 0 0 0 0 0 
0 0 0 0 0 0 0 0 0 
0 0 0 0 0 0 0 0 0 
0 0 0 0 0 0 0 0 0 
0 0 0 0 0 0 0 0 0 
0 0 0 0 0 0 0 0 0 
0 0 0 0 0 0 0 0 0 
0 0 0 0 0 0 0 0 0 
0 0 0 0 0 0 0 0 0 
0 0 0 0 0 0 0 0 0 
0 0 0 0 0 0 0 0 0 
0 0 0 0 0 0 0 0 0 
0 0 0 0 0 0 0 0 0 
0 0 0 0 0 0 0 0 0 
0 0 0 0 0 0 0 0 0 
0 0 0 0 0 0 0 0 0 
0 0 0 0 0 0 0 0 0 
0 0 0 0 0 0 0 0 0 
0 0 0 0 0 0 0 0 0 
0 0 0 0 0 0 0 0 0 
0 0 0 0 0 0 0 0 0 
0 0 0 0 0 0 0 0 0 

v 3 1197 double
-2.67689e-05 -4.73417e-05 -5.84161e-05 -4.09052e-05 -3.04224e-05 -2.11347e-05 -1.13966e-05 -2.21155e-05 -4.0614e-05 
-3.43022e-05 -1.12092e-05 -7.72108e-06 -4.14724e-05 -1.02127e-05 -1.50714e-05 -1.5179e-05 -2.68767e-05 -4.43109e-05 
3.19311e-05 -4.51813e-05 -4.69989e-05 -3.4918e-05 -2.89111e-05 -4.65862e-05 8.8039e-05 -2.85601e-06 -9.81582e-16 
-1.25354e-05 -1.23015e-05 -4.35965e-05 1.6678e-05 -2.14617e-05 -2.73761e-05 -9.76099e-06 -2.14328e-05 -3.42691e-05 
-1.85089e-05 -1.16568e-05 -2.38025e-05 -2.30275e-05 -2.27138e-05 -2.8147e-05 -6.25222e-06 -2.43107e-05 -4.71229e-05 
-1.85565e-05 -8.78164e-10 -3.98854e-05 -8.72992e-06 -4.44957e-06 -4.96383e-05 -3.04654e-05 1.32672e-05 -4.88406e-05 
-7.88206e-05 1.06295e-05 4.61979e-06 -2.32522e-05 -4.18772e-06 3.50149e-06 -1.05492e-05 2.24004e-05 -2.15347e-05 
-2.8038e-05 -1.51762e-05 -2.94811e-05 3.91586e-05 -1.69778e-05 -3.74363e-05 -1.43162e-05 -3.50686e-05 6.89299e-06 
-1.10381e-05 -4.40132e-05 6.2017e-06 -3.32618e-06 -3.63826e-05 1.53083e-06 2.33001e-05 -3.53162e-05 -2.08507e-05 
-1.67234e-05 -2.43227e-05 8.48806e-06 -5.5669e-07 -3.14209e-05 -1.35372e-05 -5.89866e-06 -7.95889e-06 -1.59724e-05 
-8.87772e-05 9.72221e-05 -3.301e-05 5.85079e-06 -1.29029e-06 -0.000101938 -1.70377e-05 -1.37331e-05 -4.8564e-05 
-2.29484e-05 8.40473e-06 -4.18042e-05 -2.53075e-05 1.91849e-05 -4.4586e-05 -4.69919e-05 2.55831e-05 -3.1147e-05 
-1.23446e-05 1.29129e-05 -4.43857e-05 4.41876e-05 -2.36221e-05 -2.44903e-05 -2.96172e-05 1.68322e-05 -2.92231e-05 
-2.00654e-05 -4.2527e-05 2.98526e-05 -5.93848e-06 -2.13586e-05 8.61632e-07 2.82663e-05 -2.79763e-05 -5.95152e-06 
-6.22855e-05 7.24753e-06 3.49879e-05 -3.71797e-05 -1.12247e-05 -5.09162e-06 6.72444e-05 -0.000100033 -2.00084e-05 
3.78688e-05 -3.45882e-05 -4.12925e-06 -8.8375e-05 -2.94035e-05 3.95594e-05 -4.60241e-05 4.23974e-06 -3.98717e-05 
-4.79566e-05 -1.55843e-05 -4.83807e-05 -1.73973e-05 -3.81496e-05 -4.76742e-05 2.22194e-06 -2.81158e-05 -4.02352e-05 
-1.4282e-05 4.41518e-06 -3.68578e-05 -2.44998e-05 -7.95728e-06 -2.33948e-05 -2.319e-05 1.40572e-05 -2.14716e-05 
8.66074e-06 -1.66621e-05 1.6024e-05 -3.85011e-05 -1.47045e-05 -1.09711e-05 -5.8621e-06 -5.198e-05 8.23861e-06 
-2.54265e-05 7.94631e-06 -1.45728e-05 0.000111192 -4.91769e-05 -1.8819e-05 -2.46805e-05 -4.94631e-05 2.02387e-05 
-6.36088e-05 -3.05565e-05 -6.95598e-05 9.25919e-05 -6.98106e-05 -1.63267e-05 -6.32662e-05 3.08657e-05 -3.54474e-05 
-3.46033e-05 -8.72603e-06 -3.99602e-05 -7.21237e-06 2.22536e-05 -3.05323e-05 7.82954e-06 -9.49671e-06 -2.53217e-05 
-7.86754e-06 -3.24524e-05 -3.02078e-06 -3.04049e-05 -2.71499e-05 1.97364e-05 -2.57817e-06 -1.01982e-05 -8.4096e-06 
-3.46225e-06 -8.40276e-06 3.04455e-05 7.69442e-05 7.00636e-05 -8.98271e-06 -9.41711e-05 5.49569e-05 -1.60517e-06 
-5.45898e-05 -2.62933e-05 -3.64904e-05 -9.10573e-05 -2.26221e-05 -5.42133e-06 1.03069e-05 -7.83367e-05 -4.4042e-06 
-2.20852e-05 3.08013e-05 -7.01408e-05 -7.57375e-05 1.02718e-05 -1.20208e-05 -6.20846e-05 6.21068e-06 -2.39484e-05 
-2.92666e-05 1.3846e-06 1.45692e-05 -2.91915e-05 -1.27255e-05 -1.68147e-05 -3.38639e-05 -6.64691e-06 -1.17861e-05 
-7.15421e-05 -4.87859e-05 -2.14514e-05 -4.35304e-05 -3.05501e-05 1.25646e-05 -3.01918e-05 -2.52819e-05 -3.28163e-05 
3.36023e-07 -3.21751e-05 1.47898e-06 2.4829e-05 -2.9088e-05 -1.77525e-05 2.39195e-06 1.7597e-05 6.61056e-06 
-3.11948e-05 -1.12497e-05 -2.10836e-05 -3.29112e-05 -1.42357e-05 -1.96633e-05 -5.68893e-05 -2.19952e-05 1.29285e-05 
-4.95498e-05 3.19229e-06 -3.96263e-05 2.80048e-05 -2.29632e-05 -1.29255e-05 -1.95164e-05 -8.80139e-06 -7.79625e-06 
-9.39689e-06 -5.92394e-06 -2.27907e-05 1.53834e-05 -5.01256e-05 3.06732e-05 -1.78966e-05 -2.02201e-05 -2.19541e-05 
-4.53582e-05 1.08434e-06 -6.77972e-05 4.42734e-06 -1.3699e-05 -0.000112559 -2.26424e-05 4.2758e-05 -0.000155091 
-8.12195e-05 -3.19368e-05 -0.000134317 -3.76283e-05 -2.28045e-05 -4.80972e-05 -0.000175605 -3.63216e-05 -3.97577e-05 
-0.000127018 -8.40525e-05 -0.000112762 -6.13274e-05 -5.54984e-05 4.95102e-05 -4.11422e-05 -5.80021e-06 -7.52067e-05 
-4.7073e-05 -3.73551e-05 -4.53278e-05 -4.82895e-05 8.11231e-05 -0.00012406 -0.000107443 5.17733e-05 -0.000163008 
2.44437e-05 -6.32237e-05 -6.90854e-05 -1.48101e-05 7.04718e-05 -8.18084e-05 2.91005e-05 -3.26456e-05 -1.11263e-05 
4.06914e-05 -6.16876e-05 -0.000116804 5.27063e-05 4.10569e-05 -3.88381e-05 3.85757e-06 -4.56606e-05 -4.20003e-05 
2.36426e-05 2.94894e-05 9.38304e-06 2.2684e-05 -3.25956e-05 -9.79969e-05 3.67258e-06 -9.52675e-05 3.9502e-06 
-1.14314e-05 -1.50655e-05 -8.39619e-05 -2.47893e-05 1.21532e-05 -5.08411e-05 -0.000107366 -2.88888e-05 -2.67061e-05 
-0.000158279 -6.65042e-05 5.34805e-05 -8.60322e-05 -1.72607e-05 -8.66393e-05 -8.57884e-05 -4.39768e-05 -3.64979e-05 