# Probe 0 (0 0 50)
# Probe 1 (0 0 -40)
#       Probe             0             1
#        Time
          100             (1.49669e-08 1.26361e-08 -0.000999998)             (7.41417e-10 -6.18166e-10 -0.001)
          200             (1.5487e-08 2.96595e-09 -0.000999997)             (1.35047e-09 -9.82252e-10 -0.001)
          300             (2.36276e-08 -3.37462e-09 -0.000999995)             (1.514e-09 -1.52087e-09 -0.001)
          400             (3.04412e-08 -7.84886e-09 -0.000999992)             (1.41283e-09 -2.32699e-09 -0.001)
          500             (3.65882e-08 -9.50957e-09 -0.000999992)             (1.69835e-09 -2.77142e-09 -0.000999996)
          600             (3.90527e-08 -1.12337e-08 -0.000999986)             (1.55302e-09 -3.67335e-09 -0.00099999)
          700             (4.18249e-08 -1.03764e-08 -0.000999986)             (1.70007e-09 -4.30699e-09 -0.000999987)
          800             (4.23126e-08 -1.09295e-08 -0.000999986)             (1.84119e-09 -4.95804e-09 -0.000999989)
          900             (4.00978e-08 -1.30812e-08 -0.000999986)             (1.82922e-09 -5.7856e-09 -0.000999985)
         1000             (4.12431e-08 -1.09049e-08 -0.000999984)             (2.09155e-09 -6.36787e-09 -0.000999918)
