/*--------------------------------*- C++ -*----------------------------------*\
| =========                 |                                                 |
| \\      /  F ield         | OpenFOAM: The Open Source CFD Toolbox           |
|  \\    /   O peration     | Version:  5.x                                   |
|   \\  /    A nd           | Web:      www.OpenFOAM.org                      |
|    \\/     M anipulation  |                                                 |
\*---------------------------------------------------------------------------*/
FoamFile
{
    version     2.0;
    format      ascii;
    class       volVectorField;
    location    "4000";
    object      stored_U;
}
// * * * * * * * * * * * * * * * * * * * * * * * * * * * * * * * * * * * * * //

dimensions      [0 1 -1 0 0 0 0];

internalField   nonuniform List<vector> 
180
(
(-6.38053e-10 9.87039e-09 -0.000999918)
(-8.23698e-10 1.44082e-08 -0.000999917)
(-1.1173e-09 2.13659e-08 -0.000999915)
(-1.49708e-09 2.94412e-08 -0.000999912)
(-1.93265e-09 3.81103e-08 -0.000999909)
(-2.40727e-09 4.72538e-08 -0.000999904)
(-2.91955e-09 5.69051e-08 -0.000999899)
(-3.47585e-09 6.71471e-08 -0.000999893)
(-4.086e-09 7.80797e-08 -0.000999885)
(-4.76203e-09 8.98115e-08 -0.000999877)
(-5.51795e-09 1.02459e-07 -0.000999867)
(-6.36992e-09 1.16147e-07 -0.000999856)
(-7.33642e-09 1.31009e-07 -0.000999844)
(-8.43858e-09 1.47192e-07 -0.00099983)
(-9.70046e-09 1.64852e-07 -0.000999814)
(-1.11494e-08 1.84161e-07 -0.000999797)
(-1.28166e-08 2.05306e-07 -0.000999777)
(-1.47374e-08 2.2849e-07 -0.000999756)
(-1.69522e-08 2.53938e-07 -0.000999732)
(-1.9507e-08 2.81893e-07 -0.000999705)
(-2.24544e-08 3.12621e-07 -0.000999676)
(-2.58548e-08 3.46416e-07 -0.000999644)
(-2.97772e-08 3.83598e-07 -0.000999608)
(-3.43011e-08 4.24517e-07 -0.000999569)
(-3.9518e-08 4.69557e-07 -0.000999525)
(-4.55333e-08 5.19138e-07 -0.000999477)
(-5.24688e-08 5.7372e-07 -0.000999425)
(-6.04647e-08 6.33805e-07 -0.000999367)
(-6.96834e-08 6.99942e-07 -0.000999303)
(-8.03119e-08 7.72729e-07 -0.000999233)
(-9.25662e-08 8.52822e-07 -0.000999157)
(-1.06696e-07 9.40934e-07 -0.000999073)
(-1.22988e-07 1.03784e-06 -0.000998981)
(-1.41775e-07 1.1444e-06 -0.00099888)
(-1.6344e-07 1.26152e-06 -0.000998769)
(-1.88423e-07 1.39022e-06 -0.000998648)
(-2.17233e-07 1.53158e-06 -0.000998515)
(-2.50457e-07 1.6868e-06 -0.00099837)
(-2.88769e-07 1.85714e-06 -0.000998211)
(-3.32947e-07 2.04402e-06 -0.000998038)
(-3.83889e-07 2.24894e-06 -0.000997849)
(-4.42626e-07 2.47351e-06 -0.000997644)
(-5.10348e-07 2.71951e-06 -0.000997419)
(-5.88427e-07 2.9888e-06 -0.000997175)
(-6.78443e-07 3.28343e-06 -0.00099691)
(-7.82219e-07 3.60556e-06 -0.000996622)
(-9.01852e-07 3.95752e-06 -0.000996309)
(-1.03976e-06 4.34177e-06 -0.000995971)
(-1.19873e-06 4.76095e-06 -0.000995606)
(-1.38198e-06 5.21785e-06 -0.000995211)
(-1.59319e-06 5.71541e-06 -0.000994786)
(-1.83664e-06 6.25672e-06 -0.000994328)
(-2.11723e-06 6.84502e-06 -0.000993837)
(-2.44062e-06 7.48366e-06 -0.000993311)
(-2.81332e-06 8.17612e-06 -0.000992749)
(-3.24282e-06 8.92595e-06 -0.000992151)
(-3.73777e-06 9.73676e-06 -0.000991514)
(-4.30812e-06 1.06122e-05 -0.000990841)
(-4.96532e-06 1.15558e-05 -0.000990131)
(-5.72255e-06 1.2571e-05 -0.000989385)
(-6.59501e-06 1.3661e-05 -0.000988606)
(-7.6002e-06 1.48289e-05 -0.000987798)
(-8.75825e-06 1.6077e-05 -0.000986964)
(-1.00924e-05 1.74073e-05 -0.000986113)
(-1.16293e-05 1.88207e-05 -0.000985252)
(-1.34e-05 2.03173e-05 -0.000984393)
(-1.54398e-05 2.18955e-05 -0.000983552)
(-1.77898e-05 2.35521e-05 -0.000982747)
(-2.04972e-05 2.52817e-05 -0.000982003)
(-2.36168e-05 2.70759e-05 -0.00098135)
(-2.72115e-05 2.8923e-05 -0.000980825)
(-3.13533e-05 3.08073e-05 -0.000980465)
(-3.61231e-05 3.27072e-05 -0.000980283)
(-4.16018e-05 3.45909e-05 -0.000980314)
(-4.78343e-05 3.64008e-05 -0.000981076)
(-5.46875e-05 3.80076e-05 -0.00098426)
(-6.12188e-05 3.90769e-05 -0.000989314)
(-6.51707e-05 3.89538e-05 -0.000977989)
(-6.04567e-05 3.62532e-05 -0.000913798)
(-3.87358e-05 2.93682e-05 -0.0008729)
(-3.33505e-06 4.49536e-06 -0.00275808)
(-3.52242e-06 -5.70612e-07 -2.48806e-05)
(1.5289e-05 0.000492494 -0.00361667)
(-9.91887e-06 3.13311e-06 -8.89809e-05)
(-0.000124827 -7.80839e-05 -0.0039071)
(-2.79804e-05 2.63047e-05 -0.00413241)
(-2.30681e-05 -1.09475e-05 -0.000363887)
(-0.000351844 -0.000214471 -0.00378189)
(-0.000407843 -0.000159528 -0.00380283)
(-4.35581e-05 -2.83683e-05 -0.000248442)
(-0.000223421 -0.000706326 -0.00308878)
(0.000219953 -0.000305543 -0.00384382)
(3.55688e-05 -3.24302e-05 -0.000510021)
(-0.000203022 -0.000713064 -0.00468906)
(-0.000120853 -0.000835647 -0.0034838)
(-7.90045e-06 -6.34283e-05 -0.000204033)
(-9.99166e-05 -0.00092574 -0.00555455)
(1.09866e-05 -4.05628e-05 -4.57742e-05)
(-0.000338898 -0.000296701 -0.00562352)
(-5.91004e-05 4.93906e-05 -0.00140541)
(0.000461802 0.00049615 -0.00494937)
(1.17835e-05 4.14545e-05 -0.000345591)
(2.07075e-05 9.02598e-05 -0.00406373)
(6.63241e-05 0.00013065 -0.00142784)
(0.000113847 9.32314e-05 -0.00138711)
(0.000134275 9.01821e-05 -0.00127852)
(0.000131187 0.00010291 -0.00120606)
(0.000118835 0.000104461 -0.00117538)
(0.00010491 9.67667e-05 -0.00115674)
(9.19695e-05 8.62022e-05 -0.00113871)
(8.05175e-05 7.57844e-05 -0.00112176)
(7.04914e-05 6.63868e-05 -0.00110681)
(6.1728e-05 5.81163e-05 -0.0010938)
(5.40684e-05 5.08818e-05 -0.00108243)
(4.73725e-05 4.45609e-05 -0.00107246)
(4.1518e-05 3.90382e-05 -0.00106373)
(3.63979e-05 3.42119e-05 -0.00105606)
(3.1919e-05 2.99929e-05 -0.00104934)
(2.8e-05 2.63036e-05 -0.00104345)
(2.457e-05 2.30766e-05 -0.00103827)
(2.15672e-05 2.02529e-05 -0.00103373)
(1.89377e-05 1.77814e-05 -0.00102973)
(1.66343e-05 1.56175e-05 -0.00102623)
(1.46161e-05 1.37221e-05 -0.00102314)
(1.28473e-05 1.20614e-05 -0.00102043)
(1.12965e-05 1.06059e-05 -0.00101804)
(9.93646e-06 9.32987e-06 -0.00101594)
(8.74332e-06 8.21073e-06 -0.00101408)
(7.69627e-06 7.22886e-06 -0.00101245)
(6.77712e-06 6.3671e-06 -0.00101102)
(5.96997e-06 5.61043e-06 -0.00100975)
(5.26092e-06 4.9458e-06 -0.00100863)
(4.63784e-06 4.36178e-06 -0.00100764)
(4.0901e-06 3.84844e-06 -0.00100677)
(3.60841e-06 3.39709e-06 -0.001006)
(3.18465e-06 3.00009e-06 -0.00100532)
(2.8117e-06 2.65072e-06 -0.00100472)
(2.48335e-06 2.34311e-06 -0.00100419)
(2.19416e-06 2.07206e-06 -0.00100372)
(1.93931e-06 1.83314e-06 -0.0010033)
(1.71457e-06 1.62251e-06 -0.00100293)
(1.51628e-06 1.43677e-06 -0.0010026)
(1.3413e-06 1.2729e-06 -0.00100231)
(1.18686e-06 1.12826e-06 -0.00100206)
(1.05051e-06 1.00053e-06 -0.00100183)
(9.30083e-07 8.87679e-07 -0.00100163)
(8.23699e-07 7.87931e-07 -0.00100145)
(7.29708e-07 6.99721e-07 -0.00100129)
(6.46648e-07 6.21677e-07 -0.00100115)
(5.73234e-07 5.52598e-07 -0.00100102)
(5.08328e-07 4.91425e-07 -0.00100091)
(4.50933e-07 4.37232e-07 -0.00100081)
(4.00169e-07 3.89201e-07 -0.00100072)
(3.55259e-07 3.46618e-07 -0.00100064)
(3.15521e-07 3.08851e-07 -0.00100057)
(2.80355e-07 2.75347e-07 -0.00100051)
(2.4923e-07 2.45617e-07 -0.00100046)
(2.2168e-07 2.19231e-07 -0.00100041)
(1.97294e-07 1.95811e-07 -0.00100036)
(1.75709e-07 1.75024e-07 -0.00100032)
(1.56606e-07 1.56574e-07 -0.00100029)
(1.39704e-07 1.40203e-07 -0.00100025)
(1.24754e-07 1.25681e-07 -0.00100023)
(1.11537e-07 1.12806e-07 -0.0010002)
(9.98617e-08 1.01398e-07 -0.00100018)
(8.95565e-08 9.13005e-08 -0.00100016)
(8.04719e-08 8.23726e-08 -0.00100014)
(7.24759e-08 7.44912e-08 -0.00100012)
(6.54523e-08 6.75477e-08 -0.00100011)
(5.92989e-08 6.14461e-08 -0.0010001)
(5.39262e-08 5.6102e-08 -0.00100008)
(4.92557e-08 5.14414e-08 -0.00100007)
(4.52195e-08 4.73999e-08 -0.00100006)
(4.17586e-08 4.39214e-08 -0.00100005)
(3.88232e-08 4.09583e-08 -0.00100005)
(3.63713e-08 3.84701e-08 -0.00100004)
(3.43693e-08 3.64233e-08 -0.00100003)
(3.27757e-08 3.4775e-08 -0.00100002)
(3.16349e-08 3.35752e-08 -0.00100002)
(3.10665e-08 3.29803e-08 -0.00100001)
)
;

boundaryField
{
    inlet
    {
        type            calculated;
        value           uniform (3.10665e-08 3.29803e-08 -0.00100001);
    }
    outlet
    {
        type            calculated;
        value           uniform (-6.38053e-10 9.87039e-09 -0.000999918);
    }
    repeat_boundary
    {
        type            calculated;
        value           nonuniform List<vector> 
360
(
(0 9.87039e-09 -0.000999918)
(0 1.44082e-08 -0.000999917)
(0 2.13659e-08 -0.000999915)
(0 2.94412e-08 -0.000999912)
(0 3.81103e-08 -0.000999909)
(0 4.72538e-08 -0.000999904)
(0 5.69051e-08 -0.000999899)
(0 6.71471e-08 -0.000999893)
(0 7.80797e-08 -0.000999885)
(0 8.98115e-08 -0.000999877)
(0 1.02459e-07 -0.000999867)
(0 1.16147e-07 -0.000999856)
(0 1.31009e-07 -0.000999844)
(0 1.47192e-07 -0.00099983)
(0 1.64852e-07 -0.000999814)
(0 1.84161e-07 -0.000999797)
(0 2.05306e-07 -0.000999777)
(0 2.2849e-07 -0.000999756)
(0 2.53938e-07 -0.000999732)
(0 2.81893e-07 -0.000999705)
(0 3.12621e-07 -0.000999676)
(0 3.46416e-07 -0.000999644)
(0 3.83598e-07 -0.000999608)
(0 4.24517e-07 -0.000999569)
(0 4.69557e-07 -0.000999525)
(0 5.19138e-07 -0.000999477)
(0 5.7372e-07 -0.000999425)
(0 6.33805e-07 -0.000999367)
(0 6.99942e-07 -0.000999303)
(0 7.72729e-07 -0.000999233)
(0 8.52822e-07 -0.000999157)
(0 9.40934e-07 -0.000999073)
(0 1.03784e-06 -0.000998981)
(0 1.1444e-06 -0.00099888)
(0 1.26152e-06 -0.000998769)
(0 1.39022e-06 -0.000998648)
(0 1.53158e-06 -0.000998515)
(0 1.6868e-06 -0.00099837)
(0 1.85714e-06 -0.000998211)
(0 2.04402e-06 -0.000998038)
(0 2.24894e-06 -0.000997849)
(0 2.47351e-06 -0.000997644)
(0 2.71951e-06 -0.000997419)
(0 2.9888e-06 -0.000997175)
(0 3.28343e-06 -0.00099691)
(0 3.60556e-06 -0.000996622)
(0 3.95752e-06 -0.000996309)
(0 4.34177e-06 -0.000995971)
(0 4.76095e-06 -0.000995606)
(0 5.21785e-06 -0.000995211)
(0 5.71541e-06 -0.000994786)
(0 6.25672e-06 -0.000994328)
(0 6.84502e-06 -0.000993837)
(0 7.48366e-06 -0.000993311)
(0 8.17612e-06 -0.000992749)
(0 8.92595e-06 -0.000992151)
(0 9.73676e-06 -0.000991514)
(0 1.06122e-05 -0.000990841)
(0 1.15558e-05 -0.000990131)
(0 1.2571e-05 -0.000989385)
(0 1.3661e-05 -0.000988606)
(0 1.48289e-05 -0.000987798)
(0 1.6077e-05 -0.000986964)
(0 1.74073e-05 -0.000986113)
(0 1.88207e-05 -0.000985252)
(0 2.03173e-05 -0.000984393)
(0 2.18955e-05 -0.000983552)
(0 2.35521e-05 -0.000982747)
(0 2.52817e-05 -0.000982003)
(0 2.70759e-05 -0.00098135)
(0 2.8923e-05 -0.000980825)
(0 3.08073e-05 -0.000980465)
(0 3.27072e-05 -0.000980283)
(0 3.45909e-05 -0.000980314)
(0 3.64008e-05 -0.000981076)
(0 3.80076e-05 -0.00098426)
(0 3.90769e-05 -0.000989314)
(0 3.89538e-05 -0.000977989)
(0 3.62532e-05 -0.000913798)
(0 2.93682e-05 -0.0008729)
(0 4.49536e-06 -0.00275808)
(0 -5.70612e-07 -2.48806e-05)
(0 0.000492494 -0.00361667)
(0 3.13311e-06 -8.89809e-05)
(0 -7.80839e-05 -0.0039071)
(0 2.63047e-05 -0.00413241)
(0 -1.09475e-05 -0.000363887)
(0 -0.000214471 -0.00378189)
(0 -0.000159528 -0.00380283)
(0 -2.83683e-05 -0.000248442)
(0 -0.000706326 -0.00308878)
(0 -0.000305543 -0.00384382)
(0 -3.24302e-05 -0.000510021)
(0 -0.000713064 -0.00468906)
(0 -0.000835647 -0.0034838)
(0 -6.34283e-05 -0.000204033)
(0 -0.00092574 -0.00555455)
(0 -4.05628e-05 -4.57742e-05)
(0 -0.000296701 -0.00562352)
(0 4.93906e-05 -0.00140541)
(0 0.00049615 -0.00494937)
(0 4.14545e-05 -0.000345591)
(0 9.02598e-05 -0.00406373)
(0 0.00013065 -0.00142784)
(0 9.32314e-05 -0.00138711)
(0 9.01821e-05 -0.00127852)
(0 0.00010291 -0.00120606)
(0 0.000104461 -0.00117538)
(0 9.67667e-05 -0.00115674)
(0 8.62022e-05 -0.00113871)
(0 7.57844e-05 -0.00112176)
(0 6.63868e-05 -0.00110681)
(0 5.81163e-05 -0.0010938)
(0 5.08818e-05 -0.00108243)
(0 4.45609e-05 -0.00107246)
(0 3.90382e-05 -0.00106373)
(0 3.42119e-05 -0.00105606)
(0 2.99929e-05 -0.00104934)
(0 2.63036e-05 -0.00104345)
(0 2.30766e-05 -0.00103827)
(0 2.02529e-05 -0.00103373)
(0 1.77814e-05 -0.00102973)
(0 1.56175e-05 -0.00102623)
(0 1.37221e-05 -0.00102314)
(0 1.20614e-05 -0.00102043)
(0 1.06059e-05 -0.00101804)
(0 9.32987e-06 -0.00101594)
(0 8.21073e-06 -0.00101408)
(0 7.22886e-06 -0.00101245)
(0 6.3671e-06 -0.00101102)
(0 5.61043e-06 -0.00100975)
(0 4.9458e-06 -0.00100863)
(0 4.36178e-06 -0.00100764)
(0 3.84844e-06 -0.00100677)
(0 3.39709e-06 -0.001006)
(0 3.00009e-06 -0.00100532)
(0 2.65072e-06 -0.00100472)
(0 2.34311e-06 -0.00100419)
(0 2.07206e-06 -0.00100372)
(0 1.83314e-06 -0.0010033)
(0 1.62251e-06 -0.00100293)
(0 1.43677e-06 -0.0010026)
(0 1.2729e-06 -0.00100231)
(0 1.12826e-06 -0.00100206)
(0 1.00053e-06 -0.00100183)
(0 8.87679e-07 -0.00100163)
(0 7.87931e-07 -0.00100145)
(0 6.99721e-07 -0.00100129)
(0 6.21677e-07 -0.00100115)
(0 5.52598e-07 -0.00100102)
(0 4.91425e-07 -0.00100091)
(0 4.37232e-07 -0.00100081)
(0 3.89201e-07 -0.00100072)
(0 3.46618e-07 -0.00100064)
(0 3.08851e-07 -0.00100057)
(0 2.75347e-07 -0.00100051)
(0 2.45617e-07 -0.00100046)
(0 2.19231e-07 -0.00100041)
(0 1.95811e-07 -0.00100036)
(0 1.75024e-07 -0.00100032)
(0 1.56574e-07 -0.00100029)
(0 1.40203e-07 -0.00100025)
(0 1.25681e-07 -0.00100023)
(0 1.12806e-07 -0.0010002)
(0 1.01398e-07 -0.00100018)
(0 9.13005e-08 -0.00100016)
(0 8.23726e-08 -0.00100014)
(0 7.44912e-08 -0.00100012)
(0 6.75477e-08 -0.00100011)
(0 6.14461e-08 -0.0010001)
(0 5.6102e-08 -0.00100008)
(0 5.14414e-08 -0.00100007)
(0 4.73999e-08 -0.00100006)
(0 4.39214e-08 -0.00100005)
(0 4.09583e-08 -0.00100005)
(0 3.84701e-08 -0.00100004)
(0 3.64233e-08 -0.00100003)
(0 3.4775e-08 -0.00100002)
(0 3.35752e-08 -0.00100002)
(0 3.29803e-08 -0.00100001)
(-6.38053e-10 0 -0.000999918)
(-8.23698e-10 0 -0.000999917)
(-1.1173e-09 0 -0.000999915)
(-1.49708e-09 0 -0.000999912)
(-1.93265e-09 0 -0.000999909)
(-2.40727e-09 0 -0.000999904)
(-2.91955e-09 0 -0.000999899)
(-3.47585e-09 0 -0.000999893)
(-4.086e-09 0 -0.000999885)
(-4.76203e-09 0 -0.000999877)
(-5.51795e-09 0 -0.000999867)
(-6.36992e-09 0 -0.000999856)
(-7.33642e-09 0 -0.000999844)
(-8.43858e-09 0 -0.00099983)
(-9.70046e-09 0 -0.000999814)
(-1.11494e-08 0 -0.000999797)
(-1.28166e-08 0 -0.000999777)
(-1.47374e-08 0 -0.000999756)
(-1.69522e-08 0 -0.000999732)
(-1.9507e-08 0 -0.000999705)
(-2.24544e-08 0 -0.000999676)
(-2.58548e-08 0 -0.000999644)
(-2.97772e-08 0 -0.000999608)
(-3.43011e-08 0 -0.000999569)
(-3.9518e-08 0 -0.000999525)
(-4.55333e-08 0 -0.000999477)
(-5.24688e-08 0 -0.000999425)
(-6.04647e-08 0 -0.000999367)
(-6.96834e-08 0 -0.000999303)
(-8.03119e-08 0 -0.000999233)
(-9.25662e-08 0 -0.000999157)
(-1.06696e-07 0 -0.000999073)
(-1.22988e-07 0 -0.000998981)
(-1.41775e-07 0 -0.00099888)
(-1.6344e-07 0 -0.000998769)
(-1.88423e-07 0 -0.000998648)
(-2.17233e-07 0 -0.000998515)
(-2.50457e-07 0 -0.00099837)
(-2.88769e-07 0 -0.000998211)
(-3.32947e-07 0 -0.000998038)
(-3.83889e-07 0 -0.000997849)
(-4.42626e-07 0 -0.000997644)
(-5.10348e-07 0 -0.000997419)
(-5.88427e-07 0 -0.000997175)
(-6.78443e-07 0 -0.00099691)
(-7.82219e-07 0 -0.000996622)
(-9.01852e-07 0 -0.000996309)
(-1.03976e-06 0 -0.000995971)
(-1.19873e-06 0 -0.000995606)
(-1.38198e-06 0 -0.000995211)
(-1.59319e-06 0 -0.000994786)
(-1.83664e-06 0 -0.000994328)
(-2.11723e-06 0 -0.000993837)
(-2.44062e-06 0 -0.000993311)
(-2.81332e-06 0 -0.000992749)
(-3.24282e-06 0 -0.000992151)
(-3.73777e-06 0 -0.000991514)
(-4.30812e-06 0 -0.000990841)
(-4.96532e-06 0 -0.000990131)
(-5.72255e-06 0 -0.000989385)
(-6.59501e-06 0 -0.000988606)
(-7.6002e-06 0 -0.000987798)
(-8.75825e-06 0 -0.000986964)
(-1.00924e-05 0 -0.000986113)
(-1.16293e-05 0 -0.000985252)
(-1.34e-05 0 -0.000984393)
(-1.54398e-05 0 -0.000983552)
(-1.77898e-05 0 -0.000982747)
(-2.04972e-05 0 -0.000982003)
(-2.36168e-05 0 -0.00098135)
(-2.72115e-05 0 -0.000980825)
(-3.13533e-05 0 -0.000980465)
(-3.61231e-05 0 -0.000980283)
(-4.16018e-05 0 -0.000980314)
(-4.78343e-05 0 -0.000981076)
(-5.46875e-05 0 -0.00098426)
(-6.12188e-05 0 -0.000989314)
(-6.51707e-05 0 -0.000977989)
(-6.04567e-05 0 -0.000913798)
(-3.87358e-05 0 -0.0008729)
(-3.33505e-06 0 -0.00275808)
(-3.52242e-06 0 -2.48806e-05)
(1.5289e-05 0 -0.00361667)
(-9.91887e-06 0 -8.89809e-05)
(-0.000124827 0 -0.0039071)
(-2.79804e-05 0 -0.00413241)
(-2.30681e-05 0 -0.000363887)
(-0.000351844 0 -0.00378189)
(-0.000407843 0 -0.00380283)
(-4.35581e-05 0 -0.000248442)
(-0.000223421 0 -0.00308878)
(0.000219953 0 -0.00384382)
(3.55688e-05 0 -0.000510021)
(-0.000203022 0 -0.00468906)
(-0.000120853 0 -0.0034838)
(-7.90045e-06 0 -0.000204033)
(-9.99166e-05 0 -0.00555455)
(1.09866e-05 0 -4.57742e-05)
(-0.000338898 0 -0.00562352)
(-5.91004e-05 0 -0.00140541)
(0.000461802 0 -0.00494937)
(1.17835e-05 0 -0.000345591)
(2.07075e-05 0 -0.00406373)
(6.63241e-05 0 -0.00142784)
(0.000113847 0 -0.00138711)
(0.000134275 0 -0.00127852)
(0.000131187 0 -0.00120606)
(0.000118835 0 -0.00117538)
(0.00010491 0 -0.00115674)
(9.19695e-05 0 -0.00113871)
(8.05175e-05 0 -0.00112176)
(7.04914e-05 0 -0.00110681)
(6.1728e-05 0 -0.0010938)
(5.40684e-05 0 -0.00108243)
(4.73725e-05 0 -0.00107246)
(4.1518e-05 0 -0.00106373)
(3.63979e-05 0 -0.00105606)
(3.1919e-05 0 -0.00104934)
(2.8e-05 0 -0.00104345)
(2.457e-05 0 -0.00103827)
(2.15672e-05 0 -0.00103373)
(1.89377e-05 0 -0.00102973)
(1.66343e-05 0 -0.00102623)
(1.46161e-05 0 -0.00102314)
(1.28473e-05 0 -0.00102043)
(1.12965e-05 0 -0.00101804)
(9.93646e-06 0 -0.00101594)
(8.74332e-06 0 -0.00101408)
(7.69627e-06 0 -0.00101245)
(6.77712e-06 0 -0.00101102)
(5.96997e-06 0 -0.00100975)
(5.26092e-06 0 -0.00100863)
(4.63784e-06 0 -0.00100764)
(4.0901e-06 0 -0.00100677)
(3.60841e-06 0 -0.001006)
(3.18465e-06 0 -0.00100532)
(2.8117e-06 0 -0.00100472)
(2.48335e-06 0 -0.00100419)
(2.19416e-06 0 -0.00100372)
(1.93931e-06 0 -0.0010033)
(1.71457e-06 0 -0.00100293)
(1.51628e-06 0 -0.0010026)
(1.3413e-06 0 -0.00100231)
(1.18686e-06 0 -0.00100206)
(1.05051e-06 0 -0.00100183)
(9.30083e-07 0 -0.00100163)
(8.23699e-07 0 -0.00100145)
(7.29708e-07 0 -0.00100129)
(6.46648e-07 0 -0.00100115)
(5.73234e-07 0 -0.00100102)
(5.08328e-07 0 -0.00100091)
(4.50933e-07 0 -0.00100081)
(4.00169e-07 0 -0.00100072)
(3.55259e-07 0 -0.00100064)
(3.15521e-07 0 -0.00100057)
(2.80355e-07 0 -0.00100051)
(2.4923e-07 0 -0.00100046)
(2.2168e-07 0 -0.00100041)
(1.97294e-07 0 -0.00100036)
(1.75709e-07 0 -0.00100032)
(1.56606e-07 0 -0.00100029)
(1.39704e-07 0 -0.00100025)
(1.24754e-07 0 -0.00100023)
(1.11537e-07 0 -0.0010002)
(9.98617e-08 0 -0.00100018)
(8.95565e-08 0 -0.00100016)
(8.04719e-08 0 -0.00100014)
(7.24759e-08 0 -0.00100012)
(6.54523e-08 0 -0.00100011)
(5.92989e-08 0 -0.0010001)
(5.39262e-08 0 -0.00100008)
(4.92557e-08 0 -0.00100007)
(4.52195e-08 0 -0.00100006)
(4.17586e-08 0 -0.00100005)
(3.88232e-08 0 -0.00100005)
(3.63713e-08 0 -0.00100004)
(3.43693e-08 0 -0.00100003)
(3.27757e-08 0 -0.00100002)
(3.16349e-08 0 -0.00100002)
(3.10665e-08 0 -0.00100001)
)
;
    }
    procBoundary3to1
    {
        type            processor;
        value           nonuniform List<vector> 
180
(
(3.98029e-11 9.87042e-09 -0.00100008)
(3.11337e-10 1.44083e-08 -0.00100008)
(6.55532e-10 2.13659e-08 -0.00100008)
(9.96633e-10 2.94413e-08 -0.00100009)
(1.33486e-09 3.81104e-08 -0.00100009)
(1.68446e-09 4.72538e-08 -0.0010001)
(2.05728e-09 5.69051e-08 -0.0010001)
(2.46279e-09 6.71472e-08 -0.00100011)
(2.91028e-09 7.80798e-08 -0.00100012)
(3.41006e-09 8.98116e-08 -0.00100012)
(3.97403e-09 1.02459e-07 -0.00100013)
(4.61591e-09 1.16147e-07 -0.00100015)
(5.35149e-09 1.31009e-07 -0.00100016)
(6.19884e-09 1.47192e-07 -0.00100017)
(7.17861e-09 1.64852e-07 -0.00100019)
(8.31438e-09 1.84161e-07 -0.00100021)
(9.63306e-09 2.05306e-07 -0.00100023)
(1.11654e-08 2.28491e-07 -0.00100025)
(1.29469e-08 2.53939e-07 -0.00100027)
(1.50178e-08 2.81893e-07 -0.0010003)
(1.74249e-08 3.12622e-07 -0.00100033)
(2.02219e-08 3.46417e-07 -0.00100036)
(2.34706e-08 3.83599e-07 -0.0010004)
(2.72426e-08 4.24518e-07 -0.00100044)
(3.16207e-08 4.69559e-07 -0.00100049)
(3.6701e-08 5.19141e-07 -0.00100053)
(4.25947e-08 5.73723e-07 -0.00100059)
(4.94311e-08 6.33809e-07 -0.00100065)
(5.736e-08 6.99946e-07 -0.00100071)
(6.65554e-08 7.72735e-07 -0.00100079)
(7.72188e-08 8.52829e-07 -0.00100086)
(8.95841e-08 9.40943e-07 -0.00100095)
(1.03922e-07 1.03785e-06 -0.00100105)
(1.20546e-07 1.14441e-06 -0.00100115)
(1.3982e-07 1.26154e-06 -0.00100127)
(1.62163e-07 1.39024e-06 -0.00100139)
(1.88061e-07 1.53161e-06 -0.00100153)
(2.18077e-07 1.68682e-06 -0.00100168)
(2.5286e-07 1.85718e-06 -0.00100184)
(2.93161e-07 2.04406e-06 -0.00100202)
(3.39848e-07 2.24899e-06 -0.00100221)
(3.93925e-07 2.47357e-06 -0.00100242)
(4.56552e-07 2.71958e-06 -0.00100265)
(5.29068e-07 2.98889e-06 -0.00100291)
(6.13025e-07 3.28354e-06 -0.00100318)
(7.10214e-07 3.60569e-06 -0.00100347)
(8.22705e-07 3.95767e-06 -0.00100379)
(9.5289e-07 4.34196e-06 -0.00100414)
(1.10353e-06 4.76118e-06 -0.00100451)
(1.27783e-06 5.21812e-06 -0.00100491)
(1.47946e-06 5.71573e-06 -0.00100535)
(1.7127e-06 6.25711e-06 -0.00100581)
(1.98246e-06 6.84548e-06 -0.00100631)
(2.29442e-06 7.48421e-06 -0.00100685)
(2.65514e-06 8.17678e-06 -0.00100742)
(3.0722e-06 8.92674e-06 -0.00100802)
(3.55433e-06 9.73771e-06 -0.00100866)
(4.11163e-06 1.06133e-05 -0.00100934)
(4.75574e-06 1.15571e-05 -0.00101005)
(5.50009e-06 1.25726e-05 -0.0010108)
(6.36019e-06 1.36629e-05 -0.00101157)
(7.35393e-06 1.48312e-05 -0.00101238)
(8.50196e-06 1.60798e-05 -0.0010132)
(9.82809e-06 1.74106e-05 -0.00101403)
(1.13598e-05 1.88246e-05 -0.00101486)
(1.31289e-05 2.0322e-05 -0.00101568)
(1.5172e-05 2.19011e-05 -0.00101647)
(1.75314e-05 2.3559e-05 -0.0010172)
(2.0256e-05 2.529e-05 -0.00101786)
(2.34023e-05 2.70861e-05 -0.0010184)
(2.70355e-05 2.89355e-05 -0.0010188)
(3.12306e-05 3.08227e-05 -0.00101899)
(3.60733e-05 3.27259e-05 -0.00101887)
(4.1655e-05 3.46118e-05 -0.00101828)
(4.80468e-05 3.64158e-05 -0.00101749)
(5.52037e-05 3.79875e-05 -0.00101804)
(6.25491e-05 3.89541e-05 -0.0010204)
(6.84731e-05 3.85865e-05 -0.00100705)
(6.83656e-05 3.55584e-05 -0.000941222)
(5.47443e-05 2.85449e-05 -0.000836118)
(7.93445e-06 2.95932e-06 -0.00309796)
(-5.61683e-06 -1.01306e-06 2.69921e-05)
(-0.000185579 0.000302913 -0.00373687)
(-7.82476e-05 0.000118049 -0.00278708)
(-4.33267e-05 -1.97384e-05 -0.000977793)
(-0.000273496 5.07995e-05 -0.00532345)
(-4.29915e-05 -1.05541e-05 -0.000379294)
(-0.000915334 -0.000375479 -0.0051073)
(1.13988e-05 -4.32197e-06 -4.66079e-05)
(0.000712126 -0.000907708 -0.00452372)
(3.56152e-05 -5.94056e-05 -8.95689e-05)
(0.000467084 -0.000461465 -0.00424701)
(0.000154093 -0.000263343 -0.00148094)
(0.000319758 -0.000607736 -0.00455596)
(3.5298e-06 -4.19385e-05 -0.000713753)
(0.000109366 -0.00029898 -0.00285084)
(0.000399978 -0.000576461 -0.00252023)
(-1.60613e-05 -6.39283e-06 -6.63535e-05)
(-1.69379e-05 -0.000109522 -0.00456669)
(-5.08454e-05 -3.80747e-06 -0.000843278)
(-0.000203494 0.000192503 -0.00247481)
(-0.000143077 0.000175752 -0.00131131)
(-0.000178082 -9.91677e-06 -0.00124889)
(-0.000112755 1.61318e-05 -0.00103466)
(-5.9173e-05 6.63521e-05 -0.000943993)
(-7.51687e-05 0.000104309 -0.000878115)
(-7.80427e-05 0.000115043 -0.000849084)
(-7.06921e-05 0.000109478 -0.000862797)
(-6.10413e-05 9.84309e-05 -0.000884021)
(-5.20862e-05 8.67657e-05 -0.000900851)
(-4.4305e-05 7.6031e-05 -0.000914277)
(-3.76205e-05 6.65337e-05 -0.000925785)
(-3.18976e-05 5.82196e-05 -0.000935814)
(-2.7007e-05 5.09584e-05 -0.00094451)
(-2.28323e-05 4.46185e-05 -0.000952026)
(-1.92713e-05 3.90817e-05 -0.000958522)
(-1.62364e-05 3.42448e-05 -0.000964137)
(-1.36522e-05 3.00178e-05 -0.000968993)
(-1.14539e-05 2.63225e-05 -0.000973191)
(-9.5859e-06 2.30908e-05 -0.00097682)
(-8.00048e-06 2.02637e-05 -0.000979959)
(-6.65662e-06 1.77896e-05 -0.000982673)
(-5.51915e-06 1.56236e-05 -0.00098502)
(-4.55789e-06 1.37268e-05 -0.000987049)
(-3.74698e-06 1.2065e-05 -0.000988805)
(-3.06425e-06 1.06087e-05 -0.000990324)
(-2.49076e-06 9.33193e-06 -0.000991637)
(-2.01023e-06 8.21229e-06 -0.000992774)
(-1.60868e-06 7.23005e-06 -0.000993756)
(-1.27407e-06 6.368e-06 -0.000994604)
(-9.96123e-07 5.61112e-06 -0.000995337)
(-7.6609e-07 4.94632e-06 -0.000995971)
(-5.7653e-07 4.36218e-06 -0.000996519)
(-4.21161e-07 3.84874e-06 -0.000996993)
(-2.94626e-07 3.39732e-06 -0.000997404)
(-1.92263e-07 3.00026e-06 -0.000997758)
(-1.10057e-07 2.65086e-06 -0.000998063)
(-4.45768e-08 2.34321e-06 -0.000998325)
(7.15878e-09 2.07214e-06 -0.000998551)
(4.75465e-08 1.8332e-06 -0.000998746)
(7.8486e-08 1.62256e-06 -0.000998916)
(1.01627e-07 1.4368e-06 -0.000999063)
(1.18361e-07 1.27292e-06 -0.00099919)
(1.29852e-07 1.12828e-06 -0.0009993)
(1.37109e-07 1.00054e-06 -0.000999394)
(1.40974e-07 8.87692e-07 -0.000999475)
(1.42135e-07 7.87941e-07 -0.000999546)
(1.4116e-07 6.99728e-07 -0.000999606)
(1.38526e-07 6.21683e-07 -0.000999659)
(1.3463e-07 5.52602e-07 -0.000999704)
(1.29802e-07 4.91429e-07 -0.000999743)
(1.24311e-07 4.37234e-07 -0.000999777)
(1.18378e-07 3.89203e-07 -0.000999806)
(1.1218e-07 3.4662e-07 -0.000999831)
(1.0586e-07 3.08853e-07 -0.000999853)
(9.95322e-08 2.75348e-07 -0.000999871)
(9.32851e-08 2.45617e-07 -0.000999888)
(8.71875e-08 2.19231e-07 -0.000999902)
(8.12914e-08 1.95812e-07 -0.000999914)
(7.56351e-08 1.75024e-07 -0.000999925)
(7.02455e-08 1.56575e-07 -0.000999934)
(6.5141e-08 1.40203e-07 -0.000999943)
(6.03325e-08 1.25681e-07 -0.00099995)
(5.58256e-08 1.12806e-07 -0.000999956)
(5.16213e-08 1.01399e-07 -0.000999962)
(4.77178e-08 9.13006e-08 -0.000999966)
(4.41105e-08 8.23726e-08 -0.000999971)
(4.07934e-08 7.44913e-08 -0.000999974)
(3.77592e-08 6.75478e-08 -0.000999978)
(3.50003e-08 6.14461e-08 -0.000999981)
(3.25088e-08 5.6102e-08 -0.000999983)
(3.02765e-08 5.14414e-08 -0.000999986)
(2.82958e-08 4.73999e-08 -0.000999988)
(2.65593e-08 4.39214e-08 -0.000999989)
(2.50594e-08 4.09583e-08 -0.000999991)
(2.37886e-08 3.84702e-08 -0.000999992)
(2.27372e-08 3.64234e-08 -0.000999994)
(2.19123e-08 3.4775e-08 -0.000999995)
(2.12673e-08 3.35753e-08 -0.000999996)
(2.08041e-08 3.29803e-08 -0.000999997)
)
;
    }
    procBoundary3to2
    {
        type            processor;
        value           nonuniform List<vector> 
180
(
(-6.38053e-10 1.05482e-08 -0.000999909)
(-8.23698e-10 1.55433e-08 -0.000999908)
(-1.1173e-09 2.31387e-08 -0.000999906)
(-1.49708e-09 3.19349e-08 -0.000999903)
(-1.93265e-09 4.13778e-08 -0.000999899)
(-2.40726e-09 5.13455e-08 -0.000999894)
(-2.91955e-09 6.18819e-08 -0.000999888)
(-3.47585e-09 7.30857e-08 -0.000999881)
(-4.086e-09 8.5076e-08 -0.000999872)
(-4.76203e-09 9.79836e-08 -0.000999862)
(-5.51795e-09 1.11951e-07 -0.000999851)
(-6.36991e-09 1.27132e-07 -0.000999838)
(-7.33642e-09 1.43697e-07 -0.000999823)
(-8.43858e-09 1.61829e-07 -0.000999806)
(-9.70045e-09 1.81731e-07 -0.000999786)
(-1.11494e-08 2.03624e-07 -0.000999765)
(-1.28166e-08 2.27755e-07 -0.000999741)
(-1.47374e-08 2.54393e-07 -0.000999714)
(-1.69522e-08 2.83837e-07 -0.000999683)
(-1.95069e-08 3.16417e-07 -0.000999649)
(-2.24544e-08 3.525e-07 -0.000999611)
(-2.58547e-08 3.92492e-07 -0.000999569)
(-2.97771e-08 4.36845e-07 -0.000999522)
(-3.4301e-08 4.8606e-07 -0.000999469)
(-3.95179e-08 5.40695e-07 -0.000999411)
(-4.55332e-08 6.01372e-07 -0.000999345)
(-5.24686e-08 6.68783e-07 -0.000999272)
(-6.04646e-08 7.437e-07 -0.000999191)
(-6.96832e-08 8.26984e-07 -0.000999101)
(-8.03116e-08 9.19595e-07 -0.000999)
(-9.25658e-08 1.02261e-06 -0.000998888)
(-1.06695e-07 1.13721e-06 -0.000998763)
(-1.22987e-07 1.26475e-06 -0.000998623)
(-1.41774e-07 1.40672e-06 -0.000998467)
(-1.63439e-07 1.56478e-06 -0.000998294)
(-1.88421e-07 1.7408e-06 -0.0009981)
(-2.17231e-07 1.93687e-06 -0.000997883)
(-2.50454e-07 2.15532e-06 -0.000997642)
(-2.88765e-07 2.39876e-06 -0.000997372)
(-3.32942e-07 2.67011e-06 -0.00099707)
(-3.83882e-07 2.97265e-06 -0.000996733)
(-4.42617e-07 3.31004e-06 -0.000996356)
(-5.10336e-07 3.68637e-06 -0.000995935)
(-5.88412e-07 4.10625e-06 -0.000995464)
(-6.78423e-07 4.57484e-06 -0.000994938)
(-7.82191e-07 5.09792e-06 -0.000994348)
(-9.01815e-07 5.68197e-06 -0.000993689)
(-1.03971e-06 6.33429e-06 -0.00099295)
(-1.19867e-06 7.06305e-06 -0.000992123)
(-1.38189e-06 7.87744e-06 -0.000991197)
(-1.59308e-06 8.78778e-06 -0.000990159)
(-1.83649e-06 9.8057e-06 -0.000988996)
(-2.11703e-06 1.09442e-05 -0.000987692)
(-2.44035e-06 1.22181e-05 -0.000986229)
(-2.81295e-06 1.36438e-05 -0.000984587)
(-3.24234e-06 1.52399e-05 -0.000982745)
(-3.73713e-06 1.70275e-05 -0.000980676)
(-4.30726e-06 1.90302e-05 -0.000978352)
(-4.96416e-06 2.12745e-05 -0.00097574)
(-5.72101e-06 2.37906e-05 -0.000972804)
(-6.59296e-06 2.66124e-05 -0.000969503)
(-7.59745e-06 2.9778e-05 -0.000965789)
(-8.75457e-06 3.33308e-05 -0.00096161)
(-1.00875e-05 3.73194e-05 -0.000956904)
(-1.16228e-05 4.1799e-05 -0.000951605)
(-1.33912e-05 4.68319e-05 -0.000945633)
(-1.5428e-05 5.24887e-05 -0.000938902)
(-1.77741e-05 5.88491e-05 -0.00093131)
(-2.04763e-05 6.60035e-05 -0.000922745)
(-2.35888e-05 7.40541e-05 -0.000913078)
(-2.71741e-05 8.31166e-05 -0.000902164)
(-3.13033e-05 9.33213e-05 -0.000889833)
(-3.60562e-05 0.000104811 -0.000875861)
(-4.1512e-05 0.000117721 -0.000859981)
(-4.77136e-05 0.000132094 -0.000842193)
(-5.45357e-05 0.000147585 -0.000823435)
(-6.12558e-05 0.00016258 -0.00080402)
(-6.54332e-05 0.000172119 -0.000772327)
(-6.11464e-05 0.000164419 -0.000705474)
(-3.94587e-05 0.000121652 -0.000626661)
(-3.6561e-06 1.41504e-05 -0.00202808)
(-9.14736e-06 7.45952e-06 4.14685e-05)
(5.04093e-06 0.00012399 -0.00301937)
(-9.20253e-06 9.58615e-06 -0.000124297)
(-0.000154941 -0.00010224 -0.00430982)
(-1.14984e-05 -3.9213e-06 -0.000147333)
(-0.0001414 -0.000256892 -0.0036126)
(-0.000230974 -0.000187517 -0.00126116)
(-0.000446722 0.000209169 -0.00286625)
(-2.11596e-05 4.26563e-05 -6.71916e-05)
(-8.17525e-05 4.52328e-05 -0.00539525)
(3.01908e-05 -1.30433e-05 -0.000885727)
(0.000116628 -0.000249897 -0.00236223)
(-0.000223053 -0.000151639 -0.00297636)
(-5.50273e-05 -3.02578e-05 4.08476e-05)
(-6.60951e-05 -0.000222512 -0.00337329)
(-2.4161e-05 -7.27705e-05 -0.000839965)
(-2.97572e-05 -0.000112071 -0.00182755)
(-0.000244042 4.07994e-06 -0.0027368)
(-2.65155e-05 -2.98218e-05 4.57844e-06)
(0.000142613 -0.000173677 -0.00309102)
(9.23241e-05 -0.000125862 -0.00101913)
(3.74125e-05 -0.000264668 -0.00120034)
(0.000124213 -0.000256162 -0.000891749)
(0.000126872 -0.000120698 -0.000780738)
(0.000140561 -0.00010295 -0.000831031)
(0.00013319 -9.10475e-05 -0.000831197)
(0.000119534 -7.86201e-05 -0.000849529)