/*--------------------------------*- C++ -*----------------------------------*\
| =========                 |                                                 |
| \\      /  F ield         | OpenFOAM: The Open Source CFD Toolbox           |
|  \\    /   O peration     | Version:  5.x                                   |
|   \\  /    A nd           | Web:      www.OpenFOAM.org                      |
|    \\/     M anipulation  |                                                 |
\*---------------------------------------------------------------------------*/
FoamFile
{
    version     2.0;
    format      ascii;
    class       volVectorField;
    location    "4000";
    object      U;
}
// * * * * * * * * * * * * * * * * * * * * * * * * * * * * * * * * * * * * * //

dimensions      [0 1 -1 0 0 0 0];

internalField   nonuniform List<vector> 
180
(
(-6.58692e-10 1.00638e-08 -0.000999912)
(-8.53593e-10 1.45785e-08 -0.000999911)
(-1.14786e-09 2.15499e-08 -0.000999909)
(-1.53179e-09 2.96634e-08 -0.000999906)
(-1.97404e-09 3.83846e-08 -0.000999903)
(-2.45951e-09 4.7584e-08 -0.000999898)
(-2.98664e-09 5.72915e-08 -0.000999893)
(-3.5614e-09 6.75893e-08 -0.000999887)
(-4.19299e-09 7.85775e-08 -0.000999879)
(-4.89258e-09 9.0366e-08 -0.000999871)
(-5.67305e-09 1.03073e-07 -0.000999861)
(-6.54917e-09 1.16823e-07 -0.00099985)
(-7.53784e-09 1.31755e-07 -0.000999837)
(-8.65846e-09 1.48014e-07 -0.000999823)
(-9.93325e-09 1.65761e-07 -0.000999807)
(-1.13877e-08 1.85169e-07 -0.00099979)
(-1.30512e-08 2.06425e-07 -0.00099977)
(-1.49573e-08 2.29737e-07 -0.000999748)
(-1.71449e-08 2.55328e-07 -0.000999724)
(-1.96584e-08 2.83444e-07 -0.000999697)
(-2.25491e-08 3.14351e-07 -0.000999668)
(-2.58762e-08 3.48344e-07 -0.000999635)
(-2.97076e-08 3.85743e-07 -0.000999599)
(-3.41218e-08 4.26898e-07 -0.000999559)
(-3.92092e-08 4.72192e-07 -0.000999515)
(-4.5074e-08 5.22044e-07 -0.000999467)
(-5.18364e-08 5.76913e-07 -0.000999414)
(-5.96351e-08 6.373e-07 -0.000999355)
(-6.863e-08 7.0375e-07 -0.000999291)
(-7.90052e-08 7.76863e-07 -0.000999221)
(-9.09733e-08 8.5729e-07 -0.000999143)
(-1.04779e-07 9.45742e-07 -0.000999058)
(-1.20705e-07 1.043e-06 -0.000998965)
(-1.39077e-07 1.14989e-06 -0.000998862)
(-1.60269e-07 1.26736e-06 -0.00099875)
(-1.84715e-07 1.39638e-06 -0.000998627)
(-2.12912e-07 1.53806e-06 -0.000998493)
(-2.45436e-07 1.69355e-06 -0.000998346)
(-2.82949e-07 1.86415e-06 -0.000998186)
(-3.26216e-07 2.05123e-06 -0.000998011)
(-3.76117e-07 2.25627e-06 -0.00099782)
(-4.33668e-07 2.48089e-06 -0.000997612)
(-5.0004e-07 2.72682e-06 -0.000997385)
(-5.76585e-07 2.9959e-06 -0.000997139)
(-6.64861e-07 3.29013e-06 -0.000996871)
(-7.66664e-07 3.61162e-06 -0.000996581)
(-8.84068e-07 3.96266e-06 -0.000996267)
(-1.01946e-06 4.34563e-06 -0.000995927)
(-1.1756e-06 4.7631e-06 -0.000995559)
(-1.35566e-06 5.21775e-06 -0.000995163)
(-1.56329e-06 5.71241e-06 -0.000994737)
(-1.80273e-06 6.25002e-06 -0.000994278)
(-2.07883e-06 6.83367e-06 -0.000993787)
(-2.3972e-06 7.46652e-06 -0.000993262)
(-2.76431e-06 8.1518e-06 -0.000992701)
(-3.18759e-06 8.89279e-06 -0.000992105)
(-3.67563e-06 9.69277e-06 -0.000991473)
(-4.23832e-06 1.0555e-05 -0.000990805)
(-4.88706e-06 1.14825e-05 -0.000990103)
(-5.63499e-06 1.24782e-05 -0.000989368)
(-6.49725e-06 1.35448e-05 -0.000988604)
(-7.49131e-06 1.46842e-05 -0.000987815)
(-8.63731e-06 1.58982e-05 -0.000987007)
(-9.95846e-06 1.71874e-05 -0.000986187)
(-1.14816e-05 1.85515e-05 -0.000985367)
(-1.32376e-05 1.99888e-05 -0.00098456)
(-1.52622e-05 2.14961e-05 -0.000983783)
(-1.75966e-05 2.30679e-05 -0.000983058)
(-2.02884e-05 2.46959e-05 -0.000982413)
(-2.33928e-05 2.63689e-05 -0.000981882)
(-2.69733e-05 2.80713e-05 -0.000981507)
(-3.11028e-05 2.97829e-05 -0.000981332)
(-3.58626e-05 3.14768e-05 -0.000981372)
(-4.13333e-05 3.31149e-05 -0.000981669)
(-4.75544e-05 3.46305e-05 -0.000982755)
(-5.43749e-05 3.58806e-05 -0.000986343)
(-6.08166e-05 3.65102e-05 -0.000991873)
(-6.45862e-05 3.58415e-05 -0.000980969)
(-5.96389e-05 3.24821e-05 -0.00091575)
(-3.79713e-05 2.45898e-05 -0.000864596)
(-1.29481e-06 -8.85846e-07 -0.00281086)
(1.40628e-05 1.03326e-05 -1.60247e-05)
(1.72819e-05 0.000487828 -0.00369671)
(1.58346e-05 2.37004e-05 -7.745e-05)
(-0.000122277 -7.2196e-05 -0.00388986)
(-2.55959e-05 5.21352e-05 -0.0040724)
(-2.63706e-07 3.02454e-05 -0.000351836)
(-0.000355727 -0.000216693 -0.00371802)
(-0.000416465 -0.000160904 -0.003764)
(-2.17829e-05 -2.91477e-05 -0.000223129)
(-0.000239913 -0.000706707 -0.00302901)
(0.000196547 -0.000304349 -0.00378881)
(-9.67706e-07 -4.97809e-05 -0.000482404)
(-0.000218362 -0.000716516 -0.00464675)
(-0.000127168 -0.000819704 -0.00347687)
(-1.14353e-05 -3.98089e-05 -0.000173645)
(-0.000126595 -0.000921775 -0.0051684)
(7.86531e-06 -2.00318e-05 -5.18143e-05)
(-0.000287529 -0.000311009 -0.00518821)
(-2.60428e-05 4.90842e-05 -0.00134263)
(0.000472472 0.000497741 -0.00497025)
(6.79218e-05 4.46646e-05 -0.00030999)
(2.0115e-05 9.66355e-05 -0.00407677)
(6.28013e-05 0.000139534 -0.00139134)
(0.000111867 9.8984e-05 -0.00138474)
(0.000134445 8.96087e-05 -0.00128012)
(0.000132224 0.000100795 -0.0012077)
(0.000120158 0.000102673 -0.00117708)
(0.000106276 9.54899e-05 -0.00115845)
(9.32838e-05 8.52765e-05 -0.00114039)
(8.17508e-05 7.50846e-05 -0.00112336)
(7.16355e-05 6.58447e-05 -0.00110831)
(6.27814e-05 5.76929e-05 -0.00109519)
(5.50327e-05 5.05507e-05 -0.00108371)
(4.82511e-05 4.43024e-05 -0.00107364)
(4.23151e-05 3.88369e-05 -0.0010648)
(3.71186e-05 3.40556e-05 -0.00105703)
(3.25685e-05 2.98719e-05 -0.00105022)
(2.85838e-05 2.62102e-05 -0.00104424)
(2.50935e-05 2.30048e-05 -0.00103898)
(2.20357e-05 2.01979e-05 -0.00103436)
(1.93561e-05 1.77395e-05 -0.0010303)
(1.70074e-05 1.55856e-05 -0.00102672)
(1.49484e-05 1.36981e-05 -0.00102358)
(1.31428e-05 1.20435e-05 -0.00102082)
(1.1559e-05 1.05926e-05 -0.00101839)
(1.01694e-05 9.32003e-06 -0.00101624)
(8.94986e-06 8.20354e-06 -0.00101436)
(7.87927e-06 7.22366e-06 -0.00101269)
(6.93915e-06 6.36337e-06 -0.00101123)
(6.11336e-06 5.6078e-06 -0.00100993)
(5.38776e-06 4.94397e-06 -0.00100879)
(4.74999e-06 4.36053e-06 -0.00100779)
(4.18924e-06 3.84758e-06 -0.0010069)
(3.69603e-06 3.39646e-06 -0.00100611)
(3.26209e-06 2.99956e-06 -0.00100542)
(2.88016e-06 2.65021e-06 -0.00100481)
(2.54388e-06 2.34255e-06 -0.00100426)
(2.24768e-06 2.07147e-06 -0.00100379)
(1.98668e-06 1.83244e-06 -0.00100336)
(1.75658e-06 1.62162e-06 -0.00100298)
(1.55359e-06 1.43565e-06 -0.00100265)
(1.37442e-06 1.27159e-06 -0.00100236)
(1.21622e-06 1.1268e-06 -0.00100209)
(1.07648e-06 9.98973e-07 -0.00100186)
(9.53043e-07 8.86074e-07 -0.00100166)
(8.43995e-07 7.86313e-07 -0.00100147)
(7.47642e-07 6.98122e-07 -0.00100131)
(6.62493e-07 6.20123e-07 -0.00100117)
(5.87233e-07 5.51109e-07 -0.00100104)
(5.207e-07 4.90017e-07 -0.00100093)
(4.61871e-07 4.35915e-07 -0.00100083)
(4.09844e-07 3.87983e-07 -0.00100074)
(3.63822e-07 3.45501e-07 -0.00100066)
(3.23106e-07 3.07834e-07 -0.00100059)
(2.87076e-07 2.74425e-07 -0.00100052)
(2.55188e-07 2.44785e-07 -0.00100047)
(2.26963e-07 2.18479e-07 -0.00100042)
(2.01976e-07 1.9513e-07 -0.00100037)
(1.79855e-07 1.74401e-07 -0.00100033)
(1.60273e-07 1.55998e-07 -0.00100029)
(1.42939e-07 1.3966e-07 -0.00100026)
(1.27599e-07 1.25159e-07 -0.00100023)
(1.14028e-07 1.12293e-07 -0.00100021)
(1.0203e-07 1.00883e-07 -0.00100019)
(9.14296e-08 9.07725e-08 -0.00100017)
(8.2075e-08 8.18231e-08 -0.00100015)
(7.38318e-08 7.39128e-08 -0.00100013)
(6.65819e-08 6.69342e-08 -0.00100011)
(6.0222e-08 6.07931e-08 -0.0010001)
(5.46616e-08 5.54065e-08 -0.00100009)
(4.98216e-08 5.0702e-08 -0.00100008)
(4.56336e-08 4.66162e-08 -0.00100007)
(4.20383e-08 4.30945e-08 -0.00100006)
(3.89853e-08 4.00901e-08 -0.00100005)
(3.64327e-08 3.75633e-08 -0.00100004)
(3.43459e-08 3.54806e-08 -0.00100003)
(3.26864e-08 3.38032e-08 -0.00100003)
(3.14958e-08 3.25796e-08 -0.00100002)
(3.08982e-08 3.19711e-08 -0.00100001)
)
;

boundaryField
{
    inlet
    {
        type            zeroGradient;
    }
    outlet
    {
        type            zeroGradient;
    }
    repeat_boundary
    {
        type            slip;
    }
    procBoundary3to1
    {
        type            processor;
        value           nonuniform List<vector> 
180
(
(7.30439e-11 1.00638e-08 -0.00100008)
(3.64678e-10 1.45785e-08 -0.00100008)
(7.23692e-10 2.155e-08 -0.00100008)
(1.08737e-09 2.96634e-08 -0.00100008)
(1.45235e-09 3.83846e-08 -0.00100009)
(1.83414e-09 4.75841e-08 -0.00100009)
(2.24511e-09 5.72916e-08 -0.0010001)
(2.69514e-09 6.75894e-08 -0.0010001)
(3.1936e-09 7.85776e-08 -0.00100011)
(3.7507e-09 9.03662e-08 -0.00100012)
(4.378e-09 1.03073e-07 -0.00100013)
(5.08878e-09 1.16824e-07 -0.00100014)
(5.89827e-09 1.31755e-07 -0.00100015)
(6.82404e-09 1.48015e-07 -0.00100017)
(7.88631e-09 1.65761e-07 -0.00100018)
(9.10841e-09 1.85169e-07 -0.0010002)
(1.05172e-08 2.06426e-07 -0.00100022)
(1.2144e-08 2.29738e-07 -0.00100024)
(1.40247e-08 2.55329e-07 -0.00100027)
(1.62012e-08 2.83444e-07 -0.0010003)
(1.87218e-08 3.14352e-07 -0.00100033)
(2.16426e-08 3.48346e-07 -0.00100036)
(2.50287e-08 3.85745e-07 -0.0010004)
(2.89552e-08 4.269e-07 -0.00100044)
(3.35092e-08 4.72194e-07 -0.00100048)
(3.87918e-08 5.22047e-07 -0.00100053)
(4.49201e-08 5.76917e-07 -0.00100058)
(5.20295e-08 6.37304e-07 -0.00100064)
(6.0277e-08 7.03755e-07 -0.00100071)
(6.98444e-08 7.76869e-07 -0.00100078)
(8.0942e-08 8.57297e-07 -0.00100086)
(9.38133e-08 9.45751e-07 -0.00100094)
(1.0874e-07 1.04301e-06 -0.00100104)
(1.26047e-07 1.14991e-06 -0.00100114)
(1.46112e-07 1.26737e-06 -0.00100125)
(1.69371e-07 1.3964e-06 -0.00100138)
(1.96326e-07 1.53808e-06 -0.00100151)
(2.27561e-07 1.69358e-06 -0.00100166)
(2.63749e-07 1.86419e-06 -0.00100182)
(3.05668e-07 2.05127e-06 -0.001002)
(3.5422e-07 2.25633e-06 -0.00100219)
(4.10444e-07 2.48096e-06 -0.00100239)
(4.75544e-07 2.72689e-06 -0.00100262)
(5.50912e-07 2.99599e-06 -0.00100287)
(6.38156e-07 3.29024e-06 -0.00100313)
(7.39137e-07 3.61176e-06 -0.00100342)
(8.56004e-07 3.96282e-06 -0.00100373)
(9.9124e-07 4.34583e-06 -0.00100407)
(1.14772e-06 4.76333e-06 -0.00100443)
(1.32875e-06 5.21803e-06 -0.00100482)
(1.53816e-06 5.71274e-06 -0.00100524)
(1.78039e-06 6.25043e-06 -0.00100569)
(2.06054e-06 6.83416e-06 -0.00100616)
(2.3845e-06 7.46709e-06 -0.00100667)
(2.7591e-06 8.15248e-06 -0.00100722)
(3.19219e-06 8.89361e-06 -0.00100779)
(3.69287e-06 9.69375e-06 -0.00100839)
(4.2716e-06 1.05561e-05 -0.00100902)
(4.94049e-06 1.14839e-05 -0.00100968)
(5.71351e-06 1.24799e-05 -0.00101036)
(6.60679e-06 1.35468e-05 -0.00101107)
(7.63895e-06 1.46866e-05 -0.00101178)
(8.83147e-06 1.5901e-05 -0.0010125)
(1.02092e-05 1.71908e-05 -0.00101321)
(1.18007e-05 1.85555e-05 -0.0010139)
(1.36393e-05 1.99937e-05 -0.00101456)
(1.5763e-05 2.1502e-05 -0.00101516)
(1.82161e-05 2.3075e-05 -0.00101567)
(2.10497e-05 2.47046e-05 -0.00101606)
(2.43229e-05 2.63794e-05 -0.0010163)
(2.81037e-05 2.80842e-05 -0.00101633)
(3.24709e-05 2.97989e-05 -0.00101609)
(3.75138e-05 3.14962e-05 -0.00101547)
(4.33275e-05 3.31363e-05 -0.0010143)
(4.99843e-05 3.46454e-05 -0.00101283)
(5.74309e-05 3.58589e-05 -0.00101262)
(6.50562e-05 3.63843e-05 -0.00101406)
(7.1221e-05 3.54739e-05 -0.000999489)
(7.1325e-05 3.17998e-05 -0.000929035)
(5.79428e-05 2.38178e-05 -0.000789482)
(9.912e-06 -4.918e-07 -0.00307904)
(-3.13226e-06 1.6817e-05 -2.40987e-06)
(-0.00019106 0.000298463 -0.00375012)
(-8.15419e-05 0.000108609 -0.0027102)
(-5.52015e-05 -1.75258e-05 -0.000926789)
(-0.000291118 4.91667e-05 -0.00529514)
(-7.72416e-05 4.74696e-06 -0.000345934)
(-0.000938148 -0.000414778 -0.00525784)
(-5.71518e-05 -4.85992e-06 -8.55582e-06)
(0.000678169 -0.000910594 -0.00475917)
(-3.13076e-05 -5.13519e-06 -8.9713e-05)
(0.000431287 -0.000445999 -0.00428541)
(0.0001387 -0.00025104 -0.00145128)
(0.000286197 -0.000599576 -0.00459998)
(1.96294e-05 -5.69337e-05 -0.000710856)
(5.96558e-05 -0.000287707 -0.00282946)
(0.000339664 -0.000565632 -0.00224419)
(2.13939e-07 5.61833e-06 -4.59166e-05)
(1.90833e-05 -0.000122255 -0.00399364)
(-3.62318e-05 -1.53874e-06 -0.000816758)
(-0.000185599 0.000182458 -0.00253797)
(-0.000127715 0.000166927 -0.00132683)
(-0.00016976 -1.3166e-05 -0.00126893)
(-0.000105715 1.51129e-05 -0.00105562)
(-5.18975e-05 6.35573e-05 -0.000959219)
(-6.73888e-05 0.000101112 -0.000890427)
(-7.13579e-05 0.000112615 -0.000858933)
(-6.52058e-05 0.00010781 -0.000870912)
(-5.64931e-05 9.7244e-05 -0.000890806)
(-4.82784e-05 8.58776e-05 -0.000906547)
(-4.1102e-05 7.53457e-05 -0.000919059)
(-3.49205e-05 6.59984e-05 -0.000929803)
(-2.96189e-05 5.78002e-05 -0.000939196)
(-2.50826e-05 5.06302e-05 -0.00094736)
(-2.12058e-05 4.43622e-05 -0.000954432)
(-1.78958e-05 3.88821e-05 -0.000960556)
(-1.50725e-05 3.40897e-05 -0.00096586)
(-1.26666e-05 2.98977e-05 -0.000970454)
(-1.06189e-05 2.62298e-05 -0.000974432)
(-8.87818e-06 2.30195e-05 -0.000977877)
(-7.40034e-06 2.02091e-05 -0.000980859)
(-6.14751e-06 1.7748e-05 -0.000983441)
(-5.08713e-06 1.55921e-05 -0.000985677)
(-4.19119e-06 1.3703e-05 -0.000987612)
(-3.43567e-06 1.20472e-05 -0.000989288)
(-2.79993e-06 1.05954e-05 -0.000990738)
(-2.26628e-06 9.32217e-06 -0.000991993)
(-1.81956e-06 8.20517e-06 -0.00099308)
(-1.44668e-06 7.2249e-06 -0.000994019)
(-1.13642e-06 6.36431e-06 -0.000994832)
(-8.79178e-07 5.60852e-06 -0.000995534)
(-6.66761e-07 4.94452e-06 -0.000996142)
(-4.9219e-07 4.36095e-06 -0.000996667)
(-3.49544e-07 3.8479e-06 -0.000997122)
(-2.33758e-07 3.39671e-06 -0.000997515)
(-1.40469e-07 2.99975e-06 -0.000997854)
(-6.5931e-08 2.65035e-06 -0.000998147)
(-6.95128e-09 2.34266e-06 -0.000998399)
(3.92133e-08 2.07155e-06 -0.000998615)
(7.49203e-08 1.83251e-06 -0.000998802)
(1.02018e-07 1.62167e-06 -0.000998964)
(1.21985e-07 1.43569e-06 -0.000999105)
(1.36059e-07 1.27161e-06 -0.000999228)
(1.45326e-07 1.12682e-06 -0.000999333)
(1.50724e-07 9.9899e-07 -0.000999425)
(1.52999e-07 8.86087e-07 -0.000999503)
(1.52788e-07 7.86323e-07 -0.000999571)
(1.50629e-07 6.98129e-07 -0.000999629)
(1.46969e-07 6.20129e-07 -0.00099968)
(1.42179e-07 5.51114e-07 -0.000999723)
(1.36567e-07 4.90021e-07 -0.000999761)
(1.30386e-07 4.35918e-07 -0.000999793)
(1.23842e-07 3.87986e-07 -0.000999821)
(1.17103e-07 3.45503e-07 -0.000999845)
(1.10303e-07 3.07835e-07 -0.000999866)
(1.03549e-07 2.74426e-07 -0.000999884)
(9.69236e-08 2.44785e-07 -0.0009999)
(9.04911e-08 2.1848e-07 -0.000999913)
(8.42999e-08 1.9513e-07 -0.000999925)
(7.83848e-08 1.74401e-07 -0.000999935)
(7.27701e-08 1.55998e-07 -0.000999944)
(6.74712e-08 1.3966e-07 -0.000999951)
(6.24968e-08 1.25159e-07 -0.000999958)
(5.78497e-08 1.12293e-07 -0.000999963)
(5.35287e-08 1.00883e-07 -0.000999968)
(4.95293e-08 9.07726e-08 -0.000999973)
(4.58445e-08 8.18231e-08 -0.000999976)
(4.2466e-08 7.39128e-08 -0.00099998)
(3.9384e-08 6.69343e-08 -0.000999982)
(3.65885e-08 6.07931e-08 -0.000999985)
(3.40694e-08 5.54065e-08 -0.000999987)
(3.18165e-08 5.0702e-08 -0.000999989)
(2.98203e-08 4.66162e-08 -0.00099999)
(2.80715e-08 4.30945e-08 -0.000999992)
(2.65611e-08 4.00901e-08 -0.000999993)
(2.52802e-08 3.75633e-08 -0.000999994)
(2.42187e-08 3.54806e-08 -0.000999995)
(2.33796e-08 3.38032e-08 -0.000999996)
(2.27223e-08 3.25797e-08 -0.000999997)
(2.22551e-08 3.19711e-08 -0.000999997)
)
;
    }
    procBoundary3to2
    {
        type            processor;
        value           nonuniform List<vector> 
180
(
(-6.58692e-10 1.07955e-08 -0.000999903)
(-8.53593e-10 1.57967e-08 -0.000999902)
(-1.14786e-09 2.34215e-08 -0.0009999)
(-1.53179e-09 3.22825e-08 -0.000999897)
(-1.97404e-09 4.1811e-08 -0.000999893)
(-2.45951e-09 5.18777e-08 -0.000999888)
(-2.98664e-09 6.25233e-08 -0.000999882)
(-3.5614e-09 7.38458e-08 -0.000999874)
(-4.19299e-09 8.59641e-08 -0.000999866)
(-4.89258e-09 9.90093e-08 -0.000999855)
(-5.67305e-09 1.13124e-07 -0.000999844)
(-6.54916e-09 1.28461e-07 -0.000999831)
(-7.53784e-09 1.45191e-07 -0.000999815)
(-8.65846e-09 1.63497e-07 -0.000999798)
(-9.93324e-09 1.83581e-07 -0.000999779)
(-1.13877e-08 2.05665e-07 -0.000999758)
(-1.30512e-08 2.29994e-07 -0.000999733)
(-1.49573e-08 2.56838e-07 -0.000999706)
(-1.71449e-08 2.86497e-07 -0.000999676)
(-1.96584e-08 3.19303e-07 -0.000999642)
(-2.25491e-08 3.55622e-07 -0.000999604)
(-2.58762e-08 3.95863e-07 -0.000999562)
(-2.97076e-08 4.40479e-07 -0.000999515)
(-3.41218e-08 4.89975e-07 -0.000999462)
(-3.92091e-08 5.4491e-07 -0.000999404)
(-4.50739e-08 6.0591e-07 -0.000999338)
(-5.18363e-08 6.73669e-07 -0.000999265)
(-5.96349e-08 7.48963e-07 -0.000999184)
(-6.86297e-08 8.32656e-07 -0.000999094)
(-7.90049e-08 9.25711e-07 -0.000998993)
(-9.09729e-08 1.0292e-06 -0.00099888)
(-1.04779e-07 1.14433e-06 -0.000998755)
(-1.20705e-07 1.27244e-06 -0.000998615)
(-1.39076e-07 1.41501e-06 -0.000998459)
(-1.60268e-07 1.57373e-06 -0.000998285)
(-1.84713e-07 1.75046e-06 -0.000998091)
(-2.1291e-07 1.94729e-06 -0.000997874)
(-2.45433e-07 2.16654e-06 -0.000997633)
(-2.82945e-07 2.41084e-06 -0.000997363)
(-3.26211e-07 2.6831e-06 -0.000997061)
(-3.7611e-07 2.98659e-06 -0.000996725)
(-4.33659e-07 3.32498e-06 -0.000996349)
(-5.00028e-07 3.70236e-06 -0.000995929)
(-5.76569e-07 4.12335e-06 -0.00099546)
(-6.64839e-07 4.59308e-06 -0.000994935)
(-7.66636e-07 5.11734e-06 -0.000994348)
(-8.8403e-07 5.70262e-06 -0.000993692)
(-1.01941e-06 6.3562e-06 -0.000992958)
(-1.17553e-06 7.08624e-06 -0.000992135)
(-1.35557e-06 7.90193e-06 -0.000991215)
(-1.56317e-06 8.81357e-06 -0.000990184)
(-1.80257e-06 9.83277e-06 -0.000989029)
(-2.07862e-06 1.09726e-05 -0.000987734)
(-2.39692e-06 1.22476e-05 -0.000986282)
(-2.76393e-06 1.36744e-05 -0.000984653)
(-3.18709e-06 1.52715e-05 -0.000982826)
(-3.67496e-06 1.70599e-05 -0.000980774)
(-4.23742e-06 1.90631e-05 -0.000978471)
(-4.88586e-06 2.13077e-05 -0.000975883)
(-5.63339e-06 2.38237e-05 -0.000972974)
(-6.49512e-06 2.66448e-05 -0.000969705)
(-7.48846e-06 2.98093e-05 -0.000966028)
(-8.6335e-06 3.33603e-05 -0.00096189)
(-9.95337e-06 3.73463e-05 -0.000957233)
(-1.14748e-05 4.18225e-05 -0.000951988)
(-1.32285e-05 4.68509e-05 -0.000946079)
(-1.525e-05 5.25021e-05 -0.000939419)
(-1.75803e-05 5.88556e-05 -0.000931909)
(-2.02667e-05 6.60016e-05 -0.000923435)
(-2.33638e-05 7.40422e-05 -0.000913872)
(-2.69346e-05 8.3093e-05 -0.000903074)
(-3.10511e-05 9.32842e-05 -0.000890873)
(-3.57935e-05 0.000104757 -0.000877045)
(-4.12404e-05 0.000117644 -0.000861325)
(-4.74302e-05 0.000131974 -0.000843719)
(-5.42214e-05 0.000147363 -0.000825175)
(-6.08562e-05 0.000162115 -0.000805977)
(-6.48522e-05 0.000171172 -0.000774362)
(-6.03202e-05 0.000162805 -0.000705196)
(-3.8698e-05 0.00011948 -0.000607979)
(-1.75446e-06 1.28189e-05 -0.00204403)
(1.18913e-05 1.07849e-05 -2.21917e-06)
(8.70807e-06 0.00011199 -0.0031322)
(1.84958e-05 1.66726e-05 -0.000109989)
(-0.000150993 -0.000104502 -0.00425831)
(2.92185e-05 1.57788e-05 -0.000127911)
(-0.000140183 -0.000255322 -0.00360243)
(-0.000219361 -0.000178335 -0.00121955)
(-0.000462816 0.000213982 -0.00288957)
(9.51244e-06 2.78309e-05 -5.18077e-05)
(-9.32726e-05 6.40066e-05 -0.00540683)
(5.67674e-06 -6.35496e-06 -0.000844766)
(8.81098e-05 -0.0002266 -0.00229613)
(-0.000253707 -0.000170818 -0.00297438)
(-2.99951e-05 6.64191e-06 8.40277e-07)
(-8.98535e-05 -0.000250492 -0.00336755)
(-4.05639e-05 -4.27204e-05 -0.000784644)
(-1.35736e-05 -0.000111213 -0.00177636)
(-0.000194309 -1.55473e-05 -0.00252209)
(2.43685e-05 -1.05131e-05 -7.77326e-05)
(0.000163755 -0.00014743 -0.00286361)
(0.000106988 -8.65828e-05 -0.000987867)
(3.61744e-05 -0.00025278 -0.00120578)
(0.00012256 -0.000250287 -0.000893964)
(0.000126657 -0.000115738 -0.000783005)
(0.000141127 -9.92074e-05 -0.00083269)
(0.00013436 -8.79687e-05 -0.000832193)
(0.000120908 -7.6124e-05 -0.000850005)
(0.000106649 -6.51675e-05 -0.000870389)
(9.35306e-05 -5.57272e-05 -0.000887871)
(8.19319e-05 -4.76395e-05 -0.000902562)
(7.17714e-05 -4.06839e-05 -0.00091527)
(6.28838e-05 -3.47013e-05 -0.000926358)
(5.51099e-05 -2.95626e-05 -0.000936014)
(4.83093e-05 -2.51535e-05 -0.00094441)
(4.2359e-05 -2.13733e-05 -0.000951709)
(3.71517e-05 -1.81348e-05 -0.000958054)
(3.25935e-05 -1.53628e-05 -0.000963569)
(2.86027e-05 -1.29921e-05 -0.000968362)
(2.51078e-05 -1.09666e-05 -0.000972527)
(2.20464e-05 -9.23782e-06 -0.000976147)
(1.93642e-05 -7.76391e-06 -0.000979291)
(1.70136e-05 -6.50879e-06 -0.000982023)
(1.49531e-05 -5.44138e-06 -0.000984395)
(1.31463e-05 -4.53488e-06 -0.000986456)
(1.15617e-05 -3.76624e-06 -0.000988246)
(1.01714e-05 -3.11558e-06 -0.0009898)
(8.9514e-06 -2.56583e-06 -0.000991149)
(7.88043e-06 -2.10225e-06 -0.00099232)
(6.94004e-06 -1.71218e-06 -0.000993337)
(6.11403e-06 -1.38472e-06 -0.00099422)
(5.38827e-06 -1.11053e-06 -0.000994986)
(4.75037e-06 -8.81635e-07 -0.00099565)
(4.18953e-06 -6.91186e-07 -0.000996227)
(3.69626e-06 -5.33319e-07 -0.000996728)
(3.26226e-06 -4.02991e-07 -0.000997162)
(2.88028e-06 -2.95875e-07 -0.000997538)
(2.54397e-06 -2.08271e-07 -0.000997865)
(2.24776e-06 -1.37002e-07 -0.000998147)
(1.98674e-06 -7.93168e-08 -0.000998392)
(1.75662e-06 -3.29353e-08 -0.000998603)
(1.55362e-06 4.05205e-09 -0.000998786)
(1.37444e-06 3.32288e-08 -0.000998944)
(1.21624e-06 5.59088e-08 -0.000999082)
(1.07649e-06 7.32185e-08 -0.000999202)
(9.53054e-07 8.60301e-08 -0.000999306)
(8.44003e-07 9.51071e-08 -0.000999398)
(7.47648e-07 1.0111e-07 -0.000999477)
(6.62498e-07 1.04599e-07 -0.000999547)
(5.87236e-07 1.06055e-07 -0.000999607)
(5.20703e-07 1.05884e-07 -0.00099966)
(4.61873e-07 1.0443e-07 -0.000999706)
(4.09845e-07 1.01982e-07 -0.000999745)
(3.63824e-07 9.87821e-08 -0.00099978)
(3.23107e-07 9.50319e-08 -0.00099981)
(2.87077e-07 9.08986e-08 -0.000999836)
(2.55189e-07 8.65198e-08 -0.000999858)
(2.26963e-07 8.20079e-08 -0.000999878)
(2.01976e-07 7.74537e-08 -0.000999895)
(1.79856e-07 7.29302e-08 -0.00099991)
(1.60273e-07 6.84949e-08 -0.000999922)
(1.42939e-07 6.41926e-08 -0.000999933)
(1.27599e-07 6.00574e-08 -0.000999943)
(1.14028e-07 5.61145e-08 -0.000999951)
(1.0203e-07 5.2382e-08 -0.000999958)
(9.14296e-08 4.88723e-08 -0.000999964)
(8.20751e-08 4.55926e-08 -0.000999969)
(7.38318e-08 4.2547e-08 -0.000999974)
(6.65819e-08 3.97363e-08 -0.000999978)
(6.0222e-08 3.71596e-08 -0.000999981)
(5.46616e-08 3.48143e-08 -0.000999984)
(4.98217e-08 3.26968e-08 -0.000999986)
(4.56336e-08 3.08029e-08 -0.000999989)
(4.20383e-08 2.91277e-08 -0.00099999)
(3.89853e-08 2.76658e-08 -0.000999992)
(3.64327e-08 2.64108e-08 -0.000999994)
(3.43459e-08 2.53534e-08 -0.000999995)
(3.26864e-08 2.44964e-08 -0.000999996)
(3.14958e-08 2.38062e-08 -0.000999997)
(3.08983e-08 2.3328e-08 -0.000999998)
)
;
    }
}


// ************************************************************************* //
