/*--------------------------------*- C++ -*----------------------------------*\
| =========                 |                                                 |
| \\      /  F ield         | OpenFOAM: The Open Source CFD Toolbox           |
|  \\    /   O peration     | Version:  5.x                                   |
|   \\  /    A nd           | Web:      www.OpenFOAM.org                      |
|    \\/     M anipulation  |                                                 |
\*---------------------------------------------------------------------------*/
FoamFile
{
    version     2.0;
    format      ascii;
    class       volScalarField;
    location    "900";
    object      p;
}
// * * * * * * * * * * * * * * * * * * * * * * * * * * * * * * * * * * * * * //

dimensions      [0 2 -2 0 0 0 0];

internalField   nonuniform List<scalar> 
90
(
-0.0339796
-0.0453602
-0.0507604
-0.0517776
-0.056533
-0.0619643
-0.0697844
-0.0788961
-0.0890657
-0.0999529
-0.112487
-0.126286
-0.140766
-0.155592
-0.170756
-0.187592
-0.2069
-0.228764
-0.252436
-0.27735
-0.304254
-0.332719
-0.362133
-0.391744
-0.421779
-0.452952
-0.484932
-0.517397
-0.549889
-0.58291
-0.617067
-0.651597
-0.68629
-0.722269
-0.760173
-0.799429
-0.839555
-0.880368
-0.921177
-0.961214
-1.0012
-1.04116
-1.08166
-1.12261
-1.16278
-1.20231
-1.24167
-1.28113
-1.32097
-1.3614
-1.40255
-1.44449
-1.4873
-1.53099
-1.57561
-1.62116
-1.66765
-1.7151
-1.7635
-1.81286
-1.86317
-1.91445
-1.96669
-2.0199
-2.07406
-2.12919
-2.18527
-2.24231
-2.30029
-2.35921
-2.41906
-2.47982
-2.54148
-2.60401
-2.66739
-2.73155
-2.79645
-2.86205
-2.92842
-2.99542
-3.06239
-3.12858
-3.19383
-3.25867
-3.32309
-3.38123
-3.42323
-3.46486
-3.5762
-3.77844
)
;

boundaryField
{
    inlet
    {
        type            zeroGradient;
    }
    outlet
    {
        type            fixedValue;
        value           uniform 0;
    }
    repeat_boundary
    {
        type            zeroGradient;
    }
    procBoundary2to0
    {
        type            processor;
        value           nonuniform List<scalar> 
90
(
-0.00986671
-0.0288728
-0.0450047
-0.05091
-0.0557154
-0.0613777
-0.0730007
-0.0960104
-0.101433
-0.0987807
-0.116683
-0.132529
-0.147247
-0.153087
-0.14694
-0.159852
-0.19338
-0.227045
-0.242845
-0.260166
-0.300667
-0.34437
-0.380427
-0.397149
-0.414887
-0.457815
-0.504324
-0.543878
-0.565894
-0.593697
-0.641421
-0.668359
-0.678874
-0.707679
-0.757982
-0.808623
-0.859519
-0.913399
-0.964539
-0.99965
-1.0339
-1.07016
-1.11234
-1.17235
-1.21246
-1.23782
-1.26719
-1.29814
-1.33166
-1.36724
-1.4047
-1.44374
-1.48425
-1.52608
-1.56915
-1.61338
-1.65873
-1.70516
-1.75264
-1.80115
-1.85068
-1.90122
-1.95276
-2.0053
-2.05884
-2.11338
-2.16893
-2.22548
-2.28306
-2.34167
-2.40131
-2.462
-2.52375
-2.58659
-2.65053
-2.71559
-2.7818
-2.84918
-2.91778
-2.98763
-3.05878
-3.13133
-3.2053
-3.28053
-3.35675
-3.43517
-3.51908
-3.60782
-3.68327
-3.70533
)
;
    }
    procBoundary2to3
    {
        type            processor;
        value           nonuniform List<scalar> 
90
(
0.00530017
-0.00695034
-0.0196455
-0.0345567
-0.0491058
-0.0642724
-0.0798144
-0.0959097
-0.112586
-0.129917
-0.147951
-0.166644
-0.185988
-0.206022
-0.226829
-0.24854
-0.271273
-0.295111
-0.320094
-0.346226
-0.373476
-0.401752
-0.43096
-0.461023
-0.491902
-0.523565
-0.55595
-0.589012
-0.622738
-0.657149
-0.692251
-0.728019
-0.764462
-0.801618
-0.839494
-0.878043
-0.917192
-0.956853
-0.99693
-1.03735
-1.07812
-1.11924
-1.16073
-1.20258
-1.24475
-1.28727
-1.33016
-1.37349
-1.41732
-1.46172
-1.50675
-1.55247
-1.59894
-1.64619
-1.69428
-1.74323
-1.79307
-1.84382
-1.8955
-1.94813
-2.00172
-2.05628
-2.11181
-2.16833
-2.22583
-2.28432
-2.3438
-2.40426
-2.4657
-2.52812
-2.59149
-2.65582
-2.72109
-2.78727
-2.85434
-2.92229
-2.99108
-3.06063
-3.13081
-3.2016
-3.27342
-3.34679
-3.42179
-3.49821
-3.57579
-3.65553
-3.74043
-3.83068
-3.91084
-3.93846
)
;
    }
}


// ************************************************************************* //
