/*--------------------------------*- C++ -*----------------------------------*\
| =========                 |                                                 |
| \\      /  F ield         | OpenFOAM: The Open Source CFD Toolbox           |
|  \\    /   O peration     | Version:  5.x                                   |
|   \\  /    A nd           | Web:      www.OpenFOAM.org                      |
|    \\/     M anipulation  |                                                 |
\*---------------------------------------------------------------------------*/
FoamFile
{
    version     2.0;
    format      ascii;
    class       volVectorField;
    location    "900";
    object      stored_U;
}
// * * * * * * * * * * * * * * * * * * * * * * * * * * * * * * * * * * * * * //

dimensions      [0 1 -1 0 0 0 0];

internalField   nonuniform List<vector> 
90
(
(0.0726532 -0.0720498 -6.9293)
(0.0747136 -0.0748732 -6.96583)
(0.0704585 -0.0761113 -6.99147)
(0.0691503 -0.0783547 -7.02182)
(0.0656264 -0.0799544 -7.04957)
(0.0628464 -0.0814696 -7.07885)
(0.0592697 -0.0825647 -7.10725)
(0.0557829 -0.0837303 -7.13594)
(0.051939 -0.0847725 -7.16428)
(0.0480322 -0.0856258 -7.19266)
(0.0439838 -0.086418 -7.22065)
(0.0398698 -0.0870946 -7.24831)
(0.0356495 -0.087932 -7.27557)
(0.0313791 -0.0887748 -7.30259)
(0.0270777 -0.089607 -7.32937)
(0.0227657 -0.0905559 -7.35598)
(0.0184687 -0.0914062 -7.38237)
(0.0142272 -0.0921345 -7.40847)
(0.0100409 -0.0928071 -7.43427)
(0.00590887 -0.0935104 -7.45973)
(0.00182484 -0.0942795 -7.48486)
(-0.00219726 -0.0948815 -7.50972)
(-0.00613225 -0.0955277 -7.5343)
(-0.00998427 -0.0964119 -7.55861)
(-0.0137758 -0.0972586 -7.58267)
(-0.0175021 -0.0982023 -7.60651)
(-0.0211617 -0.0992353 -7.63019)
(-0.0247439 -0.100224 -7.65378)
(-0.0282391 -0.101224 -7.67725)
(-0.0316617 -0.102195 -7.70056)
(-0.0350227 -0.103219 -7.72377)
(-0.0383237 -0.104416 -7.74686)
(-0.0415683 -0.105557 -7.76989)
(-0.0447597 -0.106598 -7.79279)
(-0.0479087 -0.107714 -7.81555)
(-0.0510356 -0.108964 -7.83824)
(-0.0541544 -0.110162 -7.86092)
(-0.0572616 -0.111532 -7.88364)
(-0.0603441 -0.112841 -7.90635)
(-0.0634103 -0.113908 -7.929)
(-0.0664902 -0.115167 -7.9516)
(-0.0695807 -0.116617 -7.97426)
(-0.07268 -0.117959 -7.99695)
(-0.0757989 -0.119179 -8.01963)
(-0.0789389 -0.120503 -8.04227)
(-0.0821147 -0.121903 -8.06491)
(-0.0853276 -0.123362 -8.08757)
(-0.088582 -0.124862 -8.11027)
(-0.0918813 -0.126404 -8.133)
(-0.0952278 -0.127981 -8.15579)
(-0.0986235 -0.129591 -8.17862)
(-0.10207 -0.131231 -8.20152)
(-0.10557 -0.132902 -8.22448)
(-0.109124 -0.134601 -8.2475)
(-0.112734 -0.136329 -8.27059)
(-0.116401 -0.138085 -8.29375)
(-0.120127 -0.139869 -8.31698)
(-0.123913 -0.141683 -8.34028)
(-0.12776 -0.143525 -8.36366)
(-0.131671 -0.145397 -8.3871)
(-0.135645 -0.147299 -8.41063)
(-0.139685 -0.149231 -8.43422)
(-0.143792 -0.151193 -8.4579)
(-0.147966 -0.153185 -8.48165)
(-0.15221 -0.155209 -8.50549)
(-0.156525 -0.157263 -8.5294)
(-0.160911 -0.159348 -8.55338)
(-0.16537 -0.161463 -8.57745)
(-0.169904 -0.163608 -8.6016)
(-0.174514 -0.165784 -8.62582)
(-0.1792 -0.167988 -8.65012)
(-0.183966 -0.17022 -8.6745)
(-0.188812 -0.172479 -8.69895)
(-0.193739 -0.174763 -8.72347)
(-0.198751 -0.177069 -8.74806)
(-0.203848 -0.179395 -8.77272)
(-0.209033 -0.181737 -8.79742)
(-0.21431 -0.18409 -8.82219)
(-0.21968 -0.186449 -8.847)
(-0.225144 -0.188809 -8.87185)
(-0.23071 -0.191161 -8.89668)
(-0.236411 -0.193492 -8.92154)
(-0.242275 -0.195775 -8.94638)
(-0.248328 -0.197988 -8.97126)
(-0.254596 -0.200114 -8.99627)
(-0.261068 -0.202153 -9.02077)
(-0.267941 -0.203972 -9.04384)
(-0.27549 -0.205213 -9.06645)
(-0.283613 -0.206036 -9.09595)
(-0.287695 -0.207071 -9.11867)
)
;

boundaryField
{
    inlet
    {
        type            calculated;
        value           uniform (-0.287695 -0.207071 -9.11867);
    }
    outlet
    {
        type            calculated;
        value           uniform (0.0726532 -0.0720498 -6.9293);
    }
    repeat_boundary
    {
        type            calculated;
        value           nonuniform List<vector> 
180
(
(0.0726532 0 -6.9293)
(0.0747136 0 -6.96583)
(0.0704585 0 -6.99147)
(0.0691503 0 -7.02182)
(0.0656264 0 -7.04957)
(0.0628464 0 -7.07885)
(0.0592697 0 -7.10725)
(0.0557829 0 -7.13594)
(0.051939 0 -7.16428)
(0.0480322 0 -7.19266)
(0.0439838 0 -7.22065)
(0.0398698 0 -7.24831)
(0.0356495 0 -7.27557)
(0.0313791 0 -7.30259)
(0.0270777 0 -7.32937)
(0.0227657 0 -7.35598)
(0.0184687 0 -7.38237)
(0.0142272 0 -7.40847)
(0.0100409 0 -7.43427)
(0.00590887 0 -7.45973)
(0.00182484 0 -7.48486)
(-0.00219726 0 -7.50972)
(-0.00613225 0 -7.5343)
(-0.00998427 0 -7.55861)
(-0.0137758 0 -7.58267)
(-0.0175021 0 -7.60651)
(-0.0211617 0 -7.63019)
(-0.0247439 0 -7.65378)
(-0.0282391 0 -7.67725)
(-0.0316617 0 -7.70056)
(-0.0350227 0 -7.72377)
(-0.0383237 0 -7.74686)
(-0.0415683 0 -7.76989)
(-0.0447597 0 -7.79279)
(-0.0479087 0 -7.81555)
(-0.0510356 0 -7.83824)
(-0.0541544 0 -7.86092)
(-0.0572616 0 -7.88364)
(-0.0603441 0 -7.90635)
(-0.0634103 0 -7.929)
(-0.0664902 0 -7.9516)
(-0.0695807 0 -7.97426)
(-0.07268 0 -7.99695)
(-0.0757989 0 -8.01963)
(-0.0789389 0 -8.04227)
(-0.0821147 0 -8.06491)
(-0.0853276 0 -8.08757)
(-0.088582 0 -8.11027)
(-0.0918813 0 -8.133)
(-0.0952278 0 -8.15579)
(-0.0986235 0 -8.17862)
(-0.10207 0 -8.20152)
(-0.10557 0 -8.22448)
(-0.109124 0 -8.2475)
(-0.112734 0 -8.27059)
(-0.116401 0 -8.29375)
(-0.120127 0 -8.31698)
(-0.123913 0 -8.34028)
(-0.12776 0 -8.36366)
(-0.131671 0 -8.3871)
(-0.135645 0 -8.41063)
(-0.139685 0 -8.43422)
(-0.143792 0 -8.4579)
(-0.147966 0 -8.48165)
(-0.15221 0 -8.50549)
(-0.156525 0 -8.5294)
(-0.160911 0 -8.55338)
(-0.16537 0 -8.57745)
(-0.169904 0 -8.6016)
(-0.174514 0 -8.62582)
(-0.1792 0 -8.65012)
(-0.183966 0 -8.6745)
(-0.188812 0 -8.69895)
(-0.193739 0 -8.72347)
(-0.198751 0 -8.74806)
(-0.203848 0 -8.77272)
(-0.209033 0 -8.79742)
(-0.21431 0 -8.82219)
(-0.21968 0 -8.847)
(-0.225144 0 -8.87185)
(-0.23071 0 -8.89668)
(-0.236411 0 -8.92154)
(-0.242275 0 -8.94638)
(-0.248328 0 -8.97126)
(-0.254596 0 -8.99627)
(-0.261068 0 -9.02077)
(-0.267941 0 -9.04384)
(-0.27549 0 -9.06645)
(-0.283613 0 -9.09595)
(-0.287695 0 -9.11867)
(0 -0.0720498 -6.9293)
(0 -0.0748732 -6.96583)
(0 -0.0761113 -6.99147)
(0 -0.0783547 -7.02182)
(0 -0.0799544 -7.04957)
(0 -0.0814696 -7.07885)
(0 -0.0825647 -7.10725)
(0 -0.0837303 -7.13594)
(0 -0.0847725 -7.16428)
(0 -0.0856258 -7.19266)
(0 -0.086418 -7.22065)
(0 -0.0870946 -7.24831)
(0 -0.087932 -7.27557)
(0 -0.0887748 -7.30259)
(0 -0.089607 -7.32937)
(0 -0.0905559 -7.35598)
(0 -0.0914062 -7.38237)
(0 -0.0921345 -7.40847)
(0 -0.0928071 -7.43427)
(0 -0.0935104 -7.45973)
(0 -0.0942795 -7.48486)
(0 -0.0948815 -7.50972)
(0 -0.0955277 -7.5343)
(0 -0.0964119 -7.55861)
(0 -0.0972586 -7.58267)
(0 -0.0982023 -7.60651)
(0 -0.0992353 -7.63019)
(0 -0.100224 -7.65378)
(0 -0.101224 -7.67725)
(0 -0.102195 -7.70056)
(0 -0.103219 -7.72377)
(0 -0.104416 -7.74686)
(0 -0.105557 -7.76989)
(0 -0.106598 -7.79279)
(0 -0.107714 -7.81555)
(0 -0.108964 -7.83824)
(0 -0.110162 -7.86092)
(0 -0.111532 -7.88364)
(0 -0.112841 -7.90635)
(0 -0.113908 -7.929)
(0 -0.115167 -7.9516)
(0 -0.116617 -7.97426)
(0 -0.117959 -7.99695)
(0 -0.119179 -8.01963)
(0 -0.120503 -8.04227)
(0 -0.121903 -8.06491)
(0 -0.123362 -8.08757)
(0 -0.124862 -8.11027)
(0 -0.126404 -8.133)
(0 -0.127981 -8.15579)
(0 -0.129591 -8.17862)
(0 -0.131231 -8.20152)
(0 -0.132902 -8.22448)
(0 -0.134601 -8.2475)
(0 -0.136329 -8.27059)
(0 -0.138085 -8.29375)
(0 -0.139869 -8.31698)
(0 -0.141683 -8.34028)
(0 -0.143525 -8.36366)
(0 -0.145397 -8.3871)
(0 -0.147299 -8.41063)
(0 -0.149231 -8.43422)
(0 -0.151193 -8.4579)
(0 -0.153185 -8.48165)
(0 -0.155209 -8.50549)
(0 -0.157263 -8.5294)
(0 -0.159348 -8.55338)
(0 -0.161463 -8.57745)
(0 -0.163608 -8.6016)
(0 -0.165784 -8.62582)
(0 -0.167988 -8.65012)
(0 -0.17022 -8.6745)
(0 -0.172479 -8.69895)
(0 -0.174763 -8.72347)
(0 -0.177069 -8.74806)
(0 -0.179395 -8.77272)
(0 -0.181737 -8.79742)
(0 -0.18409 -8.82219)
(0 -0.186449 -8.847)
(0 -0.188809 -8.87185)
(0 -0.191161 -8.89668)
(0 -0.193492 -8.92154)
(0 -0.195775 -8.94638)
(0 -0.197988 -8.97126)
(0 -0.200114 -8.99627)
(0 -0.202153 -9.02077)
(0 -0.203972 -9.04384)
(0 -0.205213 -9.06645)
(0 -0.206036 -9.09595)
(0 -0.207071 -9.11867)
)
;
    }
    procBoundary2to0
    {
        type            processor;
        value           nonuniform List<vector> 
90
(
(0.0442252 -0.0345627 -5.59082)
(0.0445948 -0.0354016 -5.5906)
(0.0441939 -0.0359756 -5.59248)
(0.0439613 -0.036847 -5.59243)
(0.0439552 -0.0373633 -5.5932)
(0.0443045 -0.0375858 -5.59296)
(0.0449308 -0.0374698 -5.58972)
(0.0443034 -0.0371439 -5.5937)
(0.0436275 -0.0377897 -5.59347)
(0.0433297 -0.0381547 -5.5933)
(0.0438142 -0.0378737 -5.5891)
(0.0434279 -0.0367672 -5.59141)
(0.0425495 -0.0363669 -5.59341)
(0.0416684 -0.0369692 -5.59219)
(0.0409256 -0.0375613 -5.59189)
(0.0398535 -0.0384827 -5.59152)
(0.0396468 -0.0386005 -5.59053)
(0.0394583 -0.0387098 -5.59051)
(0.0396763 -0.0385112 -5.58974)
(0.0405146 -0.0378601 -5.58604)
(0.0392508 -0.0381783 -5.58993)
(0.0393986 -0.0380703 -5.5843)
(0.038575 -0.0377943 -5.58841)
(0.0385252 -0.0379338 -5.58659)
(0.0390377 -0.0377876 -5.58288)
(0.0379427 -0.0380177 -5.58656)
(0.0374892 -0.0386631 -5.5817)
(0.0364442 -0.0390744 -5.58424)
(0.0362574 -0.0394619 -5.58268)
(0.036829 -0.0396141 -5.57868)
(0.0366469 -0.039829 -5.57936)
(0.0363867 -0.0403445 -5.57792)
(0.0364829 -0.0404312 -5.57737)
(0.0370032 -0.0402082 -5.57503)
(0.0373057 -0.0399166 -5.57475)
(0.0373219 -0.0397582 -5.57541)
(0.0371892 -0.0406883 -5.5712)
(0.0368422 -0.0407125 -5.57417)
(0.0372728 -0.0411737 -5.56843)
(0.0375652 -0.0408128 -5.56885)
(0.0371164 -0.0409831 -5.56983)
(0.0374489 -0.0411972 -5.56839)
(0.0386557 -0.0412484 -5.56397)
(0.0384475 -0.0412564 -5.56523)
(0.038557 -0.0413622 -5.56381)
(0.0384836 -0.0415551 -5.56311)
(0.0383911 -0.0418069 -5.56225)
(0.0382576 -0.0421003 -5.56147)
(0.0380931 -0.0424336 -5.56064)
(0.0379058 -0.0427955 -5.55979)
(0.0376995 -0.0431822 -5.5589)
(0.0374777 -0.0435896 -5.55796)
(0.0372429 -0.0440151 -5.55696)
(0.0369967 -0.0444568 -5.55589)
(0.0367405 -0.0449132 -5.55475)
(0.0364749 -0.0453834 -5.55353)
(0.0362004 -0.0458666 -5.55222)
(0.0359175 -0.0463623 -5.55082)
(0.0356262 -0.0468701 -5.54933)
(0.0353265 -0.0473897 -5.54775)
(0.0350185 -0.0479208 -5.54606)
(0.034702 -0.048463 -5.54427)
(0.0343769 -0.0490162 -5.54237)
(0.0340431 -0.0495797 -5.54036)
(0.0337006 -0.0501532 -5.53823)
(0.0333493 -0.0507359 -5.53597)
(0.0329894 -0.051327 -5.5336)
(0.0326207 -0.0519256 -5.53109)
(0.0322436 -0.0525303 -5.52845)
(0.0318583 -0.0531394 -5.52568)
(0.031465 -0.053751 -5.52276)
(0.0310644 -0.0543624 -5.51971)
(0.0306568 -0.0549707 -5.5165)
(0.0302431 -0.0555721 -5.51315)
(0.0298242 -0.0561617 -5.50964)
(0.0294009 -0.0567337 -5.50598)
(0.0289745 -0.0572804 -5.50217)
(0.0285463 -0.0577929 -5.4982)
(0.028118 -0.0582617 -5.49408)
(0.0276914 -0.0586761 -5.48982)
(0.027268 -0.0590182 -5.48542)
(0.026849 -0.0592551 -5.48088)
(0.0264363 -0.0593414 -5.47624)
(0.0260332 -0.0592339 -5.47146)
(0.0256445 -0.058894 -5.46649)
(0.0252726 -0.05832 -5.46155)
(0.0248808 -0.0572868 -5.45705)
(0.0244801 -0.0552156 -5.4533)
(0.0241447 -0.0522624 -5.44777)
(0.0240442 -0.0513073 -5.43968)
)
;
    }
    procBoundary2to3
    {
        type            processor;
        value           nonuniform List<vector> 
90
(
(0.0961345 -0.0156441 -5.14284)
(0.100253 -0.0149867 -5.12366)
(0.10103 -0.013424 -5.10937)
(0.10303 -0.0123374 -5.09326)
(0.104093 -0.0110226 -5.07787)
(0.105298 -0.00983611 -5.06205)
(0.106201 -0.00860388 -5.04631)
(0.107037 -0.00744655 -5.03052)
(0.107732 -0.0063116 -5.01479)
(0.108377 -0.00521775 -4.99914)
(0.108952 -0.00416597 -4.98359)
(0.109465 -0.00318402 -4.96815)
(0.109909 -0.00226879 -4.9529)
(0.11031 -0.0014024 -4.93784)
(0.110685 -0.000582521 -4.92301)
(0.111041 0.000184785 -4.90843)
(0.111414 0.000922078 -4.89411)
(0.111822 0.00163985 -4.88005)
(0.112268 0.00233249 -4.86623)
(0.112746 0.00298679 -4.85266)
(0.113237 0.00360061 -4.83931)
(0.113769 0.00419948 -4.82621)
(0.114342 0.00478304 -4.81333)
(0.114944 0.00533726 -4.80067)
(0.115575 0.00586077 -4.78824)
(0.116236 0.00636612 -4.77601)
(0.116926 0.00685917 -4.764)
(0.117662 0.00734796 -4.7522)
(0.118469 0.00784928 -4.74058)
(0.119355 0.00837018 -4.72913)
(0.12031 0.00890243 -4.71782)
(0.121322 0.00944375 -4.70664)
(0.122407 0.0100016 -4.69558)
(0.123559 0.0105747 -4.68462)
(0.124768 0.0111619 -4.67375)
(0.126025 0.0117544 -4.66296)
(0.127328 0.0123508 -4.65225)
(0.12869 0.0129651 -4.64163)
(0.130107 0.0135973 -4.63107)
(0.131588 0.0142527 -4.62056)
(0.133132 0.0149324 -4.61011)
(0.134729 0.0156278 -4.5997)
(0.136374 0.0163373 -4.58932)
(0.138073 0.017065 -4.57896)
(0.139813 0.0178072 -4.56862)
(0.141585 0.0185578 -4.55829)
(0.143387 0.0193169 -4.54797)
(0.145215 0.0200851 -4.53766)
(0.14707 0.0208622 -4.52737)
(0.148952 0.0216494 -4.5171)
(0.15086 0.0224474 -4.50684)
(0.152796 0.0232573 -4.49661)
(0.154761 0.0240799 -4.48641)
(0.156754 0.0249162 -4.47624)
(0.158777 0.025767 -4.4661)
(0.160829 0.0266331 -4.456)
(0.162912 0.0275153 -4.44594)
(0.165026 0.0284143 -4.43592)
(0.167171 0.0293311 -4.42595)
(0.169346 0.0302663 -4.41603)
(0.171553 0.031221 -4.40617)
(0.173792 0.032196 -4.39636)
(0.176061 0.0331924 -4.38661)
(0.178363 0.0342113 -4.37692)
(0.180696 0.0352541 -4.36731)
(0.18306 0.0363221 -4.35776)
(0.185456 0.0374169 -4.3483)
(0.187884 0.0385406 -4.33891)
(0.190343 0.039695 -4.32961)
(0.192833 0.0408828 -4.32039)
(0.195354 0.0421068 -4.31127)
(0.197906 0.04337 -4.30225)
(0.200487 0.0446765 -4.29333)
(0.203097 0.0460305 -4.28451)
(0.205735 0.0474371 -4.2758)
(0.208399 0.0489024 -4.2672)
(0.211084 0.0504333 -4.25873)
(0.213789 0.052038 -4.25036)
(0.216511 0.0537278 -4.24209)
(0.219252 0.055517 -4.23394)
(0.222002 0.0574182 -4.22599)
(0.224743 0.0594467 -4.21808)
(0.22741 0.0615975 -4.21029)
(0.229946 0.0638701 -4.20257)
(0.232297 0.0662614 -4.19482)
(0.234461 0.0687716 -4.18728)
(0.236177 0.071452 -4.18035)
(0.236677 0.0743182 -4.17463)
(0.236094 0.077262 -4.16756)
(0.236591 0.0788942 -4.15709)
)
;
    }
}


// ************************************************************************* //
