/*--------------------------------*- C++ -*----------------------------------*\
| =========                 |                                                 |
| \\      /  F ield         | OpenFOAM: The Open Source CFD Toolbox           |
|  \\    /   O peration     | Version:  5.x                                   |
|   \\  /    A nd           | Web:      www.OpenFOAM.org                      |
|    \\/     M anipulation  |                                                 |
\*---------------------------------------------------------------------------*/
FoamFile
{
    version     2.0;
    format      ascii;
    class       surfaceScalarField;
    location    "60000";
    object      phi;
}
// * * * * * * * * * * * * * * * * * * * * * * * * * * * * * * * * * * * * * //

dimensions      [0 3 -1 0 0 0 0];

internalField   nonuniform List<scalar> 
5825
(
-0.000135911
6.20672e-05
-1000
-0.000111962
5.9407e-05
-1000
-7.56452e-05
5.60313e-05
-1000
-3.47016e-05
5.76289e-05
-1000
6.17325e-05
-1000
-0.000143587
0.000114198
-1000
-0.000113409
0.00011856
-1000
-7.42296e-05
0.000118264
-1000
-3.16512e-05
0.00012391
-1000
0.000126455
-1000
-0.000133136
0.000174851
-1000
-0.000108836
0.000167603
-1000
-7.11141e-05
0.000159967
-1000
-2.78624e-05
0.000167031
-1000
0.000175052
-1000
-0.00016369
0.000262044
-1000
-0.000115766
0.000193384
-1000
-6.70834e-05
0.000177835
-1000
-1.81085e-05
0.000194542
-1000
0.000217984
-1000
-0.000230491
-999.999
-0.000113816
-999.999
-4.32523e-05
-1000
6.49163e-06
-1000
-1000
-0.000349737
0.000176735
-1000
-0.000284576
0.000175764
-1000
-0.000190078
0.000172398
-1000
-8.68732e-05
0.000179719
-1000
0.000187157
-1000
-0.000340361
0.000350116
-1000
-0.000284659
0.000355595
-1000
-0.000185396
0.000350179
-1000
-7.94615e-05
0.000359883
-1000
0.00036377
-1000
-0.00033307
0.000487091
-1000
-0.00028229
0.000487164
-1000
-0.000181038
0.000473512
-1000
-7.13907e-05
0.000496962
-1000
0.000518267
-1000
-0.000396458
0.00066192
-1000
-0.000291462
0.00057743
-1000
-0.000163109
0.000564511
-1000
-5.09179e-05
0.000615542
-1000
0.000657674
-1000
-0.000513017
-999.999
-0.000259005
-999.999
-0.000103412
-1000
-5.26832e-06
-1000
-1000
-0.000498451
0.000352551
-1000
-0.000431258
0.000342038
-1000
-0.000290801
0.000331932
-1000
-0.00013654
0.000335984
-1000
0.00033801
-1000
-0.000508983
0.000649557
-1000
-0.000439562
0.000643645
-1000
-0.000288648
0.000631135
-1000
-0.000128569
0.00063968
-1000
0.000645036
-1000
-0.000514603
0.00081797
-1000
-0.000442841
0.000853586
-1000
-0.000282862
0.000863823
-1000
-0.000122681
0.000899441
-1000
0.000915813
-1000
-0.000523529
0.00091203
-1000
-0.000423981
0.000989965
-1000
-0.00025033
0.00104561
-1000
-0.000101418
0.00111194
-1000
0.00112825
-1000
-0.000550646
-1000
-0.000350575
-1000
-0.000187
-1000
-8.24892e-05
-1000
-1000
-0.000701849
0.000565893
-1000
-0.00059057
0.000528616
-1000
-0.000399046
0.000513547
-1000
-0.000191082
0.000515118
-1000
0.000517893
-1000
-0.000739885
0.000974908
-1000
-0.000603707
0.000964542
-1000
-0.000398189
0.000957667
-1000
-0.000185716
0.000966151
-1000
0.00096564
-1000
-0.000747042
0.00120324
-1000
-0.000602127
0.00128337
-1000
-0.000392724
0.00131797
-1000
-0.000184782
0.00134036
-1000
0.00133237
-1000
-0.000670667
0.00128699
-1000
-0.000565654
0.00146453
-1000
-0.000374162
0.00155448
-1000
-0.000188521
0.00159231
-1000
0.00157164
-1000
-0.000562281
-1000
-0.000480037
-1000
-0.000340649
-1000
-0.000209087
-1000
-1000
-0.000964809
0.000759343
-1000
-0.000777569
0.000730874
-1000
-0.000521707
0.000728565
-1000
-0.000252384
0.000735864
-1000
0.000735505
-1000
-0.000996817
0.00134358
-1000
-0.00078191
0.00135366
-1000
-0.000516529
0.00135609
-1000
-0.00025168
0.00135156
-1000
0.00133364
-1000
-0.000992956
0.00176544
-1000
-0.00077716
0.00183666
-1000
-0.000520941
0.00184692
-1000
-0.000266918
0.00183221
-1000
0.0017966
-1000
-0.000935893
0.00203331
-1000
-0.000765694
0.00211447
-1000
-0.000540039
0.00213511
-1000
-0.000299019
0.00211537
-1000
0.0020744
-1000
-0.000950197
-1000
-0.000751002
-1000
-0.000556928
-1000
-0.000334379
-1000
-1000
-0.00124547
0.00099319
-1000
-0.00099664
0.000994262
-1000
-0.000672302
0.00100716
-1000
-0.000335014
0.00101366
-1000
0.000998508
-1000
-0.0012479
0.0018471
-1000
-0.000988389
0.00186266
-1000
-0.000667571
0.00185708
-1000
-0.000350036
0.00183324
-1000
0.00179905
-1000
-0.00123807
0.00254654
-1000
-0.000993508
0.00254991
-1000
-0.00069129
0.00251435
-1000
-0.000380875
0.00246567
-1000
0.0024214
-1000
-0.00125026
0.003078
-1000
-0.00102492
0.00297908
-1000
-0.000739901
0.00291003
-1000
-0.000419349
0.00284701
-1000
0.00280448
-1000
-0.00137531
-1000
-0.00109045
-1000
-0.00080026
-1000
-0.000454078
-1000
-1000
-0.00158936
0.00133651
-1000.01
-0.00129256
0.00135585
-1000.01
-0.000894243
0.00137111
-1000.01
-0.000470907
0.00136783
-1000.01
0.00133524
-1000.01
-0.00157293
0.00252387
-1000
-0.00128172
0.00253873
-1000.01
-0.000899863
0.00252417
-1000.01
-0.000501294
0.00248923
-1000.01
0.00245422
-1000.01
-0.00155596
0.00350878
-1000
-0.00129925
0.00348468
-1000
-0.000935453
0.00343329
-1000
-0.000530976
0.00337865
-1000.01
0.00334639
-1000.01
-0.00157854
0.00419767
-1000
-0.00134436
0.00410429
-1000
-0.000985826
0.00402083
-1000
-0.0005546
0.00394596
-1000
0.00391652
-1000
-0.0016878
-1000
-0.00145616
-1000
-0.00106671
-1000
-0.000578587
-1000
-1000
-0.00208857
0.00180786
-1000.01
-0.00172884
0.00183948
-1000.01
-0.00123518
0.00184872
-1000.01
-0.000672529
0.00183539
-1000.01
0.00180129
-1000.01
-0.00206147
0.003441
-1000.01
-0.00172349
0.0034684
-1000.01
-0.00125069
0.00345028
-1000.01
-0.000703733
0.00342071
-1000.01
0.00339918
-1000.01
-0.00203182
0.0047688
-1000.01
-0.00174421
0.00477519
-1000.01
-0.00128137
0.0047353
-1000.01
-0.00071892
0.0046987
-1000.01
0.00468225
-1000.01
-0.00201585
0.00561049
-1000
-0.00177659
0.00560797
-1000
-0.00131324
0.00557617
-1000
-0.000722255
0.0055304
-1000.01
0.0055181
-1000.01
-0.00202955
-1000
-0.00185517
-1000
-0.00136949
-1000
-0.000725641
-1000
-1000
-0.00279391
0.00246436
-1000.01
-0.00236141
0.00250177
-1000.01
-0.00172687
0.00250095
-1000.01
-0.00094125
0.00248757
-1000.01
0.00246786
-1000.01
-0.00276479
0.00472633
-1000.01
-0.00236687
0.00475393
-1000.01
-0.00174491
0.00473468
-1000.01
-0.000958423
0.00472055
-1000.01
0.00471019
-1000.01
-0.00274146
0.00651289
-1000.01
-0.00238443
0.00654826
-1000.01
-0.00176007
0.00652765
-1000.01
-0.000959156
0.00651376
-1000.01
0.00650003
-1000.01
-0.00270546
0.00758907
-1000
-0.00239877
0.00765079
-1000.01
-0.0017722
0.00767569
-1000.01
-0.000955303
0.00767187
-1000.01
0.00766243
-1000.01
-0.00263905
-1000
-0.00238268
-1000
-0.00177936
-1000
-0.000947858
-1000
-1000
-0.00379965
0.00340692
-1000.01
-0.00326455
0.00341965
-1000.01
-0.0024017
0.00340755
-1000.02
-0.0012863
0.00340043
-1000.02
0.0033928
-1000.02
-0.00379981
0.00648667
-1000.01
-0.00328378
0.00649275
-1000.01
-0.00241522
0.00647872
-1000.01
-0.00128943
0.00647728
-1000.02
0.00646523
-1000.02
-0.00380209
0.00887399
-1000.01
-0.00329347
0.00893125
-1000.01
-0.00241694
0.00893082
-1000.01
-0.00128712
0.00892879
-1000.01
0.00890763
-1000.01
-0.00377128
0.0103037
-1000.01
-0.0032879
0.0104148
-1000.01
-0.0024201
0.0104761
-1000.01
-0.00128682
0.0104946
-1000.01
0.0104846
-1000.01
-0.00364427
-1000
-0.00320439
-1000
-0.00239762
-1000.01
-0.00127024
-1000.01
-1000.01
-0.0052632
0.00468231
-1000.02
-0.00451602
0.00466303
-1000.02
-0.00329839
0.00465146
-1000.02
-0.00174201
0.00465038
-1000.02
0.00464081
-1000.02
-0.00529737
0.00883318
-1000.02
-0.00453803
0.00883393
-1000.02
-0.00330705
0.00883393
-1000.02
-0.00174413
0.00883406
-1000.02
0.0088128
-1000.02
-0.00530198
0.0120979
-1000.01
-0.00453607
0.0121593
-1000.02
-0.00330643
0.0121711
-1000.02
-0.00174493
0.0121689
-1000.02
0.0121444
-1000.02
-0.00525177
0.0140926
-1000.01
-0.00452268
0.0142434
-1000.01
-0.0033096
0.01429
-1000.01
-0.00174143
0.0143144
-1000.01
0.0143109
-1000.01
-0.00512121
-1000
-0.00445838
-1000.01
-0.00327596
-1000.01
-0.00170889
-1000.01
-1000.01
-0.00725635
0.00635388
-1000.03
-0.006166
0.00634554
-1000.03
-0.00447479
0.00634731
-1000.03
-0.00235934
0.00634414
-1000.03
0.00632175
-1000.03
-0.00728208
0.012019
-1000.02
-0.00617863
0.0120399
-1000.03
-0.00448743
0.0120431
-1000.03
-0.002371
0.0120329
-1000.03
0.0120029
-1000.03
-0.00726327
0.0165563
-1000.02
-0.00617632
0.0166028
-1000.02
-0.0044967
0.0166027
-1000.02
-0.00237258
0.0165935
-1000.02
0.0165626
-1000.03
-0.00721122
0.0194463
-1000.01
-0.00617749
0.0195268
-1000.01
-0.0045049
0.0195487
-1000.02
-0.00236516
0.0195652
-1000.02
0.0195353
-1000.02
-0.00713962
-1000
-0.00615066
-1000.01
-0.00448094
-1000.01
-0.00234669
-1000.01
-1000.01
-0.0098274
0.00863379
-1000.03
-0.00832482
0.00865557
-1000.04
-0.00604888
0.00865947
-1000.04
-0.00320564
0.00864341
-1000.04
0.00860883
-1000.04
-0.00982922
0.0164344
-1000.03
-0.00833927
0.0164528
-1000.03
-0.00607764
0.0164329
-1000.04
-0.00322625
0.0164063
-1000.04
0.0163657
-1000.04
-0.00981428
0.022692
-1000.03
-0.00836057
0.0226955
-1000.03
-0.00610319
0.0226649
-1000.03
-0.00322865
0.0226377
-1000.03
0.0225813
-1000.04
-0.0098002
0.0267076
-1000.02
-0.00839262
0.0267183
-1000.02
-0.00612753
0.0267157
-1000.02
-0.0032328
0.0266908
-1000.03
0.0265997
-1000.03
-0.00977465
-1000.01
-0.0083969
-1000.01
-0.00614672
-1000.01
-0.00326022
-1000.02
-1000.02
-0.0132497
0.0118081
-1000.05
-0.0112588
0.0118248
-1000.05
-0.00821337
0.0118079
-1000.06
-0.00436505
0.0117779
-1000.06
0.0117369
-1000.06
-0.0132655
0.0225017
-1000.04
-0.0112999
0.0224734
-1000.05
-0.00826138
0.0224168
-1000.05
-0.00438861
0.0223768
-1000.05
0.0223195
-1000.06
-0.0133012
0.0310221
-1000.03
-0.0113572
0.0309668
-1000.04
-0.00830023
0.0309013
-1000.04
-0.00439424
0.0308535
-1000.05
0.0307673
-1000.05
-0.0133554
0.0364779
-1000.02
-0.0114237
0.0364299
-1000.03
-0.00834568
0.0363877
-1000.03
-0.00440995
0.0363251
-1000.03
0.0361999
-1000.04
-0.0133762
-1000.01
-0.0114628
-1000.01
-0.00839948
-1000.02
-0.00444933
-1000.02
-1000.02
-0.0180044
0.0161489
-1000.06
-0.0153365
0.01613
-1000.07
-0.0112009
0.0160887
-1000.08
-0.00594346
0.0160549
-1000.08
0.0160079
-1000.08
-0.0180661
0.0307073
-1000.06
-0.0154125
0.030623
-1000.06
-0.01126
0.030547
-1000.07
-0.00596737
0.0305071
-1000.07
0.0304336
-1000.08
-0.0181579
0.0422483
-1000.05
-0.0154895
0.0421498
-1000.05
-0.0112983
0.0420747
-1000.06
-0.00596978
0.0420302
-1000.06
0.0419284
-1000.07
-0.0182615
0.0496586
-1000.03
-0.0155657
0.0495641
-1000.04
-0.0113409
0.0495043
-1000.04
-0.0059757
0.0494491
-1000.05
0.0493136
-1000.05
-0.0183363
-1000.01
-0.0156155
-1000.02
-0.0113838
-1000.03
-0.00599287
-1000.03
-1000.03
-0.0245835
0.0220053
-1000.09
-0.0209454
0.0219542
-1000.1
-0.0152762
0.0219054
-1000.1
-0.0080846
0.0218783
-1000.11
0.0218228
-1000.11
-0.024692
0.0417558
-1000.08
-0.0210434
0.0416552
-1000.09
-0.0153378
0.0415944
-1000.1
-0.00810874
0.0415717
-1000.1
0.041485
-1000.1
-0.0247967
0.0573992
-1000.06
-0.0211061
0.0573159
-1000.07
-0.0153572
0.0572725
-1000.08
-0.00809867
0.0572526
-1000.09
0.0571273
-1000.09
-0.0248798
0.067451
-1000.04
-0.0211496
0.0674138
-1000.05
-0.015373
0.0673773
-1000.06
-0.00809206
0.0673349
-1000.06
0.0671645
-1000.07
-0.0249057
-1000.02
-0.0211788
-1000.03
-0.0154035
-1000.03
-0.00810274
-1000.04
-1000.04
-0.0335311
0.0299126
-1000.12
-0.0285497
0.0298484
-1000.13
-0.0207896
0.0298094
-1000.14
-0.0109836
0.0297939
-1000.15
0.0297273
-1000.15
-0.0336737
0.0567227
-1000.11
-0.0286559
0.0566549
-1000.12
-0.0208516
0.056625
-1000.13
-0.011008
0.0566212
-1000.14
0.0565038
-1000.14
-0.0337435
0.0780251
-1000.09
-0.0286875
0.0779845
-1000.1
-0.0208503
0.0779635
-1000.11
-0.0109933
0.0779458
-1000.12
0.0777623
-1000.12
-0.0337777
0.0917368
-1000.06
-0.0287072
0.0917415
-1000.07
-0.0208604
0.0916947
-1000.08
-0.0109959
0.0916304
-1000.09
0.0913963
-1000.09
-0.033763
-1000.02
-0.0287532
-1000.04
-0.0209143
-1000.05
-0.011015
-1000.05
-1000.06
-0.0456273
0.0406333
-1000.16
-0.0388137
0.040582
-1000.18
-0.028233
0.0405569
-1000.19
-0.0148984
0.0405497
-1000.2
0.0404586
-1000.21
-0.045786
0.0771308
-1000.15
-0.0389295
0.077096
-1000.16
-0.0283031
0.0770721
-1000.18
-0.0149306
0.0770598
-1000.19
0.0768787
-1000.19
-0.0458221
0.10622
-1000.12
-0.0389545
0.106152
-1000.14
-0.0283085
0.106083
-1000.15
-0.0149315
0.106022
-1000.16
0.105745
-1000.17
-0.0458829
0.124963
-1000.08
-0.0390214
0.124831
-1000.1
-0.0283594
0.124696
-1000.11
-0.0149596
0.124581
-1000.12
0.12424
-1000.13
-0.0460035
-1000.03
-0.039156
-1000.05
-0.0284631
-1000.06
-0.0150077
-1000.08
-1000.08
-0.061974
0.055232
-1000.22
-0.0526771
0.0552028
-1000.24
-0.0382811
0.0551781
-1000.26
-0.0201788
0.0551636
-1000.28
0.0550313
-1000.28
-0.0621476
0.104981
-1000.2
-0.0528242
0.10492
-1000.22
-0.0383798
0.104857
-1000.24
-0.0202282
0.104805
-1000.26
0.104537
-1000.26
-0.0622082
0.144599
-1000.16
-0.0528885
0.144421
-1000.18
-0.0384229
0.144255
-1000.2
-0.0202507
0.144125
-1000.22
0.143722
-1000.22
-0.0623769
0.170042
-1000.11
-0.0530523
0.16973
-1000.13
-0.0385376
0.169475
-1000.15
-0.0203132
0.169284
-1000.16
0.168783
-1000.17
-0.0626784
-1000.05
-0.0533065
-1000.07
-0.0387128
-1000.09
-0.0204162
-1000.1
-1000.11
-0.0840796
0.0751567
-1000.3
-0.0714188
0.0751162
-1000.33
-0.0518489
0.0750705
-1000.36
-0.0273001
0.0750386
-1000.38
0.0748595
-1000.39
-0.0843138
0.142896
-1000.27
-0.0716292
0.142747
-1000.3
-0.0519932
0.14262
-1000.33
-0.0273649
0.142521
-1000.35
0.142139
-1000.36
-0.0844591
0.196699
-1000.22
-0.0717576
0.196393
-1000.25
-0.0520804
0.19613
-1000.28
-0.0274112
0.195923
-1000.3
0.195355
-1000.31
-0.0847491
0.231166
-1000.15
-0.0720151
0.230734
-1000.18
-0.0522634
0.230359
-1000.2
-0.027515
0.230071
-1000.22
0.229383
-1000.23
-0.085172
-1000.06
-0.0723902
-1000.09
-0.0525293
-1000.12
-0.0276588
-1000.14
-1000.15
-0.114027
0.102304
-1000.41
-0.0967636
0.102218
-1000.45
-0.0701704
0.102151
-1000.49
-0.0369103
0.10211
-1000.51
0.101864
-1000.52
-0.114375
0.194427
-1000.37
-0.0970522
0.194185
-1000.41
-0.0703625
0.193999
-1000.45
-0.0370022
0.193848
-1000.47
0.193311
-1000.49
-0.114611
0.267493
-1000.3
-0.0972373
0.267067
-1000.34
-0.0704942
0.266705
-1000.38
-0.0370804
0.266404
-1000.4
0.265633
-1000.41
-0.115014
0.314353
-1000.2
-0.097586
0.313754
-1000.24
-0.0707583
0.31322
-1000.28
-0.0372171
0.312802
-1000.3
0.311882
-1000.32
-0.115595
-1000.09
-0.0981163
-1000.13
-0.0711427
-1000.16
-0.0373945
-1000.19
-1000.2
-0.154637
0.139203
-1000.56
-0.131036
0.139105
-1000.61
-0.0949204
0.139047
-1000.66
-0.0499117
0.139004
-1000.7
0.138649
-1000.71
-0.155085
0.264448
-1000.5
-0.131389
0.264173
-1000.56
-0.0951674
0.263947
-1000.61
-0.0500547
0.263741
-1000.64
0.263022
-1000.66
-0.155346
0.363772
-1000.41
-0.131605
0.363228
-1000.46
-0.0953389
0.362736
-1000.51
-0.0501455
0.36233
-1000.55
0.36131
-1000.56
-0.155857
0.427592
-1000.27
-0.132071
0.426691
-1000.33
-0.0956903
0.425898
-1000.38
-0.0502973
0.42529
-1000.41
0.424024
-1000.43
-0.156731
-1000.12
-0.13285
-1000.17
-0.0962458
-1000.22
-0.0505502
-1000.26
-1000.27
-0.209692
0.189349
-1000.76
-0.17739
0.189357
-1000.84
-0.128382
0.189367
-1000.9
-0.0675078
0.189338
-1000.95
0.188868
-1000.97
-0.210149
0.359649
-1000.69
-0.177771
0.359467
-1000.76
-0.12868
0.35926
-1000.83
-0.067684
0.359058
-1000.87
0.358146
-1000.9
-0.210295
0.494731
-1000.56
-0.177948
0.494083
-1000.63
-0.128825
0.493456
-1000.69
-0.0677329
0.49296
-1000.74
0.491609
-1000.76
-0.210885
0.581591
-1000.37
-0.178524
0.580219
-1000.45
-0.129237
0.579064
-1000.51
-0.0678946
0.578169
-1000.56
0.576376
-1000.58
-0.21222
-1000.16
-0.17965
-1000.24
-0.130053
-1000.3
-0.0683024
-1000.35
-1000.37
-0.284366
0.257639
-1001.03
-0.240121
0.257946
-1001.14
-0.17361
0.258147
-1001.22
-0.0912318
0.258233
-1001.29
0.25768
-1001.32
-0.284663
0.489248
-1000.94
-0.240432
0.489387
-1001.04
-0.173871
0.489391
-1001.13
-0.0913716
0.489339
-1001.19
0.488213
-1001.22
-0.284444
0.672843
-1000.76
-0.240356
0.672205
-1000.86
-0.173823
0.67155
-1000.94
-0.0913063
0.67101
-1001
0.669202
-1001.04
-0.284976
0.790771
-1000.51
-0.240912
0.7889
-1000.61
-0.174226
0.787268
-1000.7
-0.0914802
0.785934
-1000.76
0.783403
-1000.79
-0.286787
-1000.22
-0.242488
-1000.32
-0.175442
-1000.41
-0.0921139
-1000.47
-1000.5
-0.385797
0.350874
-1001.41
-0.325024
0.351831
-1001.55
-0.234643
0.352524
-1001.67
-0.123072
0.352965
-1001.75
0.352374
-1001.79
-0.385613
0.665885
-1001.28
-0.324977
0.666856
-1001.42
-0.234638
0.667518
-1001.53
-0.123073
0.667903
-1001.61
0.666553
-1001.66
-0.384469
0.915058
-1001.03
-0.324156
0.914822
-1001.17
-0.234072
0.914429
-1001.28
-0.122765
0.913991
-1001.36
0.91161
-1001.41
-0.384506
1.07483
-1000.69
-0.324362
1.07248
-1000.83
-0.234285
1.07021
-1000.94
-0.122888
1.06833
-1001.02
1.06485
-1001.07
-0.386746
-1000.3
-0.326518
-1000.43
-0.235981
-1000.55
-0.123762
-1000.63
-1000.67
-0.523825
0.478449
-1001.92
-0.439814
0.480877
-1002.11
-0.316933
0.482734
-1002.27
-0.165615
0.484003
-1002.39
0.483458
-1002.44
-0.522342
0.906951
-1001.74
-0.438732
0.909989
-1001.93
-0.316186
0.912226
-1002.08
-0.165295
0.913679
-1002.19
0.912164
-1002.25
-0.518943
1.2446
-1001.4
-0.436157
1.2457
-1001.58
-0.314404
1.24621
-1001.74
-0.164474
1.2463
-1001.84
1.24326
-1001.9
-0.51746
1.46065
-1000.94
-0.435298
1.45773
-1001.12
-0.313934
1.45479
-1001.27
-0.164364
1.45234
-1001.38
1.44754
-1001.43
-0.520166
-1000.41
-0.438033
-1000.59
-0.316086
-1000.74
-0.165563
-1000.84
-1000.9
-0.712132
0.653677
-1002.63
-0.594721
0.659476
-1002.89
-0.42826
0.663799
-1003.1
-0.221927
0.666938
-1003.26
0.666583
-1003.33
-0.707411
1.23688
-1002.37
-0.59123
1.24468
-1002.63
-0.4257
1.25033
-1002.84
-0.22096
1.25432
-1002.99
1.25276
-1003.06
-0.698874
1.69333
-1001.91
-0.58487
1.69785
-1002.15
-0.421112
1.7006
-1002.35
-0.219161
1.70229
-1002.49
1.69841
-1002.57
-0.693651
1.98404
-1001.28
-0.581422
1.98097
-1001.52
-0.418801
1.97746
-1001.71
-0.218596
1.97448
-1001.85
1.96765
-1001.92
-0.696377
-1000.56
-0.584538
-1000.79
-0.421302
-1000.99
-0.220403
-1001.13
-1001.2
-0.971098
0.89603
-1003.59
-0.802682
0.909343
-1003.97
-0.580968
0.918473
-1004.24
-0.294319
0.926044
-1004.47
0.925851
-1004.55
-0.958907
1.6905
-1003.24
-0.794158
1.70909
-1003.59
-0.574031
1.72152
-1003.86
-0.292331
1.73172
-1004.07
1.72989
-1004.15
-0.938921
2.30471
-1002.59
-0.780145
2.31753
-1002.92
-0.562864
2.32503
-1003.17
-0.289138
2.33102
-1003.37
2.32549
-1003.45
-0.92486
2.69261
-1001.74
-0.77124
2.691
-1002.05
-0.555974
2.68709
-1002.29
-0.288237
2.68433
-1002.47
2.67409
-1002.56
-0.925962
-1000.77
-0.774332
-1001.06
-0.558015
-1001.31
-0.291284
-1001.48
-1001.58
-1.33577
1.23374
-1004.91
-1.07508
1.26502
-1005.5
-0.798869
1.28217
-1005.8
-0.380325
1.30137
-1006.19
1.29969
-1006.23
-1.30595
2.31806
-1004.41
-1.05715
2.36252
-1004.94
-0.781174
2.38616
-1005.24
-0.377079
2.41315
-1005.59
2.40787
-1005.64
-1.25946
3.13773
-1003.51
-1.02971
3.17116
-1003.96
-0.753757
3.18632
-1004.25
-0.373229
3.20461
-1004.54
3.19337
-1004.61
-1.22436
3.64888
-1002.35
-1.01158
3.65391
-1002.74
-0.735208
3.64931
-1003.03
-0.374301
3.65063
-1003.28
3.6332
-1003.37
-1.21889
-1001.04
-1.01426
-1001.4
-0.733141
-1001.7
-0.380827
-1001.92
-1002.03
-1.87926
1.70572
-1006.63
-1.40795
1.78681
-1007.75
-1.1334
1.81012
-1007.89
-0.469239
1.86369
-1008.72
1.85144
-1008.55
-1.80635
3.19214
-1005.95
-1.37322
3.30671
-1006.89
-1.0902
3.33655
-1007.05
-0.46401
3.41614
-1007.77
3.38988
-1007.64
-1.69549
4.26944
-1004.67
-1.32639
4.35895
-1005.38
-1.02229
4.37563
-1005.59
-0.46151
4.43394
-1006.12
4.39764
-1006.08
-1.60819
4.9326
-1003.13
-1.29915
4.9631
-1003.65
-0.974072
4.9513
-1003.93
-0.472579
4.97387
-1004.32
4.93615
-1004.38
-1.57951
-1001.39
-1.30447
-1001.8
-0.953859
-1002.12
-0.48933
-1002.4
-1002.52
-2.74485
2.35494
-1008.72
-1.80158
2.59005
-1011.29
-1.67354
2.58781
-1010.6
-0.546643
2.74382
-1012.59
2.69013
-1011.79
-2.57702
4.40904
-1007.83
-1.7264
4.73977
-1009.89
-1.5764
4.71201
-1009.32
-0.537249
4.96284
-1011.03
4.85131
-1010.34
-2.31896
5.78128
-1006
-1.63734
6.04572
-1007.37
-1.41816
6.00036
-1007.1
-0.53727
6.19431
-1008.23
6.05898
-1007.82
-2.10482
6.63615
-1004.05
-1.60456
6.76811
-1004.88
-1.30867
6.70657
-1004.93
-0.573879
6.82311
-1005.68
6.71933
-1005.62
-1.9958
-1001.75
-1.62336
-1002.16
-1.2221
-1002.4
-0.608249
-1002.72
-1002.8
-4.09753
3.20561
-1011.03
-2.33635
3.89015
-1016.94
-2.542
3.76203
-1014.16
-0.590119
4.18539
-1018.73
4.01276
-1016.39
-3.74262
6.09694
-1010.04
-2.15896
7.05971
-1014.65
-2.33718
6.748
-1012.13
-0.571556
7.48914
-1016.1
7.11332
-1014.01
-3.19824
7.704
-1007.22
-1.95566
8.49992
-1010.05
-1.98506
8.13984
-1008.46
-0.575345
8.72331
-1010.87
8.27469
-1009.56
-2.7392
8.83784
-1005.03
-1.8967
9.36914
-1006.59
-1.79836
9.06887
-1005.96
-0.684562
9.52758
-1007.6
9.20982
-1007.24
-2.41048
-1001.84
-1.89181
-1002.08
-1.50016
-1001.99
-0.711467
-1002.25
-1002.26
-6.12828
4.2139
-1013.29
-3.16677
6.05597
-1025.96
-3.95241
5.60915
-1018.98
-0.544154
6.63046
-1028.77
6.18536
-1023.12
-5.37806
8.50503
-1012.89
-2.73369
11.0367
-1022.27
-3.5342
9.90969
-1015.63
-0.509178
11.8777
-1024.37
10.7955
-1019.13
-4.27263
9.95951
-1007.87
-2.27037
12.0403
-1013.06
-2.71536
10.8073
-1008.91
-0.515489
12.345
-1013.54
11.1597
-1010.44
-3.36257
11.5755
-1006.16
-2.21877
13.3515
-1009.04
-2.56062
12.2167
-1007.02
-0.851988
13.589
-1010.55
12.6319
-1009.56
-2.65461
-1000.88
-1.94445
-1000.64
-1.64309
-999.83
-0.773291
-999.763
-999.883
-9.15626
5.3005
-1014.84
-4.63159
9.70374
-1040.18
-6.36095
8.6425
-1025.9
-0.242642
10.8948
-1045.78
9.87875
-1033.24
-7.53878
12.0691
-1017.21
-3.50705
18.1993
-1034.8
-5.54421
15.0554
-1020.01
-0.141494
19.8774
-1038.75
16.9736
-1026.37
-5.32741
12.5882
-1007.36
-2.472
17.3226
-1015.03
-3.54003
14.2975
-1007.09
-0.210508
18.0023
-1015
15.2021
-1008.88
-3.52511
14.7153
-1007.54
-2.62634
19.4095
-1012.03
-3.8677
16.0914
-1007.58
-1.14074
19.4716
-1014.75
16.8678
-1012.37
-2.17938
-997.655
-1.5662
-995.893
-1.38124
-994.297
-0.872915
-993.125
-994.527
-13.3994
6.22014
-1014.35
-7.52904
16.3417
-1062.4
-10.6267
13.9995
-1036.8
1.40169
18.9657
-1076.77
16.6416
-1048.48
-10.1653
17.2115
-1024.67
-4.53584
31.421
-1055.51
-9.13584
23.5417
-1024.95
1.79054
34.7879
-1065.5
27.4151
-1035.35
-5.70514
16.3614
-1006.11
-2.36816
25.9109
-1012.86
-4.33303
19.3651
-1000.95
1.04362
27.3854
-1012.97
20.9603
-1001.38
-2.00695
17.5437
-1008.36
-3.0895
28.0273
-1013.06
-6.24451
20.0555
-1005.11
-1.5858
27.5868
-1019.61
21.1645
-1014.16
0.292922
-990.406
-0.247382
-984.176
-0.529556
-982.993
-1.45364
-978.653
-985.537
-18.4318
5.51329
-1008.54
-13.1798
28.4512
-1096.1
-17.074
23.6333
-1056.54
6.45722
33.1501
-1133.46
28.0067
-1070.03
-13.0263
24.547
-1039.86
-5.8396
56.9015
-1091.14
-15.4085
38.5348
-1030.28
7.42571
63.4323
-1118.62
45.0088
-1044.93
-3.10047
23.7891
-1008.8
-1.23191
41.4308
-999.259
-4.98328
27.772
-986.431
3.87838
44.4506
-1002.85
28.9703
-981.463
2.6408
18.6035
-1001.38
-3.50646
39.1231
-1004.61
-11.1626
22.5835
-992.269
-2.32119
38.1333
-1022.13
22.7302
-1010.24
7.63112
-973.575
1.90288
-956.673
0.209378
-961.987
-4.51866
-949.784
-975.886
-54.1525
1.01035
-967.785
-50.4691
70.1084
-1169.89
-55.9015
73.2097
-1124.31
13.6737
99.9071
-1302.94
88.8582
-1145.22
-31.5176
46.9507
-1078.83
-17.3306
134.369
-1169.59
-43.0928
103.231
-1034.54
18.9297
171.714
-1252.45
121.044
-1058.18
5.26188
50.9813
-1027.02
6.61428
80.4375
-946.68
-9.87009
52.7368
-919.453
5.18741
92.2516
-938.445
53.7076
-908.94
14.5891
11.9434
-950.068
-4.05912
51.762
-957.286
-22.5499
19.6998
-940.741
-4.91561
49.7123
-997.229
11.3432
-972.791
26.5518
-910.088
3.01464
-889.135
-5.58955
-915.991
-23.9226
-892.225
-996.107
32.4047
-19.6593
-931.638
-9.13222
30.8922
-1159.25
-8.87138
8.26062
-1132.83
51.7353
34.9574
-1398.5
18.2521
-1111.73
21.408
-2.37078
-1100.22
14.3549
77.479
-1209.13
-15.5062
-17.0792
-979.339
54.1277
69.0502
-1356.18
-1.8679
-983.936
5.56934
16.2893
-1066.61
-5.7425
40.7484
-898.638
19.0424
15.6034
-976.921
44.8226
55.3516
-950.527
-5.51477
-860.47
21.2995
30.8421
-979.824
-16.1522
30.0703
-909.156
-33.7034
17.7706
-925.357
4.66027
54.0251
-1034.27
-14.4921
-959.153
40.9459
-865.229
43.9742
-887.577
37.825
-855.96
1.55687
-802.849
-970.453
-224.153
-184.007
-479.196
-329.401
320.291
-1374.29
-295.126
442.889
-1610
139.675
529.509
-2362.81
499.624
-1471.68
-148.138
182.096
-1507.28
-66.6303
709.671
-1680.01
-221.758
607.172
-988.494
191.51
1010.77
-2250.7
621.558
-914.36
196.455
431.596
-1555.63
178.758
404.924
-576.194
-41.1509
182.969
-332.809
-32.8193
414.705
-362.794
131.238
-402.969
132.553
-107.613
-246.673
-10.1932
84.1823
-445.669
-92.6801
-82.9987
-576.903
-21.8724
4.31869
-694.688
-191.181
-658.607
170.114
-270.588
-119.87
-275.219
-150.777
-727.806
-289.877
-554.408
-1496.08
407.993
85.1729
-817.028
264.682
-186.155
-1044.82
216.434
-441.185
-1120.57
38.7903
-404.133
-1781.03
-356.607
-1076.29
310.04
-257.41
-1052.38
105.402
-373.994
-1287.54
144.798
-737.08
-731.995
23.4788
-761.987
-1771.53
-594.754
-652.734
-254.872
-385.772
-1222.49
-361.56
-369.555
-473.945
157.182
16.1187
-1604.75
319.254
-134.991
-1151.86
-177.355
-501.115
135.7
363.129
-1421.22
-52.4013
-273.076
-354.046
-88.1354
170.894
-695.944
63.8913
227.597
-1209.3
-16.7016
-755.368
83.1535
-634.744
456.964
-1321.12
394.541
-411.986
267.23
-267.064
-981.505
27.8525
-59.8077
-623.944
1.43497
0.521889
-1018.93
1.02395
1.28043
-1121.43
1.04414
-0.183718
-1780.87
-0.210178
-1075.03
7.74946
-2.00096
-1160.9
14.2532
34.0418
-1327.56
-1.25326
101.436
-816.645
4.72115
176.671
-1954.36
8.02456
-656.248
49.38
179.888
-1551.73
137.873
20.651
-549.047
3.00743
-2.46224
-1365.98
-102.12
74.893
-944.957
-37.7234
-557.487
46.6356
14.3493
-1095.32
-3.48608
-90.4118
-192.861
5.91237
-42.5951
-665.21
-9.8934
-21.7788
-1096.83
-65.0557
-737.929
-20.3654
-479.002
-81.3219
-1167.72
0.706959
-491.568
0.578753
-273.43
-1164.58
-137.636
99.5972
-482.917
-189.493
394.76
-1361.83
291.2
498.211
-2100.34
130.874
673.623
-2294.17
324.758
-1268.92
-38.4111
174.06
-1212.8
-22.8992
234.666
-1182.98
143.448
239.31
-724.091
138.185
312.694
-1588.17
230.34
-423.644
14.4937
-169.85
-1111.65
32.5347
45.0757
-377.497
1.00484
-30.6844
-1064.46
33.2981
8.02124
-672.577
74.8513
-368.7
4.09786
-0.364587
-1641.72
6.13455
-1.0684
-148.754
-2.50338
-149.187
-538.07
109.069
-63.989
-1136.39
-321.148
-232.86
1.7736
-12.3751
-98.6071
-936.605
92.4945
-1065.25
22.5538
-271.412
-1408.2
-251.515
-103.625
-487.719
143.948
312.188
-2069.48
-262.578
-48.4543
-1645.36
-70.0337
258.749
-2745.46
3.26652
-1342.22
151.68
1.84632
-1910.94
18.3717
-36.5638
-700.918
91.5577
-41.0238
-804.708
22.6432
-438.173
-822.333
-4.28617
-393.448
-18.1063
-1036.99
-2.73063
-134.453
-10.3147
-287.4
-393.807
49.2016
-895.331
-429.197
-101.505
-973.855
4.2165
-806.399
-562.502
-1133.53
-1838.44
3.15418
13.8565
-738.581
-1.50429
-166.843
-317.367
210.631
118.263
-1568.29
-3.5836
-14.4285
82.4402
-3008.39
15.9573
-1135.61
131.182
-1454.67
2.00135
-3.53507
-1401.83
-25.5531
-540.503
-9.00619
158.872
637.649
-2891.56
-180.228
107.375
-1413.63
-181.501
80.183
-2824.37
-200.802
-1322.92
-384.819
-622.555
-2373.03
-79.9432
61.5939
-429.738
-109.561
166.385
-834.1
-92.891
65.8979
-824.717
150.823
-837.963
135.622
240.42
-1456.59
67.096
32.6784
-189.958
-92.2857
0.0984878
-569.663
-566.514
200.945
-634.673
74.5494
-1296.64
-347.838
147.174
-1338.25
-45.8714
337.132
-1345
-312.054
115.828
-166.914
-297.024
120.101
-1502.48
315.646
-552.549
62.4918
-3268.78
-387.798
-429.645
-356.551
-1388.34
-258.536
-60.1552
-1778.16
-50.7305
109.78
-11.0717
-447.317
-69.846
-2425.12
475.304
429.006
-2765.26
81.3871
-5.82402
-2424.63
-7.21463
-1234.31
73.8988
-1134.8
-793.734
-22.7409
8.0911
-411.035
74.4328
-20.3075
-481.96
-39.8517
21.2632
-737.519
-45.5085
-839.521
-1.87783
-49.8005
-2803.38
-1.25329
269.17
-451.661
66.6598
-21.3839
-636.499
-8.60562
-35.253
-502.891
-52.207
-1298.55
-8.3322
317.288
-1670.61
-292.565
273.774
-1065.37
112.672
177.445
-770.98
-392.308
-274.971
-757.778
-21.3193
-975.745
3.72833
-2912.42
17.6144
-131.813
-166.025
-926.279
16.1568
-1233.81
-1981.75
110.667
0.669336
-11.606
-8.94326
15.3865
-2320.9
-317.983
-127.562
-2328.66
-1146.89
-106.99
-1488.73
315.214
-2696.42
-42.807
-301.159
-14.5733
-119.052
69.138
-388.542
5.50849
101.573
-835.654
6.2546
49.7232
-894.979
311.414
-829.467
56.4289
-103.062
-2817.13
79.0212
180.819
-585.933
24.2086
-66.5485
-413.565
-50.7596
120.323
-498.523
181.89
-1219.78
373.88
414.054
-2387.23
-74.029
-118.02
-318.624
266.512
38.2436
-1216.31
-247.252
336.855
-460.545
206.1
-1247.21
-282.32
-2357.47
225.361
-1076.36
273.743
-935.758
236.49
-1631.19
-1621.47
-62.0945
1.13182
-90.2619
-15.1652
136.689
-2504.52
379.977
183.521
-2907.32
101.654
-599.086
-611.324
-507.818
-2086.95
13.0832
640.456
-768.6
178.908
130.296
-547.973
225.615
-37.1508
-661.69
114.212
-559.438
-823.224
267.868
-1490.94
-275.083
647.501
-2435.48
-157.722
12.6936
-585.692
80.6872
248.687
-937.812
257.591
31.2873
-1266.15
-300.53
-393.794
151.15
338.764
-1897.63
34.6634
133.125
-322.57
-55.194
94.6426
-972.412
273.535
199.307
-957.294
-179.747
-1094.45
-1092.41
-138.135
-466.203
-1652.52
351.204
-1374.62
-75.1581
-932.421
-1838.14
-225.462
213.449
-95.945
-1286.98
44.0182
-1487.02
-934.747
120.001
-3379.56
7.03848
105.252
-1658.36
4.10508
-2084.01
-249.094
361.475
-701.928
-74.6857
71.0607
-749.425
63.4109
118.283
-798.067
-115.483
-303.698
-235.381
-173.488
-1428.83
-149.805
-36.5671
-1871.72
-60.3645
76.3663
-680.438
85.9151
198.226
-1164.04
-69.9389
58.439
-1472.43
21.5555
-658.777
-33.3577
-69.3743
-1569.54
-53.068
47.5249
-274.018
151.799
55.0872
-1034.14
46.4307
186.836
-980.323
-152.447
-874.021
29.1729
-134.985
-100.324
-1239.75
62.6299
-1442.2
-214.574
-393.497
-1478.88
228.073
16.4721
-444.906
-92.9676
-93.6936
-1072.29
-461.023
30.5403
-3042.04
632.965
152.55
-2904.9
30.1052
-1481.15
-75.6057
-174.253
-46.1192
-174.862
-161.914
-581.948
-155.823
145.431
-931.997
59.7051
-12.1739
-286.185
177.059
-1516.08
46.367
-174.042
-1705.32
-101.763
-200.1
-494.122
-321.279
-19.5836
-779.506