FoamFile
{version 2.0; format ascii;class vectorField; location 0;object  v;}
346
(
( 2.84675e-06 1.41759e-06 -1.57165e-05 )  
( 6.16824e-06 2.09647e-06 -8.28272e-06 )  
( 6.00786e-06 -1.40296e-06 -1.36981e-05 )  
( 3.38884e-06 -1.44526e-06 -1.30512e-05 )  
( 5.41085e-06 9.30251e-07 -1.03299e-05 )  
( 4.80051e-06 2.78506e-06 -6.99844e-06 )  
( 1.6881e-06 3.44837e-06 -1.51201e-05 )  
( 1.54633e-07 3.04362e-07 -1.06985e-05 )  
( 4.25947e-06 2.44765e-06 -1.42205e-05 )  
( 6.84679e-06 3.40368e-06 -1.03093e-05 )  
( 3.56163e-06 2.17564e-06 -1.38286e-05 )  
( 1.79153e-06 9.6098e-07 -1.32914e-05 )  
( 1.25725e-06 -2.93192e-07 -1.32221e-05 )  
( 4.11102e-06 4.23016e-08 -1.16808e-05 )  
( 4.4101e-06 7.94835e-07 -1.67864e-05 )  
( 4.3887e-06 -2.0766e-06 -1.22297e-05 )  
( 7.15065e-06 -4.99532e-07 -1.36343e-05 )  
( 6.0968e-06 4.65532e-07 -1.2407e-05 )  
( 6.54385e-06 1.29882e-06 -1.20411e-05 )  
( 8.92846e-06 -1.55293e-06 -2.13261e-05 )  
( 4.19255e-06 9.27177e-07 -1.22634e-05 )  
( 6.03599e-06 -6.00639e-07 -9.8086e-06 )  
( 3.81199e-06 3.7777e-07 -1.17478e-05 )  
( 1.99447e-06 7.04891e-06 -2.7934e-05 )  
( 4.01465e-06 1.94688e-06 -1.4207e-05 )  
( 5.32724e-06 4.89628e-06 -1.36107e-05 )  
( 9.27765e-06 1.36664e-06 -2.76877e-05 )  
( 3.41562e-06 2.4329e-06 -1.4761e-05 )  
( 4.16713e-06 -1.03836e-06 -1.009e-05 )  
( 4.22704e-06 1.70819e-06 -1.35423e-05 )  
( 5.21798e-06 5.19809e-07 -2.27906e-05 )  
( 7.65771e-06 1.55422e-06 -2.59313e-05 )  
( 1.37971e-06 3.7888e-06 -9.66425e-06 )  
( 8.1725e-06 3.63672e-06 -2.85831e-05 )  
( 6.08025e-06 -7.08443e-07 -1.86683e-05 )  
( 1.13305e-05 -2.79383e-06 -2.46724e-05 )  
( 8.49068e-06 4.50197e-07 -2.50874e-05 )  
( 5.75426e-06 1.69454e-06 -1.98963e-05 )  
( 3.49347e-06 3.51353e-06 -1.84966e-05 )  
( 3.7138e-06 -3.10764e-06 -2.02195e-05 )  
( 4.79929e-06 4.19668e-06 -3.36661e-05 )  
( 7.18922e-06 1.40045e-06 -2.05449e-05 )  
( 7.66385e-06 2.06804e-07 -2.43836e-05 )  
( 1.13704e-05 4.3001e-06 -3.04777e-05 )  
( 4.74425e-06 1.94474e-06 -2.86894e-05 )  
( 6.65195e-06 -8.28758e-07 -2.39871e-05 )  
( 5.50907e-06 3.86659e-06 -3.74819e-05 )  
( 5.70929e-06 2.85488e-06 -4.22945e-05 )  
( 5.34888e-06 -4.50902e-07 -4.83571e-05 )  
( 1.08105e-05 -2.2842e-06 -2.09056e-05 )  
( 3.70592e-06 -1.0196e-06 -4.0197e-05 )  
( 4.71734e-06 3.6384e-06 -3.63303e-05 )  
( 3.09418e-06 4.14696e-06 -2.87604e-05 )  
( 7.64931e-06 8.99352e-06 -3.29856e-05 )  
( 9.57061e-06 1.5234e-06 -3.85026e-05 )  
( 6.24881e-06 -5.5895e-07 -4.05142e-05 )  
( 4.95497e-06 5.73245e-06 -4.66489e-05 )  
( 8.78556e-06 -1.74743e-06 -3.51131e-05 )  
( 7.96516e-06 2.9361e-06 -4.73054e-05 )  
( 6.43035e-06 -4.33106e-06 -3.39497e-05 )  
( 8.31165e-06 -2.7105e-06 -4.21875e-05 )  
( 7.43161e-06 -1.30326e-06 -4.05447e-05 )  
( 8.59417e-06 1.85742e-06 -3.87e-05 )  
( 6.8499e-06 -2.41838e-07 -2.7028e-05 )  
( 5.68069e-06 4.66118e-07 -2.52393e-05 )  
( 8.4909e-06 -1.63931e-07 -3.79749e-05 )  
( 8.20342e-06 5.88579e-06 -3.84293e-05 )  
( 7.82629e-06 7.73051e-08 -4.6482e-05 )  
( 5.39487e-06 2.34465e-06 -5.00337e-05 )  
( 5.57236e-06 -2.47851e-06 -4.7655e-05 )  
( 5.03337e-06 5.38572e-07 -4.24798e-05 )  
( 9.43294e-06 -1.60904e-06 -4.4327e-05 )  
( 9.69323e-06 1.68167e-06 -4.62515e-05 )  
( 1.01591e-05 2.16432e-06 -4.91152e-05 )  
( 7.56158e-06 -9.88987e-07 -6.18478e-05 )  
( 6.08059e-06 1.60482e-06 -5.20783e-05 )  
( 7.21232e-06 3.44908e-06 -5.38394e-05 )  
( 1.16204e-05 -1.53039e-06 -4.68588e-05 )  
( 1.24801e-05 -4.518e-07 -3.94066e-05 )  
( 1.17057e-05 2.35117e-06 -4.70901e-05 )  
( 7.98582e-06 1.04556e-08 -6.01262e-05 )  
( 8.013e-06 -1.4623e-07 -5.95235e-05 )  
( 1.04893e-05 7.55955e-07 -3.68559e-05 )  
( 7.83963e-06 4.2992e-06 -3.60569e-05 )  
( 7.08415e-06 5.3702e-06 -5.93363e-05 )  
( 1.11708e-05 2.49098e-07 -5.54884e-05 )  
( 1.08794e-05 1.44864e-06 -5.63247e-05 )  
( 1.47987e-05 7.92919e-06 -5.61857e-05 )  
( 7.49632e-06 1.85927e-06 -5.17403e-05 )  
( 9.18797e-06 3.03097e-06 -5.45765e-05 )  
( 1.21226e-05 2.46397e-06 -5.18758e-05 )  
( 1.13692e-05 -2.49684e-06 -4.17427e-05 )  
( 1.00737e-05 3.66228e-07 -4.4075e-05 )  
( 1.00256e-05 7.24707e-07 -4.86832e-05 )  
( -6.12874e-09 -2.24868e-06 -4.79452e-05 )  
( 1.08374e-05 2.96836e-06 -5.95153e-05 )  
( 9.58221e-06 7.00018e-06 -6.60791e-05 )  
( 1.04346e-05 7.84259e-07 -5.50546e-05 )  
( 1.10568e-05 6.2806e-07 -4.98047e-05 )  
( 1.31389e-05 3.27643e-06 -7.13531e-05 )  
( 1.25006e-05 3.19758e-07 -6.44268e-05 )  
( 8.59636e-06 7.69464e-07 -7.01508e-05 )  
( 8.35737e-06 -2.93641e-06 -6.18467e-05 )  
( 1.41705e-05 3.70985e-06 -6.25736e-05 )  
( 9.46719e-06 3.7175e-06 -6.53369e-05 )  
( 1.02917e-05 7.24727e-07 -6.02025e-05 )  
( 1.01181e-05 5.53889e-07 -5.03497e-05 )  
( 6.76616e-06 2.00484e-06 -7.35168e-05 )  
( 1.19783e-05 4.44947e-07 -5.98711e-05 )  
( 1.29769e-05 6.27129e-06 -5.88792e-05 )  
( 3.35919e-06 6.16834e-07 -6.05839e-05 )  
( 8.22284e-06 3.47962e-06 -7.84184e-05 )  
( 1.25845e-05 2.44282e-06 -7.02021e-05 )  
( 1.02384e-05 2.9482e-06 -7.26142e-05 )  
( 7.50077e-06 9.91662e-07 -5.60763e-05 )  
( 8.34002e-06 -1.76659e-07 -5.45642e-05 )  
( 1.27893e-05 8.13384e-06 -7.20266e-05 )  
( 1.2299e-05 5.36217e-06 -6.35585e-05 )  
( 1.11175e-05 3.06056e-06 -6.8911e-05 )  
( 5.72058e-06 1.12401e-06 -6.2722e-05 )  
( 9.38876e-06 4.17798e-06 -6.5216e-05 )  
( 1.22443e-05 4.08991e-06 -7.47604e-05 )  
( 1.06804e-06 1.84851e-05 -5.70335e-05 )  
( 1.12855e-05 2.68056e-06 -6.21664e-05 )  
( 7.72169e-06 5.24715e-06 -7.28766e-05 )  
( 1.2218e-05 1.60972e-06 -6.5808e-05 )  
( 1.07723e-05 4.71413e-06 -8.16181e-05 )  
( 8.06222e-06 4.44264e-06 -7.6982e-05 )  
( 9.03731e-06 1.2296e-06 -8.11188e-05 )  
( 8.9291e-06 7.62057e-06 -7.11481e-05 )  
( 1.35327e-05 5.22745e-07 -7.39118e-05 )  
( 1.01286e-05 2.69474e-06 -7.2945e-05 )  
( 9.35966e-06 2.08353e-06 -7.88533e-05 )  
( 8.83816e-06 3.56805e-06 -7.31211e-05 )  
( 1.03115e-05 1.5839e-06 -8.16351e-05 )  
( 1.12415e-05 1.28532e-06 -7.17749e-05 )  
( 9.41671e-06 4.10533e-06 -8.07841e-05 )  
( 1.02146e-05 1.98671e-06 -7.47806e-05 )  
( 8.45174e-06 2.21531e-06 -6.80542e-05 )  
( 9.07793e-06 1.56209e-07 -6.93503e-05 )  
( 1.20973e-05 -3.4004e-07 -7.04419e-05 )  
( 8.75187e-06 8.48009e-07 -7.902e-05 )  
( 9.37851e-06 2.04579e-06 -7.48493e-05 )  
( 8.77909e-06 3.5919e-06 -7.61856e-05 )  
( 1.29461e-05 7.27531e-06 -8.14303e-05 )  
( 1.18569e-05 4.77711e-06 -9.18777e-05 )  
( 1.10432e-05 2.98037e-06 -8.19133e-05 )  
( 1.07192e-05 -2.73416e-06 -7.85786e-05 )  
( 1.18867e-05 2.10403e-06 -8.1527e-05 )  
( 9.80001e-06 2.28065e-06 -8.32624e-05 )  
( 9.40458e-06 1.46019e-06 -8.01216e-05 )  
( 1.20313e-05 -4.39576e-07 -8.23459e-05 )  
( 1.11696e-05 3.11274e-06 -8.4568e-05 )  
( 1.06783e-05 2.26529e-06 -8.55079e-05 )  
( 1.09414e-05 7.10226e-07 -8.44159e-05 )  
( 6.72844e-06 1.44747e-06 -8.78936e-05 )  
( 1.29748e-05 1.87567e-06 -7.117e-05 )  
( 1.17989e-05 2.59184e-06 -8.2122e-05 )  
( 8.47511e-06 1.90577e-06 -8.27787e-05 )  
( 1.02801e-05 1.83661e-06 -8.30748e-05 )  
( 1.26509e-05 5.23299e-06 -8.52237e-05 )  
( 9.12703e-06 2.51569e-06 -9.49483e-05 )  
( 1.24277e-05 2.34894e-06 -8.93207e-05 )  
( 1.40795e-05 2.80191e-07 -8.64789e-05 )  
( 1.1271e-05 2.4124e-06 -8.95576e-05 )  
( 9.23145e-06 3.83315e-07 -8.78481e-05 )  
( 1.25353e-05 1.71623e-06 -9.27514e-05 )  
( 1.22747e-05 2.72963e-06 -8.11302e-05 )  
( 8.58553e-06 1.27322e-06 -8.61569e-05 )  
( 7.01566e-06 -4.96213e-08 -9.21197e-05 )  
( 9.91807e-06 9.25782e-07 -9.39984e-05 )  
( 5.84264e-06 9.21737e-07 -9.37451e-05 )  
( 1.02528e-05 5.23051e-07 -8.23617e-05 )  
( 1.14738e-05 2.59726e-07 -9.07109e-05 )  
( 1.2201e-05 -1.71496e-06 -8.73836e-05 )  
( 1.18003e-05 7.03971e-07 -9.40914e-05 )  
( 1.08836e-05 -3.86188e-07 -9.06275e-05 )  
( 1.05815e-05 2.73579e-06 -9.74543e-05 )  
( 1.42862e-05 -4.60402e-06 -8.51004e-05 )  
( 1.16502e-05 2.45504e-06 -8.77386e-05 )  
( 9.51667e-06 5.652e-06 -8.71278e-05 )  
( 1.34859e-05 -1.2582e-07 -7.98959e-05 )  
( 7.39528e-06 8.55634e-07 -9.20538e-05 )  
( 7.40334e-06 -1.63773e-06 -8.9642e-05 )  
( 5.58096e-06 5.93934e-06 -9.83041e-05 )  
( 1.0618e-05 -4.98763e-07 -9.99789e-05 )  
( 1.19157e-05 -3.00544e-07 -8.87882e-05 )  
( 1.02329e-05 4.23746e-06 -9.55134e-05 )  
( 9.9078e-06 1.76973e-06 -9.83628e-05 )  
( 4.47237e-06 -2.0845e-06 -9.86724e-05 )  
( 6.08537e-06 -7.0889e-07 -9.70538e-05 )  
( 1.15352e-05 8.27655e-07 -9.59359e-05 )  
( 1.04955e-05 -2.34248e-06 -9.34486e-05 )  
( 4.28298e-06 6.31631e-06 -0.000100438 )  
( 8.93565e-06 7.37929e-06 -9.62673e-05 )  
( 9.35834e-06 -9.98468e-08 -9.5281e-05 )  
( 4.53027e-06 2.84273e-06 -9.99723e-05 )  
( 1.13037e-05 4.66972e-06 -9.5134e-05 )  
( 8.07914e-06 4.0072e-07 -9.66021e-05 )  
( 2.26653e-06 -4.79899e-06 -0.000100789 )  
( 6.50481e-06 -1.62712e-06 -9.11527e-05 )  
( 7.39894e-06 3.10174e-06 -9.7353e-05 )  
( 5.06743e-06 -1.51646e-07 -9.93974e-05 )  
( 7.23273e-06 8.66792e-07 -0.000101088 )  
( 1.20282e-05 -4.01862e-06 -9.22307e-05 )  
( 6.40102e-06 2.28443e-06 -9.44326e-05 )  
( 6.28944e-06 3.55474e-06 -9.92572e-05 )  
( 6.70987e-06 -4.02487e-07 -9.756e-05 )  
( 4.98229e-06 1.17802e-06 -0.000100215 )  
( 3.09368e-06 7.65831e-06 -0.000104443 )  
( 9.52224e-06 -3.68406e-07 -9.49181e-05 )  
( 6.00867e-06 3.82466e-06 -9.81693e-05 )  
( 4.40973e-06 2.33971e-06 -9.83436e-05 )  
( 7.69362e-06 -2.96813e-06 -9.79088e-05 )  
( 1.06721e-05 1.10758e-06 -9.63822e-05 )  
( 3.90578e-06 2.93581e-06 -0.000100315 )  
( 1.65243e-05 -3.47472e-07 -0.000101112 )  
( 1.20243e-06 4.93464e-06 -9.98074e-05 )  
( 9.84068e-06 7.48226e-06 -9.74741e-05 )  
( 6.03908e-06 -4.8463e-07 -9.75007e-05 )  
( 9.15537e-06 -7.51523e-07 -9.96587e-05 )  
( -2.21716e-06 1.64594e-06 -0.000103769 )  
( 6.74794e-06 2.40359e-06 -9.22696e-05 )  
( 6.1e-06 2.83112e-06 -9.72453e-05 )  
( 5.86012e-06 -9.19825e-07 -0.000102299 )  
( 2.35285e-06 -1.32052e-06 -0.000103181 )  
( 7.72007e-06 4.52198e-06 -9.8783e-05 )  
( 4.583e-06 7.14345e-08 -0.000102366 )  
( -2.39405e-06 2.34469e-06 -0.000103054 )  
( 3.87787e-06 -4.40015e-07 -9.78495e-05 )  
( 5.87962e-06 -2.41593e-06 -9.86297e-05 )  
( 2.77944e-07 2.27742e-06 -0.000103622 )  
( 3.31178e-06 -1.55121e-06 -9.30581e-05 )  
( -1.30158e-06 1.50856e-06 -0.000100187 )  
( -5.96003e-06 -3.58163e-06 -0.000100491 )  
( 3.0371e-06 -5.42768e-06 -0.000103455 )  
( -1.17354e-06 -2.47619e-07 -0.000104039 )  
( 4.43293e-07 -3.27069e-06 -0.000103865 )  
( 6.51031e-06 2.67326e-06 -9.25539e-05 )  
( -3.52136e-07 -9.82076e-07 -0.000104374 )  
( -7.16396e-07 5.47066e-06 -9.81135e-05 )  
( 8.03429e-07 5.07974e-07 -0.000102591 )  
( 4.10704e-06 2.90709e-06 -9.92461e-05 )  
( 3.9235e-06 4.23029e-06 -0.000100775 )  
( -1.42056e-06 8.52993e-07 -0.000103562 )  
( -3.29301e-07 -2.11014e-06 -0.000102435 )  
( 5.94649e-07 -3.38555e-06 -0.000102979 )  
( 4.03976e-06 2.54951e-06 -9.34691e-05 )  
( -4.49484e-06 -1.75191e-06 -9.90648e-05 )  
( 2.0473e-06 -1.26117e-05 -0.000110745 )  
( -1.11099e-05 -2.79924e-07 -0.000103615 )  
( -1.74894e-06 -4.15461e-06 -8.9906e-05 )  
( -6.97275e-06 6.54921e-07 -0.000109013 )  
( -7.58179e-06 2.1667e-06 -0.000110029 )  
( 2.17175e-06 1.03372e-06 -9.13989e-05 )  
( 3.16064e-06 1.79747e-06 -0.000104495 )  
( -2.32888e-06 2.01266e-06 -0.000104752 )  
( -4.01478e-06 6.74174e-07 -0.000107133 )  
( -1.83264e-06 5.44995e-06 -9.32354e-05 )  
( -1.69186e-05 1.20637e-06 -0.000112306 )  
( -7.18079e-06 -8.23935e-06 -0.000109185 )  
( 6.98701e-07 -8.12573e-07 -0.000104182 )  
( -4.38528e-06 -3.73906e-06 -0.000104362 )  
( -2.86304e-06 -5.51462e-06 -0.000101888 )  
( -1.19193e-07 2.58216e-06 -0.000102005 )  
( -7.28335e-06 -9.23858e-07 -0.000105669 )  
( 5.7008e-06 2.3697e-06 -9.08198e-05 )  
( -1.0103e-05 -4.57947e-06 -0.000103902 )  
( -1.4526e-05 -2.90893e-06 -0.000101023 )  
( -1.17022e-05 -5.5539e-07 -0.000104992 )  
( -3.2446e-06 -6.11947e-07 -0.000101711 )  
( -5.11946e-06 -3.77302e-06 -0.000104268 )  
( 3.08165e-06 1.42558e-06 -8.61811e-05 )  
( -8.94074e-06 -1.49149e-06 -0.000108571 )  
( -3.1701e-07 -1.58637e-05 -8.00532e-05 )  
( -2.87661e-06 6.94838e-06 -9.06212e-05 )  
( -3.21249e-06 -2.62655e-06 -8.39706e-05 )  
( -6.58542e-06 -2.45898e-06 -0.000105983 )  
( -1.57685e-05 2.2864e-06 -0.00011717 )  
( -4.55681e-06 6.12953e-07 -0.000116276 )  
( -7.18169e-06 5.00158e-07 -9.93215e-05 )  
( -1.10884e-06 1.5601e-06 -8.96591e-05 )  
( -9.87691e-06 -2.67228e-07 -0.000106751 )  
( -2.21062e-05 2.21707e-05 -0.000117506 )  
( -2.92346e-06 4.20045e-06 -0.00010202 )  
( -4.36303e-06 -7.40337e-06 -9.54224e-05 )  
( -4.34466e-06 -1.04786e-06 -9.76815e-05 )  
( 3.16077e-06 4.97189e-06 -8.73822e-05 )  
( -5.30554e-06 -1.31574e-06 -9.88156e-05 )  
( -3.76241e-05 1.16508e-05 -0.000116044 )  
( -1.78609e-05 1.81563e-06 -0.000114442 )  
( -1.03183e-05 2.898e-08 -7.98362e-05 )  
( -5.96473e-06 -6.03096e-06 -0.000107213 )  
( -1.02193e-05 3.86573e-06 -0.000101091 )  
( -1.96616e-05 -6.20242e-07 -0.000105455 )  
( -2.01959e-05 2.03065e-06 -9.57135e-05 )  
( -1.09171e-05 -9.33135e-06 -0.000103783 )  
( -6.12491e-06 -9.78091e-06 -8.96355e-05 )  
( -1.65559e-06 7.52106e-06 -0.00010388 )  
( -1.7026e-05 9.91546e-07 -0.00010577 )  
( -1.73335e-05 9.85399e-07 -0.00010252 )  
( -4.96586e-06 -3.10501e-06 -8.47099e-05 )  
( -4.96148e-06 -9.21437e-06 -0.000104373 )  
( -3.94588e-05 -9.98492e-06 -0.00010226 )  
( -9.49872e-07 7.1049e-06 -8.00676e-05 )  
( -2.82311e-06 2.14206e-06 -7.40545e-05 )  
( -2.9283e-05 -6.59035e-06 -9.91703e-05 )  
( -1.51575e-05 9.19403e-06 -0.00010755 )  
( -8.66282e-06 8.8237e-06 -8.47387e-05 )  
( -1.9748e-05 8.45257e-06 -9.47626e-05 )  
( -1.54643e-05 5.86015e-06 -0.000108815 )  
( -1.05263e-05 -7.67083e-06 -9.40606e-05 )  
( 1.58297e-05 -4.05447e-05 -0.000118936 )  
( -1.03395e-05 -3.85099e-05 -0.000109987 )  
( -4.50504e-06 2.62298e-06 -7.78713e-05 )  
( -1.0029e-05 -9.17152e-07 -7.76454e-05 )  
( -2.31461e-05 3.63546e-06 -0.000100981 )  
( -4.04788e-05 -8.52177e-06 -9.00955e-05 )  
( -2.18105e-05 -2.50332e-06 -0.000112604 )  
( -4.11469e-05 -2.37675e-06 -0.000103808 )  
( -9.94176e-06 4.86414e-06 -8.0942e-05 )  
( -7.41441e-06 -2.25146e-06 -7.91806e-05 )  
( -2.35248e-05 -8.51304e-07 -0.000102584 )  
( -2.16906e-05 -4.65553e-06 -0.00010544 )  
( -1.96014e-05 5.13733e-06 -9.82783e-05 )  
( -1.36381e-05 -1.60008e-05 -0.000112682 )  
( -2.30655e-05 7.20991e-07 -0.000114574 )  
( -9.76512e-06 5.75902e-06 -0.000125385 )  
( -2.44529e-05 4.48035e-06 -0.000103198 )  
( -1.98357e-06 -1.1171e-05 -9.04138e-05 )  
( -2.92435e-05 5.37957e-06 -9.95979e-05 )  
( -1.0022e-05 -4.94902e-05 -0.000104641 )  
( -7.94999e-06 3.37558e-06 -8.01903e-05 )  
( -1.08638e-05 5.06756e-05 -0.000125987 )  
( -3.41486e-05 -1.40176e-05 -0.000114772 )  
( -5.09025e-05 -2.80459e-06 -9.88653e-05 )  
( -7.66704e-06 1.16223e-05 -7.61384e-05 )  
( -1.12916e-05 -1.314e-05 -8.97899e-05 )  
( -2.55048e-05 -1.5125e-06 -9.89449e-05 )  
( -2.2445e-05 -1.91223e-07 -7.03376e-05 )  
( -3.38714e-05 2.63802e-05 -0.000103415 )  
( -1.96744e-05 -8.81335e-06 -8.11167e-05 )  
( -1.7543e-05 -1.39605e-05 -9.63196e-05 )  
( -3.20747e-05 -9.17414e-06 -9.04711e-05 )  
( -1.87233e-05 -8.73616e-06 -0.0001179 )  
( -1.47471e-05 5.43653e-06 -6.5676e-05 )  
)
