FoamFile
{version 2.0; format ascii;class vectorField; location 0;object  v;}
349
(
( -1.61401e-06 -6.36092e-06 -1.60309e-05 )  
( -7.97283e-07 -3.18377e-07 -7.92917e-06 )  
( 2.20773e-06 3.03815e-07 -1.49844e-05 )  
( 7.16966e-07 -2.30692e-06 -1.43134e-05 )  
( 2.93936e-06 -3.27899e-06 -9.70548e-06 )  
( -1.87201e-07 -1.89613e-06 -1.25938e-05 )  
( 1.54627e-06 -1.20854e-07 -1.19522e-05 )  
( 2.08263e-07 -4.65765e-06 -1.46715e-05 )  
( 5.94711e-05 -1.25414e-05 -1.46143e-09 )  
( 6.56595e-07 1.30444e-06 -1.54775e-05 )  
( -2.59111e-06 -2.79038e-06 -1.46537e-05 )  
( 1.15363e-06 4.35938e-07 -1.17109e-05 )  
( -3.60845e-06 -1.8429e-06 -1.29195e-05 )  
( 4.84782e-07 -3.24345e-06 -1.09107e-05 )  
( 1.48858e-06 -8.5629e-08 -1.6567e-05 )  
( -1.46328e-08 1.42922e-06 -1.41613e-05 )  
( -2.45565e-07 3.58477e-06 -1.59174e-05 )  
( -2.09062e-06 -5.71973e-07 -1.45464e-05 )  
( -5.87954e-06 -4.26359e-06 -1.34681e-05 )  
( -1.72233e-06 -1.09693e-05 -9.1691e-06 )  
( 5.07617e-06 3.3713e-06 -2.84617e-05 )  
( -4.83756e-06 -1.05155e-05 -3.34768e-06 )  
( 5.03402e-07 -7.08945e-07 -1.27794e-05 )  
( 7.52994e-07 5.40099e-07 -3.08943e-06 )  
( 3.9681e-07 9.05829e-07 -3.26551e-05 )  
( 1.14757e-06 -1.53008e-06 -1.22962e-05 )  
( 5.49251e-07 3.38019e-06 -1.00868e-05 )  
( 5.1157e-06 -1.98617e-06 -2.77418e-05 )  
( 1.10177e-06 -9.47052e-07 -1.12063e-05 )  
( 2.22699e-06 -1.30207e-05 -3.3776e-05 )  
( -1.744e-06 -5.31013e-06 -1.74453e-05 )  
( 5.37217e-06 -1.6925e-06 -2.99894e-05 )  
( 1.0201e-05 1.55429e-06 -1.70182e-05 )  
( 6.23129e-06 -5.13658e-06 -2.87909e-05 )  
( -2.8562e-07 -7.53867e-06 -2.97167e-05 )  
( 2.5545e-06 -8.16363e-07 -2.96457e-05 )  
( 9.79972e-06 -5.88896e-06 -3.38218e-05 )  
( 2.37279e-06 -2.82839e-06 -2.63605e-05 )  
( 8.83742e-06 -5.72342e-06 -2.18111e-05 )  
( 1.93936e-06 -4.39823e-06 -2.6781e-05 )  
( 5.66422e-07 -1.04017e-06 -2.9522e-05 )  
( 9.6241e-06 4.30581e-06 -1.94989e-05 )  
( 5.01086e-06 -3.2696e-06 -3.70066e-05 )  
( 5.31789e-06 -1.26662e-05 -2.00443e-05 )  
( 2.61595e-06 -6.57386e-06 -5.0631e-05 )  
( -4.45611e-07 -1.72196e-06 -4.56625e-05 )  
( 9.35235e-06 -2.06912e-06 -3.97424e-05 )  
( -1.21827e-06 -2.73861e-06 -4.67654e-05 )  
( 4.0147e-06 -2.61743e-06 -3.45326e-05 )  
( 3.49678e-06 2.31797e-06 -3.02947e-05 )  
( 8.15886e-06 -2.51628e-06 -4.5656e-05 )  
( -9.03663e-07 -9.52543e-07 -2.61584e-05 )  
( -2.01775e-07 -3.45728e-06 -3.99561e-05 )  
( -7.54793e-06 -4.63259e-06 -3.45746e-05 )  
( 1.12283e-06 2.76634e-06 -2.99142e-05 )  
( 5.94482e-06 -4.34672e-07 -4.11226e-05 )  
( -1.03994e-06 -2.42622e-06 -4.53715e-05 )  
( 4.29837e-06 -1.07999e-05 -5.34688e-05 )  
( 8.99658e-06 -4.35777e-06 -4.28228e-05 )  
( 2.25406e-06 1.87373e-06 -5.82245e-05 )  
( 1.14995e-05 -5.81656e-07 -4.73917e-05 )  
( 6.82549e-06 1.51288e-08 -4.20714e-05 )  
( 1.53692e-06 3.32455e-06 -4.70952e-05 )  
( 1.5615e-06 -7.44588e-07 -4.29277e-05 )  
( 9.41837e-06 -8.25734e-06 -5.04857e-05 )  
( 5.83642e-06 1.46728e-06 -4.74782e-05 )  
( 4.11063e-06 -5.8476e-06 -4.52004e-05 )  
( 1.24966e-05 1.8548e-08 -3.77244e-05 )  
( -1.04106e-06 -1.18803e-05 -3.97482e-05 )  
( 1.39306e-05 -2.37843e-06 -4.33533e-05 )  
( 8.27121e-06 -1.05649e-07 -5.84349e-05 )  
( 7.04299e-06 -5.11073e-06 -5.63733e-05 )  
( 4.76842e-06 -3.44274e-06 -5.56853e-05 )  
( 7.47831e-06 -1.86203e-06 -5.74251e-05 )  
( 6.41079e-06 -2.74387e-06 -5.65598e-05 )  
( 4.37252e-06 -2.62461e-06 -4.47357e-05 )  
( -1.80178e-07 -3.35119e-06 -7.10959e-05 )  
( 3.96196e-06 -1.73958e-05 -4.16388e-05 )  
( 1.03512e-05 -3.87189e-06 -4.96298e-05 )  
( 7.15968e-06 -3.33781e-06 -5.89957e-05 )  
( 5.65466e-06 -1.84645e-06 -5.28105e-05 )  
( 8.06062e-06 -1.33293e-06 -5.72322e-05 )  
( -1.35605e-06 -4.49716e-06 -7.32905e-05 )  
( 9.20563e-06 -1.64e-06 -6.00573e-05 )  
( 9.24937e-06 -3.52746e-06 -6.4188e-05 )  
( 3.54379e-06 -3.71886e-06 -5.90396e-05 )  
( 1.51943e-05 2.83971e-06 -7.04827e-05 )  
( 1.12135e-06 -5.56727e-06 -5.89448e-05 )  
( 3.6238e-06 -3.66322e-06 -7.78351e-05 )  
( 7.53512e-06 -3.10907e-06 -6.51368e-05 )  
( 6.35442e-06 -2.22639e-06 -7.01809e-05 )  
( 4.11014e-06 7.79934e-06 -7.57843e-05 )  
( 6.86549e-06 -7.2068e-06 -5.66763e-05 )  
( 7.99572e-06 -7.51271e-06 -6.19277e-05 )  
( -2.77046e-06 -3.89054e-06 -6.03947e-05 )  
( -1.68737e-06 -3.30985e-06 -6.36609e-05 )  
( 8.14156e-06 3.80357e-06 -6.71455e-05 )  
( 1.34046e-06 -3.16948e-06 -8.05052e-05 )  
( 4.68608e-06 3.10545e-06 -8.39631e-05 )  
( 2.8535e-06 -5.35586e-06 -7.15359e-05 )  
( 6.20741e-06 -3.02156e-06 -6.84922e-05 )  
( 2.43113e-06 -5.43258e-06 -6.70068e-05 )  
( 5.50936e-06 -2.88669e-06 -7.94188e-05 )  
( 4.50252e-06 -3.05673e-06 -7.94211e-05 )  
( 8.0538e-06 -3.86031e-06 -7.96176e-05 )  
( 3.57877e-06 -1.97957e-06 -8.11732e-05 )  
( 4.68984e-06 -3.37936e-06 -7.26053e-05 )  
( 7.70487e-06 -4.11021e-06 -6.51032e-05 )  
( -9.1361e-07 -2.85885e-06 -8.23443e-05 )  
( 1.19932e-05 1.15166e-05 -8.31024e-05 )  
( 5.32685e-06 -1.65894e-06 -7.27785e-05 )  
( -2.48491e-06 -1.39664e-06 -8.49686e-05 )  
( 3.07758e-06 -3.1474e-06 -8.71276e-05 )  
( 5.92414e-06 -5.48178e-06 -7.24298e-05 )  
( 2.84957e-06 -9.76037e-06 -9.84028e-05 )  
( 3.82997e-06 -3.3873e-06 -8.35407e-05 )  
( 4.7501e-06 -3.5803e-06 -6.69036e-05 )  
( 2.70334e-06 -2.55722e-06 -8.30802e-05 )  
( 5.37829e-06 -5.1543e-06 -8.83195e-05 )  
( 1.08415e-06 -5.36712e-06 -9.12573e-05 )  
( 8.46379e-06 1.13449e-06 -7.13567e-05 )  
( 2.51794e-06 -3.17089e-06 -7.71249e-05 )  
( -4.04302e-07 4.13557e-06 -8.56324e-05 )  
( -3.06408e-07 -7.50056e-06 -9.52611e-05 )  
( 7.82141e-06 -2.61697e-06 -7.36277e-05 )  
( 9.27547e-07 -1.02012e-05 -8.47598e-05 )  
( 2.67238e-06 -4.27349e-06 -9.05231e-05 )  
( 2.4873e-06 -4.95401e-06 -8.78067e-05 )  
( 8.05401e-06 -4.93283e-07 -7.75187e-05 )  
( 3.54347e-06 -9.20596e-07 -0.000101922 )  
( 2.94794e-06 -1.73694e-06 -9.80944e-05 )  
( 5.97663e-06 -4.08149e-06 -8.70242e-05 )  
( 5.8465e-07 -9.92091e-06 -9.25961e-05 )  
( 7.65214e-06 -5.51128e-06 -8.89369e-05 )  
( 5.43113e-06 -1.5771e-06 -9.07565e-05 )  
( -6.32711e-06 -5.9509e-06 -9.24589e-05 )  
( 6.22815e-06 -4.1057e-06 -7.16963e-05 )  
( 3.95995e-06 -5.90984e-06 -0.000105317 )  
( -5.9622e-07 -3.65411e-06 -0.000101824 )  
( -1.89407e-06 -1.99956e-06 -8.71947e-05 )  
( 4.31787e-06 -5.48417e-06 -0.000106189 )  
( -1.73821e-06 -1.30254e-06 -9.97296e-05 )  
( 3.76084e-06 -1.25334e-06 -9.66045e-05 )  
( 2.34367e-06 -2.52243e-06 -0.000101356 )  
( 7.35545e-06 -3.98593e-06 -0.000104521 )  
( -4.83567e-06 -2.96784e-06 -0.000105187 )  
( 3.60995e-06 -3.92858e-06 -0.000109563 )  
( 2.8387e-06 2.60585e-07 -9.15191e-05 )  
( 1.43601e-06 -5.19052e-06 -0.000106221 )  
( 6.70024e-06 -3.89796e-06 -9.25104e-05 )  
( 7.41609e-06 -2.44945e-06 -9.21149e-05 )  
( 5.68196e-06 -9.20448e-06 -9.4552e-05 )  
( 2.0982e-06 1.85745e-06 -0.00010962 )  
( 1.93212e-06 -7.05619e-06 -9.77252e-05 )  
( -9.38153e-07 -6.29811e-07 -0.000105828 )  
( -3.11828e-07 -5.47709e-06 -0.000120058 )  
( 3.28781e-06 -3.27244e-06 -0.000113064 )  
( 2.64225e-06 -4.36094e-06 -9.71178e-05 )  
( 1.27818e-06 -1.91615e-06 -0.000110357 )  
( 4.00043e-06 -4.88616e-06 -0.000107434 )  
( 2.80888e-06 -3.42643e-06 -0.000110588 )  
( -2.20808e-06 -5.73362e-06 -0.000105509 )  
( 3.0464e-06 -4.98605e-06 -0.000112842 )  
( 2.63894e-06 -5.33167e-06 -0.000102765 )  
( 5.93371e-06 -3.10841e-06 -0.000105717 )  
( 5.45544e-06 -2.54091e-06 -0.000102702 )  
( 2.98449e-06 -1.37314e-06 -0.000117695 )  
( -7.38972e-08 -6.88539e-06 -0.000118098 )  
( -1.57071e-07 -2.45741e-06 -0.000117225 )  
( 2.69981e-06 -4.04716e-06 -0.000116589 )  
( 3.74637e-06 -1.89123e-06 -0.000114999 )  
( -6.30063e-07 -4.48612e-06 -0.000102425 )  
( 1.35825e-06 -4.87824e-06 -0.000120654 )  
( 4.43422e-06 -7.08765e-07 -0.000110935 )  
( 3.39057e-06 -1.33722e-06 -0.000113891 )  
( 1.4593e-06 -3.76459e-06 -0.000111732 )  
( 1.61782e-06 -5.17346e-07 -0.000117897 )  
( 3.69072e-07 -4.20097e-06 -0.000122763 )  
( 1.39015e-06 -3.55636e-06 -0.00011236 )  
( 2.01427e-07 -6.67836e-06 -0.000126757 )  
( 3.05283e-06 -4.40447e-06 -0.000117019 )  
( 7.70748e-07 -2.97485e-06 -0.000122595 )  
( -4.36326e-06 -2.08508e-06 -0.000120096 )  
( 1.02926e-05 2.14406e-06 -0.000120641 )  
( 6.54567e-06 -1.65881e-06 -0.000117156 )  
( -3.07066e-06 -4.21638e-06 -0.000121245 )  
( -1.29036e-06 -6.20329e-06 -0.000126414 )  
( 4.89229e-07 -2.8358e-06 -0.000115287 )  
( 4.19932e-06 -3.32891e-06 -0.000112586 )  
( -1.30649e-06 -4.38275e-06 -0.000120497 )  
( -1.52325e-06 -3.37977e-06 -0.000124729 )  
( 6.18344e-07 -3.44559e-06 -0.000133883 )  
( 2.49425e-06 -2.04664e-06 -0.0001251 )  
( 4.94209e-07 -5.93675e-06 -0.000128167 )  
( -4.28253e-06 -5.47665e-06 -0.00012369 )  
( 3.01839e-06 -3.13127e-06 -0.000119919 )  
( -3.82273e-07 -3.9216e-06 -0.000125029 )  
( -3.88519e-08 -1.23656e-06 -0.000129475 )  
( 1.95273e-06 -4.68361e-06 -0.000125382 )  
( -1.60893e-07 -5.25282e-06 -0.000130345 )  
( -3.1946e-06 -2.81794e-06 -0.000132437 )  
( 4.00468e-06 1.53977e-06 -0.000125721 )  
( -3.63112e-07 -2.07164e-06 -0.000124871 )  
( -1.64525e-06 -2.5709e-06 -0.000124988 )  
( -1.47014e-06 -4.13621e-06 -0.000129956 )  
( 6.68357e-06 -1.76424e-06 -0.000126835 )  
( -2.58415e-06 -4.51665e-06 -0.000133362 )  
( 3.073e-08 -1.77641e-06 -0.000122724 )  
( -2.17795e-06 -3.29142e-06 -0.000131105 )  
( -1.98058e-06 -3.89629e-06 -0.000131514 )  
( -8.67393e-07 -2.90348e-06 -0.000127637 )  
( 1.92586e-06 -1.75949e-06 -0.000121468 )  
( 4.58714e-06 -3.06654e-06 -0.000124523 )  
( -2.01729e-06 -3.26981e-06 -0.000138148 )  
( -1.94789e-07 -4.56484e-06 -0.00012951 )  
( -1.9296e-06 -2.0021e-06 -0.000133875 )  
( -4.85215e-06 -3.48448e-06 -0.000134613 )  
( -2.6531e-06 -2.60867e-06 -0.000140925 )  
( -5.78292e-07 -2.85468e-06 -0.000127353 )  
( -4.66463e-06 -8.71093e-06 -0.000132724 )  
( -1.33302e-06 -3.28563e-06 -0.00013449 )  
( -2.02507e-06 -2.78548e-06 -0.000142241 )  
( -2.98029e-06 -4.58354e-06 -0.000137139 )  
( -3.70387e-06 -5.32364e-06 -0.000138598 )  
( -3.04735e-07 -4.83803e-06 -0.000135186 )  
( 1.67886e-07 -3.11851e-06 -0.000139073 )  
( -1.08578e-06 -1.9293e-06 -0.000136789 )  
( -3.45847e-06 -4.18162e-06 -0.000133489 )  
( -4.1e-06 -3.59561e-06 -0.000144553 )  
( -1.12637e-06 -3.13467e-06 -0.000125263 )  
( -1.64018e-06 -4.39705e-06 -0.000135725 )  
( -8.86701e-09 -1.35981e-07 -0.000139391 )  
( -4.44725e-08 -3.70051e-06 -0.000134003 )  
( -4.03572e-06 -7.17624e-07 -0.000133446 )  
( 9.47631e-07 3.68596e-07 -0.000129998 )  
( 7.56083e-08 -3.02444e-06 -0.000134465 )  
( -4.1095e-06 -4.59378e-06 -0.000135258 )  
( -3.28835e-06 -2.46074e-06 -0.000142737 )  
( -7.51374e-06 -3.11844e-06 -0.000142176 )  
( -7.99691e-07 -3.50089e-06 -0.000142545 )  
( 5.94916e-08 -3.68041e-06 -0.000138217 )  
( -7.73375e-06 -4.2674e-06 -0.000140167 )  
( -1.21149e-06 -3.53964e-06 -0.00013941 )  
( 4.17235e-08 -3.91774e-06 -0.000140415 )  
( 9.27066e-06 -1.72562e-05 -0.000129278 )  
( 1.74541e-06 -1.07001e-06 -0.000133738 )  
( 1.132e-07 -1.21415e-06 -0.000138937 )  
( -3.32874e-06 -2.63364e-06 -0.000140127 )  
( -5.47105e-07 -2.58762e-06 -0.000140483 )  
( -2.42227e-06 -3.04682e-06 -0.000145262 )  
( -3.24628e-07 -2.90959e-06 -0.000143529 )  
( 1.49784e-06 -2.47964e-06 -0.000139883 )  
( -7.24e-07 -6.71146e-06 -0.000146515 )  
( 7.49719e-07 -5.98917e-06 -0.000140064 )  
( -3.63553e-06 -3.38896e-06 -0.000149914 )  
( 1.82214e-07 -1.97312e-06 -0.00014013 )  
( -1.13652e-06 -2.10467e-06 -0.000141 )  
( -7.94692e-07 -2.22183e-06 -0.000144238 )  
( -3.73563e-07 -4.18844e-07 -0.000144009 )  
( -5.84676e-06 -5.68371e-06 -0.000148387 )  
( -6.42511e-07 -1.54047e-06 -0.000134412 )  
( 8.21094e-07 -3.14552e-06 -0.000142984 )  
( -1.17732e-06 -2.17642e-06 -0.000138539 )  
( 3.31386e-06 -6.99142e-06 -0.000147353 )  
( -3.78157e-06 -3.7184e-06 -0.000142319 )  
( 1.08907e-06 -2.25026e-06 -0.000137057 )  
( 1.02792e-06 -5.6377e-06 -0.00014591 )  
( 4.3814e-06 -5.05242e-06 -0.000142981 )  
( -4.08413e-06 -3.47524e-06 -0.000153936 )  
( -4.27981e-06 -1.666e-06 -0.00014034 )  
( -1.43261e-06 -7.48118e-06 -0.000149077 )  
( -1.3577e-07 -2.36705e-06 -0.00014467 )  
( 7.19503e-07 -3.11847e-06 -0.000144923 )  
( 3.81788e-07 -1.23729e-06 -0.000145769 )  
( -7.6772e-06 -3.62022e-06 -0.000152924 )  
( -2.99059e-07 -3.00171e-06 -0.000142443 )  
( -2.4679e-06 -2.40993e-06 -0.00014919 )  
( -1.7197e-06 -6.20494e-06 -0.000137944 )  
( 1.53878e-06 -5.32835e-06 -0.000143638 )  
( 2.65817e-06 -2.32168e-06 -0.000144338 )  
( -2.22934e-06 -2.04618e-06 -0.000146871 )  
( 1.64912e-06 -6.01552e-06 -0.000144537 )  
( -4.60084e-06 -1.51561e-06 -0.000150581 )  
( -2.94283e-06 8.34404e-08 -0.00014562 )  
( -4.8265e-06 -7.24106e-06 -0.000156402 )  
( -4.17536e-06 -5.56345e-06 -0.000150123 )  
( 2.5613e-06 -4.2312e-06 -0.000136654 )  
( 1.2052e-06 -4.80339e-06 -0.000150767 )  
( 1.52152e-06 -6.78109e-06 -0.00014408 )  
( -4.06979e-06 -4.97531e-06 -0.000156052 )  
( -4.00788e-06 -3.15996e-06 -0.000144955 )  
( -4.65587e-06 -1.79435e-06 -0.000140602 )  
( -2.71777e-06 -9.01943e-06 -0.000150082 )  
( 5.7101e-07 -1.13869e-05 -0.000156136 )  
( -6.15371e-06 -5.84696e-06 -0.000143403 )  
( -6.91809e-06 -2.13524e-06 -0.000143899 )  
( 1.68077e-06 9.0064e-07 -0.000151829 )  
( -1.02597e-05 -5.49403e-06 -0.000154959 )  
( 6.50878e-07 5.28656e-06 -0.000145617 )  
( -3.4244e-06 -4.6763e-06 -0.000151211 )  
( -6.00118e-08 -1.06011e-06 -0.000147212 )  
( -1.61931e-06 -5.82319e-06 -0.000152175 )  
( 3.96957e-06 -1.35008e-06 -0.000142555 )  
( -1.55547e-07 -1.89191e-07 -0.000160227 )  
( 2.83247e-06 -6.85173e-06 -0.000151326 )  
( -1.75896e-06 -6.58715e-06 -0.000149566 )  
( 5.92745e-06 -1.19205e-06 -0.000144067 )  
( 1.47087e-05 5.6106e-06 -0.000143269 )  
( -1.55091e-05 -7.45116e-06 -0.000149806 )  
( 6.50636e-06 -1.35694e-06 -0.00014134 )  
( 4.13418e-06 3.77467e-06 -0.00014377 )  
( -1.11542e-05 -1.28997e-07 -0.000147937 )  
( -1.59829e-05 1.1258e-05 -0.000154161 )  
( 1.01209e-05 1.12065e-06 -0.000150681 )  
( -2.97185e-06 -4.83232e-06 -0.000147469 )  
( -6.86203e-06 -9.85944e-06 -0.000134417 )  
( 2.44392e-06 -9.43368e-06 -0.000152317 )  
( 1.02179e-06 -5.46583e-06 -0.00015197 )  
( -2.77557e-06 -5.98743e-06 -0.000156517 )  
( -1.29646e-06 -1.26071e-06 -0.000149415 )  
( -1.32037e-06 1.26018e-06 -0.000147768 )  
( 3.39536e-06 -7.13786e-06 -0.000160863 )  
( -5.18546e-06 -6.21486e-06 -0.000160759 )  
( 1.03345e-05 -4.89548e-06 -0.000145643 )  
( -3.39456e-06 1.18366e-06 -0.000146408 )  
( -1.6112e-06 -1.72466e-05 -0.000157529 )  
( 1.68355e-06 4.7316e-06 -0.000151647 )  
( 2.17958e-06 -1.61709e-05 -0.000157817 )  
( -2.05014e-05 -8.80754e-06 -0.000149876 )  
( 1.9666e-05 -7.38267e-06 -0.000149399 )  
( -9.43971e-07 -2.97927e-06 -0.000149978 )  
( 9.4774e-06 -1.91288e-07 -0.000149606 )  
( -2.67679e-05 5.32261e-06 -0.000157797 )  
( -1.41938e-05 -8.19259e-06 -0.000151911 )  
( -2.64107e-06 3.36532e-05 -0.000150454 )  
( -1.96003e-05 -1.36875e-05 -0.000142235 )  
( 3.28622e-06 -7.20921e-06 -0.000156696 )  
( 1.2211e-05 8.95274e-07 -0.000147222 )  
( -2.97363e-05 -1.33772e-05 -0.000156079 )  
( 1.93238e-06 -6.99548e-06 -0.000142698 )  
( -3.88414e-06 -1.32807e-05 -0.000159065 )  
( 1.09239e-05 -1.67446e-07 -0.000148579 )  
( -4.62654e-05 -2.65969e-05 -0.000135607 )  
( 5.63587e-06 2.18574e-06 -0.000158629 )  
( 4.01419e-05 1.54107e-05 -0.000156741 )  
( 3.66112e-05 -1.24146e-05 -0.000186831 )  
( -2.85106e-05 4.53569e-06 -0.000158407 )  
( -1.09641e-06 2.26197e-06 -0.000143492 )  
( 1.92571e-05 1.48753e-05 -0.000195191 )  
)
