FoamFile
{version 2.0; format ascii;class Cloud<passiveParticle>; location 0;object  positions;}
350
(
( -3.38126 1.96381 0.499818 ) 0 
( -2.40599 2.2424 0.499618 ) 0 
( -4.23594 3.81013 0.499974 ) 0 
( -2.25727 4.04583 0.49974 ) 0 
( -2.75331 4.92879 0.499612 ) 0 
( -1.45321 1.4958 0.499571 ) 0 
( -0.599425 2.12631 0.499904 ) 0 
( -0.869592 4.2568 0.499626 ) 0 
( -4.46663 1.0922 0.499975 ) 0 
( -0.311793 3.39037 0.499742 ) 0 
( -2.71287 0.280718 0.499599 ) 0 
( -1.3112 3.3599 0.499722 ) 0 
( -0.504187 1.13005 0.499663 ) 0 
( -4.35582 2.20543 0.499706 ) 0 
( -4.7057 0.121193 0.499639 ) 0 
( -3.75782 4.69802 0.499832 ) 0 
( -4.75025 4.81973 0.499524 ) 0 
( -3.70742 0.177773 0.499856 ) 0 
( -4.6139 1.9102 1.41942 ) 0 
( -2.42116 1.23925 0.499787 ) 0 
( -1.2175 0.68906 1.04368 ) 0 
( -1.74353 0.0355214 0.499786 ) 0 
( -4.88807 3.05202 0.499758 ) 0 
( -1.48629 2.43339 0.845013 ) 0 
( -3.23666 3.84478 0.51613 ) 0 
( -1.67103 4.85617 0.499784 ) 0 
( -0.00726572 4.19922 1.00238 ) 0 
( -3.63954 2.92974 0.499569 ) 0 
( -4.87474 0.659693 1.32493 ) 0 
( -4.46763 4.33809 1.32871 ) 0 
( -3.33091 1.03187 0.858703 ) 0 
( -1.60585 4.19158 1.244 ) 0 
( -2.19595 3.13484 0.90699 ) 0 
( -1.38809 3.24727 1.49009 ) 0 
( -0.53628 2.77695 1.25655 ) 0 
( -0.575903 0.221219 1.75095 ) 0 
( -2.14358 1.73695 1.32127 ) 0 
( -4.27402 2.8411 1.26692 ) 0 
( -0.728593 4.81652 1.31576 ) 0 
( -3.00161 2.624 1.2059 ) 0 
( -2.19031 0.643964 1.27029 ) 0 
( -0.00919218 3.49455 1.71142 ) 0 
( -0.878043 1.60823 1.30921 ) 0 
( -2.69384 4.40101 1.34651 ) 0 
( -3.62283 1.78344 1.45305 ) 0 
( -4.83914 3.51277 1.75335 ) 0 
( -3.90309 0.454354 1.44056 ) 0 
( -4.27616 1.71282 2.3394 ) 0 
( -3.588 4.4441 1.79209 ) 0 
( -0.845294 3.10152 2.31705 ) 0 
( -2.49657 2.36596 2.02917 ) 0 
( -2.61404 3.48711 1.74388 ) 0 
( -1.55998 1.13767 1.86869 ) 0 
( -2.86882 1.19868 1.75115 ) 0 
( -0.542176 2.17943 2.05799 ) 0 
( -1.51582 2.31877 1.83793 ) 0 
( -0.856224 3.99986 1.87827 ) 0 
( -4.42249 0.0996103 2.21782 ) 0 
( -2.04695 0.0533868 2.0644 ) 0 
( -4.66984 2.61347 2.15635 ) 0 
( -3.55532 3.52133 1.40876 ) 0 
( -0.497095 1.18326 2.12989 ) 0 
( -2.23838 4.28627 2.22913 ) 0 
( -1.25114 1.73697 2.60682 ) 0 
( -3.61963 2.62599 1.99145 ) 0 
( -0.619143 2.43039 3.02278 ) 0 
( -2.77407 0.601086 2.5471 ) 0 
( -4.00362 3.49499 2.30213 ) 0 
( -2.25878 1.5064 2.481 ) 0 
( -3.70097 0.895328 2.31467 ) 0 
( -1.50632 4.90431 1.93794 ) 0 
( -4.92231 0.950784 2.3773 ) 0 
( -1.13381 0.529375 2.53752 ) 0 
( -0.403493 4.53266 2.64399 ) 0 
( -4.43837 4.23674 2.81197 ) 0 
( -4.86644 3.33316 2.82196 ) 0 
( -1.87954 1.70802 3.38378 ) 0 
( -4.31892 1.13634 3.15517 ) 0 
( -1.94261 0.755022 3.08044 ) 0 
( -2.44832 3.19628 2.68579 ) 0 
( -1.61324 2.65364 2.77487 ) 0 
( -3.12717 3.92729 2.51353 ) 0 
( -3.28468 1.79602 2.43676 ) 0 
( -1.37444 4.3111 2.73171 ) 0 
( -3.51446 0.546358 3.23285 ) 0 
( -0.217862 3.47743 3.13821 ) 0 
( -3.91657 2.73028 2.9403 ) 0 
( -2.62541 0.0968547 3.39773 ) 0 
( -0.834724 0.312137 3.46637 ) 0 
( -3.86031 4.54775 3.56595 ) 0 
( -1.26246 2.78304 3.70202 ) 0 
( -2.89539 1.33159 3.23178 ) 0 
( -4.47706 0.150903 3.21476 ) 0 
( -2.62137 2.26878 3.01644 ) 0 
( -3.50244 4.87317 2.69106 ) 0 
( -1.75359 3.57757 3.29527 ) 0 
( -2.58106 4.73531 3.05419 ) 0 
( -3.18427 3.26711 3.35878 ) 0 
( -0.690664 1.30405 3.31243 ) 0 
( -0.713535 2.01013 4.01999 ) 0 
( -0.869358 4.66505 3.51858 ) 0 
( -2.25925 2.8443 3.74929 ) 0 
( -4.13713 3.54822 3.47128 ) 0 
( -1.42872 0.984926 3.90664 ) 0 
( -2.61299 3.99364 3.74021 ) 0 
( -4.38348 2.06443 3.52166 ) 0 
( -3.65188 1.29223 3.8845 ) 0 
( -4.65913 4.18121 4.04266 ) 0 
( -0.0427596 0.44311 4.06238 ) 0 
( -0.290877 2.95097 4.00205 ) 0 
( -0.91218 3.71229 3.81813 ) 0 
( -1.97402 1.98202 4.34048 ) 0 
( -2.41349 1.05701 4.06341 ) 0 
( -1.69423 4.31823 3.96442 ) 0 
( -0.197753 1.26779 4.60607 ) 0 
( -3.40408 2.22894 3.63722 ) 0 
( -4.74853 1.29438 4.04413 ) 0 
( -3.7079 3.89356 4.30638 ) 0 
( -4.88166 2.9069 3.72635 ) 0 
( -3.06251 4.66878 4.32498 ) 0 
( -1.6947 3.39975 4.35971 ) 0 
( -3.95357 2.86545 4.17837 ) 0 
( -3.21076 0.537159 4.3695 ) 0 
( -0.299388 4.75824 4.33488 ) 0 
( -1.2337 1.46049 4.76405 ) 0 
( -2.9282 2.22301 4.5165 ) 0 
( -2.98373 3.20486 4.33619 ) 0 
( -4.10022 1.93278 4.5078 ) 0 
( -2.15377 0.570306 4.89712 ) 0 
( -2.41498 3.72751 4.97083 ) 0 
( -0.517998 2.01574 5.18737 ) 0 
( -0.661957 3.74168 4.78557 ) 0 
( -4.10409 0.864785 4.67612 ) 0 
( -1.00237 2.71966 4.66519 ) 0 
( -4.50851 3.48889 4.74808 ) 0 
( -2.1287 4.66879 4.79386 ) 0 
( -0.875532 0.533933 4.65022 ) 0 
( -2.19258 2.75336 4.93785 ) 0 
( -2.02746 1.37796 5.47261 ) 0 
( -2.96334 0.486587 5.47796 ) 0 
( -3.35168 3.95197 5.23874 ) 0 
( -3.5814 2.96575 5.10105 ) 0 
( -0.670085 2.92762 5.58482 ) 0 
( -4.70601 1.44595 5.22369 ) 0 
( -2.58108 4.43737 5.65497 ) 0 
( -1.47979 2.20911 5.37997 ) 0 
( -4.08341 4.7707 4.6089 ) 0 
( -1.38081 0.432651 5.51613 ) 0 
( -0.618527 4.60533 5.28734 ) 0 
( -2.86678 1.30933 4.91813 ) 0 
( -0.401511 0.616051 5.59969 ) 0 
( -4.50443 2.59163 5.18914 ) 0 
( -4.91726 0.137634 4.90108 ) 0 
( -2.46589 2.24043 5.75152 ) 0 
( -1.49023 3.58382 5.32272 ) 0 
( -4.05376 3.50825 5.79538 ) 0 
( -3.75287 0.26657 6.07705 ) 0 
( -4.74863 2.81064 6.13359 ) 0 
( -0.738408 2.16504 6.22772 ) 0 
( -4.42644 4.39336 5.46901 ) 0 
( -3.80869 1.13856 5.59111 ) 0 
( -3.39483 2.02325 5.37776 ) 0 
( -1.06466 1.35356 5.74346 ) 0 
( -2.78203 3.18868 5.72869 ) 0 
( -3.33436 4.95196 5.24578 ) 0 
( -2.90444 1.3647 5.9524 ) 0 
( -4.2372 1.97586 5.93021 ) 0 
( -0.0327483 2.88732 6.39697 ) 0 
( -1.00019 0.397982 6.44035 ) 0 
( -1.78216 2.92166 6.01272 ) 0 
( -1.91449 3.89993 6.17115 ) 0 
( -4.49233 4.80004 6.41026 ) 0 
( -0.399642 3.8393 5.8934 ) 0 
( -2.17746 0.733485 6.22222 ) 0 
( -3.62269 4.45102 6.06162 ) 0 
( -3.58273 1.66881 6.62102 ) 0 
( -4.64234 0.623739 5.78931 ) 0 
( -3.55275 2.68136 6.11364 ) 0 
( -0.918734 4.62008 6.24098 ) 0 
( -2.63254 1.97061 6.69983 ) 0 
( -0.439614 1.22274 6.5127 ) 0 
( -0.405951 0.534 7.23655 ) 0 
( -2.00811 2.70603 6.96246 ) 0 
( -4.17136 2.44052 6.86117 ) 0 
( -2.88418 3.88955 6.43445 ) 0 
( -1.54898 4.36837 6.97525 ) 0 
( -2.98587 0.893286 6.83031 ) 0 
( -0.575736 4.03833 6.97836 ) 0 
( -0.958656 3.25708 6.48372 ) 0 
( -4.48253 0.416399 6.75428 ) 0 
( -1.70829 1.88202 6.29683 ) 0 
( -3.85558 3.42788 6.77196 ) 0 
( -1.71313 0.630366 7.10164 ) 0 
( -0.0758346 2.06919 6.97019 ) 0 
( -4.69885 1.3779 6.58533 ) 0 
( -1.85572 1.69148 7.26725 ) 0 
( -4.68564 2.81868 7.63053 ) 0 
( -0.390879 3.11093 7.30329 ) 0 
( -1.07345 2.39868 7.1403 ) 0 
( -3.35433 2.2471 7.40412 ) 0 
( -3.86558 0.987488 7.29607 ) 0 
( -3.82988 4.3914 7.03795 ) 0 
( -4.47841 1.74724 7.51292 ) 0 
( -2.85463 4.57192 7.16462 ) 0 
( -0.202902 4.96645 7.04567 ) 0 
( -1.34703 3.47599 7.37877 ) 0 
( -0.901392 1.41445 7.37855 ) 0 
( -2.96178 2.98805 6.85963 ) 0 
( -1.84129 2.814 7.94227 ) 0 
( -0.938326 4.71942 7.68489 ) 0 
( -4.68341 3.87551 7.10985 ) 0 
( -0.0721177 1.88002 7.95186 ) 0 
( -2.30168 3.73509 7.2324 ) 0 
( -4.81032 4.83596 7.35763 ) 0 
( -3.30627 0.585976 8.05812 ) 0 
( -4.52375 0.389203 7.75291 ) 0 
( -1.18748 2.06969 8.07757 ) 0 
( -3.16907 4.90805 8.05218 ) 0 
( -3.73777 3.12455 7.71726 ) 0 
( -2.46036 0.960061 7.67828 ) 0 
( -0.890362 3.02733 8.16539 ) 0 
( -1.13501 0.604947 7.91706 ) 0 
( -1.44379 0.312888 8.82204 ) 0 
( -4.07312 4.37151 8.00754 ) 0 
( -2.0745 2.68312 8.90569 ) 0 
( -3.15825 3.92589 7.86479 ) 0 
( -4.07556 2.37593 8.28751 ) 0 
( -1.98939 4.43926 7.87004 ) 0 
( -0.719833 1.2973 8.50712 ) 0 
( -2.48699 1.90156 8.01367 ) 0 
( -3.99058 0.0152566 8.5116 ) 0 
( -2.39011 0.517817 8.57225 ) 0 
( -1.21138 3.96688 8.28399 ) 0 
( -0.0986919 4.50347 8.18293 ) 0 
( -2.836 2.83813 8.04007 ) 0 
( -3.5253 1.5601 8.11008 ) 0 
( -1.75657 1.28153 8.31163 ) 0 
( -3.434 4.25555 8.7677 ) 0 
( -0.488436 2.32029 8.74713 ) 0 
( -4.32067 3.32046 8.50571 ) 0 
( -3.07256 1.16602 8.90981 ) 0 
( -2.339 3.64313 8.3635 ) 0 
( -1.30753 2.2101 9.33912 ) 0 
( -1.52972 4.83326 8.82932 ) 0 
( -2.22316 0.0128164 9.41898 ) 0 
( -4.71982 2.30236 9.06042 ) 0 
( -4.87376 0.395331 8.78631 ) 0 
( -4.90182 4.67798 8.47561 ) 0 
( -3.07243 2.19581 8.76896 ) 0 
( -0.345864 3.67875 8.69345 ) 0 
( -1.07726 3.16215 9.13837 ) 0 
( -0.358735 0.423611 8.83286 ) 0 
( -4.43085 1.19129 8.3427 ) 0 
( -3.04494 2.48848 9.72469 ) 0 
( -3.10836 0.50321 9.73655 ) 0 
( -1.7477 3.90378 9.12644 ) 0 
( -2.49408 4.59321 8.71931 ) 0 
( -4.39164 4.10293 9.12414 ) 0 
( -3.91223 1.71424 9.01905 ) 0 
( -2.24978 1.71204 9.0674 ) 0 
( -0.513165 1.62705 9.5089 ) 0 
( -2.30561 3.16115 9.75296 ) 0 
( -3.92405 0.732009 9.20549 ) 0 
( -0.826461 4.08761 9.46915 ) 0 
( -2.97451 3.16974 8.97319 ) 0 
( -1.39254 1.21852 9.24275 ) 0 
( -1.99994 1.94042 10.0083 ) 0 
( -3.58645 3.68405 9.57388 ) 0 
( -2.87408 1.94799 10.5484 ) 0 
( -3.86147 2.78624 9.23019 ) 0 
( -0.532402 0.873429 10.1658 ) 0 
( -0.465245 2.60952 9.70388 ) 0 
( -4.80123 1.32631 9.26168 ) 0 
( -1.3913 0.399705 9.81673 ) 0 
( -4.07849 0.223933 10.0527 ) 0 
( -2.66541 4.07301 9.55583 ) 0 
( -1.61793 4.15755 10.0848 ) 0 
( -2.22484 0.971392 9.73873 ) 0 
( -1.51856 1.16574 10.4466 ) 0 
( -4.26743 4.97692 9.59373 ) 0 
( -1.38391 2.92443 10.0599 ) 0 
( -3.36149 1.47068 9.81732 ) 0 
( -3.09322 3.29829 10.3535 ) 0 
( -2.43719 4.68979 10.309 ) 0 
( -4.06292 3.09191 10.2237 ) 0 
( -4.0832 1.31974 10.4928 ) 0 
( -0.970605 4.18874 10.8464 ) 0 
( -1.14727 0.173437 10.7596 ) 0 
( -2.20188 3.60923 10.6833 ) 0 
( -0.365921 3.50318 10.1412 ) 0 
( -1.02358 2.01975 10.2871 ) 0 
( -4.87232 0.827637 10.1254 ) 0 
( -0.0861101 4.41575 10.439 ) 0 
( -4.18874 2.11309 9.89326 ) 0 
( -3.41199 4.53545 10.0684 ) 0 
( -2.14976 2.61195 10.7339 ) 0 
( -4.75132 3.19689 9.50611 ) 0 
( -2.83679 3.15699 11.3096 ) 0 
( -4.97093 2.7786 10.5014 ) 0 
( -3.83807 3.2226 11.1892 ) 0 
( -0.145817 2.57946 10.6509 ) 0 
( -2.78267 0.952405 10.5684 ) 0 
( -4.28785 4.06511 10.1761 ) 0 
( -4.3892 0.377373 10.9907 ) 0 
( -3.52328 1.65516 11.2503 ) 0 
( -2.07949 1.68169 11.0939 ) 0 
( -1.89532 4.45678 11.1165 ) 0 
( -4.156 2.33032 10.8687 ) 0 
( -3.02547 4.13389 10.8986 ) 0 
( -0.926809 3.19168 10.9082 ) 0 
( -1.31339 2.31595 11.1972 ) 0 
( -0.789486 1.03547 11.1185 ) 0 
( -4.38538 4.06288 11.1712 ) 0 
( -3.50219 0.660897 11.3549 ) 0 
( -3.44438 2.50767 11.767 ) 0 
( -3.44839 3.92809 11.7811 ) 0 
( -4.9912 1.16173 11.1398 ) 0 
( -4.60273 4.94366 10.5352 ) 0 
( -2.00652 0.570492 11.0849 ) 0 
( -0.128541 3.09721 11.5062 ) 0 
( -2.8943 4.75345 11.6729 ) 0 
( -1.65625 3.50724 11.515 ) 0 
( -0.476118 4.99195 11.5246 ) 0 
( -0.0723342 4.08805 11.3836 ) 0 
( -0.230124 0.207468 11.1566 ) 0 
( -4.46411 2.58511 11.7853 ) 0 
( -4.59234 0.681949 11.9213 ) 0 
( -3.94223 4.79296 11.6914 ) 0 
( -4.2483 1.62073 11.9381 ) 0 
( -2.48308 3.78886 12.0019 ) 0 
( -4.33983 3.54746 12.0269 ) 0 
( -1.11582 2.63651 12.1235 ) 0 
( -1.37367 1.50562 11.78 ) 0 
( -1.1203 4.29062 11.8298 ) 0 
( -0.151066 2.38842 12.2112 ) 0 
( -0.214367 1.31937 12.1326 ) 0 
( -0.266703 4.2582 12.3497 ) 0 
( -0.821049 0.447557 11.9268 ) 0 
( -2.69182 1.14937 11.6783 ) 0 
( -0.407122 1.92677 11.3619 ) 0 
( -2.00406 4.65888 12.1184 ) 0 
( -1.20441 4.75589 12.711 ) 0 
( -1.01907 1.44404 12.713 ) 0 
( -2.09552 2.63544 11.7321 ) 0 
( -4.9489 2.97007 12.5706 ) 0 
( -1.58963 0.642042 12.5362 ) 0 
( -3.51156 3.21074 12.4749 ) 0 
( -2.20016 1.79457 12.2631 ) 0 
( -3.40994 4.60445 12.5166 ) 0 
( -0.963882 3.55493 12.4888 ) 0 
)
