FoamFile
{version 2.0; format ascii;class vectorField; location 0;object  v;}
350
(
( 6.22516e-06 4.0794e-06 4.3945e-07 )  
( 7.1517e-06 4.17756e-06 -1.22243e-07 )  
( 9.0026e-06 3.34662e-06 2.55353e-08 )  
( 5.28809e-06 3.50832e-06 8.19533e-07 )  
( 5.81479e-06 3.76966e-06 -3.52925e-07 )  
( 8.38934e-06 -8.40018e-07 1.5532e-06 )  
( 3.36636e-06 3.56799e-06 1.82373e-06 )  
( 3.19062e-06 3.22497e-06 -1.20665e-07 )  
( 1.02307e-05 2.97574e-06 -9.84949e-08 )  
( 2.8326e-06 3.66031e-06 -5.57982e-07 )  
( 2.81907e-06 3.78431e-06 4.51419e-08 )  
( 3.17774e-06 3.29084e-06 1.25899e-06 )  
( 3.84249e-06 3.43308e-06 8.51622e-07 )  
( 5.79198e-06 4.38951e-06 2.89382e-07 )  
( 4.58483e-06 5.15017e-06 -1.50225e-07 )  
( 4.00196e-06 2.35864e-06 -1.79471e-07 )  
( 5.21351e-06 2.76706e-06 9.47844e-08 )  
( 3.19102e-06 3.15063e-06 -1.44952e-06 )  
( 1.08179e-05 7.98352e-06 7.15308e-07 )  
( 1.25686e-05 6.06684e-06 1.80948e-07 )  
( 5.74576e-06 4.18944e-06 7.63053e-08 )  
( 3.67637e-06 5.82946e-06 -2.03727e-08 )  
( 4.37484e-06 4.28941e-06 -1.23431e-06 )  
( 2.94093e-06 7.84166e-07 1.50169e-06 )  
( 5.63896e-06 2.82656e-06 1.78067e-07 )  
( 3.57165e-06 2.49619e-06 1.6175e-07 )  
( 4.91255e-06 5.16595e-06 -1.63223e-08 )  
( 5.95655e-06 2.75823e-06 -1.11496e-06 )  
( 7.34743e-06 8.25891e-06 -1.60064e-06 )  
( 8.43955e-06 9.75049e-06 3.23424e-06 )  
( 1.28862e-05 7.54805e-06 3.11112e-06 )  
( 7.02881e-06 6.22989e-06 1.11589e-06 )  
( 5.3517e-06 4.13828e-06 8.01038e-07 )  
( 8.35014e-06 6.05492e-06 9.72725e-07 )  
( 5.95328e-06 7.03104e-06 1.4076e-06 )  
( 9.70535e-06 9.00193e-06 1.11822e-06 )  
( 1.39718e-05 6.95525e-06 -9.40649e-07 )  
( 9.6971e-06 7.40621e-06 9.32806e-08 )  
( 4.50396e-06 6.2264e-06 -2.88566e-07 )  
( 7.1218e-06 4.80031e-06 -4.6409e-07 )  
( 6.04915e-06 7.1767e-06 9.47307e-07 )  
( 6.89465e-06 5.93575e-06 -1.26959e-06 )  
( 1.15799e-05 7.86731e-06 -3.77062e-07 )  
( 1.1949e-05 7.68403e-06 8.09694e-07 )  
( 1.08188e-05 8.42902e-06 2.871e-06 )  
( 1.052e-05 1.03084e-05 1.9883e-06 )  
( 8.85644e-06 8.05659e-06 -1.24884e-06 )  
( 1.42154e-05 1.12662e-05 5.18515e-08 )  
( 1.09883e-05 9.13088e-06 1.29166e-06 )  
( 1.4134e-05 6.94423e-06 -1.92999e-06 )  
( 1.12581e-05 1.27108e-05 6.96223e-07 )  
( 1.1265e-05 7.85914e-06 2.52545e-06 )  
( 1.17028e-05 7.00671e-06 7.10973e-07 )  
( 1.12029e-05 1.03507e-05 3.40592e-06 )  
( 1.10724e-05 8.81497e-06 9.15542e-07 )  
( 9.36463e-06 7.42288e-06 2.96872e-06 )  
( 8.94664e-06 5.69455e-06 -1.79868e-06 )  
( 1.0018e-05 1.07845e-05 5.07708e-09 )  
( 8.28453e-06 6.41726e-06 -2.70203e-07 )  
( 1.34351e-05 1.06126e-05 -3.44101e-07 )  
( 1.04987e-05 7.66301e-06 2.96578e-06 )  
( 1.24696e-05 1.04489e-05 9.67273e-07 )  
( 1.19862e-05 9.07157e-06 3.02583e-06 )  
( 1.49801e-05 9.33539e-06 1.36756e-06 )  
( 1.03246e-05 1.08631e-05 1.54045e-07 )  
( 1.72877e-05 1.21577e-05 9.95617e-07 )  
( 1.39663e-05 1.09959e-05 2.33675e-06 )  
( 1.16486e-05 1.1928e-05 6.27024e-07 )  
( 1.4989e-05 1.23916e-05 4.61533e-07 )  
( 1.42577e-05 1.18878e-05 -5.43276e-07 )  
( 8.13207e-06 9.00349e-06 9.46951e-07 )  
( 1.31736e-05 1.14398e-05 -1.31231e-06 )  
( 1.38447e-05 9.51998e-06 1.91605e-06 )  
( 1.34266e-05 1.31384e-05 7.72487e-07 )  
( 1.59556e-05 1.4261e-05 4.76399e-07 )  
( 1.70241e-05 1.29261e-05 -5.1773e-07 )  
( 1.73511e-05 1.40055e-05 1.32787e-06 )  
( 1.91134e-05 1.29426e-05 -3.21891e-07 )  
( 1.41871e-05 1.24532e-05 3.88387e-06 )  
( 1.84599e-05 1.25744e-05 2.09539e-06 )  
( 1.68889e-05 1.10808e-05 2.11791e-06 )  
( 1.11428e-05 1.05109e-05 3.63155e-07 )  
( 1.48978e-05 1.37295e-05 2.20406e-07 )  
( 1.40273e-05 1.29672e-05 1.7216e-06 )  
( 1.56189e-05 1.54151e-05 1.08734e-06 )  
( 1.50231e-05 1.30626e-05 -1.32499e-06 )  
( 1.64365e-05 1.45165e-05 2.3194e-06 )  
( 2.15347e-05 6.07901e-06 -3.09431e-06 )  
( 1.6648e-05 1.40014e-05 1.84965e-06 )  
( 1.80799e-05 1.74502e-05 2.81552e-07 )  
( 1.99058e-05 1.49813e-05 1.66359e-06 )  
( 1.5325e-05 1.33607e-05 -3.0823e-07 )  
( 1.67695e-05 1.35728e-05 1.08425e-06 )  
( 1.70856e-05 1.31872e-05 1.82357e-06 )  
( 1.4706e-05 1.36508e-05 -4.64032e-08 )  
( 1.864e-05 1.35151e-05 2.15223e-06 )  
( 1.61894e-05 1.70725e-05 1.19425e-06 )  
( 1.85093e-05 1.55025e-05 9.63454e-07 )  
( 1.73824e-05 1.2603e-05 3.58941e-06 )  
( 2.00795e-05 1.63287e-05 2.2154e-06 )  
( 1.63732e-05 1.54448e-05 2.10575e-08 )  
( 1.92296e-05 1.49444e-05 1.82702e-06 )  
( 1.81956e-05 1.61287e-05 8.44756e-07 )  
( 1.72887e-05 1.50663e-05 2.40281e-06 )  
( 1.90541e-05 1.55449e-05 4.52074e-07 )  
( 1.84192e-05 1.42617e-05 1.40144e-06 )  
( 2.13419e-05 1.75906e-05 3.23307e-06 )  
( 2.05254e-05 1.83212e-05 9.65132e-07 )  
( 1.79763e-05 1.79374e-05 1.37406e-06 )  
( 2.12246e-05 1.78287e-05 -3.05087e-08 )  
( 1.96135e-05 1.65106e-05 7.4916e-08 )  
( 2.13938e-05 1.91845e-05 6.46225e-07 )  
( 1.86169e-05 1.71343e-05 5.34403e-08 )  
( 1.91122e-05 1.6469e-05 -2.56919e-08 )  
( 2.12067e-05 1.94689e-05 -3.34892e-07 )  
( 1.89793e-05 1.78036e-05 3.25439e-06 )  
( 2.10219e-05 1.50205e-05 2.38707e-07 )  
( 2.21416e-05 2.02164e-05 9.90164e-07 )  
( 1.98389e-05 1.54687e-05 -7.86043e-08 )  
( 2.03704e-05 1.6637e-05 -4.34684e-07 )  
( 2.20738e-05 1.7847e-05 3.173e-07 )  
( 2.26574e-05 1.98564e-05 2.84908e-06 )  
( 2.00928e-05 1.64338e-05 6.56008e-07 )  
( 5.75678e-05 1.68043e-05 -2.90108e-05 )  
( 2.12616e-05 1.88417e-05 1.72296e-06 )  
( 2.17846e-05 2.10197e-05 1.77211e-06 )  
( 2.21372e-05 2.06006e-05 1.44289e-06 )  
( 2.28311e-05 1.88774e-05 3.06115e-06 )  
( 2.48182e-05 2.25621e-05 1.15176e-06 )  
( 2.50228e-05 2.13626e-05 1.14911e-07 )  
( 2.48678e-05 1.97851e-05 3.78135e-07 )  
( 2.34304e-05 1.93988e-05 7.77397e-07 )  
( 2.33301e-05 2.10416e-05 2.18436e-06 )  
( 2.2721e-05 2.17584e-05 1.29038e-06 )  
( 2.41151e-05 1.96308e-05 1.54629e-06 )  
( 2.58319e-05 1.98929e-05 -4.26538e-07 )  
( 2.30022e-05 1.83998e-05 3.15369e-06 )  
( 2.45887e-05 2.09769e-05 1.07752e-06 )  
( 2.64204e-05 2.29102e-05 1.62409e-07 )  
( 2.59819e-05 2.32968e-05 1.90158e-06 )  
( 2.52458e-05 2.09372e-05 1.00415e-06 )  
( 2.58908e-05 2.17942e-05 3.16923e-06 )  
( 2.60186e-05 2.57903e-05 -1.56643e-07 )  
( 2.52585e-05 2.00786e-05 3.28086e-06 )  
( 2.9158e-05 2.33847e-05 1.26596e-06 )  
( 2.57364e-05 2.2435e-05 4.68225e-07 )  
( 2.51887e-05 1.77127e-05 7.14582e-07 )  
( 2.67893e-05 2.45197e-05 3.54538e-07 )  
( 2.76966e-05 2.25623e-05 -1.65698e-06 )  
( 2.3525e-05 2.15082e-05 9.45633e-07 )  
( 2.71052e-05 2.69083e-05 2.00586e-06 )  
( 2.65666e-05 1.89913e-05 1.2538e-06 )  
( 2.64565e-05 2.14541e-05 9.73966e-07 )  
( 2.83888e-05 2.37233e-05 2.70452e-06 )  
( 2.50532e-05 2.05853e-05 3.94248e-07 )  
( 2.66641e-05 2.17654e-05 2.29338e-06 )  
( 3.13686e-05 2.28893e-05 2.11054e-06 )  
( 3.09166e-05 2.45231e-05 1.79913e-06 )  
( 3.16303e-05 2.48881e-05 -2.86675e-07 )  
( 2.76292e-05 2.03119e-05 1.63546e-06 )  
( 2.8683e-05 2.2496e-05 1.79864e-06 )  
( 2.67682e-05 2.28317e-05 3.04235e-06 )  
( 2.72353e-05 2.43254e-05 1.4157e-06 )  
( 2.78586e-05 2.35832e-05 7.68236e-07 )  
( 2.69511e-05 2.12002e-05 -2.41802e-07 )  
( 2.86317e-05 2.40876e-05 2.19717e-06 )  
( 2.7732e-05 2.21814e-05 4.21591e-06 )  
( 3.35181e-05 2.82145e-05 -1.12706e-06 )  
( 3.19772e-05 2.60222e-05 1.01556e-06 )  
( 2.93939e-05 2.28612e-05 2.00226e-06 )  
( 3.01679e-05 2.39693e-05 1.3253e-06 )  
( 3.24568e-05 2.62009e-05 1.63904e-06 )  
( 2.85342e-05 2.5612e-05 2.70933e-07 )  
( 2.93492e-05 2.53158e-05 1.86107e-06 )  
( 3.08782e-05 2.34408e-05 2.05494e-06 )  
( 3.26779e-05 2.6372e-05 3.04767e-06 )  
( 2.82774e-05 2.18786e-05 -1.33912e-06 )  
( 3.1546e-05 2.39923e-05 2.13882e-06 )  
( 3.33434e-05 2.70328e-05 -1.15483e-07 )  
( 3.46291e-05 2.16032e-05 3.57323e-06 )  
( 3.17307e-05 2.73283e-05 -1.08747e-06 )  
( 3.58996e-05 3.14367e-05 7.00728e-07 )  
( 3.54009e-05 2.42652e-05 2.22129e-06 )  
( 3.43573e-05 2.8026e-05 1.87281e-06 )  
( 3.26747e-05 2.48815e-05 1.48395e-06 )  
( 3.36215e-05 2.93905e-05 -9.3936e-07 )  
( 3.53352e-05 2.88487e-05 4.51511e-06 )  
( 3.76768e-05 2.89623e-05 5.49983e-08 )  
( 2.91166e-05 2.64128e-05 1.24035e-06 )  
( 3.17747e-05 2.50127e-05 3.76728e-07 )  
( 3.14347e-05 2.82608e-05 2.96999e-06 )  
( 3.39712e-05 2.82314e-05 1.43103e-06 )  
( 3.50497e-05 3.0941e-05 6.32527e-07 )  
( 3.20601e-05 2.86535e-05 1.48e-07 )  
( 2.87913e-05 2.33345e-05 2.468e-06 )  
( 3.7867e-05 3.49074e-05 4.25565e-06 )  
( 3.77276e-05 3.19663e-05 1.03945e-06 )  
( 3.92569e-05 3.02435e-05 1.33508e-06 )  
( 3.8173e-05 2.96789e-05 1.58125e-06 )  
( 3.44388e-05 2.77288e-05 1.12296e-06 )  
( 3.66572e-05 3.05321e-05 5.16066e-06 )  
( 3.42639e-05 2.80237e-05 1.83386e-06 )  
( 3.5292e-05 2.98459e-05 2.3668e-06 )  
( 3.62718e-05 2.75946e-05 9.2094e-07 )  
( 3.23902e-05 3.08986e-05 -4.95241e-07 )  
( 3.44932e-05 3.12683e-05 2.85611e-06 )  
( 3.78378e-05 3.31415e-05 4.23858e-07 )  
( 3.46136e-05 2.51645e-05 2.1717e-06 )  
( 3.97521e-05 3.22771e-05 1.68316e-06 )  
( 3.51072e-05 3.24973e-05 -9.00675e-07 )  
( 3.47012e-05 2.76429e-05 1.33587e-06 )  
( 3.65535e-05 3.14404e-05 4.09274e-08 )  
( 3.4067e-05 3.07234e-05 2.97109e-06 )  
( 3.22642e-05 2.78448e-05 9.85949e-08 )  
( 4.13044e-05 3.28609e-05 1.71892e-07 )  
( 3.87911e-05 3.02922e-05 2.26965e-06 )  
( 4.13077e-05 3.30218e-05 2.76614e-06 )  
( 3.91207e-05 3.13864e-05 7.18925e-07 )  
( 3.93531e-05 3.23878e-05 1.89637e-06 )  
( 3.93659e-05 3.58306e-05 2.02985e-06 )  
( 4.00767e-05 3.16629e-05 4.46868e-07 )  
( 3.75829e-05 3.27845e-05 6.922e-07 )  
( 4.21763e-05 3.61985e-05 1.42549e-06 )  
( 3.88332e-05 2.78399e-05 3.13678e-06 )  
( 4.27458e-05 3.85666e-05 3.06352e-06 )  
( 3.89114e-05 3.17705e-05 2.45934e-06 )  
( 4.03135e-05 3.35984e-05 2.40392e-06 )  
( 3.83803e-05 3.39119e-05 7.31038e-07 )  
( 4.30539e-05 3.30658e-05 -1.28849e-06 )  
( 3.90814e-05 3.47071e-05 3.83726e-06 )  
( 4.35409e-05 3.27212e-05 -4.50419e-07 )  
( 4.23121e-05 3.74238e-05 2.97285e-06 )  
( 3.97403e-05 3.18758e-05 -2.72173e-06 )  
( 3.80011e-05 3.51079e-05 -2.08421e-06 )  
( 4.03493e-05 3.42732e-05 3.93009e-06 )  
( 4.1057e-05 3.20787e-05 4.33552e-06 )  
( 4.04026e-05 3.5127e-05 1.91191e-06 )  
( 4.27112e-05 3.41571e-05 1.17487e-06 )  
( 4.13664e-05 3.35507e-05 3.32316e-06 )  
( 4.07025e-05 3.55112e-05 3.62256e-07 )  
( 4.44104e-05 3.77844e-05 3.99914e-06 )  
( 3.97626e-05 3.5757e-05 2.70128e-06 )  
( 4.43225e-05 3.74608e-05 1.20081e-06 )  
( 4.01958e-05 4.05828e-05 7.29836e-07 )  
( 4.50388e-05 3.73906e-05 1.87625e-06 )  
( 4.31024e-05 3.59672e-05 3.30531e-07 )  
( 4.25664e-05 3.45808e-05 -1.87966e-06 )  
( 4.04118e-05 3.07622e-05 3.0986e-06 )  
( 4.18733e-05 3.57429e-05 4.58255e-06 )  
( 4.00743e-05 3.36705e-05 -4.62338e-07 )  
( 3.99343e-05 3.72544e-05 4.66138e-07 )  
( 4.25632e-05 3.34693e-05 -2.24857e-06 )  
( 3.99795e-05 3.18591e-05 2.81523e-06 )  
( 4.32524e-05 3.96876e-05 3.61416e-06 )  
( 4.7355e-05 3.72696e-05 -2.69791e-07 )  
( 4.12423e-05 3.99188e-05 1.9397e-06 )  
( 4.14533e-05 3.61464e-05 1.61339e-06 )  
( 4.29795e-05 4.00129e-05 -2.7045e-06 )  
( 4.29011e-05 3.55413e-05 2.9869e-06 )  
( 4.3125e-05 3.86872e-05 3.66647e-06 )  
( 4.47971e-05 3.66348e-05 -1.33418e-06 )  
( 4.4163e-05 3.90762e-05 4.28432e-06 )  
( 4.58709e-05 3.43155e-05 4.28656e-07 )  
( 4.18708e-05 3.8917e-05 -2.80035e-06 )  
( 4.23045e-05 3.5984e-05 3.56946e-06 )  
( 4.60057e-05 3.75144e-05 5.85706e-07 )  
( 4.42341e-05 4.29838e-05 2.83211e-06 )  
( 4.42031e-05 3.79469e-05 2.81027e-06 )  
( 4.86796e-05 4.03549e-05 1.0332e-06 )  
( 4.31066e-05 3.69137e-05 3.39003e-06 )  
( 4.88584e-05 4.04895e-05 3.475e-06 )  
( 4.52669e-05 4.32184e-05 1.19901e-06 )  
( 4.39083e-05 3.69556e-05 2.90771e-06 )  
( 4.74414e-05 3.92565e-05 6.41044e-07 )  
( 4.4335e-05 3.5827e-05 1.54261e-06 )  
( 4.26417e-05 3.90613e-05 2.94352e-06 )  
( 4.80847e-05 4.25185e-05 2.69011e-06 )  
( 4.67628e-05 3.71673e-05 7.21405e-07 )  
( 4.92814e-05 4.12345e-05 1.54155e-06 )  
( 4.29431e-05 4.15095e-05 -6.49418e-07 )  
( 4.5263e-05 4.02032e-05 2.56269e-06 )  
( 4.54437e-05 3.92327e-05 3.36393e-06 )  
( 4.51809e-05 4.40816e-05 5.55129e-06 )  
( 4.82066e-05 4.20454e-05 -1.18707e-06 )  
( 4.50345e-05 4.23443e-05 4.3299e-06 )  
( 4.73531e-05 4.05386e-05 4.52653e-06 )  
( 4.92593e-05 4.22978e-05 2.77291e-06 )  
( 4.81107e-05 4.25341e-05 1.73362e-06 )  
( 4.81524e-05 4.35858e-05 4.82923e-06 )  
( 4.47034e-05 4.59843e-05 -2.23585e-06 )  
( 4.93415e-05 4.29245e-05 3.71717e-06 )  
( 4.72843e-05 3.9417e-05 2.73918e-06 )  
( 4.72488e-05 4.42009e-05 1.57716e-06 )  
( 4.51014e-05 3.80836e-05 3.36029e-06 )  
( 4.40646e-05 4.08486e-05 -7.92293e-07 )  
( 4.69686e-05 4.32771e-05 3.87849e-06 )  
( 4.51888e-05 3.59837e-05 1.25528e-06 )  
( 4.97786e-05 4.61539e-05 6.18815e-06 )  
( 4.54688e-05 4.04305e-05 4.83566e-07 )  
( 5.34844e-05 4.61774e-05 8.74802e-07 )  
( 4.45154e-05 4.99157e-05 2.56088e-06 )  
( 4.53656e-05 3.99797e-05 -1.81425e-07 )  
( 4.42812e-05 4.03955e-05 -4.81444e-07 )  
( 4.7823e-05 4.37222e-05 2.32021e-06 )  
( 4.9843e-05 4.19394e-05 3.26288e-06 )  
( 4.92468e-05 4.22512e-05 4.84793e-07 )  
( 5.13436e-05 4.80292e-05 -3.14919e-06 )  
( 4.80788e-05 4.57682e-05 3.72334e-06 )  
( 5.04265e-05 4.84427e-05 -1.20756e-06 )  
( 4.83228e-05 4.20569e-05 -6.67452e-07 )  
( 4.67102e-05 4.2985e-05 1.65768e-06 )  
( 4.88518e-05 4.21027e-05 2.23801e-06 )  
( 4.90902e-05 4.38968e-05 -8.73823e-07 )  
( 4.95999e-05 4.28839e-05 9.79357e-07 )  
( 4.68173e-05 4.42239e-05 -2.04849e-07 )  
( 5.59854e-05 4.77506e-05 1.76059e-07 )  
( 4.95343e-05 4.42181e-05 4.40522e-06 )  
( 4.31861e-05 4.15648e-05 -2.81405e-06 )  
( 4.90265e-05 4.11362e-05 2.33256e-06 )  
( 4.98545e-05 4.67269e-05 5.4728e-06 )  
( 5.20565e-05 5.28603e-05 7.96375e-06 )  
( 5.26599e-05 4.79094e-05 2.96557e-06 )  
( 5.13815e-05 4.69256e-05 7.29399e-06 )  
( 5.09345e-05 4.69984e-05 1.34463e-06 )  
( 4.814e-05 4.10855e-05 1.37363e-06 )  
( 4.28702e-05 4.83494e-05 2.59736e-06 )  
( 5.38105e-05 4.6162e-05 3.56502e-06 )  
( 4.83323e-05 4.55902e-05 -2.50461e-06 )  
( 5.07988e-05 4.88062e-05 4.69165e-06 )  
( 5.59516e-05 5.52351e-05 4.50326e-06 )  
( 5.38283e-05 4.7818e-05 1.9536e-06 )  
( 5.17592e-05 4.82241e-05 -1.92547e-06 )  
( 4.69083e-05 4.34226e-05 3.10289e-06 )  
( 4.87161e-05 5.0995e-05 3.97951e-06 )  
( 4.89143e-05 4.44713e-05 1.43647e-06 )  
( 1.01046e-05 1.78848e-05 -1.08405e-05 )  
( 4.9674e-05 4.78282e-05 2.30595e-06 )  
( -0.000240476 -0.000163168 -0.000157361 )  
( 4.431e-05 5.18173e-05 2.47117e-06 )  
( 4.75816e-05 4.51481e-05 1.15547e-07 )  
( 5.08051e-05 5.46439e-05 1.09398e-05 )  
( 0.000353304 0.00113759 -0.000579107 )  
( 8.88089e-05 0.000411756 1.25526e-05 )  
( 5.52514e-05 5.06761e-05 3.71094e-06 )  
( 4.88493e-05 5.61823e-05 6.99181e-06 )  
( -0.000306291 0.000818415 -0.000555573 )  
( -2.56906e-05 4.5635e-05 -8.62211e-06 )  
( 4.76248e-05 5.00769e-05 4.00492e-06 )  
( 3.8627e-05 4.83617e-05 1.75133e-06 )  
( 5.39871e-05 4.61479e-05 1.73018e-06 )  
)
