FoamFile
{version 2.0; format ascii;class Cloud<passiveParticle>; location 0;object  positions;}
350
(
( -0.00130858 0.00382181 0.000498784 ) 0 
( -0.002517 0.00288583 0.000496332 ) 0 
( -0.00457709 0.00300422 0.000497442 ) 0 
( -0.00151956 0.00284642 0.000498539 ) 0 
( -0.00172214 0.00134375 0.000498417 ) 0 
( -0.00147539 0.0048056 0.000497661 ) 0 
( -2.35287e-05 0.00170766 0.000496981 ) 0 
( -0.00230747 0.00389639 0.000497734 ) 0 
( -0.00053602 0.00302019 0.000498079 ) 0 
( -0.00247385 0.000632496 0.000498418 ) 0 
( -0.0048793 0.00395799 0.000496857 ) 0 
( -0.000760358 0.00103341 0.000497729 ) 0 
( -0.00416517 0.000208452 0.000498082 ) 0 
( -0.000325088 0.00399634 0.000497752 ) 0 
( -0.00271329 0.00171366 0.000497887 ) 0 
( -0.000527116 6.13368e-05 0.000499157 ) 0 
( -0.00414392 0.00463526 0.000499679 ) 0 
( -0.00384145 0.0036797 0.000499131 ) 0 
( -0.00315819 0.00438269 0.000690269 ) 0 
( -0.00489209 0.00236751 0.0011988 ) 0 
( -0.00149815 0.000346556 0.000499235 ) 0 
( -0.00424262 0.0020631 0.000498819 ) 0 
( -0.00439902 0.00112737 0.000809665 ) 0 
( -0.00344901 0.000904687 0.000498073 ) 0 
( -0.00204204 0.00331306 0.00126175 ) 0 
( -0.00350523 0.00273768 0.000499514 ) 0 
( -0.00180834 0.0042837 0.00128108 ) 0 
( -0.00097573 0.00200879 0.000498734 ) 0 
( -0.00416799 0.00177052 0.00153723 ) 0 
( -0.00132984 0.000909068 0.00130773 ) 0 
( -0.00306342 0.00347184 0.00109053 ) 0 
( -0.0022887 0.00118949 0.00130638 ) 0 
( -0.00302963 0.000487151 0.00131547 ) 0 
( -0.00110805 0.00247418 0.00137302 ) 0 
( -6.56571e-05 0.00244709 0.00116528 ) 0 
( -0.00198872 0.00214561 0.00103214 ) 0 
( -7.17406e-05 0.00350924 0.00133202 ) 0 
( -0.000820447 0.00443164 0.00124598 ) 0 
( -0.0032492 0.00146158 0.00130097 ) 0 
( -0.00292345 0.00240493 0.00126975 ) 0 
( -0.0010667 0.00347223 0.00140248 ) 0 
( -0.00206776 0.000215674 0.00131098 ) 0 
( -0.00478394 0.000317235 0.0012758 ) 0 
( -0.00161901 0.00169873 0.00184435 ) 0 
( -0.00483438 0.00453732 0.00211291 ) 0 
( -0.00131014 0.00453683 0.00210845 ) 0 
( -0.000307431 0.0028512 0.00204475 ) 0 
( -0.00399187 0.00307832 0.00130351 ) 0 
( -0.00264261 0.00178605 0.00202474 ) 0 
( -0.000582348 0.0015926 0.00131798 ) 0 
( -0.00394217 0.000759701 0.00161843 ) 0 
( -0.000357135 0.000618662 0.00131122 ) 0 
( -0.00339434 0.000135842 0.00217555 ) 0 
( -0.00437968 0.00408149 0.0013498 ) 0 
( -7.89895e-05 0.00432476 0.00190755 ) 0 
( -0.00363065 0.00472438 0.00150127 ) 0 
( -0.00473065 0.00349549 0.00207753 ) 0 
( -0.00354511 0.00142203 0.00225316 ) 0 
( -0.00269929 0.0033508 0.00201332 ) 0 
( -0.000743164 0.00197367 0.00223606 ) 0 
( -0.000896724 0.000595299 0.00215065 ) 0 
( -0.00356827 0.00239698 0.00203051 ) 0 
( -0.00205531 0.00259046 0.00194878 ) 0 
( -0.00275042 0.00426501 0.00161264 ) 0 
( -6.66794e-05 0.00123917 0.00220884 ) 0 
( -0.0016794 0.00103572 0.00258821 ) 0 
( -0.00175743 9.8082e-05 0.00225184 ) 0 
( -0.00439637 0.000299822 0.0023805 ) 0 
( -0.0045556 0.00251216 0.0021274 ) 0 
( -0.00253522 0.000718473 0.00215299 ) 0 
( -0.0035872 0.00378765 0.0018787 ) 0 
( -0.00122297 0.00283515 0.00244334 ) 0 
( -0.00174259 0.00363819 0.00215584 ) 0 
( -0.00367571 0.000710848 0.00294136 ) 0 
( -0.00456194 0.00128294 0.00231324 ) 0 
( -0.00222441 0.00444377 0.0024997 ) 0 
( -0.00278748 0.00256789 0.00262845 ) 0 
( -0.000709728 0.00468213 0.00289297 ) 0 
( -0.000747055 0.003706 0.00232032 ) 0 
( -0.00393092 0.00315416 0.00256995 ) 0 
( -0.000755888 0.00120356 0.00293044 ) 0 
( -0.00304557 0.0049658 0.00227384 ) 0 
( -0.00194284 0.000301008 0.00321109 ) 0 
( -0.0025627 0.00135837 0.00292386 ) 0 
( -0.00389318 0.0044897 0.00251978 ) 0 
( -3.86866e-05 0.00191734 0.00294211 ) 0 
( -0.00317807 0.00201213 0.00336072 ) 0 
( -0.00497371 0.000929731 0.00315062 ) 0 
( -0.00147172 0.00404948 0.00302442 ) 0 
( -0.00043152 0.00305088 0.00301466 ) 0 
( -0.00403293 0.00205961 0.00284743 ) 0 
( -0.000128488 0.000410118 0.00276159 ) 0 
( -0.00285369 0.00059433 0.0034983 ) 0 
( -0.00307015 0.00395879 0.00271404 ) 0 
( -0.00229306 0.00337478 0.00294559 ) 0 
( -0.00492384 0.00299668 0.00291955 ) 0 
( -0.0046743 6.28071e-05 0.00354571 ) 0 
( -0.00429131 0.00385664 0.0031802 ) 0 
( -0.00229167 0.00253983 0.00349506 ) 0 
( -0.00154695 0.00143964 0.00349279 ) 0 
( -0.00185097 0.00483201 0.00351808 ) 0 
( -0.00143052 0.00311591 0.00338002 ) 0 
( -0.00109377 0.000578423 0.00371502 ) 0 
( -0.00377676 0.00491978 0.0034901 ) 0 
( -0.00282378 0.00463257 0.00340697 ) 0 
( -0.000960217 0.00221947 0.00318403 ) 0 
( -0.00184529 0.00204063 0.0027545 ) 0 
( -0.00324108 0.00316316 0.00329218 ) 0 
( -0.0037316 0.000242128 0.00382093 ) 0 
( -0.000155767 0.00246021 0.00377263 ) 0 
( -0.000114975 0.000700349 0.00386955 ) 0 
( -0.00482188 0.00445467 0.00377777 ) 0 
( -0.00305918 0.00264434 0.00412495 ) 0 
( -0.00415602 0.00134969 0.0035393 ) 0 
( -0.00243577 0.00162767 0.00390664 ) 0 
( -0.00160503 0.001403 0.00448882 ) 0 
( -0.00395391 0.00223829 0.00394708 ) 0 
( -0.00333496 0.00123425 0.00409474 ) 0 
( -0.00221302 0.00393245 0.00376883 ) 0 
( -0.000690828 0.00381651 0.00360082 ) 0 
( -0.000623548 0.00155986 0.00385393 ) 0 
( -0.00209369 0.000598017 0.00415292 ) 0 
( -0.000917608 0.00475285 0.00386644 ) 0 
( -0.00445388 0.00308772 0.00379505 ) 0 
( -0.00492729 0.00112094 0.00413103 ) 0 
( -0.001488 0.00228219 0.00402974 ) 0 
( -0.00350173 0.00399883 0.00377491 ) 0 
( -0.00483997 0.00214178 0.00342883 ) 0 
( -0.00201154 0.0030968 0.00427564 ) 0 
( -0.0033784 0.00195989 0.00477838 ) 0 
( -0.00405639 0.0046004 0.00440327 ) 0 
( -0.000442105 0.00415365 0.00450721 ) 0 
( -0.000852356 0.00303393 0.00420078 ) 0 
( -0.00300783 0.00037947 0.00449503 ) 0 
( -0.00494236 0.00243904 0.00437631 ) 0 
( -0.00207617 0.00462913 0.00447089 ) 0 
( -0.00434262 0.00170963 0.00469953 ) 0 
( -0.00253088 0.00121109 0.00480953 ) 0 
( -0.00306683 0.00473515 0.00436919 ) 0 
( -0.00287417 0.00357856 0.00442965 ) 0 
( -0.00412538 0.000741465 0.00459069 ) 0 
( -0.00482316 0.00372966 0.00446292 ) 0 
( -0.0013824 0.0038716 0.00431866 ) 0 
( -0.000761039 0.000882808 0.00460731 ) 0 
( -3.90006e-05 0.0027784 0.00472068 ) 0 
( -0.00194503 0.00364093 0.00511131 ) 0 
( -0.00323432 0.00290353 0.00507282 ) 0 
( -0.00420293 0.00264674 0.00501652 ) 0 
( -0.00342514 0.00106264 0.00522749 ) 0 
( -0.00120806 0.00456557 0.00501389 ) 0 
( -0.00233582 0.0022455 0.00468559 ) 0 
( -0.00386656 0.00344844 0.00452402 ) 0 
( -0.00146895 0.0026903 0.00500838 ) 0 
( -0.00371055 2.87307e-05 0.0051544 ) 0 
( -0.00466534 0.000142275 0.0054258 ) 0 
( -0.000745706 0.00207144 0.00470362 ) 0 
( -0.00444422 0.00420371 0.00525518 ) 0 
( -0.000897468 0.0035036 0.00511115 ) 0 
( -0.00393104 0.000411328 0.00604895 ) 0 
( -0.00387468 0.00194184 0.00564528 ) 0 
( -0.000657384 0.0042164 0.00577004 ) 0 
( -0.00141458 4.00638e-05 0.00587605 ) 0 
( -0.00165283 0.00425254 0.00585199 ) 0 
( -0.00249977 0.00443542 0.00535428 ) 0 
( -0.0022203 0.000263842 0.00509641 ) 0 
( -0.000627481 0.00140363 0.0054501 ) 0 
( -0.00233907 0.00281279 0.00550772 ) 0 
( -0.00176753 0.00181476 0.00538402 ) 0 
( -0.00345914 0.00416477 0.00508977 ) 0 
( -0.00438831 0.00109914 0.00548734 ) 0 
( -0.00337854 0.0027196 0.00604357 ) 0 
( -0.00392056 0.00342023 0.00558317 ) 0 
( -0.000572512 0.000393628 0.00545798 ) 0 
( -0.00291664 0.00360185 0.00571241 ) 0 
( -0.00259291 0.000912004 0.0057605 ) 0 
( -0.00489164 0.00328735 0.00535536 ) 0 
( -0.00146556 0.00319636 0.00587133 ) 0 
( -0.00224682 0.00345215 0.0064387 ) 0 
( -0.00274893 0.00190066 0.00555078 ) 0 
( -0.00443684 0.00268122 0.00601354 ) 0 
( -0.00112185 0.00200213 0.00612198 ) 0 
( -0.0010556 0.000949251 0.00623035 ) 0 
( -0.000623948 0.00264343 0.00553952 ) 0 
( -0.00145908 0.000867736 0.00532058 ) 0 
( -0.00133414 0.00378328 0.0066744 ) 0 
( -0.00304125 0.0047167 0.00614594 ) 0 
( -0.00491445 0.00395141 0.00609998 ) 0 
( -0.000410455 0.00349969 0.00641993 ) 0 
( -0.00107496 0.00281102 0.00670684 ) 0 
( -0.00195868 0.00248745 0.00637178 ) 0 
( -0.00341802 0.00125397 0.00620883 ) 0 
( -0.000250358 0.00158637 0.00637608 ) 0 
( -0.000543361 0.0045986 0.00668653 ) 0 
( -0.00195825 0.00148713 0.00630774 ) 0 
( -0.00403058 0.00459083 0.00607884 ) 0 
( -0.0030496 0.000368 0.00651565 ) 0 
( -0.000555609 0.000104103 0.00641435 ) 0 
( -0.00231316 0.00439894 0.00675251 ) 0 
( -0.00128015 0.00026047 0.00708414 ) 0 
( -0.00135752 0.00468711 0.00725798 ) 0 
( -0.00382972 0.00205593 0.00664011 ) 0 
( -0.00210341 0.00196552 0.00721038 ) 0 
( -0.00352232 0.00382666 0.00647375 ) 0 
( -0.00204564 0.000508489 0.00649229 ) 0 
( -0.00428925 0.00110085 0.0066752 ) 0 
( -0.00121546 0.00155307 0.00700947 ) 0 
( -0.00283631 0.00204106 0.00653528 ) 0 
( -0.00484699 0.00171741 0.00612243 ) 0 
( -0.00482967 0.00478081 0.00664834 ) 0 
( -0.00475524 0.00224857 0.0069629 ) 0 
( -0.00299574 0.00300194 0.00692202 ) 0 
( -0.00399049 0.00302241 0.00683707 ) 0 
( -0.00353351 0.000847008 0.00727717 ) 0 
( -0.000479973 0.000876721 0.00704391 ) 0 
( -0.000605858 0.00378081 0.00735923 ) 0 
( -0.00158031 0.00379249 0.00764272 ) 0 
( -0.00324567 0.0018106 0.0074168 ) 0 
( -0.0019588 0.00295312 0.00725575 ) 0 
( -0.00439396 0.00392962 0.00695287 ) 0 
( -0.000195867 0.00288541 0.00717713 ) 0 
( -0.00043717 0.00177598 0.0075958 ) 0 
( -0.00445971 0.00471033 0.00757343 ) 0 
( -0.00263939 0.00116065 0.00696093 ) 0 
( -0.0049104 0.000206692 0.00695658 ) 0 
( -0.00272705 0.00261938 0.00780449 ) 0 
( -0.00170349 7.96695e-05 0.0079714 ) 0 
( -0.00441851 0.000657026 0.00770097 ) 0 
( -0.0025589 0.00372838 0.00745166 ) 0 
( -0.00183837 0.000963555 0.007523 ) 0 
( -0.00218535 0.00453929 0.00791599 ) 0 
( -4.21215e-05 0.000324156 0.00784178 ) 0 
( -0.000450015 0.00475184 0.00767054 ) 0 
( -0.00422003 0.00162043 0.00752519 ) 0 
( -0.00459805 0.00313338 0.00762174 ) 0 
( -0.00355625 0.00367025 0.0074598 ) 0 
( -0.00104678 0.00294917 0.00769588 ) 0 
( -0.00249652 0.000215467 0.00733439 ) 0 
( -0.00327706 0.0045624 0.0071046 ) 0 
( -0.00136414 0.00201939 0.00787988 ) 0 
( -0.000948619 0.00073793 0.00791605 ) 0 
( -0.000163663 0.00117853 0.00834914 ) 0 
( -0.0012401 0.00451879 0.00823861 ) 0 
( -0.00411949 0.00401726 0.00820748 ) 0 
( -0.0012234 0.00352232 0.00853566 ) 0 
( -0.000625627 0.00204105 0.00855192 ) 0 
( -0.0037181 0.00113899 0.00824194 ) 0 
( -0.00372197 0.0026423 0.00772058 ) 0 
( -0.00229381 0.00180033 0.00817691 ) 0 
( -0.000376457 0.00300161 0.00843484 ) 0 
( -0.00382082 0.00489812 0.00857183 ) 0 
( -0.00106716 0.000210419 0.00875651 ) 0 
( -0.00312962 0.00337833 0.00831518 ) 0 
( -0.00315308 0.00434801 0.00807275 ) 0 
( -0.00185714 0.00280073 0.00826042 ) 0 
( -0.00278579 0.000967658 0.00792864 ) 0 
( -0.00454318 0.00230416 0.0081774 ) 0 
( -0.000944238 0.00117923 0.00897289 ) 0 
( -0.00329622 0.00203298 0.0083892 ) 0 
( -0.00181614 0.000992901 0.00852177 ) 0 
( -0.00442085 0.00155018 0.00882067 ) 0 
( -0.00405196 0.00308498 0.00856263 ) 0 
( -0.00168765 0.00429698 0.00910417 ) 0 
( -0.00396485 0.00021893 0.0085419 ) 0 
( -0.00249015 0.000256272 0.00856256 ) 0 
( -0.00157423 0.00194575 0.00885381 ) 0 
( -0.00271681 0.00123876 0.00888732 ) 0 
( -0.00220245 0.00371304 0.00847717 ) 0 
( -0.00497424 0.000411992 0.00849449 ) 0 
( -0.000378798 0.004026 0.00835419 ) 0 
( -0.00324153 0.00044162 0.00919484 ) 0 
( -0.00466538 0.0044801 0.00890546 ) 0 
( -0.00359392 0.00136403 0.00935027 ) 0 
( -0.00282367 0.00334549 0.00928206 ) 0 
( -0.00386576 0.00230758 0.009163 ) 0 
( -0.0010408 0.0027422 0.00913368 ) 0 
( -0.00463092 0.00290593 0.00939812 ) 0 
( -0.00362838 0.00389715 0.00906827 ) 0 
( -0.00255132 0.00246512 0.00889552 ) 0 
( -0.00186564 0.000382668 0.00933204 ) 0 
( -0.00275271 0.00437253 0.00898819 ) 0 
( -0.000545811 0.00486709 0.00886777 ) 0 
( -0.000699772 0.00390685 0.00929373 ) 0 
( -0.00258058 0.00088902 0.00981337 ) 0 
( -0.00278801 0.00186766 0.00966037 ) 0 
( -0.000622832 0.00193322 0.00954505 ) 0 
( -0.00182564 0.00333089 0.00932058 ) 0 
( -0.00370711 0.00313155 0.00970568 ) 0 
( -0.00385907 0.00473748 0.00955754 ) 0 
( -0.00492868 0.00196821 0.00957332 ) 0 
( -0.00170041 0.0013236 0.00962501 ) 0 
( -0.000440842 0.000695113 0.00968773 ) 0 
( -0.000133063 0.00295914 0.00949112 ) 0 
( -0.0042002 0.000572712 0.00944599 ) 0 
( -0.0044132 0.00383901 0.00968375 ) 0 
( -0.00390314 0.0022636 0.0101611 ) 0 
( -0.00349402 0.000658844 0.0101478 ) 0 
( -0.00221555 0.00160234 0.010435 ) 0 
( -0.00128685 0.00194307 0.0102918 ) 0 
( -0.00430664 0.00135472 0.0100592 ) 0 
( -0.0028632 0.00276457 0.0100948 ) 0 
( -0.00136272 0.0038478 0.0100397 ) 0 
( -0.00307109 0.00496111 0.0101304 ) 0 
( -0.00102312 0.0029112 0.0101183 ) 0 
( -0.00192518 0.00239998 0.00967217 ) 0 
( -0.00232693 0.00403275 0.0098258 ) 0 
( -0.0010425 0.0047408 0.00972565 ) 0 
( -0.00332396 0.00400133 0.0100146 ) 0 
( -0.00202927 0.000213651 0.0103034 ) 0 
( -0.000281883 0.00367606 0.0101715 ) 0 
( -0.00266105 0.00374874 0.0107235 ) 0 
( -0.00447579 0.00310893 0.010364 ) 0 
( -0.00422172 0.00064644 0.010833 ) 0 
( -0.00326122 0.00156918 0.0104883 ) 0 
( -0.00178844 0.00468046 0.0103916 ) 0 
( -0.000256021 0.00239188 0.0104928 ) 0 
( -0.0013844 0.000200852 0.0111443 ) 0 
( -0.000108361 0.00051217 0.0106448 ) 0 
( -0.00269573 0.000806415 0.0108026 ) 0 
( -0.000441624 0.00141614 0.0103804 ) 0 
( -0.00196925 0.00312197 0.0103623 ) 0 
( -0.000784016 0.00440758 0.010632 ) 0 
( -0.00413005 0.00431883 0.0105136 ) 0 
( -0.00128388 0.00087911 0.0104171 ) 0 
( -0.00239965 0.00294149 0.0112516 ) 0 
( -0.00321999 0.00244318 0.0109716 ) 0 
( -0.000224257 0.00280281 0.0114035 ) 0 
( -0.00250899 0.000182325 0.0115607 ) 0 
( -0.00141639 0.00261346 0.0110218 ) 0 
( -0.0048237 0.00218381 0.0105438 ) 0 
( -0.00173196 0.00390302 0.0110577 ) 0 
( -0.00357475 0.00334462 0.0107253 ) 0 
( -0.000853794 0.00343699 0.0109552 ) 0 
( -0.000740786 0.000990252 0.0112532 ) 0 
( -0.00269049 0.00166657 0.0113122 ) 0 
( -0.00259908 0.00471365 0.0109762 ) 0 
( -0.0040856 0.00171951 0.0110328 ) 0 
( -0.00193306 0.00224319 0.0117936 ) 0 
( -0.00498263 0.00127928 0.0110138 ) 0 
( -0.000431791 0.00484195 0.0114606 ) 0 
( -0.000943151 0.00206603 0.0117115 ) 0 
( -0.00445646 0.00366436 0.0111951 ) 0 
( -0.00148094 0.00465543 0.0116661 ) 0 
( -0.000106431 0.00176313 0.0112559 ) 0 
( -0.000770498 0.00396468 0.0118001 ) 0 
( -0.00347713 0.00101181 0.0113913 ) 0 
( -0.00160028 0.00149873 0.0112156 ) 0 
( -0.00415758 0.00269914 0.0112184 ) 0 
( -0.00350444 0.00197187 0.0118062 ) 0 
( -0.000587973 0.000133135 0.0117448 ) 0 
( -0.00176187 0.000766708 0.0118769 ) 0 
)
