FoamFile
{version 2.0; format ascii;class vectorField; location 0;object  v;}
350
(
( 3.33391e-06 1.01113e-06 -1.28646e-05 )  
( 4.39674e-06 3.245e-07 -2.05097e-05 )  
( 2.50198e-06 -1.62621e-06 -1.89785e-05 )  
( 5.81044e-07 7.80188e-07 -1.22857e-05 )  
( -5.47116e-06 -2.29482e-06 -2.35421e-05 )  
( -5.41875e-07 2.27669e-07 -1.9092e-05 )  
( -4.1197e-07 1.28283e-06 -1.90406e-05 )  
( 1.75367e-06 -5.30734e-07 -2.08034e-05 )  
( 3.56057e-06 -1.0827e-06 -1.34958e-05 )  
( -2.84822e-06 -7.45164e-07 -2.20492e-05 )  
( -1.66416e-06 4.67358e-08 -2.17034e-05 )  
( -3.62678e-06 1.29523e-06 -1.90487e-05 )  
( -1.85355e-06 -3.71701e-06 -1.847e-05 )  
( 8.01384e-07 -9.40453e-07 -1.57106e-05 )  
( -3.98664e-06 -6.38058e-07 -2.0418e-05 )  
( -2.82311e-06 -2.30066e-07 -1.9717e-05 )  
( 3.26244e-07 -2.37034e-06 -9.9662e-06 )  
( 8.39699e-06 -4.53802e-06 -1.95131e-05 )  
( 6.84302e-06 -1.15224e-06 -2.81768e-05 )  
( -7.82374e-06 -6.29745e-06 -4.27413e-05 )  
( 1.02985e-06 3.91356e-07 -1.40951e-05 )  
( -1.27819e-05 -1.10575e-05 -1.85063e-05 )  
( -8.93568e-06 -9.69545e-06 -2.97306e-05 )  
( -1.91118e-06 -1.9604e-06 -1.8665e-05 )  
( 3.47692e-06 6.55753e-06 -4.48913e-05 )  
( -7.52318e-07 -1.80875e-05 -5.18334e-06 )  
( -1.83063e-06 1.026e-06 -4.15895e-05 )  
( -1.57756e-06 -1.78029e-06 -1.16096e-05 )  
( -3.87742e-06 -4.84442e-06 -5.53965e-05 )  
( -3.59698e-06 1.25557e-06 -3.75019e-05 )  
( 6.96229e-06 -1.05295e-06 -3.98874e-05 )  
( -6.49022e-06 -2.68847e-06 -4.06787e-05 )  
( -4.47228e-06 -8.2067e-07 -3.79816e-05 )  
( -1.00978e-05 1.98099e-06 -2.31078e-05 )  
( 2.82996e-06 -4.23233e-06 -3.31808e-05 )  
( -5.82679e-06 1.75104e-06 -2.84402e-05 )  
( 3.17804e-07 -1.16862e-05 -3.63265e-05 )  
( 5.95953e-07 -4.56137e-06 -3.27277e-05 )  
( -1.80301e-06 -1.81341e-06 -4.42452e-05 )  
( -4.1925e-06 -3.27104e-06 -4.35041e-05 )  
( 1.27888e-06 -5.11618e-07 -3.12835e-05 )  
( -5.37188e-06 3.8114e-06 -3.75092e-05 )  
( -1.86432e-06 -2.60176e-05 -1.20948e-05 )  
( -4.57532e-06 1.50338e-07 -5.98089e-05 )  
( 8.48009e-06 -6.38449e-06 -6.14836e-05 )  
( -7.46745e-06 4.05787e-06 -5.86537e-05 )  
( -3.18164e-06 -9.40597e-06 -5.73503e-05 )  
( -6.68024e-06 4.16274e-06 -2.64569e-05 )  
( -2.16929e-06 7.05801e-06 -6.82464e-05 )  
( -5.76675e-06 -6.62548e-06 -2.01296e-05 )  
( 3.42272e-06 1.59435e-06 -5.5735e-05 )  
( -6.03377e-06 1.23475e-07 -3.30645e-05 )  
( -9.53729e-06 -1.26822e-06 -6.12368e-05 )  
( 3.79341e-06 -1.05209e-06 -5.06885e-05 )  
( 8.38584e-06 -1.31205e-05 -4.01115e-05 )  
( -7.14255e-07 -2.02125e-06 -4.7918e-05 )  
( 2.21493e-06 -6.10391e-07 -6.15359e-05 )  
( -4.56686e-06 3.68161e-06 -6.58704e-05 )  
( -2.49977e-06 5.2102e-07 -5.76658e-05 )  
( -9.18382e-06 -4.29387e-06 -6.72072e-05 )  
( -1.13788e-05 -1.26705e-06 -5.86306e-05 )  
( -1.18938e-05 -4.02174e-07 -7.29968e-05 )  
( -9.67935e-07 5.64759e-06 -6.67883e-05 )  
( 4.78882e-07 -1.60774e-07 -4.45177e-05 )  
( -9.73448e-06 -6.73298e-06 -6.34848e-05 )  
( -7.72788e-06 5.27668e-06 -7.37338e-05 )  
( -7.63695e-06 6.09908e-06 -6.75698e-05 )  
( -4.44652e-06 -1.31762e-07 -6.69434e-05 )  
( -5.6996e-06 -7.37336e-06 -6.09821e-05 )  
( -2.63153e-06 -1.40594e-06 -4.24783e-05 )  
( 8.95391e-07 1.94113e-06 -6.37645e-05 )  
( -6.54305e-06 2.05768e-06 -7.1494e-05 )  
( -4.01403e-06 1.88594e-06 -6.54392e-05 )  
( -9.20701e-06 -9.93965e-07 -8.20012e-05 )  
( -3.42786e-06 -4.50142e-06 -7.1649e-05 )  
( -7.90505e-06 -4.68535e-06 -6.87244e-05 )  
( -7.83283e-06 -8.68896e-07 -8.54011e-05 )  
( -5.1199e-06 2.57358e-06 -8.73543e-05 )  
( 2.15329e-05 -2.8476e-05 -2.78815e-05 )  
( -1.74107e-06 1.79875e-06 -7.85766e-05 )  
( -1.48364e-05 1.19574e-06 -8.37978e-05 )  
( -3.35671e-06 1.85152e-06 -6.19721e-05 )  
( -9.31282e-06 1.84253e-06 -8.80312e-05 )  
( -6.13414e-06 3.14878e-06 -8.39524e-05 )  
( -2.53771e-06 -2.9643e-06 -7.68812e-05 )  
( 2.4692e-06 1.15275e-05 -8.58806e-05 )  
( -6.78016e-06 -5.38066e-06 -9.68528e-05 )  
( -7.31242e-06 -1.93564e-06 -9.28936e-05 )  
( -2.7759e-06 9.28216e-07 -7.94488e-05 )  
( -4.57913e-06 9.08064e-06 -8.93857e-05 )  
( -3.43877e-06 -6.90347e-07 -7.81294e-05 )  
( -2.8618e-06 -1.1306e-05 -7.94329e-05 )  
( -1.31483e-05 2.03826e-07 -9.40482e-05 )  
( -4.73432e-06 2.39688e-07 -7.86053e-05 )  
( -1.1405e-05 -2.51395e-06 -8.95776e-05 )  
( 1.13501e-06 -7.86515e-07 -8.01859e-05 )  
( -8.62484e-06 -8.5407e-07 -9.91724e-05 )  
( 3.42617e-07 -3.37003e-06 -8.83535e-05 )  
( -7.31509e-06 -2.50049e-06 -9.86585e-05 )  
( -7.87827e-06 5.11584e-06 -9.84631e-05 )  
( 5.07143e-06 2.66614e-06 -9.8839e-05 )  
( -1.56759e-05 -4.35257e-06 -7.81558e-05 )  
( -9.82922e-06 4.02098e-07 -0.000105536 )  
( 8.29387e-06 -1.87957e-05 -8.85574e-05 )  
( 8.017e-06 4.92531e-08 -0.000103233 )  
( -1.02549e-06 9.71269e-06 -8.62814e-05 )  
( -5.23768e-06 1.13596e-06 -8.44567e-05 )  
( 4.35269e-07 2.57099e-06 -9.31907e-05 )  
( -1.31476e-05 -2.4918e-06 -9.94308e-05 )  
( 1.65487e-05 2.92033e-05 -0.000102432 )  
( -7.35601e-06 -4.19881e-06 -0.000120759 )  
( 4.50773e-06 -8.39469e-06 -9.86263e-05 )  
( -3.9617e-06 -3.36939e-06 -0.000111602 )  
( -8.49152e-06 -3.88501e-06 -9.77083e-05 )  
( -6.40946e-06 3.97878e-06 -0.000113531 )  
( -9.46222e-06 7.77009e-07 -0.000120596 )  
( -4.07435e-06 -1.61692e-06 -0.000107253 )  
( -7.88879e-06 1.75633e-06 -0.00010906 )  
( 1.45858e-06 -5.8996e-07 -0.000112397 )  
( 3.5502e-06 8.2118e-06 -0.000106395 )  
( 1.31674e-06 -2.93973e-06 -0.000107399 )  
( -1.23427e-05 2.21307e-06 -0.000105853 )  
( 5.8912e-06 -3.24538e-07 -0.000102399 )  
( 1.82426e-06 -5.05743e-06 -9.98671e-05 )  
( -5.24364e-06 -2.89752e-07 -0.000108643 )  
( -7.68045e-06 1.66251e-06 -0.000106013 )  
( 4.04187e-06 6.2798e-06 -0.000101599 )  
( -1.61585e-06 -3.95063e-06 -9.41677e-05 )  
( -4.82002e-06 2.95978e-06 -0.000118079 )  
( -4.46375e-06 -1.00063e-06 -0.000123896 )  
( 1.33593e-05 -1.02035e-05 -0.000116601 )  
( 2.90631e-06 -8.54316e-07 -0.000116885 )  
( -1.94179e-06 6.11289e-06 -0.000109551 )  
( -1.29316e-06 -1.71523e-06 -0.000120698 )  
( -3.85754e-06 -6.03412e-06 -0.000110216 )  
( 1.07979e-05 -1.91809e-06 -0.000121496 )  
( -3.53872e-06 -4.2048e-06 -0.0001222 )  
( -1.04551e-05 8.68068e-06 -0.000124163 )  
( 7.27645e-06 -5.1215e-06 -0.000119956 )  
( 2.77274e-06 -1.12816e-06 -0.000112088 )  
( -8.9071e-06 -1.70701e-06 -0.00012138 )  
( 7.22045e-06 -6.88345e-06 -0.000111222 )  
( 4.94403e-07 1.0618e-06 -0.000123885 )  
( -8.8034e-06 1.82927e-06 -0.000133253 )  
( -5.56818e-06 2.11448e-06 -0.000120892 )  
( 2.60601e-06 -2.70976e-06 -0.000130254 )  
( 7.41753e-07 -2.75353e-06 -0.00012937 )  
( 2.95798e-06 -4.88626e-06 -0.000127583 )  
( -8.86353e-06 4.35928e-07 -0.000134785 )  
( 1.63372e-06 -2.54056e-06 -0.000134169 )  
( -1.33897e-06 -2.87035e-07 -0.000125755 )  
( 3.36064e-06 -7.31185e-07 -0.000120519 )  
( 1.92333e-06 -2.75986e-06 -0.000140332 )  
( -1.07375e-05 -3.61903e-06 -0.000126678 )  
( -9.11385e-06 7.42417e-08 -0.000133547 )  
( -1.9535e-06 1.43906e-06 -0.00012337 )  
( 6.9809e-06 -3.8106e-06 -0.000129529 )  
( 5.95486e-06 -6.05212e-06 -0.000138013 )  
( -1.01091e-05 -4.94137e-06 -0.000140093 )  
( -3.26468e-06 -7.17282e-06 -0.000134639 )  
( 5.39722e-06 -7.16642e-06 -0.000142607 )  
( -2.56441e-06 -3.08909e-06 -0.0001424 )  
( 7.32333e-06 -8.24941e-06 -0.000140365 )  
( 8.53869e-06 -5.86564e-06 -0.00013308 )  
( 6.6541e-07 -4.25627e-06 -0.000135335 )  
( -5.90688e-07 -3.15025e-06 -0.000142327 )  
( 3.30899e-06 -3.47662e-06 -0.000136834 )  
( 2.45688e-07 1.54455e-07 -0.000138749 )  
( 4.7094e-06 -4.88467e-06 -0.000126001 )  
( -6.17903e-06 -5.78539e-06 -0.000139931 )  
( 2.007e-06 -4.3628e-06 -0.000143977 )  
( 3.21193e-06 -3.55996e-06 -0.000133951 )  
( -1.78694e-06 2.15464e-06 -0.000141014 )  
( 8.55631e-06 -3.86105e-06 -0.000139256 )  
( -1.35009e-05 -6.89678e-06 -0.000141931 )  
( 6.71098e-06 -2.39932e-06 -0.000125117 )  
( 8.1953e-06 -1.37229e-05 -0.000148753 )  
( 8.33177e-06 -9.18018e-06 -0.000153235 )  
( 1.755e-06 1.86556e-06 -0.000141822 )  
( 3.74187e-06 -3.97238e-06 -0.000141614 )  
( 4.46685e-07 -4.55381e-06 -0.000153139 )  
( 9.62731e-07 -4.59459e-06 -0.000150669 )  
( 3.51157e-06 -7.39567e-06 -0.000151992 )  
( -4.09476e-06 -1.06588e-06 -0.000136255 )  
( 6.56649e-06 -1.00613e-05 -0.000151895 )  
( 9.43992e-06 -6.14952e-06 -0.000141046 )  
( 2.99377e-06 -9.92966e-07 -0.000138425 )  
( 3.16197e-06 -9.01087e-06 -0.000151845 )  
( 3.92832e-06 -7.53496e-06 -0.000152726 )  
( 2.68471e-06 -5.01653e-06 -0.000148587 )  
( -9.3413e-06 -9.18575e-06 -0.000139204 )  
( 1.69442e-06 -1.14671e-06 -0.00016169 )  
( 3.14786e-06 -6.4374e-06 -0.000148009 )  
( -3.59325e-06 -4.36452e-06 -0.000151514 )  
( 8.23718e-06 -5.29481e-06 -0.000141195 )  
( -5.45252e-06 -8.14102e-08 -0.000151393 )  
( -2.68144e-06 -6.6641e-06 -0.00015439 )  
( 9.36594e-06 -9.94989e-06 -0.000147577 )  
( -5.01291e-06 -7.08943e-06 -0.000163387 )  
( 4.01e-06 -5.22967e-06 -0.000152836 )  
( 3.11939e-06 -1.10428e-06 -0.000149938 )  
( 2.51147e-06 -6.73328e-06 -0.000158086 )  
( 9.94256e-06 -2.4974e-06 -0.000147975 )  
( -5.97426e-06 -6.7506e-06 -0.000156576 )  
( -4.90411e-06 -3.7724e-07 -0.000152245 )  
( 2.3937e-06 -6.3124e-06 -0.000158863 )  
( 3.13827e-06 -3.08706e-06 -0.000152808 )  
( 1.32384e-06 -7.04353e-07 -0.000144878 )  
( 7.06504e-06 -4.8447e-06 -0.000144587 )  
( 4.67186e-06 2.72208e-06 -0.000155999 )  
( 4.8723e-06 -4.74332e-06 -0.000154101 )  
( 6.37268e-06 9.83588e-07 -0.000154933 )  
( -6.31811e-06 -1.6824e-06 -0.000158248 )  
( -4.94372e-07 -5.92929e-06 -0.000158538 )  
( 5.16491e-06 -6.51299e-06 -0.000155737 )  
( 5.87173e-06 -6.90756e-06 -0.000156117 )  
( 5.3126e-07 -2.14931e-06 -0.000161368 )  
( 5.26052e-06 -7.73403e-06 -0.000154263 )  
( 7.30168e-06 -1.10429e-06 -0.000149213 )  
( 3.03953e-06 -7.15502e-06 -0.000158018 )  
( -6.53282e-07 -7.2693e-06 -0.000160508 )  
( 1.22167e-05 -3.77192e-07 -0.000155857 )  
( -3.67083e-06 -3.79435e-06 -0.000160441 )  
( -3.55218e-06 -8.20456e-06 -0.000161366 )  
( 5.5041e-06 -3.80961e-06 -0.00016239 )  
( -1.04005e-05 -6.385e-06 -0.000168662 )  
( -8.53499e-06 -6.43093e-07 -0.000164272 )  
( 7.93068e-06 -8.19845e-06 -0.000157737 )  
( -2.51601e-06 -5.52653e-06 -0.000164914 )  
( 6.35743e-06 -4.32436e-06 -0.000152405 )  
( -7.68949e-06 -5.86969e-06 -0.000167409 )  
( 5.01542e-06 -5.06693e-06 -0.000158751 )  
( -1.5375e-07 1.97283e-06 -0.000158383 )  
( 3.01653e-06 1.4271e-06 -0.000160208 )  
( 8.14884e-06 -1.98951e-06 -0.000155816 )  
( 4.50759e-06 -5.53368e-06 -0.000157729 )  
( -3.31374e-06 -4.1166e-06 -0.000157347 )  
( 1.10611e-05 -5.14422e-06 -0.000148813 )  
( 1.20585e-06 -5.94739e-06 -0.000162214 )  
( -2.8507e-06 -3.71288e-06 -0.000169255 )  
( -2.59075e-06 -7.66552e-06 -0.000163695 )  
( 6.68722e-06 -5.2237e-06 -0.00015767 )  
( 8.56384e-06 -1.56236e-06 -0.000160295 )  
( 6.29642e-06 -5.63797e-06 -0.000157666 )  
( -6.28726e-07 -6.72731e-06 -0.000162365 )  
( 4.30251e-07 2.22096e-06 -0.000162319 )  
( 3.60163e-06 -1.14666e-06 -0.000159499 )  
( 2.29384e-06 -6.96839e-06 -0.00016694 )  
( 3.75437e-06 -7.72795e-06 -0.000161487 )  
( 3.78357e-07 -3.49434e-06 -0.000158902 )  
( -4.11189e-06 -7.44423e-06 -0.000179289 )  
( 4.96209e-06 -5.44884e-06 -0.000160569 )  
( 7.97119e-06 -2.93946e-06 -0.000156096 )  
( 4.74641e-06 -6.30677e-06 -0.000162506 )  
( -3.64749e-06 -4.07768e-06 -0.000166865 )  
( 7.58144e-07 2.62893e-06 -0.000161343 )  
( -3.26534e-06 -7.86491e-06 -0.000165884 )  
( -7.68959e-07 2.37017e-06 -0.000166393 )  
( -3.67223e-06 -5.56245e-06 -0.000168399 )  
( -1.66139e-06 1.68816e-06 -0.000164397 )  
( 1.1455e-06 -5.46581e-07 -0.000165257 )  
( 7.75517e-06 -5.01922e-06 -0.000155084 )  
( -6.17097e-06 3.91851e-06 -0.000161796 )  
( -6.6313e-06 -5.9036e-06 -0.000174026 )  
( 2.12427e-07 -7.73848e-06 -0.000164727 )  
( 9.52569e-07 5.0773e-06 -0.000171941 )  
( 5.97534e-06 -5.9088e-06 -0.000157457 )  
( -5.36435e-06 -2.1842e-06 -0.000170678 )  
( 5.08683e-06 -4.90876e-06 -0.000160659 )  
( -2.77613e-06 1.55318e-06 -0.00016842 )  
( 1.15964e-05 -3.05523e-05 -0.000149952 )  
( 3.9764e-06 3.50636e-06 -0.000166536 )  
( 2.51403e-06 1.85565e-06 -0.000164632 )  
( 3.08847e-06 4.11925e-06 -0.000162459 )  
( 1.46306e-06 -7.54163e-06 -0.000158218 )  
( 1.12823e-06 2.54955e-06 -0.000164789 )  
( -5.04312e-07 2.01263e-07 -0.000155199 )  
( -1.76278e-06 5.9507e-06 -0.000169114 )  
( -7.16892e-06 -1.38758e-05 -0.000184398 )  
( 1.52253e-06 -6.11729e-06 -0.00015703 )  
( 6.40015e-06 -2.86188e-06 -0.000161503 )  
( 5.79744e-06 5.60057e-08 -0.000158422 )  
( 1.54667e-06 -8.50195e-06 -0.000179891 )  
( 6.9712e-06 7.66348e-06 -0.000172695 )  
( 7.06556e-07 -1.12087e-05 -0.000162527 )  
( 5.12887e-06 -3.74613e-06 -0.000159434 )  
( -1.88305e-06 8.31507e-06 -0.000157301 )  
( 5.45368e-06 5.69243e-06 -0.000161637 )  
( -2.15115e-05 8.81835e-06 -0.000166216 )  
( 5.14444e-06 -2.07625e-05 -0.000173159 )  
( -8.7671e-07 -1.19632e-05 -0.000171574 )  
( 5.05744e-06 -6.78458e-06 -0.000158334 )  
( -6.45933e-06 8.25545e-06 -0.000159639 )  
( -5.80714e-06 7.85571e-06 -0.000160226 )  
( -8.16327e-05 3.20177e-05 -0.000157956 )  
( 2.69268e-06 9.4546e-06 -0.000161666 )  
( 8.78113e-07 -1.98261e-05 -0.000182212 )  
( 4.38325e-06 -2.75325e-05 -0.000161537 )  
( -4.20047e-05 1.52884e-05 -0.000164314 )  
( 6.90453e-06 1.00839e-05 -0.000165481 )  
( 1.44688e-05 -5.34954e-06 -0.000149767 )  
( -4.3002e-06 5.57579e-06 -0.000152468 )  
( 9.75473e-06 -1.04238e-05 -0.000156236 )  
( 2.48805e-06 -2.97619e-06 -0.000165424 )  
( -6.97348e-06 -2.5678e-05 -0.000163493 )  
( 9.08894e-06 -1.35597e-07 -0.000157372 )  
( -8.32147e-06 8.41777e-06 -0.000146464 )  
( 1.05859e-05 -1.37584e-05 -0.000181971 )  
( 1.1103e-05 5.49105e-06 -0.000162914 )  
( -1.52403e-05 4.89563e-06 -0.000161668 )  
( -7.14999e-06 -5.12119e-07 -0.000166047 )  
( -4.42865e-06 -6.04223e-07 -0.000167075 )  
( 2.85327e-05 1.50747e-05 -0.000176026 )  
( 2.44465e-05 6.06313e-07 -0.000157072 )  
( 5.54458e-06 -8.77662e-06 -0.000163684 )  
( -2.93888e-06 -1.94218e-05 -0.000158375 )  
( 1.02167e-05 -2.38517e-05 -0.000161794 )  
( -3.49413e-06 -1.23299e-05 -0.000190614 )  
( 2.5587e-06 -1.53048e-05 -0.000160842 )  
( 8.69785e-06 -6.65136e-06 -0.000159003 )  
( 2.0434e-05 5.51867e-06 -0.000157102 )  
( -2.04169e-05 1.20174e-05 -0.000160099 )  
( -1.77567e-06 -1.57043e-05 -0.000160262 )  
( 5.78104e-06 1.52012e-06 -0.000200258 )  
( 2.53962e-06 1.1927e-05 -0.000165243 )  
( -6.13144e-06 2.65029e-06 -0.000169696 )  
( -1.90572e-06 1.09905e-05 -0.000178012 )  
( 2.94475e-05 -1.73228e-05 -0.000155421 )  
( 9.67771e-06 8.92177e-06 -0.000172006 )  
( -2.04912e-06 -2.09131e-06 -0.000186328 )  
( -2.23639e-05 1.48957e-05 -0.000147851 )  
( 5.53629e-06 -1.93013e-06 -0.000171843 )  
( 1.45796e-05 -2.07767e-05 -0.000176513 )  
( -1.69265e-05 -2.11471e-05 -0.000191152 )  
( 1.98764e-05 3.22986e-06 -0.000175253 )  
( 2.31349e-05 8.21433e-06 -0.000207502 )  
( -9.73153e-05 -7.11429e-05 -0.000239275 )  
( 4.79965e-05 2.96036e-08 -0.000199407 )  
( 1.01348e-06 8.39807e-06 -0.000140103 )  
( 7.80452e-06 -5.92498e-05 -0.000167986 )  
( -6.67976e-05 3.02325e-05 -0.00016777 )  
( -2.9184e-06 -2.82232e-06 -0.0001819 )  
( 2.00104e-05 -3.25695e-05 -0.000157718 )  
( -3.18927e-05 -6.42954e-06 -0.000161597 )  
( 1.6029e-05 3.21672e-05 -0.000190992 )  
( 1.27817e-05 -3.27139e-05 -0.00020369 )  
( -2.5146e-05 -3.45055e-06 -0.000167724 )  
( -2.17233e-06 -2.24264e-05 -0.000182362 )  
( -7.08259e-06 -2.66287e-05 -0.000162285 )  
( 6.32979e-06 -3.12784e-06 -0.000169261 )  
)
