/*--------------------------------*- C++ -*----------------------------------*\
| =========                 |                                                 |
| \\      /  F ield         | OpenFOAM: The Open Source CFD Toolbox           |
|  \\    /   O peration     | Version:  5.x                                   |
|   \\  /    A nd           | Web:      www.OpenFOAM.org                      |
|    \\/     M anipulation  |                                                 |
\*---------------------------------------------------------------------------*/
FoamFile
{
    version     2.0;
    format      ascii;
    class       volVectorField;
    location    "100";
    object      Us;
}
// * * * * * * * * * * * * * * * * * * * * * * * * * * * * * * * * * * * * * //

dimensions      [0 1 -1 0 0 0 0];

internalField   nonuniform List<vector> 
90
(
(0 0 0)
(0 0 0)
(0 0 0)
(0 0 0)
(0 0 0)
(0 0 0)
(0 0 0)
(0 0 0)
(0 0 0)
(0 0 0)
(0 0 0)
(0 0 0)
(0 0 0)
(0 0 0)
(0 0 0)
(0 0 0)
(0 0 0)
(0 0 0)
(0 0 0)
(0 0 0)
(0 0 0)
(0 0 0)
(0 0 0)
(0 0 0)
(0 0 0)
(0 0 0)
(0 0 0)
(0 0 0)
(0 0 0)
(0 0 0)
(0 0 0)
(0 0 0)
(0 0 0)
(0 0 0)
(0 0 0)
(0 0 0)
(0 0 0)
(0 0 0)
(0 0 0)
(0 0 0)
(4.29133e-06 -1.539e-06 8.2346e-07)
(5.2566e-06 4.5936e-06 2.2074e-06)
(7.78808e-06 7.67602e-06 3.88801e-06)
(1.15456e-05 9.14832e-06 4.28505e-06)
(1.09122e-05 8.8234e-06 5.66591e-06)
(1.27473e-05 9.22139e-06 6.89972e-06)
(1.79479e-05 1.41078e-05 7.46312e-06)
(3.49548e-05 1.31377e-05 1.44488e-06)
(2.30494e-05 -6.55538e-06 8.91614e-06)
(2.00385e-05 -1.66428e-05 2.94037e-06)
(2.42641e-05 -3.66316e-05 -2.048e-05)
(5.11688e-05 -2.11746e-05 -7.93702e-05)
(-9.01413e-05 -4.98465e-06 -0.000157665)
(-0.000189664 4.8215e-05 -0.000156268)
(0 0 0)
(0 0 0)
(0 0 0)
(0 0 0)
(0 0 0)
(0 0 0)
(0 0 0)
(0 0 0)
(0 0 0)
(0 0 0)
(0 0 0)
(0 0 0)
(0 0 0)
(0 0 0)
(0 0 0)
(0 0 0)
(0 0 0)
(0 0 0)
(0 0 0)
(0 0 0)
(0 0 0)
(0 0 0)
(0 0 0)
(0 0 0)
(0 0 0)
(0 0 0)
(0 0 0)
(0 0 0)
(0 0 0)
(0 0 0)
(0 0 0)
(0 0 0)
(0 0 0)
(0 0 0)
(0 0 0)
(0 0 0)
)
;

boundaryField
{
    inlet
    {
        type            fixedValue;
        value           uniform (0 0 0);
    }
    outlet
    {
        type            fixedValue;
        value           uniform (0 0 0);
    }
    repeat_boundary
    {
        type            fixedValue;
        value           uniform (0 0 0);
    }
    procBoundary2to0
    {
        type            processor;
        value           nonuniform List<vector> 
90
(
(0 0 0)
(0 0 0)
(0 0 0)
(0 0 0)
(0 0 0)
(0 0 0)
(0 0 0)
(0 0 0)
(0 0 0)
(0 0 0)
(0 0 0)
(0 0 0)
(0 0 0)
(0 0 0)
(0 0 0)
(0 0 0)
(0 0 0)
(0 0 0)
(0 0 0)
(0 0 0)
(0 0 0)
(0 0 0)
(0 0 0)
(0 0 0)
(0 0 0)
(0 0 0)
(0 0 0)
(0 0 0)
(0 0 0)
(0 0 0)
(0 0 0)
(0 0 0)
(0 0 0)
(0 0 0)
(0 0 0)
(0 0 0)
(0 0 0)
(0 0 0)
(0 0 0)
(0 0 0)
(5.47235e-07 1.50249e-06 -2.88593e-07)
(-2.54778e-06 -2.62471e-05 -9.36611e-06)
(2.34262e-05 1.14255e-05 -0.000107128)
(8.74933e-06 8.61973e-06 7.34989e-07)
(1.1e-05 6.50838e-06 1.55579e-06)
(1.34204e-05 5.85934e-06 2.33362e-06)
(1.54878e-05 7.17917e-06 4.32703e-06)
(1.25674e-05 7.92637e-06 5.27628e-06)
(-9.68778e-07 -1.30713e-06 -9.93121e-07)
(5.42658e-05 3.10326e-05 -4.91017e-05)
(-2.78322e-05 -1.63434e-05 -0.00012619)
(2.7238e-05 0.000142583 -0.000264975)
(0.000214662 0.000157736 -0.000441669)
(-0.000275689 -0.000429558 -0.000192888)
(0 0 0)
(0 0 0)
(0 0 0)
(0 0 0)
(0 0 0)
(0 0 0)
(0 0 0)
(0 0 0)
(0 0 0)
(0 0 0)
(0 0 0)
(0 0 0)
(0 0 0)
(0 0 0)
(0 0 0)
(0 0 0)
(0 0 0)
(0 0 0)
(0 0 0)
(0 0 0)
(0 0 0)
(0 0 0)
(0 0 0)
(0 0 0)
(0 0 0)
(0 0 0)
(0 0 0)
(0 0 0)
(0 0 0)
(0 0 0)
(0 0 0)
(0 0 0)
(0 0 0)
(0 0 0)
(0 0 0)
(0 0 0)
)
;
    }
    procBoundary2to3
    {
        type            processor;
        value           nonuniform List<vector> 
90
(
(0 0 0)
(0 0 0)
(0 0 0)
(0 0 0)
(0 0 0)
(0 0 0)
(0 0 0)
(0 0 0)
(0 0 0)
(0 0 0)
(0 0 0)
(0 0 0)
(0 0 0)
(0 0 0)
(0 0 0)
(0 0 0)
(0 0 0)
(0 0 0)
(0 0 0)
(0 0 0)
(0 0 0)
(0 0 0)
(0 0 0)
(0 0 0)
(0 0 0)
(0 0 0)
(0 0 0)
(0 0 0)
(0 0 0)
(0 0 0)
(0 0 0)
(0 0 0)
(0 0 0)
(0 0 0)
(0 0 0)
(0 0 0)
(0 0 0)
(0 0 0)
(0 0 0)
(0 0 0)
(3.8434e-06 3.61741e-06 6.46139e-07)
(5.32858e-06 5.43204e-06 2.44186e-06)
(6.91009e-06 5.55373e-06 4.07553e-06)
(9.07019e-06 6.73227e-06 6.10466e-06)
(1.03679e-05 7.19151e-06 7.1484e-06)
(1.6221e-05 7.2479e-06 8.1902e-06)
(1.86429e-05 6.24197e-06 7.78744e-06)
(1.89585e-05 6.01096e-06 5.695e-06)
(1.6154e-05 -3.36568e-06 -1.74315e-06)
(4.10259e-05 3.95395e-06 -5.60366e-06)
(9.71193e-05 1.0385e-05 -4.77682e-05)
(9.56477e-06 -8.10111e-05 -7.2779e-06)
(-9.89851e-08 -0.000111341 -0.000217234)
(0.000122424 0.000100885 -0.000421423)
(0 0 0)
(0 0 0)
(0 0 0)
(0 0 0)
(0 0 0)
(0 0 0)
(0 0 0)
(0 0 0)
(0 0 0)
(0 0 0)
(0 0 0)
(0 0 0)
(0 0 0)
(0 0 0)
(0 0 0)
(0 0 0)
(0 0 0)
(0 0 0)
(0 0 0)
(0 0 0)
(0 0 0)
(0 0 0)
(0 0 0)
(0 0 0)
(0 0 0)
(0 0 0)
(0 0 0)
(0 0 0)
(0 0 0)
(0 0 0)
(0 0 0)
(0 0 0)
(0 0 0)
(0 0 0)
(0 0 0)
(0 0 0)
)
;
    }
}


// ************************************************************************* //
