/*--------------------------------*- C++ -*----------------------------------*\
| =========                 |                                                 |
| \\      /  F ield         | OpenFOAM: The Open Source CFD Toolbox           |
|  \\    /   O peration     | Version:  5.x                                   |
|   \\  /    A nd           | Web:      www.OpenFOAM.org                      |
|    \\/     M anipulation  |                                                 |
\*---------------------------------------------------------------------------*/
FoamFile
{
    version     2.0;
    format      ascii;
    class       surfaceScalarField;
    location    "200";
    object      phi;
}
// * * * * * * * * * * * * * * * * * * * * * * * * * * * * * * * * * * * * * //

dimensions      [0 3 -1 0 0 0 0];

internalField   nonuniform List<scalar> 
89
(
-0.0250004
-0.0250005
-0.0250005
-0.0250006
-0.0250008
-0.025001
-0.0250012
-0.0250015
-0.0250018
-0.0250022
-0.0250027
-0.0250034
-0.0250042
-0.0250053
-0.0250066
-0.0250082
-0.0250104
-0.0250131
-0.0250166
-0.0250211
-0.0250268
-0.0250341
-0.0250435
-0.0250556
-0.0250711
-0.0250911
-0.025117
-0.0251504
-0.0251937
-0.0252499
-0.0253231
-0.0254184
-0.0255429
-0.0257057
-0.0259192
-0.0261979
-0.0265615
-0.0270362
-0.0278032
-0.0274892
-0.0275323
-0.0280553
-0.0284734
-0.0287327
-0.0287486
-0.0285842
-0.0281978
-0.0274982
-0.0270123
-0.0267407
-0.0263866
-0.0263062
-0.0262985
-0.026101
-0.0257782
-0.0255416
-0.0253743
-0.025256
-0.0251729
-0.025115
-0.025075
-0.0250477
-0.0250293
-0.0250169
-0.0250086
-0.0250032
-0.025
-0.0249982
-0.0249972
-0.0249967
-0.0249966
-0.0249968
-0.024997
-0.0249973
-0.0249976
-0.0249979
-0.0249982
-0.0249985
-0.0249988
-0.0249991
-0.0249993
-0.0249995
-0.0249997
-0.0249999
-0.025
-0.025
-0.025
-0.025
-0.025
)
;

boundaryField
{
    inlet
    {
        type            calculated;
        value           uniform -0.025;
    }
    outlet
    {
        type            calculated;
        value           uniform 0.0250004;
    }
    repeat_boundary
    {
        type            calculated;
        value           uniform 0;
    }
    procBoundary2to0
    {
        type            processor;
        value           nonuniform List<scalar> 
90
(
4.58578e-09
1.07259e-08
1.88223e-08
2.94867e-08
4.36863e-08
6.24188e-08
8.67281e-08
1.17792e-07
1.56939e-07
2.05822e-07
2.66543e-07
3.41855e-07
4.35416e-07
5.52113e-07
6.98466e-07
8.83149e-07
1.11765e-06
1.41712e-06
1.80145e-06
2.29659e-06
2.93627e-06
3.76412e-06
4.8365e-06
6.2264e-06
8.02831e-06
1.03673e-05
1.34074e-05
1.73691e-05
2.25411e-05
2.93039e-05
3.81594e-05
4.97712e-05
6.50196e-05
8.50846e-05
0.00011156
0.000145799
0.000189569
0.000247794
0.000415347
-0.000211668
2.65598e-05
0.000313484
0.000187047
0.000215987
0.000208827
6.58965e-05
-0.000218083
-0.000518871
-0.000391484
-8.4005e-05
-6.8953e-05
-0.000132025
-5.37845e-05
-2.09039e-05
-0.000152508
-0.00012539
-9.09392e-05
-6.56813e-05
-4.73466e-05
-3.40273e-05
-2.4365e-05
-1.74006e-05
-1.24163e-05
-8.87163e-06
-6.35096e-06
-4.56785e-06
-3.30277e-06
-2.39888e-06
-1.74968e-06
-1.2811e-06
-9.41573e-07
-6.94743e-07
-5.14923e-07
-3.83885e-07
-2.88546e-07
-2.19356e-07
-1.69228e-07
-1.3282e-07
-1.06056e-07
-8.58375e-08
-6.98611e-08
-5.65169e-08
-4.47979e-08
-3.41815e-08
-2.44899e-08
-1.57651e-08
-8.281e-09
-2.4365e-09
1.59455e-09
3.01811e-09
)
;
    }
    procBoundary2to3
    {
        type            processor;
        value           nonuniform List<scalar> 
90
(
4.92871e-09
1.13686e-08
1.98084e-08
3.08014e-08
4.52885e-08
6.42522e-08
8.87007e-08
1.19751e-07
1.58662e-07
2.06972e-07
2.6663e-07
3.40173e-07
4.30958e-07
5.43456e-07
6.83615e-07
8.59321e-07
1.08098e-06
1.36226e-06
1.72107e-06
2.18086e-06
2.77245e-06
3.53576e-06
4.52236e-06
5.79909e-06
7.45289e-06
9.59672e-06
1.23815e-05
1.60064e-05
2.0733e-05
2.69066e-05
3.49835e-05
4.55677e-05
5.94614e-05
7.77432e-05
0.000101947
0.000132973
0.000174069
0.000227072
0.000351849
-0.00010218
1.66274e-05
0.000209512
0.000231064
4.33425e-05
-0.000192885
-0.000230175
-0.000168217
-0.000180659
-9.44128e-05
-0.00018758
-0.000285076
5.16699e-05
4.6129e-05
-0.00017681
-0.000170441
-0.000111413
-7.65055e-05
-5.26071e-05
-3.57778e-05
-2.39212e-05
-1.56191e-05
-9.86903e-06
-5.95879e-06
-3.41621e-06
-1.96873e-06
-7.50556e-07
1.3774e-07
5.63129e-07
7.84358e-07
8.48783e-07
8.509e-07
8.10255e-07
7.39242e-07
6.58587e-07
5.78288e-07
5.01189e-07
4.29958e-07
3.66029e-07
3.09992e-07
2.61891e-07
2.21419e-07
1.87977e-07
1.60595e-07
1.38594e-07
1.21577e-07
1.08882e-07
9.9718e-08
9.32234e-08
8.81849e-08
8.50754e-08
)
;
    }
}


// ************************************************************************* //
