/*--------------------------------*- C++ -*----------------------------------*\
| =========                 |                                                 |
| \\      /  F ield         | OpenFOAM: The Open Source CFD Toolbox           |
|  \\    /   O peration     | Version:  5.x                                   |
|   \\  /    A nd           | Web:      www.OpenFOAM.org                      |
|    \\/     M anipulation  |                                                 |
\*---------------------------------------------------------------------------*/
FoamFile
{
    version     2.0;
    format      ascii;
    class       volScalarField;
    location    "2000";
    object      p;
}
// * * * * * * * * * * * * * * * * * * * * * * * * * * * * * * * * * * * * * //

dimensions      [0 2 -2 0 0 0 0];

internalField   nonuniform List<scalar> 
180
(
7.33593e-09
2.20318e-08
3.67515e-08
5.14097e-08
6.59633e-08
8.03851e-08
9.46456e-08
1.08716e-07
1.2257e-07
1.36187e-07
1.49548e-07
1.62647e-07
1.75458e-07
1.87959e-07
2.00126e-07
2.11938e-07
2.2337e-07
2.34399e-07
2.45e-07
2.55146e-07
2.6481e-07
2.73963e-07
2.82572e-07
2.90606e-07
2.98029e-07
3.04808e-07
3.10906e-07
3.16291e-07
3.20928e-07
3.24785e-07
3.27831e-07
3.30034e-07
3.31362e-07
3.31781e-07
3.3125e-07
3.29715e-07
3.27131e-07
3.23622e-07
3.19353e-07
3.14544e-07
3.09397e-07
3.03995e-07
2.98442e-07
2.92871e-07
2.87445e-07
2.82365e-07
2.77882e-07
2.74312e-07
2.72049e-07
2.71589e-07
2.73556e-07
2.78735e-07
2.88111e-07
3.02924e-07
3.24731e-07
3.55484e-07
3.97637e-07
4.54268e-07
5.29248e-07
6.27428e-07
7.54886e-07
9.19235e-07
1.12998e-06
1.39858e-06
1.73872e-06
2.16674e-06
2.70214e-06
3.36816e-06
4.19245e-06
5.2079e-06
6.45352e-06
7.97574e-06
9.82935e-06
1.20751e-05
1.47729e-05
1.8007e-05
2.20825e-05
2.7847e-05
3.53628e-05
3.31862e-05
-1.18545e-05
0.000928138
0.00146172
0.00198502
0.00513865
0.00610996
0.00947932
0.0120599
0.0126578
0.0147694
0.0159412
0.0161361
0.0185793
0.0225346
0.0229317
0.024164
0.025068
0.0263421
0.0283522
0.0289143
0.0294041
0.0309104
0.0324489
0.0325379
0.0325223
0.0325039
0.0324857
0.0324706
0.0324581
0.0324474
0.0324382
0.0324304
0.0324236
0.0324178
0.0324129
0.0324087
0.032405
0.0324019
0.0323993
0.0323971
0.0323951
0.0323935
0.0323921
0.0323909
0.0323899
0.032389
0.0323883
0.0323877
0.0323872
0.0323867
0.0323864
0.032386
0.0323858
0.0323856
0.0323854
0.0323852
0.0323851
0.032385
0.0323849
0.0323849
0.0323848
0.0323847
0.0323847
0.0323847
0.0323847
0.0323846
0.0323846
0.0323846
0.0323846
0.0323846
0.0323846
0.0323846
0.0323846
0.0323846
0.0323846
0.0323846
0.0323846
0.0323846
0.0323846
0.0323846
0.0323846
0.0323846
0.0323846
0.0323846
0.0323846
0.0323846
0.0323846
0.0323846
0.0323846
0.0323846
0.0323846
0.0323846
0.0323846
0.0323846
0.0323846
0.0323846
0.0323846
0.0323846
0.0323846
0.0323846
)
;

boundaryField
{
    inlet
    {
        type            zeroGradient;
    }
    outlet
    {
        type            fixedValue;
        value           uniform 0;
    }
    repeat_boundary
    {
        type            zeroGradient;
    }
    procBoundary3to1
    {
        type            processor;
        value           nonuniform List<scalar> 
180
(
9.27106e-09
2.79064e-08
4.6605e-08
6.52562e-08
8.38341e-08
1.02322e-07
1.20708e-07
1.38984e-07
1.57153e-07
1.75223e-07
1.93214e-07
2.11157e-07
2.29092e-07
2.47071e-07
2.65157e-07
2.83414e-07
3.01907e-07
3.20709e-07
3.39901e-07
3.59567e-07
3.79797e-07
4.00685e-07
4.22328e-07
4.44827e-07
4.68286e-07
4.92812e-07
5.18523e-07
5.45617e-07
5.74302e-07
6.04801e-07
6.37359e-07
6.72247e-07
7.09774e-07
7.50292e-07
7.94205e-07
8.41981e-07
8.94162e-07
9.51393e-07
1.01445e-06
1.08422e-06
1.16171e-06
1.2481e-06
1.34472e-06
1.45312e-06
1.57504e-06
1.71248e-06
1.86771e-06
2.04332e-06
2.24221e-06
2.46772e-06
2.72359e-06
3.01406e-06
3.34391e-06
3.71856e-06
4.14409e-06
4.62736e-06
5.17609e-06
5.7989e-06
6.50546e-06
7.30654e-06
8.21411e-06
9.24144e-06
1.04031e-05
1.17153e-05
1.31953e-05
1.48623e-05
1.67365e-05
1.88398e-05
2.1195e-05
2.38262e-05
2.67577e-05
3.00144e-05
3.36209e-05
3.75973e-05
4.1946e-05
4.66609e-05
5.19026e-05
5.84074e-05
6.63942e-05
6.58656e-05
1.37809e-06
0.00127381
0.00264461
0.00277927
0.00427853
0.00632456
0.00895795
0.00998054
0.0115107
0.01257
0.0133297
0.0148368
0.0154643
0.0170128
0.0199889
0.0220419
0.0224839
0.0237511
0.0277779
0.0301763
0.0316766
0.0321127
0.032271
0.0323255
0.0323504
0.0323579
0.0323603
0.0323631
0.032366
0.0323685
0.0323707
0.0323726
0.0323742
0.0323756
0.0323769
0.0323779
0.0323788
0.0323796
0.0323803
0.0323809
0.0323814
0.0323819
0.0323822
0.0323826
0.0323829
0.0323831
0.0323833
0.0323835
0.0323837
0.0323838
0.032384
0.0323841
0.0323842
0.0323842
0.0323843
0.0323844
0.0323844
0.0323844
0.0323845
0.0323845
0.0323845
0.0323846
0.0323846
0.0323846
0.0323846
0.0323846
0.0323846
0.0323846
0.0323846
0.0323846
0.0323846
0.0323846
0.0323847
0.0323847
0.0323847
0.0323847
0.0323847
0.0323847
0.0323847
0.0323846
0.0323846
0.0323846
0.0323846
0.0323846
0.0323846
0.0323846
0.0323846
0.0323846
0.0323846
0.0323846
0.0323846
0.0323846
0.0323846
0.0323846
0.0323846
0.0323846
0.0323846
0.0323846
0.0323846
0.0323846
)
;
    }
    procBoundary3to2
    {
        type            processor;
        value           nonuniform List<scalar> 
180
(
9.26989e-09
2.78685e-08
4.65204e-08
6.51133e-08
8.36112e-08
1.01986e-07
1.20214e-07
1.38269e-07
1.5613e-07
1.73775e-07
1.91182e-07
2.08325e-07
2.252e-07
2.41803e-07
2.58132e-07
2.74183e-07
2.89951e-07
3.05427e-07
3.20593e-07
3.35422e-07
3.49874e-07
3.63892e-07
3.77399e-07
3.90294e-07
4.02447e-07
4.13697e-07
4.23843e-07
4.32645e-07
4.39814e-07
4.45013e-07
4.47847e-07
4.47866e-07
4.44551e-07
4.3732e-07
4.25515e-07
4.08406e-07
3.85157e-07
3.54654e-07
3.15613e-07
2.66556e-07
2.05858e-07
1.31821e-07
4.25078e-08
-6.43027e-08
-1.91156e-07
-3.40981e-07
-5.1715e-07
-7.23561e-07
-9.64717e-07
-1.24584e-06
-1.57298e-06
-1.95315e-06
-2.39451e-06
-2.90654e-06
-3.50027e-06
-4.18852e-06
-4.98626e-06
-5.9109e-06
-6.98279e-06
-8.22568e-06
-9.66737e-06
-1.13404e-05
-1.32828e-05
-1.5539e-05
-1.81602e-05
-2.12059e-05
-2.47453e-05
-2.88583e-05
-3.3638e-05
-3.9192e-05
-4.56452e-05
-5.3142e-05
-6.18492e-05
-7.19623e-05
-8.37168e-05
-9.73863e-05
-0.000113153
-0.000130814
-0.000150603
-0.000180571
-0.000263916
0.000488601
0.00115395
0.0014852
0.00320388
0.00529299
0.00783692
0.00862563
0.00936844
0.011411
0.0166004
0.0194355
0.0214709
0.0221063
0.0239696
0.0253694
0.0260409
0.0272146
0.0276565
0.0290885
0.0316689
0.0322952
0.0324558
0.0324467
0.0324391
0.0324342
0.032428
0.0324226
0.0324181
0.0324141
0.0324105
0.0324074
0.0324046
0.0324022
0.0324001
0.0323982
0.0323965
0.0323951
0.0323938
0.0323926
0.0323916
0.0323907
0.03239
0.0323893
0.0323887
0.0323881
0.0323876
0.0323872
0.0323868
0.0323865
0.0323863
0.032386
0.0323858
0.0323857
0.0323855
0.0323854
0.0323853
0.0323852
0.0323851
0.0323851
0.032385
0.032385
0.0323849
0.0323849
0.0323849
0.0323848
0.0323848
0.0323848
0.0323848
0.0323848
0.0323847
0.0323847
0.0323847
0.0323847
0.0323847
0.0323847
0.0323847
0.0323847
0.0323847
0.0323847
0.0323847
0.0323847
0.0323847
0.0323846
0.0323846
0.0323846
0.0323846
0.0323846
0.0323846
0.0323846
0.0323846
0.0323846
0.0323846
0.0323846
0.0323846
0.0323846
0.0323846
0.0323846
0.0323846
0.0323846
)
;
    }
}


// ************************************************************************* //
