/*--------------------------------*- C++ -*----------------------------------*\
| =========                 |                                                 |
| \\      /  F ield         | OpenFOAM: The Open Source CFD Toolbox           |
|  \\    /   O peration     | Version:  5.x                                   |
|   \\  /    A nd           | Web:      www.OpenFOAM.org                      |
|    \\/     M anipulation  |                                                 |
\*---------------------------------------------------------------------------*/
FoamFile
{
    version     2.0;
    format      ascii;
    class       surfaceScalarField;
    location    "2000";
    object      phi;
}
// * * * * * * * * * * * * * * * * * * * * * * * * * * * * * * * * * * * * * //

dimensions      [0 3 -1 0 0 0 0];

internalField   nonuniform List<scalar> 
179
(
-249.994
-249.993
-249.993
-249.992
-249.991
-249.99
-249.989
-249.988
-249.986
-249.984
-249.982
-249.979
-249.976
-249.973
-249.969
-249.965
-249.961
-249.956
-249.95
-249.944
-249.937
-249.929
-249.92
-249.911
-249.9
-249.888
-249.875
-249.861
-249.845
-249.827
-249.808
-249.786
-249.762
-249.736
-249.707
-249.676
-249.641
-249.602
-249.56
-249.514
-249.463
-249.407
-249.345
-249.278
-249.204
-249.123
-249.035
-248.939
-248.834
-248.719
-248.595
-248.461
-248.315
-248.158
-247.989
-247.808
-247.615
-247.409
-247.192
-246.962
-246.722
-246.473
-246.217
-245.957
-245.695
-245.437
-245.189
-244.957
-244.752
-244.586
-244.472
-244.43
-244.482
-244.654
-244.982
-245.506
-246.272
-247.312
-248.548
-249.57
-249.933
-249.768
-240.196
-238.869
-242.378
-241.578
-242.444
-255.225
-264.246
-273.171
-282.854
-286.017
-286.95
-297.302
-305.8
-308.346
-323.548
-323.815
-331.812
-331.419
-321.029
-318.275
-317.619
-314.812
-309.871
-303.071
-296.44
-290.523
-285.344
-280.827
-276.891
-273.46
-270.47
-267.863
-265.591
-263.609
-261.882
-260.376
-259.063
-257.917
-256.917
-256.045
-255.284
-254.62
-254.04
-253.534
-253.092
-252.706
-252.369
-252.074
-251.817
-251.592
-251.395
-251.223
-251.072
-250.941
-250.825
-250.724
-250.636
-250.558
-250.49
-250.431
-250.378
-250.332
-250.292
-250.257
-250.226
-250.199
-250.175
-250.154
-250.135
-250.119
-250.105
-250.092
-250.081
-250.071
-250.063
-250.055
-250.049
-250.043
-250.038
-250.033
-250.029
-250.025
-250.022
-250.019
-250.017
-250.015
-250.013
-250.011
-250.01
-250.008
-250.007
-250.006
-250.005
-250.004
-250.003
-250.002
-250.001
)
;

boundaryField
{
    inlet
    {
        type            calculated;
        value           uniform -250;
    }
    outlet
    {
        type            calculated;
        value           uniform 249.994;
    }
    repeat_boundary
    {
        type            calculated;
        value           uniform 0;
    }
    procBoundary3to1
    {
        type            processor;
        value           nonuniform List<scalar> 
180
(
-0.000154551
-0.000291921
-0.000469495
-0.000660138
-0.000859442
-0.00106841
-0.00128908
-0.00152383
-0.00177516
-0.00204577
-0.00233851
-0.00265642
-0.00300292
-0.0033817
-0.00379679
-0.00425257
-0.00475378
-0.00530566
-0.00591392
-0.00658488
-0.00732544
-0.00814325
-0.00904667
-0.0100449
-0.0111482
-0.0123677
-0.0137157
-0.0152057
-0.0168524
-0.0186721
-0.0206825
-0.0229031
-0.0253554
-0.0280625
-0.0310502
-0.0343464
-0.0379815
-0.0419888
-0.0464044
-0.0512675
-0.0566212
-0.0625131
-0.0689948
-0.0761222
-0.0839563
-0.0925625
-0.102012
-0.112381
-0.123751
-0.13621
-0.14985
-0.16477
-0.181075
-0.198873
-0.218278
-0.239414
-0.262418
-0.287423
-0.31456
-0.343963
-0.375762
-0.41008
-0.44703
-0.486707
-0.529189
-0.57452
-0.622708
-0.673704
-0.727389
-0.783554
-0.841871
-0.901861
-0.962855
-1.02393
-1.08375
-1.14011
-1.1895
-1.22524
-1.21878
-1.10054
-0.107881
0.0370913
-9.62137
-0.898682
1.02195
-0.36832
0.200066
6.54398
1.53379
7.99748
7.06886
6.26962
2.13462
7.86583
7.92109
2.21858
15.1607
0.143147
3.25114
-1.01344
-5.54251
-1.7831
0.825707
0.81285
-1.23035
-2.97117
-3.22311
-2.9452
-2.59645
-2.27325
-1.98822
-1.73891
-1.52111
-1.33085
-1.16463
-1.01938
-0.892452
-0.781505
-0.684512
-0.599701
-0.525526
-0.460641
-0.403871
-0.354189
-0.310702
-0.272627
-0.239283
-0.210074
-0.18448
-0.162046
-0.142376
-0.125124
-0.109987
-0.0967025
-0.0850396
-0.0747977
-0.0658012
-0.0578968
-0.0509504
-0.0448448
-0.0394775
-0.0347587
-0.03061
-0.0269628
-0.0237574
-0.0209395
-0.0184614
-0.0162816
-0.0143636
-0.0126755
-0.0111893
-0.0098807
-0.00872812
-0.00771275
-0.00681809
-0.00602967
-0.00533477
-0.00472225
-0.00418233
-0.00370641
-0.00328695
-0.00291731
-0.0025917
-0.00230502
-0.0020528
-0.00183112
-0.00163657
-0.00146613
-0.00131716
-0.00118734
-0.00107468
-0.000977453
-0.000894194
-0.000823652
-0.000764781
-0.000716735
-0.00067891
-0.000650653
-0.000631697
-0.000633625
)
;
    }
    procBoundary3to2
    {
        type            processor;
        value           nonuniform List<scalar> 
180
(
8.95848e-06
-2.12311e-06
-7.05037e-06
-1.01551e-05
-1.24735e-05
-1.3979e-05
-1.43122e-05
-1.2932e-05
-9.10647e-06
-1.87689e-06
9.61201e-06
1.45721e-05
2.10284e-05
2.91853e-05
3.92847e-05
5.16115e-05
6.65047e-05
8.43701e-05
0.000105695
0.000131066
0.000161189
0.000196916
0.000239268
0.000289472
0.000348996
0.000419591
0.000503345
0.000602733
0.000720684
0.000860647
0.00102668
0.00122353
0.00145676
0.00173282
0.00205926
0.0024448
0.00289965
0.00343649
0.0040702
0.00477753
0.00552688
0.00640112
0.00742357
0.00862209
0.01003
0.0116869
0.0136401
0.0159458
0.018671
0.0218952
0.025713
0.030237
0.0356008
0.0419637
0.049515
0.0584802
0.069128
0.0817779
0.0968109
0.114681
0.135928
0.161185
0.191023
0.226211
0.267706
0.316634
0.374324
0.442338
0.522516
0.617024
0.728418
0.859706
1.01443
1.19674
1.41148
1.66391
1.95624
2.26491
2.45548
2.12255
0.4712
-0.202155
0.0489694
-0.428405
2.48743
-0.432265
0.666287
6.23711
7.48674
0.927609
2.61412
-3.10641
-1.20206
2.48697
0.576914
0.327217
0.041441
0.123812
4.74551
0.620691
-4.84804
-0.970871
-1.4818
-3.61998
-3.71033
-3.82891
-3.40777
-2.97181
-2.58266
-2.24316
-1.94821
-1.69195
-1.46929
-1.2758
-1.10769
-0.961643
-0.834774
-0.724586
-0.628909
-0.545867
-0.473809
-0.411275
-0.356998
-0.309883
-0.268979
-0.233462
-0.202622
-0.175841
-0.152594
-0.132435
-0.114958
-0.099807
-0.0866733
-0.0752902
-0.0654264
-0.0568793
-0.0494678
-0.0430379
-0.0374573
-0.0326122
-0.0284045
-0.0247492
-0.0215728
-0.0188115
-0.0164102
-0.0143212
-0.0125031
-0.0109201
-0.00954152
-0.00834041
-0.00729356
-0.00638085
-0.0055848
-0.0048903
-0.00428421
-0.00375513
-0.00329317
-0.00288972
-0.0025373
-0.00222943
-0.00196043
-0.0017254
-0.00152006
-0.00134069
-0.00118406
-0.00104738
-0.000928204
-0.000824445
-0.000734275
-0.000656117
-0.000588607
-0.000530567
-0.000480994
-0.000439041
-0.000404011
-0.00037534
-0.000352603
-0.000335386
-0.000323956
-0.000325614
)
;
    }
}


// ************************************************************************* //
