/*--------------------------------*- C++ -*----------------------------------*\
| =========                 |                                                 |
| \\      /  F ield         | OpenFOAM: The Open Source CFD Toolbox           |
|  \\    /   O peration     | Version:  5.x                                   |
|   \\  /    A nd           | Web:      www.OpenFOAM.org                      |
|    \\/     M anipulation  |                                                 |
\*---------------------------------------------------------------------------*/
FoamFile
{
    version     2.0;
    format      ascii;
    class       volVectorField;
    location    "2000";
    object      stored_U;
}
// * * * * * * * * * * * * * * * * * * * * * * * * * * * * * * * * * * * * * //

dimensions      [0 1 -1 0 0 0 0];

internalField   nonuniform List<vector> 
180
(
(-8.25734e-10 5.14248e-09 -0.000999945)
(-1.1963e-09 9.50154e-09 -0.000999944)
(-1.83917e-09 1.52485e-08 -0.000999943)
(-2.56145e-09 2.14499e-08 -0.000999941)
(-3.30864e-09 2.79503e-08 -0.000999938)
(-4.07078e-09 3.47855e-08 -0.000999935)
(-4.85123e-09 4.20263e-08 -0.000999931)
(-5.65449e-09 4.97539e-08 -0.000999926)
(-6.48644e-09 5.80545e-08 -0.00099992)
(-7.35401e-09 6.70196e-08 -0.000999913)
(-8.26532e-09 7.67471e-08 -0.000999905)
(-9.22973e-09 8.7342e-08 -0.000999896)
(-1.0258e-08 9.89175e-08 -0.000999886)
(-1.13622e-08 1.11597e-07 -0.000999874)
(-1.25562e-08 1.25513e-07 -0.000999861)
(-1.38554e-08 1.40813e-07 -0.000999847)
(-1.52768e-08 1.57657e-07 -0.00099983)
(-1.68396e-08 1.7622e-07 -0.000999812)
(-1.85648e-08 1.96696e-07 -0.000999791)
(-2.04759e-08 2.19298e-07 -0.000999768)
(-2.25988e-08 2.44261e-07 -0.000999743)
(-2.49623e-08 2.71844e-07 -0.000999714)
(-2.75985e-08 3.02333e-07 -0.000999683)
(-3.05431e-08 3.36044e-07 -0.000999647)
(-3.38366e-08 3.73328e-07 -0.000999608)
(-3.75244e-08 4.14568e-07 -0.000999565)
(-4.1658e-08 4.60189e-07 -0.000999517)
(-4.62966e-08 5.10649e-07 -0.000999463)
(-5.15082e-08 5.66452e-07 -0.000999404)
(-5.73719e-08 6.28153e-07 -0.000999339)
(-6.39803e-08 6.96362e-07 -0.000999266)
(-7.14424e-08 7.71748e-07 -0.000999186)
(-7.98871e-08 8.55044e-07 -0.000999097)
(-8.94677e-08 9.47051e-07 -0.000999)
(-1.00367e-07 1.04864e-06 -0.000998892)
(-1.12804e-07 1.16078e-06 -0.000998773)
(-1.27036e-07 1.28449e-06 -0.000998642)
(-1.43332e-07 1.42094e-06 -0.000998497)
(-1.62009e-07 1.57136e-06 -0.000998337)
(-1.83438e-07 1.7371e-06 -0.000998161)
(-2.08056e-07 1.91965e-06 -0.000997967)
(-2.36371e-07 2.1206e-06 -0.000997754)
(-2.68983e-07 2.34169e-06 -0.00099752)
(-3.06592e-07 2.58477e-06 -0.000997262)
(-3.50019e-07 2.85187e-06 -0.000996979)
(-4.00223e-07 3.14518e-06 -0.00099667)
(-4.58329e-07 3.46702e-06 -0.00099633)
(-5.25655e-07 3.81991e-06 -0.000995959)
(-6.03743e-07 4.20654e-06 -0.000995553)
(-6.94398e-07 4.62975e-06 -0.000995111)
(-7.99736e-07 5.09259e-06 -0.000994629)
(-9.22235e-07 5.59827e-06 -0.000994105)
(-1.0648e-06 6.15017e-06 -0.000993535)
(-1.23083e-06 6.75183e-06 -0.000992918)
(-1.42433e-06 7.40691e-06 -0.000992251)
(-1.64996e-06 8.11922e-06 -0.000991532)
(-1.91321e-06 8.89261e-06 -0.000990757)
(-2.2205e-06 9.731e-06 -0.000989926)
(-2.57936e-06 1.06383e-05 -0.000989038)
(-2.99862e-06 1.16184e-05 -0.000988091)
(-3.48859e-06 1.26748e-05 -0.000987085)
(-4.0614e-06 1.3811e-05 -0.000986023)
(-4.73122e-06 1.503e-05 -0.000984908)
(-5.51472e-06 1.63342e-05 -0.000983744)
(-6.43144e-06 1.7725e-05 -0.000982538)
(-7.50433e-06 1.92032e-05 -0.0009813)
(-8.76031e-06 2.07679e-05 -0.000980046)
(-1.0231e-05 2.24166e-05 -0.000978793)
(-1.19537e-05 2.41445e-05 -0.000977564)
(-1.39721e-05 2.59442e-05 -0.000976393)
(-1.63378e-05 2.78048e-05 -0.000975318)
(-1.91113e-05 2.97112e-05 -0.000974387)
(-2.2364e-05 3.16432e-05 -0.000973646)
(-2.61793e-05 3.35738e-05 -0.00097317)
(-3.06548e-05 3.54652e-05 -0.000973337)
(-3.58933e-05 3.72617e-05 -0.00097519)
(-4.18634e-05 3.88849e-05 -0.000977755)
(-4.75607e-05 4.01703e-05 -0.000965348)
(-4.80441e-05 4.00929e-05 -0.000903405)
(-3.00602e-05 3.51547e-05 -0.000835747)
(8.57213e-06 4.47681e-06 -0.00271354)
(7.37744e-06 2.9756e-06 -1.56278e-05)
(6.30966e-05 0.000476242 -0.00351086)
(9.46148e-06 7.31465e-06 -5.39082e-05)
(-0.000113896 -5.04479e-05 -0.00381703)
(-2.6908e-05 4.63902e-05 -0.00385586)
(-2.15922e-05 7.75067e-06 -0.000531463)
(-0.000334483 -0.000224854 -0.00361424)
(-0.000349349 -0.000201911 -0.00367907)
(-4.75868e-05 -1.97577e-05 -0.000276141)
(-0.000614145 -0.000782309 -0.00295359)
(0.000118204 -0.000349724 -0.00368092)
(3.40196e-06 -3.39417e-05 -0.000766885)
(-0.000226795 -0.000677019 -0.00444002)
(-0.000233314 -0.000852526 -0.00327027)
(-8.55991e-06 5.4297e-06 -0.000190384)
(-0.000181634 -0.000809998 -0.00462837)
(-1.08191e-05 5.25647e-06 -0.000213003)
(-0.000365301 -0.000426997 -0.00512624)
(-0.000111032 -5.64829e-05 -0.00130777)
(0.000330333 0.000356766 -0.00400404)
(-1.80868e-05 -7.34474e-06 -0.000201288)
(6.21133e-05 -9.47043e-05 -0.00323217)
(0.000134373 -8.21464e-05 -0.00143517)
(0.000153133 3.46565e-05 -0.00143752)
(0.000143298 0.00011755 -0.0013095)
(0.000126125 0.00013167 -0.00123098)
(0.000109391 0.0001208 -0.00119709)
(9.46417e-05 0.000106109 -0.00117381)
(8.18471e-05 9.24489e-05 -0.00115192)
(7.07775e-05 8.04492e-05 -0.00113219)
(6.12011e-05 7.00018e-05 -0.00111502)
(5.29158e-05 6.09172e-05 -0.00110012)
(4.57477e-05 5.30186e-05 -0.00108716)
(3.95466e-05 4.61508e-05 -0.00107589)
(3.41826e-05 4.01787e-05 -0.00106608)
(2.95433e-05 3.4985e-05 -0.00105755)
(2.55314e-05 3.04676e-05 -0.00105012)
(2.20631e-05 2.6538e-05 -0.00104366)
(1.90657e-05 2.31191e-05 -0.00103804)
(1.6476e-05 2.01442e-05 -0.00103315)
(1.42386e-05 1.75552e-05 -0.00102889)
(1.23054e-05 1.53017e-05 -0.00102518)
(1.06351e-05 1.33398e-05 -0.00102195)
(9.19179e-06 1.16316e-05 -0.00101914)
(7.9447e-06 1.0144e-05 -0.0010167)
(6.86708e-06 8.84833e-06 -0.00101456)
(5.93587e-06 7.71959e-06 -0.0010127)
(5.13116e-06 6.73611e-06 -0.00101109)
(4.43574e-06 5.87906e-06 -0.00100968)
(3.83475e-06 5.13203e-06 -0.00100845)
(3.31535e-06 4.4808e-06 -0.00100737)
(2.86645e-06 3.91296e-06 -0.00100644)
(2.47846e-06 3.41775e-06 -0.00100562)
(2.14312e-06 2.98579e-06 -0.00100491)
(1.85327e-06 2.60893e-06 -0.00100429)
(1.60274e-06 2.28008e-06 -0.00100375)
(1.38619e-06 1.99305e-06 -0.00100328)
(1.19902e-06 1.7425e-06 -0.00100287)
(1.03725e-06 1.52372e-06 -0.00100251)
(8.9745e-07 1.33266e-06 -0.00100219)
(7.76648e-07 1.16578e-06 -0.00100192)
(6.72243e-07 1.01998e-06 -0.00100168)
(5.81979e-07 8.92575e-07 -0.00100147)
(5.03918e-07 7.81234e-07 -0.00100129)
(4.36394e-07 6.83914e-07 -0.00100113)
(3.77973e-07 5.98835e-07 -0.00100099)
(3.2742e-07 5.24448e-07 -0.00100087)
(2.83669e-07 4.59399e-07 -0.00100076)
(2.45802e-07 4.02508e-07 -0.00100067)
(2.13025e-07 3.52745e-07 -0.00100058)
(1.84653e-07 3.09211e-07 -0.00100051)
(1.60095e-07 2.71122e-07 -0.00100045)
(1.38838e-07 2.37792e-07 -0.0010004)
(1.20438e-07 2.08622e-07 -0.00100035)
(1.0451e-07 1.8309e-07 -0.0010003)
(9.07199e-08 1.60739e-07 -0.00100027)
(7.87802e-08 1.41171e-07 -0.00100024)
(6.8441e-08 1.24037e-07 -0.00100021)
(5.94863e-08 1.09034e-07 -0.00100018)
(5.17293e-08 9.58947e-08 -0.00100016)
(4.50088e-08 8.43888e-08 -0.00100014)
(3.91854e-08 7.43139e-08 -0.00100012)
(3.41386e-08 6.54938e-08 -0.00100011)
(2.97648e-08 5.77755e-08 -0.0010001)
(2.59746e-08 5.10256e-08 -0.00100008)
(2.26912e-08 4.51289e-08 -0.00100007)
(1.98486e-08 3.99857e-08 -0.00100006)
(1.73905e-08 3.551e-08 -0.00100006)
(1.52687e-08 3.16261e-08 -0.00100005)
(1.34422e-08 2.82692e-08 -0.00100004)
(1.18765e-08 2.53835e-08 -0.00100004)
(1.05423e-08 2.29216e-08 -0.00100003)
(9.41499e-09 2.08437e-08 -0.00100003)
(8.47448e-09 1.91164e-08 -0.00100002)
(7.70496e-09 1.77129e-08 -0.00100002)
(7.09648e-09 1.6615e-08 -0.00100001)
(6.64276e-09 1.58086e-08 -0.00100001)
(6.34894e-09 1.52853e-08 -0.00100001)
(6.23747e-09 1.50254e-08 -0.001)
)
;

boundaryField
{
    inlet
    {
        type            calculated;
        value           uniform (6.23747e-09 1.50254e-08 -0.001);
    }
    outlet
    {
        type            calculated;
        value           uniform (-8.25734e-10 5.14248e-09 -0.000999945);
    }
    repeat_boundary
    {
        type            calculated;
        value           nonuniform List<vector> 
360
(
(0 5.14248e-09 -0.000999945)
(0 9.50154e-09 -0.000999944)
(0 1.52485e-08 -0.000999943)
(0 2.14499e-08 -0.000999941)
(0 2.79503e-08 -0.000999938)
(0 3.47855e-08 -0.000999935)
(0 4.20263e-08 -0.000999931)
(0 4.97539e-08 -0.000999926)
(0 5.80545e-08 -0.00099992)
(0 6.70196e-08 -0.000999913)
(0 7.67471e-08 -0.000999905)
(0 8.7342e-08 -0.000999896)
(0 9.89175e-08 -0.000999886)
(0 1.11597e-07 -0.000999874)
(0 1.25513e-07 -0.000999861)
(0 1.40813e-07 -0.000999847)
(0 1.57657e-07 -0.00099983)
(0 1.7622e-07 -0.000999812)
(0 1.96696e-07 -0.000999791)
(0 2.19298e-07 -0.000999768)
(0 2.44261e-07 -0.000999743)
(0 2.71844e-07 -0.000999714)
(0 3.02333e-07 -0.000999683)
(0 3.36044e-07 -0.000999647)
(0 3.73328e-07 -0.000999608)
(0 4.14568e-07 -0.000999565)
(0 4.60189e-07 -0.000999517)
(0 5.10649e-07 -0.000999463)
(0 5.66452e-07 -0.000999404)
(0 6.28153e-07 -0.000999339)
(0 6.96362e-07 -0.000999266)
(0 7.71748e-07 -0.000999186)
(0 8.55044e-07 -0.000999097)
(0 9.47051e-07 -0.000999)
(0 1.04864e-06 -0.000998892)
(0 1.16078e-06 -0.000998773)
(0 1.28449e-06 -0.000998642)
(0 1.42094e-06 -0.000998497)
(0 1.57136e-06 -0.000998337)
(0 1.7371e-06 -0.000998161)
(0 1.91965e-06 -0.000997967)
(0 2.1206e-06 -0.000997754)
(0 2.34169e-06 -0.00099752)
(0 2.58477e-06 -0.000997262)
(0 2.85187e-06 -0.000996979)
(0 3.14518e-06 -0.00099667)
(0 3.46702e-06 -0.00099633)
(0 3.81991e-06 -0.000995959)
(0 4.20654e-06 -0.000995553)
(0 4.62975e-06 -0.000995111)
(0 5.09259e-06 -0.000994629)
(0 5.59827e-06 -0.000994105)
(0 6.15017e-06 -0.000993535)
(0 6.75183e-06 -0.000992918)
(0 7.40691e-06 -0.000992251)
(0 8.11922e-06 -0.000991532)
(0 8.89261e-06 -0.000990757)
(0 9.731e-06 -0.000989926)
(0 1.06383e-05 -0.000989038)
(0 1.16184e-05 -0.000988091)
(0 1.26748e-05 -0.000987085)
(0 1.3811e-05 -0.000986023)
(0 1.503e-05 -0.000984908)
(0 1.63342e-05 -0.000983744)
(0 1.7725e-05 -0.000982538)
(0 1.92032e-05 -0.0009813)
(0 2.07679e-05 -0.000980046)
(0 2.24166e-05 -0.000978793)
(0 2.41445e-05 -0.000977564)
(0 2.59442e-05 -0.000976393)
(0 2.78048e-05 -0.000975318)
(0 2.97112e-05 -0.000974387)
(0 3.16432e-05 -0.000973646)
(0 3.35738e-05 -0.00097317)
(0 3.54652e-05 -0.000973337)
(0 3.72617e-05 -0.00097519)
(0 3.88849e-05 -0.000977755)
(0 4.01703e-05 -0.000965348)
(0 4.00929e-05 -0.000903405)
(0 3.51547e-05 -0.000835747)
(0 4.47681e-06 -0.00271354)
(0 2.9756e-06 -1.56278e-05)
(0 0.000476242 -0.00351086)
(0 7.31465e-06 -5.39082e-05)
(0 -5.04479e-05 -0.00381703)
(0 4.63902e-05 -0.00385586)
(0 7.75067e-06 -0.000531463)
(0 -0.000224854 -0.00361424)
(0 -0.000201911 -0.00367907)
(0 -1.97577e-05 -0.000276141)
(0 -0.000782309 -0.00295359)
(0 -0.000349724 -0.00368092)
(0 -3.39417e-05 -0.000766885)
(0 -0.000677019 -0.00444002)
(0 -0.000852526 -0.00327027)
(0 5.4297e-06 -0.000190384)
(0 -0.000809998 -0.00462837)
(0 5.25647e-06 -0.000213003)
(0 -0.000426997 -0.00512624)
(0 -5.64829e-05 -0.00130777)
(0 0.000356766 -0.00400404)
(0 -7.34474e-06 -0.000201288)
(0 -9.47043e-05 -0.00323217)
(0 -8.21464e-05 -0.00143517)
(0 3.46565e-05 -0.00143752)
(0 0.00011755 -0.0013095)
(0 0.00013167 -0.00123098)
(0 0.0001208 -0.00119709)
(0 0.000106109 -0.00117381)
(0 9.24489e-05 -0.00115192)
(0 8.04492e-05 -0.00113219)
(0 7.00018e-05 -0.00111502)
(0 6.09172e-05 -0.00110012)
(0 5.30186e-05 -0.00108716)
(0 4.61508e-05 -0.00107589)
(0 4.01787e-05 -0.00106608)
(0 3.4985e-05 -0.00105755)
(0 3.04676e-05 -0.00105012)
(0 2.6538e-05 -0.00104366)
(0 2.31191e-05 -0.00103804)
(0 2.01442e-05 -0.00103315)
(0 1.75552e-05 -0.00102889)
(0 1.53017e-05 -0.00102518)
(0 1.33398e-05 -0.00102195)
(0 1.16316e-05 -0.00101914)
(0 1.0144e-05 -0.0010167)
(0 8.84833e-06 -0.00101456)
(0 7.71959e-06 -0.0010127)
(0 6.73611e-06 -0.00101109)
(0 5.87906e-06 -0.00100968)
(0 5.13203e-06 -0.00100845)
(0 4.4808e-06 -0.00100737)
(0 3.91296e-06 -0.00100644)
(0 3.41775e-06 -0.00100562)
(0 2.98579e-06 -0.00100491)
(0 2.60893e-06 -0.00100429)
(0 2.28008e-06 -0.00100375)
(0 1.99305e-06 -0.00100328)
(0 1.7425e-06 -0.00100287)
(0 1.52372e-06 -0.00100251)
(0 1.33266e-06 -0.00100219)
(0 1.16578e-06 -0.00100192)
(0 1.01998e-06 -0.00100168)
(0 8.92575e-07 -0.00100147)
(0 7.81234e-07 -0.00100129)
(0 6.83914e-07 -0.00100113)
(0 5.98835e-07 -0.00100099)
(0 5.24448e-07 -0.00100087)
(0 4.59399e-07 -0.00100076)
(0 4.02508e-07 -0.00100067)
(0 3.52745e-07 -0.00100058)
(0 3.09211e-07 -0.00100051)
(0 2.71122e-07 -0.00100045)
(0 2.37792e-07 -0.0010004)
(0 2.08622e-07 -0.00100035)
(0 1.8309e-07 -0.0010003)
(0 1.60739e-07 -0.00100027)
(0 1.41171e-07 -0.00100024)
(0 1.24037e-07 -0.00100021)
(0 1.09034e-07 -0.00100018)
(0 9.58947e-08 -0.00100016)
(0 8.43888e-08 -0.00100014)
(0 7.43139e-08 -0.00100012)
(0 6.54938e-08 -0.00100011)
(0 5.77755e-08 -0.0010001)
(0 5.10256e-08 -0.00100008)
(0 4.51289e-08 -0.00100007)
(0 3.99857e-08 -0.00100006)
(0 3.551e-08 -0.00100006)
(0 3.16261e-08 -0.00100005)
(0 2.82692e-08 -0.00100004)
(0 2.53835e-08 -0.00100004)
(0 2.29216e-08 -0.00100003)
(0 2.08437e-08 -0.00100003)
(0 1.91164e-08 -0.00100002)
(0 1.77129e-08 -0.00100002)
(0 1.6615e-08 -0.00100001)
(0 1.58086e-08 -0.00100001)
(0 1.52853e-08 -0.00100001)
(0 1.50254e-08 -0.001)
(-8.25734e-10 0 -0.000999945)
(-1.1963e-09 0 -0.000999944)
(-1.83917e-09 0 -0.000999943)
(-2.56145e-09 0 -0.000999941)
(-3.30864e-09 0 -0.000999938)
(-4.07078e-09 0 -0.000999935)
(-4.85123e-09 0 -0.000999931)
(-5.65449e-09 0 -0.000999926)
(-6.48644e-09 0 -0.00099992)
(-7.35401e-09 0 -0.000999913)
(-8.26532e-09 0 -0.000999905)
(-9.22973e-09 0 -0.000999896)
(-1.0258e-08 0 -0.000999886)
(-1.13622e-08 0 -0.000999874)
(-1.25562e-08 0 -0.000999861)
(-1.38554e-08 0 -0.000999847)
(-1.52768e-08 0 -0.00099983)
(-1.68396e-08 0 -0.000999812)
(-1.85648e-08 0 -0.000999791)
(-2.04759e-08 0 -0.000999768)
(-2.25988e-08 0 -0.000999743)
(-2.49623e-08 0 -0.000999714)
(-2.75985e-08 0 -0.000999683)
(-3.05431e-08 0 -0.000999647)
(-3.38366e-08 0 -0.000999608)
(-3.75244e-08 0 -0.000999565)
(-4.1658e-08 0 -0.000999517)
(-4.62966e-08 0 -0.000999463)
(-5.15082e-08 0 -0.000999404)
(-5.73719e-08 0 -0.000999339)
(-6.39803e-08 0 -0.000999266)
(-7.14424e-08 0 -0.000999186)
(-7.98871e-08 0 -0.000999097)
(-8.94677e-08 0 -0.000999)
(-1.00367e-07 0 -0.000998892)
(-1.12804e-07 0 -0.000998773)
(-1.27036e-07 0 -0.000998642)
(-1.43332e-07 0 -0.000998497)
(-1.62009e-07 0 -0.000998337)
(-1.83438e-07 0 -0.000998161)
(-2.08056e-07 0 -0.000997967)
(-2.36371e-07 0 -0.000997754)
(-2.68983e-07 0 -0.00099752)
(-3.06592e-07 0 -0.000997262)
(-3.50019e-07 0 -0.000996979)
(-4.00223e-07 0 -0.00099667)
(-4.58329e-07 0 -0.00099633)
(-5.25655e-07 0 -0.000995959)
(-6.03743e-07 0 -0.000995553)
(-6.94398e-07 0 -0.000995111)
(-7.99736e-07 0 -0.000994629)
(-9.22235e-07 0 -0.000994105)
(-1.0648e-06 0 -0.000993535)
(-1.23083e-06 0 -0.000992918)
(-1.42433e-06 0 -0.000992251)
(-1.64996e-06 0 -0.000991532)
(-1.91321e-06 0 -0.000990757)
(-2.2205e-06 0 -0.000989926)
(-2.57936e-06 0 -0.000989038)
(-2.99862e-06 0 -0.000988091)
(-3.48859e-06 0 -0.000987085)
(-4.0614e-06 0 -0.000986023)
(-4.73122e-06 0 -0.000984908)
(-5.51472e-06 0 -0.000983744)
(-6.43144e-06 0 -0.000982538)
(-7.50433e-06 0 -0.0009813)
(-8.76031e-06 0 -0.000980046)
(-1.0231e-05 0 -0.000978793)
(-1.19537e-05 0 -0.000977564)
(-1.39721e-05 0 -0.000976393)
(-1.63378e-05 0 -0.000975318)
(-1.91113e-05 0 -0.000974387)
(-2.2364e-05 0 -0.000973646)
(-2.61793e-05 0 -0.00097317)
(-3.06548e-05 0 -0.000973337)
(-3.58933e-05 0 -0.00097519)
(-4.18634e-05 0 -0.000977755)
(-4.75607e-05 0 -0.000965348)
(-4.80441e-05 0 -0.000903405)
(-3.00602e-05 0 -0.000835747)
(8.57213e-06 0 -0.00271354)
(7.37744e-06 0 -1.56278e-05)
(6.30966e-05 0 -0.00351086)
(9.46148e-06 0 -5.39082e-05)
(-0.000113896 0 -0.00381703)
(-2.6908e-05 0 -0.00385586)
(-2.15922e-05 0 -0.000531463)
(-0.000334483 0 -0.00361424)
(-0.000349349 0 -0.00367907)
(-4.75868e-05 0 -0.000276141)
(-0.000614145 0 -0.00295359)
(0.000118204 0 -0.00368092)
(3.40196e-06 0 -0.000766885)
(-0.000226795 0 -0.00444002)
(-0.000233314 0 -0.00327027)
(-8.55991e-06 0 -0.000190384)
(-0.000181634 0 -0.00462837)
(-1.08191e-05 0 -0.000213003)
(-0.000365301 0 -0.00512624)
(-0.000111032 0 -0.00130777)
(0.000330333 0 -0.00400404)
(-1.80868e-05 0 -0.000201288)
(6.21133e-05 0 -0.00323217)
(0.000134373 0 -0.00143517)
(0.000153133 0 -0.00143752)
(0.000143298 0 -0.0013095)
(0.000126125 0 -0.00123098)
(0.000109391 0 -0.00119709)
(9.46417e-05 0 -0.00117381)
(8.18471e-05 0 -0.00115192)
(7.07775e-05 0 -0.00113219)
(6.12011e-05 0 -0.00111502)
(5.29158e-05 0 -0.00110012)
(4.57477e-05 0 -0.00108716)
(3.95466e-05 0 -0.00107589)
(3.41826e-05 0 -0.00106608)
(2.95433e-05 0 -0.00105755)
(2.55314e-05 0 -0.00105012)
(2.20631e-05 0 -0.00104366)
(1.90657e-05 0 -0.00103804)
(1.6476e-05 0 -0.00103315)
(1.42386e-05 0 -0.00102889)
(1.23054e-05 0 -0.00102518)
(1.06351e-05 0 -0.00102195)
(9.19179e-06 0 -0.00101914)
(7.9447e-06 0 -0.0010167)
(6.86708e-06 0 -0.00101456)
(5.93587e-06 0 -0.0010127)
(5.13116e-06 0 -0.00101109)
(4.43574e-06 0 -0.00100968)
(3.83475e-06 0 -0.00100845)
(3.31535e-06 0 -0.00100737)
(2.86645e-06 0 -0.00100644)
(2.47846e-06 0 -0.00100562)
(2.14312e-06 0 -0.00100491)
(1.85327e-06 0 -0.00100429)
(1.60274e-06 0 -0.00100375)
(1.38619e-06 0 -0.00100328)
(1.19902e-06 0 -0.00100287)
(1.03725e-06 0 -0.00100251)
(8.9745e-07 0 -0.00100219)
(7.76648e-07 0 -0.00100192)
(6.72243e-07 0 -0.00100168)
(5.81979e-07 0 -0.00100147)
(5.03918e-07 0 -0.00100129)
(4.36394e-07 0 -0.00100113)
(3.77973e-07 0 -0.00100099)
(3.2742e-07 0 -0.00100087)
(2.83669e-07 0 -0.00100076)
(2.45802e-07 0 -0.00100067)
(2.13025e-07 0 -0.00100058)
(1.84653e-07 0 -0.00100051)
(1.60095e-07 0 -0.00100045)
(1.38838e-07 0 -0.0010004)
(1.20438e-07 0 -0.00100035)
(1.0451e-07 0 -0.0010003)
(9.07199e-08 0 -0.00100027)
(7.87802e-08 0 -0.00100024)
(6.8441e-08 0 -0.00100021)
(5.94863e-08 0 -0.00100018)
(5.17293e-08 0 -0.00100016)
(4.50088e-08 0 -0.00100014)
(3.91854e-08 0 -0.00100012)
(3.41386e-08 0 -0.00100011)
(2.97648e-08 0 -0.0010001)
(2.59746e-08 0 -0.00100008)
(2.26912e-08 0 -0.00100007)
(1.98486e-08 0 -0.00100006)
(1.73905e-08 0 -0.00100006)
(1.52687e-08 0 -0.00100005)
(1.34422e-08 0 -0.00100004)
(1.18765e-08 0 -0.00100004)
(1.05423e-08 0 -0.00100003)
(9.41499e-09 0 -0.00100003)
(8.47448e-09 0 -0.00100002)
(7.70496e-09 0 -0.00100002)
(7.09648e-09 0 -0.00100001)
(6.64276e-09 0 -0.00100001)
(6.34894e-09 0 -0.00100001)
(6.23747e-09 0 -0.001)
)
;
    }
    procBoundary3to1
    {
        type            processor;
        value           nonuniform List<vector> 
180
(
(-4.25908e-10 5.14249e-09 -0.00100006)
(-2.61252e-10 9.50155e-09 -0.00100007)
(-2.74262e-10 1.52485e-08 -0.00100007)
(-3.39383e-10 2.14499e-08 -0.00100007)
(-4.11103e-10 2.79503e-08 -0.00100007)
(-4.79491e-10 3.47856e-08 -0.00100008)
(-5.3844e-10 4.20263e-08 -0.00100008)
(-5.83193e-10 4.97539e-08 -0.00100009)
(-6.07451e-10 5.80545e-08 -0.00100009)
(-6.03173e-10 6.70196e-08 -0.0010001)
(-5.60304e-10 7.67471e-08 -0.00100011)
(-4.66539e-10 8.7342e-08 -0.00100012)
(-3.07075e-10 9.89176e-08 -0.00100013)
(-6.43608e-11 1.11597e-07 -0.00100014)
(2.82176e-10 1.25513e-07 -0.00100016)
(7.56432e-10 1.40814e-07 -0.00100017)
(1.38597e-09 1.57657e-07 -0.00100019)
(2.20239e-09 1.7622e-07 -0.0010002)
(3.24181e-09 1.96696e-07 -0.00100022)
(4.54537e-09 2.19298e-07 -0.00100025)
(6.15986e-09 2.44261e-07 -0.00100027)
(8.13843e-09 2.71844e-07 -0.0010003)
(1.05415e-08 3.02333e-07 -0.00100033)
(1.34376e-08 3.36045e-07 -0.00100036)
(1.6905e-08 3.73328e-07 -0.0010004)
(2.10324e-08 4.14569e-07 -0.00100044)
(2.5923e-08 4.6019e-07 -0.00100048)
(3.17155e-08 5.1065e-07 -0.00100053)
(3.85669e-08 5.66454e-07 -0.00100059)
(4.66562e-08 6.28155e-07 -0.00100065)
(5.61885e-08 6.96364e-07 -0.00100071)
(6.73995e-08 7.7175e-07 -0.00100078)
(8.05606e-08 8.55047e-07 -0.00100086)
(9.59853e-08 9.47055e-07 -0.00100095)
(1.14035e-07 1.04865e-06 -0.00100104)
(1.35129e-07 1.16078e-06 -0.00100115)
(1.5975e-07 1.2845e-06 -0.00100126)
(1.88461e-07 1.42095e-06 -0.00100138)
(2.21924e-07 1.57137e-06 -0.00100152)
(2.60902e-07 1.73712e-06 -0.00100167)
(3.06273e-07 1.91967e-06 -0.00100183)
(3.59053e-07 2.12062e-06 -0.001002)
(4.20417e-07 2.34171e-06 -0.00100219)
(4.91719e-07 2.5848e-06 -0.0010024)
(5.74518e-07 2.85191e-06 -0.00100262)
(6.70619e-07 3.14522e-06 -0.00100286)
(7.82095e-07 3.46707e-06 -0.00100312)
(9.11337e-07 3.81998e-06 -0.00100341)
(1.0611e-06 4.20661e-06 -0.00100371)
(1.23455e-06 4.62984e-06 -0.00100403)
(1.43533e-06 5.0927e-06 -0.00100438)
(1.66764e-06 5.59841e-06 -0.00100476)
(1.93631e-06 6.15034e-06 -0.00100515)
(2.2469e-06 6.75202e-06 -0.00100558)
(2.60579e-06 7.40715e-06 -0.00100603)
(3.02032e-06 8.1195e-06 -0.0010065)
(3.49892e-06 8.89295e-06 -0.001007)
(4.05131e-06 9.73141e-06 -0.00100751)
(4.68862e-06 1.06388e-05 -0.00100805)
(5.42362e-06 1.16189e-05 -0.00100861)
(6.27101e-06 1.26755e-05 -0.00100918)
(7.24761e-06 1.38119e-05 -0.00100976)
(8.37276e-06 1.5031e-05 -0.00101034)
(9.66866e-06 1.63354e-05 -0.00101091)
(1.11608e-05 1.77265e-05 -0.00101146)
(1.28784e-05 1.92049e-05 -0.00101197)
(1.48551e-05 2.077e-05 -0.00101244)
(1.71295e-05 2.2419e-05 -0.00101283)
(1.9746e-05 2.41474e-05 -0.00101313)
(2.27553e-05 2.59478e-05 -0.0010133)
(2.62162e-05 2.78092e-05 -0.0010133)
(3.01959e-05 2.97166e-05 -0.0010131)
(3.47721e-05 3.16499e-05 -0.00101261)
(4.00341e-05 3.35822e-05 -0.00101174)
(4.60838e-05 3.54756e-05 -0.00101064)
(5.30251e-05 3.7269e-05 -0.00101035)
(6.09025e-05 3.88527e-05 -0.00101102)
(6.94065e-05 3.99565e-05 -0.000997963)
(7.5935e-05 3.92618e-05 -0.000937441)
(6.92563e-05 3.32647e-05 -0.000759563)
(1.33808e-05 3.23899e-06 -0.00303472)
(3.93338e-06 2.33219e-06 -1.92121e-06)
(-0.00018468 0.000298914 -0.00377246)
(-7.68821e-05 0.000100254 -0.00232538)
(-7.2961e-05 -1.97152e-05 -0.00152746)
(-0.000262254 4.6258e-05 -0.00464965)
(-7.86972e-05 -2.75202e-06 -0.000731642)
(-0.00083548 -0.000449121 -0.00486412)
(-1.3059e-06 2.172e-05 -3.61444e-05)
(0.000808045 -0.000940849 -0.00424248)
(2.64896e-07 1.75538e-05 -7.45455e-05)
(0.000511196 -0.000482291 -0.00381585)
(0.00012329 -0.000252939 -0.00159431)
(0.000165538 -0.000545964 -0.00420541)
(-2.32155e-05 -6.64242e-05 -0.00106865)
(-3.33882e-05 -0.000262467 -0.00263634)
(0.000219528 -0.000508769 -0.0017924)
(7.71837e-06 -1.09803e-05 -0.000171772)
(4.95465e-05 -0.000200683 -0.00323385)
(-8.26049e-06 -1.34872e-05 -0.000826532)
(-0.000163989 7.2759e-05 -0.00246712)
(-8.66636e-05 0.000102286 -0.00131834)
(-0.000148315 3.83496e-05 -0.00121163)
(-0.000101688 7.84598e-05 -0.00101925)
(-5.99849e-05 0.000117183 -0.000917704)
(-8.00004e-05 0.000143268 -0.000855414)
(-7.66801e-05 0.000137303 -0.000835222)
(-6.64023e-05 0.000121801 -0.000852757)
(-5.67471e-05 0.000106315 -0.000874611)
(-4.85284e-05 9.25292e-05 -0.000891967)
(-4.15169e-05 8.05002e-05 -0.000906265)
(-3.5507e-05 7.00385e-05 -0.000918639)
(-3.0352e-05 6.09443e-05 -0.000929411)
(-2.59319e-05 5.30386e-05 -0.00093876)
(-2.21435e-05 4.61656e-05 -0.000946866)
(-1.88977e-05 4.01897e-05 -0.000953895)
(-1.61181e-05 3.49931e-05 -0.000959989)
(-1.37391e-05 3.04736e-05 -0.000965274)
(-1.17044e-05 2.65424e-05 -0.000969857)
(-9.96587e-06 2.31224e-05 -0.000973831)
(-8.48163e-06 2.01466e-05 -0.000977278)
(-7.21492e-06 1.7557e-05 -0.000980268)
(-6.13425e-06 1.5303e-05 -0.000982861)
(-5.21264e-06 1.33408e-05 -0.000985112)
(-4.427e-06 1.16323e-05 -0.000987065)
(-3.75754e-06 1.01446e-05 -0.00098876)
(-3.18733e-06 8.84872e-06 -0.000990231)
(-2.70187e-06 7.71988e-06 -0.000991508)
(-2.28877e-06 6.73633e-06 -0.000992618)
(-1.93742e-06 5.87922e-06 -0.000993581)
(-1.63873e-06 5.13215e-06 -0.000994418)
(-1.38497e-06 4.48088e-06 -0.000995144)
(-1.1695e-06 3.91302e-06 -0.000995776)
(-9.86657e-07 3.4178e-06 -0.000996325)
(-8.31604e-07 2.98582e-06 -0.000996802)
(-7.00213e-07 2.60896e-06 -0.000997216)
(-5.8896e-07 2.2801e-06 -0.000997577)
(-4.9484e-07 1.99307e-06 -0.00099789)
(-4.15292e-07 1.74251e-06 -0.000998163)
(-3.48133e-07 1.52373e-06 -0.0009984)
(-2.91505e-07 1.33267e-06 -0.000998607)
(-2.43827e-07 1.16578e-06 -0.000998786)
(-2.03714e-07 1.01998e-06 -0.000998943)
(-1.69977e-07 8.92577e-07 -0.000999079)
(-1.41618e-07 7.81236e-07 -0.000999198)
(-1.17796e-07 6.83915e-07 -0.000999301)
(-9.78015e-08 5.98836e-07 -0.000999391)
(-8.10361e-08 5.24448e-07 -0.00099947)
(-6.69933e-08 4.59399e-07 -0.000999538)
(-5.52462e-08 4.02508e-07 -0.000999598)
(-4.54333e-08 3.52745e-07 -0.00099965)
(-3.72496e-08 3.09212e-07 -0.000999695)
(-3.04383e-08 2.71122e-07 -0.000999735)
(-2.47803e-08 2.37792e-07 -0.000999769)
(-2.00901e-08 2.08622e-07 -0.000999799)
(-1.62093e-08 1.8309e-07 -0.000999825)
(-1.30044e-08 1.60739e-07 -0.000999848)
(-1.03625e-08 1.41171e-07 -0.000999868)
(-8.18836e-09 1.24037e-07 -0.000999885)
(-6.40166e-09 1.09034e-07 -0.000999901)
(-4.93505e-09 9.58948e-08 -0.000999914)
(-3.73206e-09 8.43888e-08 -0.000999925)
(-2.74556e-09 7.43139e-08 -0.000999935)
(-1.93631e-09 6.54939e-08 -0.000999944)
(-1.27192e-09 5.77755e-08 -0.000999951)
(-7.25881e-10 5.10256e-08 -0.000999958)
(-2.76984e-10 4.51289e-08 -0.000999963)
(9.1052e-11 3.99857e-08 -0.000999968)
(3.91343e-10 3.551e-08 -0.000999973)
(6.3689e-10 3.16261e-08 -0.000999977)
(8.38229e-10 2.82692e-08 -0.00099998)
(1.00369e-09 2.53835e-08 -0.000999983)
(1.13989e-09 2.29216e-08 -0.000999986)
(1.25196e-09 2.08437e-08 -0.000999988)
(1.34375e-09 1.91164e-08 -0.00099999)
(1.4174e-09 1.7713e-08 -0.000999992)
(1.47156e-09 1.6615e-08 -0.000999994)
(1.50385e-09 1.58087e-08 -0.000999996)
(1.50502e-09 1.52853e-08 -0.000999997)
(1.44527e-09 1.50254e-08 -0.000999999)
)
;
    }
    procBoundary3to2
    {
        type            processor;
        value           nonuniform List<vector> 
180
(
(-8.25734e-10 5.54231e-09 -0.000999931)
(-1.1963e-09 1.04366e-08 -0.00099993)
(-1.83917e-09 1.68134e-08 -0.000999928)
(-2.56145e-09 2.3672e-08 -0.000999926)
(-3.30863e-09 3.08478e-08 -0.000999923)
(-4.07078e-09 3.83768e-08 -0.000999919)
(-4.85123e-09 4.63391e-08 -0.000999915)
(-5.65449e-09 5.48252e-08 -0.000999909)
(-6.48644e-09 6.39334e-08 -0.000999903)
(-7.35401e-09 7.37704e-08 -0.000999895)
(-8.26532e-09 8.44521e-08 -0.000999886)
(-9.22972e-09 9.61051e-08 -0.000999876)
(-1.0258e-08 1.08868e-07 -0.000999864)
(-1.13622e-08 1.22895e-07 -0.000999851)
(-1.25562e-08 1.38352e-07 -0.000999836)
(-1.38554e-08 1.55425e-07 -0.000999819)
(-1.52768e-08 1.7432e-07 -0.0009998)
(-1.68396e-08 1.95262e-07 -0.000999778)
(-1.85648e-08 2.18503e-07 -0.000999754)
(-2.04759e-08 2.44319e-07 -0.000999727)
(-2.25988e-08 2.73019e-07 -0.000999697)
(-2.49623e-08 3.04944e-07 -0.000999663)
(-2.75984e-08 3.40473e-07 -0.000999626)
(-3.05431e-08 3.80025e-07 -0.000999584)
(-3.38366e-08 4.24069e-07 -0.000999537)
(-3.75243e-08 4.73124e-07 -0.000999485)
(-4.16579e-08 5.2777e-07 -0.000999427)
(-4.62965e-08 5.88661e-07 -0.000999363)
(-5.15081e-08 6.56527e-07 -0.000999291)
(-5.73718e-08 7.32181e-07 -0.000999211)
(-6.39801e-08 8.1653e-07 -0.000999123)
(-7.14421e-08 9.10589e-07 -0.000999024)
(-7.98868e-08 1.01549e-06 -0.000998913)
(-8.94673e-08 1.1325e-06 -0.000998791)
(-1.00366e-07 1.26305e-06 -0.000998654)
(-1.12803e-07 1.40871e-06 -0.000998501)
(-1.27035e-07 1.57128e-06 -0.00099833)
(-1.43331e-07 1.75273e-06 -0.00099814)
(-1.62007e-07 1.95529e-06 -0.000997928)
(-1.83436e-07 2.18144e-06 -0.000997692)
(-2.08053e-07 2.43398e-06 -0.000997428)
(-2.36368e-07 2.71602e-06 -0.000997133)
(-2.68978e-07 3.03107e-06 -0.000996804)
(-3.06586e-07 3.38306e-06 -0.000996437)
(-3.5001e-07 3.77639e-06 -0.000996026)
(-4.00211e-07 4.21599e-06 -0.000995567)
(-4.58314e-07 4.70741e-06 -0.000995053)
(-5.25636e-07 5.25686e-06 -0.000994479)
(-6.03717e-07 5.87132e-06 -0.000993837)
(-6.94364e-07 6.55862e-06 -0.000993117)
(-7.99691e-07 7.32756e-06 -0.000992312)
(-9.22175e-07 8.18802e-06 -0.00099141)
(-1.06472e-06 9.15112e-06 -0.000990399)
(-1.23073e-06 1.02293e-05 -0.000989265)
(-1.42419e-06 1.14367e-05 -0.000987994)
(-1.64977e-06 1.27891e-05 -0.000986567)
(-1.91296e-06 1.43042e-05 -0.000984965)
(-2.22017e-06 1.60022e-05 -0.000983165)
(-2.57893e-06 1.79054e-05 -0.000981142)
(-2.99803e-06 2.00395e-05 -0.000978867)
(-3.48781e-06 2.2433e-05 -0.000976307)
(-4.06036e-06 2.51182e-05 -0.000973424)
(-4.72983e-06 2.81315e-05 -0.000970176)
(-5.51286e-06 3.15143e-05 -0.000966514)
(-6.42895e-06 3.53131e-05 -0.000962381)
(-7.50099e-06 3.95804e-05 -0.000957713)
(-8.75584e-06 4.43761e-05 -0.000952436)
(-1.02251e-05 4.97677e-05 -0.000946466)
(-1.19457e-05 5.58318e-05 -0.000939705)
(-1.39614e-05 6.26555e-05 -0.00093204)
(-1.63233e-05 7.03375e-05 -0.000923341)
(-1.90919e-05 7.89906e-05 -0.000913458)
(-2.2338e-05 8.87426e-05 -0.000902202)
(-2.61444e-05 9.97385e-05 -0.000889349)
(-3.06086e-05 0.000112137 -0.000874809)
(-3.58353e-05 0.000126084 -0.000859089)
(-4.18126e-05 0.000141496 -0.000842115)
(-4.76351e-05 0.000156776 -0.000812812)
(-4.86895e-05 0.000163213 -0.00074298)
(-3.16306e-05 0.000132568 -0.000615007)
(5.93727e-06 8.12008e-06 -0.00210668)
(5.14372e-06 -5.63677e-06 -6.35009e-06)
(4.65003e-05 7.73466e-05 -0.00325177)
(-1.00786e-06 1.7504e-06 -0.000128182)
(-0.000138834 -0.000122537 -0.00429554)
(-4.88522e-06 -1.022e-05 -0.000156123)
(-0.000165163 -0.00029821 -0.00369901)
(-0.000311737 -0.000195635 -0.00166564)
(-0.00023313 5.46633e-05 -0.00175053)
(-1.24609e-05 -4.53138e-07 -0.00018639)
(-0.000165263 0.000142589 -0.00389716)
(9.21055e-05 -0.000119859 -0.00201917)
(0.000107099 -0.00028437 -0.00229348)
(-0.000291772 -0.000277538 -0.00275296)
(-1.47871e-05 1.67907e-05 -0.000105658)
(-0.000214927 -0.000241451 -0.00303923)
(-3.39089e-05 -3.5394e-05 -0.000880304)
(-5.10969e-05 -9.98662e-05 -0.00185736)
(-0.000274317 -1.44031e-05 -0.00244189)
(6.57105e-06 5.02675e-06 -0.000258227)
(5.76788e-05 -0.0001419 -0.00274555)
(7.45989e-05 -3.62433e-05 -0.000932181)
(0.000105267 -0.000191275 -0.00121902)
(0.000180983 -0.00018462 -0.000927216)
(0.000157167 -7.65987e-05 -0.000817773)
(0.000144182 -6.9983e-05 -0.000860951)
(0.000126274 -6.23785e-05 -0.000860489)