/*--------------------------------*- C++ -*----------------------------------*\
  =========                 |
  \\      /  F ield         | OpenFOAM: The Open Source CFD Toolbox
   \\    /   O peration     | Website:  https://openfoam.org
    \\  /    A nd           | Version:  9
     \\/     M anipulation  |
\*---------------------------------------------------------------------------*/
FoamFile
{
    format      ascii;
    class       volScalarField;
    location    "900";
    object      p;
}
// * * * * * * * * * * * * * * * * * * * * * * * * * * * * * * * * * * * * * //

dimensions      [0 2 -2 0 0 0 0];

internalField   nonuniform List<scalar> 
360
(
-0.00986671
-0.00644352
-0.0339796
0.00530017
-0.0288728
-0.029103
-0.0453602
-0.00695034
-0.0450047
-0.040628
-0.0507604
-0.0196455
-0.05091
-0.0538883
-0.0517776
-0.0345567
-0.0557154
-0.0659962
-0.056533
-0.0491058
-0.0613777
-0.0791649
-0.0619643
-0.0642724
-0.0730007
-0.092833
-0.0697844
-0.0798144
-0.0960104
-0.107159
-0.0788961
-0.0959097
-0.101433
-0.121443
-0.0890657
-0.112586
-0.0987807
-0.136237
-0.0999529
-0.129917
-0.116683
-0.152005
-0.112487
-0.147951
-0.132529
-0.16874
-0.126286
-0.166644
-0.147247
-0.186118
-0.140766
-0.185988
-0.153087
-0.203883
-0.155592
-0.206022
-0.14694
-0.222347
-0.170756
-0.226829
-0.159852
-0.242322
-0.187592
-0.24854
-0.19338
-0.264021
-0.2069
-0.271273
-0.227045
-0.287268
-0.228764
-0.295111
-0.242845
-0.311926
-0.252436
-0.320094
-0.260166
-0.338034
-0.27735
-0.346226
-0.300667
-0.365622
-0.304254
-0.373476
-0.34437
-0.394206
-0.332719
-0.401752
-0.380427
-0.423391
-0.362133
-0.43096
-0.397149
-0.453052
-0.391744
-0.461023
-0.414887
-0.48364
-0.421779
-0.491902
-0.457815
-0.515298
-0.452952
-0.523565
-0.504324
-0.547551
-0.484932
-0.55595
-0.543878
-0.580086
-0.517397
-0.589012
-0.565894
-0.612895
-0.549889
-0.622738
-0.593697
-0.646496
-0.58291
-0.657149
-0.641421
-0.680992
-0.617067
-0.692251
-0.668359
-0.715777
-0.651597
-0.728019
-0.678874
-0.751171
-0.68629
-0.764462
-0.707679
-0.787921
-0.722269
-0.801618
-0.757982
-0.826079
-0.760173
-0.839494
-0.808623
-0.865181
-0.799429
-0.878043
-0.859519
-0.904892
-0.839555
-0.917192
-0.913399
-0.944932
-0.880368
-0.956853
-0.964539
-0.984834
-0.921177
-0.99693
-0.99965
-1.02444
-0.961214
-1.03735
-1.0339
-1.06433
-1.0012
-1.07812
-1.07016
-1.10442
-1.04116
-1.11924
-1.11234
-1.14512
-1.08166
-1.16073
-1.17235
-1.18608
-1.12261
-1.20258
-1.21246
-1.22658
-1.16278
-1.24475
-1.23782
-1.26708
-1.20231
-1.28727
-1.26719
-1.3078
-1.24167
-1.33016
-1.29814
-1.3489
-1.28113
-1.37349
-1.33166
-1.39054
-1.32097
-1.41732
-1.36724
-1.43283
-1.3614
-1.46172
-1.4047
-1.47588
-1.40255
-1.50675
-1.44374
-1.51973
-1.44449
-1.55247
-1.48425
-1.56443
-1.4873
-1.59894
-1.52608
-1.61002
-1.53099
-1.64619
-1.56915
-1.65653
-1.57561
-1.69428
-1.61338
-1.70398
-1.62116
-1.74323
-1.65873
-1.75237
-1.66765
-1.79307
-1.70516
-1.80173
-1.7151
-1.84382
-1.75264
-1.85206
-1.7635
-1.8955
-1.80115
-1.90338
-1.81286
-1.94813
-1.85068
-1.95568
-1.86317
-2.00172
-1.90122
-2.00899
-1.91445
-2.05628
-1.95276
-2.06329
-1.96669
-2.11181
-2.0053
-2.11861
-2.0199
-2.16833
-2.05884
-2.17495
-2.07406
-2.22583
-2.11338
-2.2323
-2.12919
-2.28432
-2.16893
-2.29069
-2.18527
-2.3438
-2.22548
-2.3501
-2.24231
-2.40426
-2.28306
-2.41056
-2.30029
-2.4657
-2.34167
-2.47206
-2.35921
-2.52812
-2.40131
-2.53461
-2.41906
-2.59149
-2.462
-2.59822
-2.47982
-2.65582
-2.52375
-2.6629
-2.54148
-2.72109
-2.58659
-2.72866
-2.60401
-2.78727
-2.65053
-2.79551
-2.66739
-2.85434
-2.71559
-2.86347
-2.73155
-2.92229
-2.7818
-2.93255
-2.79645
-2.99108
-2.84918
-3.00277
-2.86205
-3.06063
-2.91778
-3.07415
-2.92842
-3.13081
-2.98763
-3.14671
-2.99542
-3.2016
-3.05878
-3.22055
-3.06239
-3.27342
-3.13133
-3.29574
-3.12858
-3.34679
-3.2053
-3.37223
-3.19383
-3.42179
-3.28053
-3.44975
-3.25867
-3.49821
-3.35675
-3.5283
-3.32309
-3.57579
-3.43517
-3.60976
-3.38123
-3.65553
-3.51908
-3.69718
-3.42323
-3.74043
-3.60782
-3.78693
-3.46486
-3.83068
-3.68327
-3.85622
-3.5762
-3.91084
-3.70533
-3.86348
-3.77844
-3.93846
)
;

boundaryField
{
    inlet
    {
        type            zeroGradient;
    }
    outlet
    {
        type            fixedValue;
        value           uniform 0;
    }
    repeat_boundary
    {
        type            zeroGradient;
    }
}


// ************************************************************************* //
