/*--------------------------------*- C++ -*----------------------------------*\
  =========                 |
  \\      /  F ield         | OpenFOAM: The Open Source CFD Toolbox
   \\    /   O peration     | Website:  https://openfoam.org
    \\  /    A nd           | Version:  9
     \\/     M anipulation  |
\*---------------------------------------------------------------------------*/
FoamFile
{
    format      ascii;
    class       volVectorField;
    location    "0.008";
    object      U;
}
// * * * * * * * * * * * * * * * * * * * * * * * * * * * * * * * * * * * * * //

dimensions      [0 1 -1 0 0 0 0];

internalField   nonuniform List<vector> 
720
(
(6.36349e-10 -1.05465e-08 -0.000999968)
(6.36347e-10 -1.05849e-08 -0.000999966)
(5.97997e-10 -1.05466e-08 -0.00100009)
(5.97997e-10 -1.05849e-08 -0.00100009)
(6.06925e-10 -1.31297e-08 -0.000999967)
(6.06921e-10 -1.31558e-08 -0.000999964)
(5.80869e-10 -1.31298e-08 -0.00100009)
(5.80868e-10 -1.31558e-08 -0.00100009)
(5.84273e-10 -1.75251e-08 -0.000999966)
(5.84268e-10 -1.75542e-08 -0.000999963)
(5.55205e-10 -1.75252e-08 -0.0010001)
(5.55204e-10 -1.75542e-08 -0.00100009)
(6.08439e-10 -2.30699e-08 -0.000999964)
(6.08435e-10 -2.31164e-08 -0.000999961)
(5.62007e-10 -2.307e-08 -0.0010001)
(5.62006e-10 -2.31164e-08 -0.0010001)
(6.87218e-10 -2.9337e-08 -0.000999961)
(6.87215e-10 -2.94133e-08 -0.000999958)
(6.10915e-10 -2.93371e-08 -0.0010001)
(6.10913e-10 -2.94134e-08 -0.0010001)
(8.10248e-10 -3.61148e-08 -0.000999958)
(8.10245e-10 -3.62342e-08 -0.000999954)
(6.90807e-10 -3.61149e-08 -0.0010001)
(6.90806e-10 -3.62343e-08 -0.0010001)
(9.66645e-10 -4.33359e-08 -0.000999954)
(9.66643e-10 -4.35153e-08 -0.00099995)
(7.87317e-10 -4.3336e-08 -0.00100011)
(7.87315e-10 -4.35154e-08 -0.00100011)
(1.15045e-09 -5.10138e-08 -0.00099995)
(1.15045e-09 -5.12734e-08 -0.000999945)
(8.90838e-10 -5.10139e-08 -0.00100011)
(8.90836e-10 -5.12735e-08 -0.00100011)
(1.36039e-09 -5.92018e-08 -0.000999945)
(1.36039e-09 -5.95655e-08 -0.00099994)
(9.96643e-10 -5.92019e-08 -0.00100012)
(9.9664e-10 -5.95656e-08 -0.00100012)
(1.59817e-09 -6.79726e-08 -0.000999939)
(1.59817e-09 -6.84679e-08 -0.000999933)
(1.10287e-09 -6.79728e-08 -0.00100013)
(1.10287e-09 -6.84681e-08 -0.00100012)
(1.86706e-09 -7.74101e-08 -0.000999932)
(1.86706e-09 -7.80681e-08 -0.000999925)
(1.20903e-09 -7.74103e-08 -0.00100013)
(1.20903e-09 -7.80683e-08 -0.00100013)
(2.17118e-09 -8.76061e-08 -0.000999924)
(2.17118e-09 -8.84621e-08 -0.000999917)
(1.31517e-09 -8.76063e-08 -0.00100014)
(1.31517e-09 -8.84623e-08 -0.00100014)
(2.5152e-09 -9.86604e-08 -0.000999915)
(2.51519e-09 -9.97541e-08 -0.000999907)
(1.42155e-09 -9.86607e-08 -0.00100015)
(1.42155e-09 -9.97543e-08 -0.00100015)
(2.90427e-09 -1.10682e-07 -0.000999905)
(2.90426e-09 -1.12057e-07 -0.000999896)
(1.52848e-09 -1.10682e-07 -0.00100016)
(1.52847e-09 -1.12058e-07 -0.00100016)
(3.34406e-09 -1.23787e-07 -0.000999894)
(3.34405e-09 -1.25495e-07 -0.000999883)
(1.6362e-09 -1.23788e-07 -0.00100018)
(1.63619e-09 -1.25496e-07 -0.00100017)
(3.84081e-09 -1.38107e-07 -0.000999881)
(3.8408e-09 -1.40202e-07 -0.000999869)
(1.74486e-09 -1.38107e-07 -0.00100019)
(1.74485e-09 -1.40203e-07 -0.00100019)
(4.40144e-09 -1.53779e-07 -0.000999867)
(4.40143e-09 -1.56326e-07 -0.000999854)
(1.85441e-09 -1.5378e-07 -0.00100021)
(1.8544e-09 -1.56327e-07 -0.0010002)
(5.0336e-09 -1.70959e-07 -0.000999851)
(5.03358e-09 -1.74028e-07 -0.000999837)
(1.96446e-09 -1.70959e-07 -0.00100022)
(1.96444e-09 -1.74028e-07 -0.00100022)
(5.74576e-09 -1.89813e-07 -0.000999834)
(5.74574e-09 -1.93484e-07 -0.000999817)
(2.07416e-09 -1.89814e-07 -0.00100024)
(2.07414e-09 -1.93485e-07 -0.00100024)
(6.5474e-09 -2.10526e-07 -0.000999814)
(6.54738e-09 -2.14891e-07 -0.000999796)
(2.18203e-09 -2.10527e-07 -0.00100026)
(2.18201e-09 -2.14892e-07 -0.00100026)
(7.44905e-09 -2.33299e-07 -0.000999793)
(7.44903e-09 -2.38463e-07 -0.000999772)
(2.28577e-09 -2.33301e-07 -0.00100029)
(2.28574e-09 -2.38464e-07 -0.00100028)
(8.46248e-09 -2.58354e-07 -0.000999769)
(8.46245e-09 -2.64435e-07 -0.000999745)
(2.38195e-09 -2.58356e-07 -0.00100031)
(2.38191e-09 -2.64436e-07 -0.00100031)
(9.60083e-09 -2.85934e-07 -0.000999742)
(9.60079e-09 -2.93069e-07 -0.000999716)
(2.46577e-09 -2.85936e-07 -0.00100034)
(2.46572e-09 -2.93071e-07 -0.00100034)
(1.08788e-08 -3.16305e-07 -0.000999713)
(1.08787e-08 -3.24653e-07 -0.000999684)
(2.5307e-09 -3.16307e-07 -0.00100037)
(2.53065e-09 -3.24655e-07 -0.00100037)
(1.23127e-08 -3.4976e-07 -0.00099968)
(1.23126e-08 -3.59504e-07 -0.000999647)
(2.56817e-09 -3.49762e-07 -0.00100041)
(2.5681e-09 -3.59507e-07 -0.0010004)
(1.39208e-08 -3.86621e-07 -0.000999644)
(1.39207e-08 -3.97974e-07 -0.000999608)
(2.56725e-09 -3.86624e-07 -0.00100044)
(2.56717e-09 -3.97978e-07 -0.00100044)
(1.57233e-08 -4.27242e-07 -0.000999604)
(1.57232e-08 -4.4045e-07 -0.000999563)
(2.51437e-09 -4.27246e-07 -0.00100049)
(2.51427e-09 -4.40455e-07 -0.00100049)
(1.7743e-08 -4.72012e-07 -0.00099956)
(1.77429e-08 -4.87362e-07 -0.000999514)
(2.39301e-09 -4.72017e-07 -0.00100053)
(2.39289e-09 -4.87367e-07 -0.00100053)
(2.00051e-08 -5.2136e-07 -0.000999512)
(2.0005e-08 -5.39181e-07 -0.00099946)
(2.18337e-09 -5.21366e-07 -0.00100058)
(2.18322e-09 -5.39188e-07 -0.00100059)
(2.25384e-08 -5.75756e-07 -0.000999458)
(2.25382e-08 -5.96433e-07 -0.0009994)
(1.86202e-09 -5.75764e-07 -0.00100064)
(1.86183e-09 -5.96441e-07 -0.00100064)
(2.53754e-08 -6.3572e-07 -0.000999399)
(2.53752e-08 -6.59694e-07 -0.000999334)
(1.40157e-09 -6.35729e-07 -0.0010007)
(1.40134e-09 -6.59704e-07 -0.00100071)
(2.85535e-08 -7.01821e-07 -0.000999333)
(2.85532e-08 -7.29604e-07 -0.000999261)
(7.70257e-10 -7.01833e-07 -0.00100077)
(7.69976e-10 -7.29616e-07 -0.00100078)
(3.21154e-08 -7.74687e-07 -0.000999261)
(3.2115e-08 -8.0687e-07 -0.00099918)
(-6.85425e-11 -7.74701e-07 -0.00100084)
(-6.88899e-11 -8.06885e-07 -0.00100086)
(3.61106e-08 -8.55007e-07 -0.000999181)
(3.61102e-08 -8.92274e-07 -0.00099909)
(-1.15692e-09 -8.55024e-07 -0.00100093)
(-1.15735e-09 -8.92292e-07 -0.00100095)
(4.05967e-08 -9.43541e-07 -0.000999093)
(4.05962e-08 -9.86681e-07 -0.000998991)
(-2.5432e-09 -9.43562e-07 -0.00100102)
(-2.54373e-09 -9.86703e-07 -0.00100104)
(4.56407e-08 -1.04112e-06 -0.000998996)
(4.56401e-08 -1.09105e-06 -0.000998881)
(-4.28278e-09 -1.04115e-06 -0.00100112)
(-4.28344e-09 -1.09107e-06 -0.00100115)
(5.13213e-08 -1.14867e-06 -0.000998889)
(5.13206e-08 -1.20643e-06 -0.00099876)
(-6.43929e-09 -1.1487e-06 -0.00100123)
(-6.4401e-09 -1.20646e-06 -0.00100127)
(5.77305e-08 -1.26719e-06 -0.000998771)
(5.77296e-08 -1.334e-06 -0.000998625)
(-9.08579e-09 -1.26723e-06 -0.00100135)
(-9.0868e-09 -1.33405e-06 -0.0010014)
(6.49757e-08 -1.39779e-06 -0.000998642)
(6.49746e-08 -1.47507e-06 -0.000998477)
(-1.23065e-08 -1.39783e-06 -0.00100148)
(-1.23077e-08 -1.47512e-06 -0.00100155)
(7.31825e-08 -1.54168e-06 -0.000998499)
(7.31811e-08 -1.63106e-06 -0.000998312)
(-1.61983e-08 -1.54173e-06 -0.00100163)
(-1.61999e-08 -1.63112e-06 -0.00100171)
(8.24975e-08 -1.70019e-06 -0.000998342)
(8.24958e-08 -1.80356e-06 -0.00099813)
(-2.08729e-08 -1.70026e-06 -0.00100179)
(-2.08748e-08 -1.80364e-06 -0.00100188)
(9.30921e-08 -1.8748e-06 -0.000998169)
(9.30899e-08 -1.99435e-06 -0.000997928)
(-2.64586e-08 -1.87489e-06 -0.00100197)
(-2.6461e-08 -1.99444e-06 -0.00100208)
(1.05173e-07 -2.06711e-06 -0.00099798)
(1.0517e-07 -2.20538e-06 -0.000997704)
(-3.31026e-08 -2.06721e-06 -0.00100216)
(-3.31056e-08 -2.20549e-06 -0.0010023)
(1.19e-07 -2.27886e-06 -0.000997772)
(1.18997e-07 -2.43883e-06 -0.000997456)
(-4.09746e-08 -2.27899e-06 -0.00100238)
(-4.09782e-08 -2.43897e-06 -0.00100254)
(1.34882e-07 -2.51197e-06 -0.000997543)
(1.34878e-07 -2.69711e-06 -0.000997181)
(-5.02689e-08 -2.51212e-06 -0.00100262)
(-5.02735e-08 -2.69728e-06 -0.00100281)
(1.53124e-07 -2.76856e-06 -0.000997292)
(1.53119e-07 -2.98288e-06 -0.000996877)
(-6.12095e-08 -2.76875e-06 -0.00100288)
(-6.12152e-08 -2.9831e-06 -0.0010031)
(1.74072e-07 -3.05098e-06 -0.000997016)
(1.74065e-07 -3.29909e-06 -0.00099654)
(-7.40533e-08 -3.05121e-06 -0.00100316)
(-7.40604e-08 -3.29935e-06 -0.00100343)
(1.9813e-07 -3.36177e-06 -0.000996712)
(1.98122e-07 -3.64898e-06 -0.000996166)
(-8.9094e-08 -3.36206e-06 -0.00100348)
(-8.91028e-08 -3.6493e-06 -0.00100379)
(2.25766e-07 -3.70376e-06 -0.000996379)
(2.25756e-07 -4.03617e-06 -0.000995753)
(-1.06667e-07 -3.7041e-06 -0.00100382)
(-1.06678e-07 -4.03657e-06 -0.00100419)
(2.57518e-07 -4.08001e-06 -0.000996013)
(2.57505e-07 -4.46466e-06 -0.000995294)
(-1.27154e-07 -4.08044e-06 -0.00100421)
(-1.27168e-07 -4.46515e-06 -0.00100463)
(2.94008e-07 -4.49392e-06 -0.000995612)
(2.93992e-07 -4.93888e-06 -0.000994786)
(-1.50989e-07 -4.49444e-06 -0.00100463)
(-1.51007e-07 -4.93948e-06 -0.00100512)
(3.35954e-07 -4.94918e-06 -0.000995171)
(3.35934e-07 -5.46376e-06 -0.000994223)
(-1.78662e-07 -4.94982e-06 -0.00100509)
(-1.78683e-07 -5.46449e-06 -0.00100566)
(3.84183e-07 -5.44987e-06 -0.000994688)
(3.84159e-07 -6.04473e-06 -0.000993599)
(-2.10724e-07 -5.45065e-06 -0.00100559)
(-2.10751e-07 -6.04563e-06 -0.00100626)
(4.39648e-07 -6.00046e-06 -0.000994158)
(4.39618e-07 -6.68783e-06 -0.000992907)
(-2.47796e-07 -6.0014e-06 -0.00100615)
(-2.47829e-07 -6.68895e-06 -0.00100693)
(5.03437e-07 -6.60584e-06 -0.000993576)
(5.03399e-07 -7.39976e-06 -0.00099214)
(-2.90568e-07 -6.60699e-06 -0.00100677)
(-2.9061e-07 -7.40113e-06 -0.00100766)
(5.76798e-07 -7.27142e-06 -0.000992939)
(5.7675e-07 -8.18791e-06 -0.000991289)
(-3.39801e-07 -7.27282e-06 -0.00100744)
(-3.39854e-07 -8.18959e-06 -0.00100847)
(6.61154e-07 -8.00314e-06 -0.00099224)
(6.61093e-07 -9.06047e-06 -0.000990344)
(-3.96318e-07 -8.00485e-06 -0.00100819)
(-3.96384e-07 -9.06255e-06 -0.00100937)
(7.58123e-07 -8.80754e-06 -0.000991474)
(7.58047e-07 -1.00265e-05 -0.000989297)
(-4.61032e-07 -8.80963e-06 -0.00100901)
(-4.61116e-07 -1.00291e-05 -0.00101036)
(8.69548e-07 -9.69183e-06 -0.000990633)
(8.69451e-07 -1.10961e-05 -0.000988135)
(-5.34946e-07 -9.69438e-06 -0.00100992)
(-5.35051e-07 -1.10992e-05 -0.00101146)
(9.97513e-07 -1.0664e-05 -0.000989712)
(9.97389e-07 -1.22803e-05 -0.000986846)
(-6.1913e-07 -1.06671e-05 -0.00101091)
(-6.19262e-07 -1.22842e-05 -0.00101267)
(1.14437e-06 -1.17327e-05 -0.000988701)
(1.14422e-06 -1.35914e-05 -0.000985415)
(-7.1471e-07 -1.17365e-05 -0.00101202)
(-7.14876e-07 -1.35962e-05 -0.00101401)
(1.31278e-06 -1.29079e-05 -0.000987591)
(1.31258e-06 -1.5043e-05 -0.000983828)
(-8.22853e-07 -1.29125e-05 -0.00101323)
(-8.23063e-07 -1.50489e-05 -0.00101549)
(1.50571e-06 -1.42002e-05 -0.000986373)
(1.50545e-06 -1.66501e-05 -0.000982067)
(-9.44747e-07 -1.42058e-05 -0.00101458)
(-9.45013e-07 -1.66573e-05 -0.00101713)
(1.72647e-06 -1.56218e-05 -0.000985034)
(1.72614e-06 -1.84291e-05 -0.000980114)
(-1.08153e-06 -1.56287e-05 -0.00101607)
(-1.08187e-06 -1.8438e-05 -0.00101893)
(1.97876e-06 -1.71862e-05 -0.000983562)
(1.97833e-06 -2.03982e-05 -0.000977947)
(-1.23424e-06 -1.71945e-05 -0.00101773)
(-1.23467e-06 -2.04091e-05 -0.00102091)
(2.2666e-06 -1.89084e-05 -0.000981941)
(2.26605e-06 -2.25773e-05 -0.000975543)
(-1.40367e-06 -1.89185e-05 -0.00101957)
(-1.40421e-06 -2.25909e-05 -0.00102309)
(2.59439e-06 -2.08055e-05 -0.000980154)
(2.59367e-06 -2.49885e-05 -0.000972878)
(-1.59027e-06 -2.08178e-05 -0.00102163)
(-1.59096e-06 -2.50052e-05 -0.00102549)
(2.9668e-06 -2.28969e-05 -0.000978176)
(2.96579e-06 -2.76554e-05 -0.000969924)
(-1.79396e-06 -2.2912e-05 -0.00102393)
(-1.79485e-06 -2.76762e-05 -0.00102812)
(3.38857e-06 -2.52045e-05 -0.000975977)
(3.38698e-06 -3.06043e-05 -0.00096665)
(-2.01433e-06 -2.5223e-05 -0.00102651)
(-2.01549e-06 -3.06302e-05 -0.00103102)
(3.8639e-06 -2.77531e-05 -0.000973512)
(3.86077e-06 -3.38624e-05 -0.000963026)
(-2.25044e-06 -2.77763e-05 -0.00102942)
(-2.25197e-06 -3.38956e-05 -0.00103419)
(4.39529e-06 -3.05704e-05 -0.000970739)
(4.3876e-06 -3.74563e-05 -0.000959021)
(-2.50078e-06 -3.06002e-05 -0.00103273)
(-2.5028e-06 -3.75014e-05 -0.00103769)
(4.9833e-06 -3.36773e-05 -0.000967641)
(4.96183e-06 -4.14029e-05 -0.000954595)
(-2.76678e-06 -3.37183e-05 -0.00103646)
(-2.76931e-06 -4.14713e-05 -0.00104152)
(5.6263e-06 -3.70643e-05 -0.000964154)
(5.56529e-06 -4.56866e-05 -0.000949661)
(-3.06018e-06 -3.71258e-05 -0.00104057)
(-3.06245e-06 -4.58083e-05 -0.00104565)
(6.31291e-06 -4.06466e-05 -0.000960158)
(6.14719e-06 -5.02013e-05 -0.000944089)
(-3.40755e-06 -4.07478e-05 -0.00104494)
(-3.4056e-06 -5.04518e-05 -0.00104999)
(7.01352e-06 -4.41678e-05 -0.000955955)
(6.59797e-06 -5.46302e-05 -0.000938103)
(-3.84857e-06 -4.4344e-05 -0.00104985)
(-3.82796e-06 -5.51861e-05 -0.0010549)
(7.65877e-06 -4.70376e-05 -0.000953173)
(6.73132e-06 -5.82216e-05 -0.000933287)
(-4.39951e-06 -4.73534e-05 -0.00105702)
(-4.31486e-06 -5.94696e-05 -0.00106232)
(8.11984e-06 -4.82538e-05 -0.000952975)
(6.27954e-06 -5.95965e-05 -0.000931379)
(-4.9042e-06 -4.87594e-05 -0.00106878)
(-4.61579e-06 -6.21145e-05 -0.00107368)
(8.13806e-06 -4.6484e-05 -0.000941555)
(4.90889e-06 -5.64944e-05 -0.000920796)
(-4.74023e-06 -4.73028e-05 -0.00107375)
(-3.91354e-06 -6.11378e-05 -0.00107298)
(7.16445e-06 -4.06363e-05 -0.000885653)
(2.26711e-06 -4.56676e-05 -0.000869521)
(-2.31606e-06 -4.16405e-05 -0.00103696)
(-1.21575e-07 -5.29523e-05 -0.00101675)
(3.96313e-06 -3.15883e-05 -0.000703574)
(-2.44388e-06 -2.39285e-05 -0.000682002)
(4.86658e-06 -3.18782e-05 -0.000748688)
(9.74826e-06 -3.33828e-05 -0.000775714)
(-2.55416e-06 -1.1963e-05 -0.00303694)
(-2.09304e-05 1.37108e-05 -0.00261683)
(9.76882e-06 -6.4308e-06 -0.00344707)
(1.99106e-05 3.91028e-06 -0.00347942)
(1.01229e-05 -2.09745e-05 2.55151e-05)
(-7.96332e-05 -1.63626e-06 -1.50427e-05)
(2.61424e-06 6.77273e-06 2.66374e-05)
(3.25e-05 1.47923e-05 3.13996e-05)
(0.000173406 1.0297e-05 -0.00361612)
(0.00017362 -0.000248714 -0.00269928)
(-9.79323e-05 1.95123e-05 -0.00402828)
(-6.91919e-05 -0.000240118 -0.00445199)
(1.28011e-05 -2.0675e-05 -0.000140064)
(2.31572e-05 -8.38947e-05 -0.00331068)
(4.08474e-06 2.02438e-06 -0.00034009)
(1.1047e-06 3.9933e-05 -9.2176e-05)
(-0.000394144 -0.000241484 -0.00285388)
(-0.000103028 -4.27416e-07 -0.000730852)
(8.34575e-05 -0.000130338 -0.00392394)
(0.000119975 0.000285303 -0.00511559)
(-0.000526501 -0.000296372 -0.0027079)
(-0.000536421 0.000249097 -0.00427415)
(3.48026e-05 -0.000216742 -0.0043605)
(-3.40359e-05 9.42849e-05 -0.000333049)
(-6.80823e-05 -7.18147e-05 -0.000657683)
(-0.000161588 1.70579e-05 -0.000445236)
(8.85942e-06 -5.19665e-05 -0.000466531)
(0.000268987 0.000282912 -0.00502954)
(-0.000115699 -0.000157977 -0.00492241)
(-0.000267643 0.000195044 -0.00311149)
(0.000319755 -0.000407783 -0.00464801)
(2.30125e-05 7.204e-05 -0.000494079)
(-1.00186e-05 -1.66796e-05 -0.000458565)
(4.95197e-05 -0.000128603 -0.00174618)
(-8.75586e-05 2.25263e-05 -0.00119163)
(-0.000115324 -0.000140696 -0.00461854)
(0.000321226 0.000286183 -0.0042529)
(0.000349418 -0.00015708 -0.00377235)
(-0.000305032 0.00074561 -0.00288865)
(-0.000100822 -7.95365e-05 -0.00151659)
(0.000302323 0.000492429 -0.0020235)
(7.9847e-05 1.3919e-05 -0.00146296)
(-0.000376181 0.000942336 -0.00315705)
(-0.000313585 1.59612e-05 -0.0054289)
(0.000125131 0.000853352 -0.00305823)
(5.67673e-05 3.77829e-05 -0.00413166)
(-0.000135189 0.000167162 -0.000686334)
(6.00862e-05 -1.69992e-05 1.83341e-06)
(6.0405e-05 0.000148523 -0.000554837)
(6.08225e-06 9.6126e-05 -0.00105455)
(-0.000981441 0.00134779 -0.00285375)
(-0.00124227 0.000800777 -0.0044658)
(-0.00014825 0.0012544 -0.00299746)
(-0.000142232 0.000518129 -0.00392753)
(-0.000307073 0.000432499 -0.0025135)
(-7.99862e-05 4.71503e-05 -0.000510778)
(-0.0001542 0.000426489 -0.00305617)
(2.52472e-05 8.72305e-05 -0.000279713)
(3.01385e-05 -8.43729e-06 -0.00023505)
(-0.000330145 0.000356217 -0.00442577)
(-2.62805e-05 4.19668e-05 -0.0011447)
(-0.000231186 0.000452377 -0.00408762)
(0.00010586 -3.98601e-05 -0.00452872)
(9.07397e-05 0.000124353 -0.00131755)
(-0.000447372 -0.00100888 -0.0034451)
(-0.000141803 0.000214726 -0.00190551)
(5.74768e-05 -8.41612e-05 -0.000746748)
(0.000600607 0.000312926 -0.00337477)
(-2.81172e-05 -5.87541e-05 -0.000814817)
(-0.000201593 0.000249751 -0.00210098)
(0.000509667 -0.000517453 -0.00211376)
(0.000507538 0.000271019 -0.00266404)
(-0.000181356 -0.00040916 -0.00354954)
(-0.000225624 0.000299164 -0.00358098)
(0.00057106 -0.000536992 -0.00200179)
(0.000313171 0.000172333 -0.00499363)
(-9.37125e-05 -0.00018172 -0.00175623)
(-4.41019e-05 -1.71244e-05 -0.00182468)
(-7.66922e-07 -0.000333622 -0.00136862)
(-3.41031e-05 -7.79335e-06 -0.000832711)
(-0.000244868 -0.000207472 -0.00297139)
(-0.000222494 -3.09421e-05 -0.00288969)
(-0.000268466 -0.000379607 -0.00232449)
(-0.000258509 -9.54821e-05 -0.00302701)
(-0.000136014 -0.00010643 -0.00245969)
(-0.000379554 -7.54293e-05 -0.00244631)
(-0.000134988 -0.00013734 -0.00179229)
(-0.000250665 -8.50082e-05 -0.00130306)
(-4.55342e-05 -6.99094e-05 -0.00166658)
(-0.000104803 -5.43461e-05 -0.00175732)
(-7.24056e-05 -1.90708e-05 -0.00185343)
(-0.000344066 -0.00011834 -0.00170852)
(-2.60172e-05 -2.78744e-06 -0.00169302)
(-1.06497e-05 -3.80753e-05 -0.00168557)
(-3.73882e-05 -1.37558e-05 -0.00153369)
(-0.000140326 -6.1853e-05 -0.00122732)
(-3.73129e-05 -5.05321e-05 -0.00082085)
(1.15999e-05 -1.78447e-05 -0.00135142)
(3.88879e-07 -1.00378e-05 -0.00118246)
(-3.38281e-05 -3.70799e-05 -0.00125897)
(4.50526e-05 1.15856e-06 -0.000958156)
(5.83543e-05 -1.57448e-07 -0.0012181)
(5.84354e-05 9.87267e-06 -0.00101786)
(3.6567e-05 -1.7191e-05 -0.00112138)
(7.76093e-05 1.23593e-05 -0.00086629)
(8.52725e-05 2.29591e-06 -0.00112347)
(7.71399e-05 1.61409e-05 -0.000890883)
(6.73618e-05 -8.86141e-06 -0.00109225)
(9.16201e-05 1.54996e-05 -0.000867785)
(9.56668e-05 7.03045e-07 -0.00110554)
(8.24577e-05 1.74452e-05 -0.000901758)
(7.80146e-05 -5.57907e-06 -0.00109128)
(9.39338e-05 1.54345e-05 -0.000883791)
(9.57693e-05 -7.61935e-07 -0.00110205)
(8.06537e-05 1.63884e-05 -0.000920954)
(7.86878e-05 -3.88871e-06 -0.00108741)
(8.99953e-05 1.42509e-05 -0.000896608)
(9.06512e-05 -1.43312e-06 -0.00109464)
(7.56185e-05 1.46726e-05 -0.000930497)
(7.47623e-05 -2.83081e-06 -0.00108023)
(8.34013e-05 1.28186e-05 -0.000906454)
(8.35373e-05 -1.54164e-06 -0.00108539)
(6.95385e-05 1.29843e-05 -0.000936368)
(6.91637e-05 -2.11127e-06 -0.00107294)
(7.61062e-05 1.14352e-05 -0.000915186)
(7.60563e-05 -1.37055e-06 -0.00107673)
(6.34498e-05 1.14923e-05 -0.000941815)
(6.32744e-05 -1.58772e-06 -0.00106642)
(6.89946e-05 1.01792e-05 -0.000923252)
(6.88979e-05 -1.10032e-06 -0.00106907)
(5.77367e-05 1.01957e-05 -0.000947083)
(5.76417e-05 -1.18159e-06 -0.00106056)
(6.23902e-05 9.05788e-06 -0.00093062)
(6.22945e-05 -8.22859e-07 -0.00106225)
(5.24929e-05 9.06107e-06 -0.000951939)
(5.24313e-05 -8.55404e-07 -0.00105522)
(5.63697e-05 8.05934e-06 -0.00093729)
(5.62875e-05 -5.75882e-07 -0.00105611)
(4.77109e-05 8.05876e-06 -0.000956333)
(4.76653e-05 -5.91395e-07 -0.00105032)
(5.09179e-05 7.16926e-06 -0.000943318)
(5.08504e-05 -3.69531e-07 -0.00105057)
(4.33576e-05 7.16793e-06 -0.000960313)
(4.33214e-05 -3.78695e-07 -0.00104584)
(4.59916e-05 6.37515e-06 -0.000948769)
(4.5937e-05 -2.02484e-07 -0.00104559)
(3.93964e-05 6.37387e-06 -0.000963926)
(3.93669e-05 -2.088e-07 -0.00104175)
(4.1543e-05 5.66654e-06 -0.000953699)
(4.1499e-05 -6.98475e-08 -0.00104111)
(3.57927e-05 5.66548e-06 -0.00096721)
(3.57685e-05 -7.45378e-08 -0.00103802)
(3.75263e-05 5.03443e-06 -0.000958157)
(3.74908e-05 3.37491e-08 -0.00103708)
(3.25147e-05 5.03358e-06 -0.000970193)
(3.24947e-05 3.01653e-08 -0.0010346)
(3.38994e-05 4.47082e-06 -0.000962188)
(3.38708e-05 1.13208e-07 -0.00103345)
(2.95333e-05 4.47015e-06 -0.000972905)
(2.95168e-05 1.10442e-07 -0.00103149)
(3.06244e-05 3.96859e-06 -0.000965833)
(3.06013e-05 1.72774e-07 -0.00103017)
(2.68219e-05 3.96806e-06 -0.000975369)
(2.68083e-05 1.70631e-07 -0.00102865)
(2.76669e-05 3.52129e-06 -0.000969128)
(2.76483e-05 2.16053e-07 -0.00102723)
(2.43565e-05 3.52087e-06 -0.000977609)
(2.43453e-05 2.1439e-07 -0.00102605)
(2.49961e-05 3.12314e-06 -0.000972107)
(2.49811e-05 2.46091e-07 -0.00102457)
(2.2115e-05 3.1228e-06 -0.000979646)
(2.21058e-05 2.44798e-07 -0.00102369)
(2.2584e-05 2.76892e-06 -0.000974799)
(2.25719e-05 2.65444e-07 -0.00102218)
(2.00773e-05 2.76865e-06 -0.000981497)
(2.00697e-05 2.64438e-07 -0.00102154)
(2.04054e-05 2.45395e-06 -0.000977233)
(2.03956e-05 2.76253e-07 -0.00102002)
(1.82252e-05 2.45373e-06 -0.000983181)
(1.8219e-05 2.75469e-07 -0.00101957)
(1.84376e-05 2.17401e-06 -0.000979432)
(1.84297e-05 2.803e-07 -0.00101808)
(1.6542e-05 2.17384e-06 -0.000984712)
(1.65368e-05 2.79689e-07 -0.00101778)
(1.66602e-05 1.92534e-06 -0.000981419)
(1.66538e-05 2.79065e-07 -0.00101632)
(1.50124e-05 1.9252e-06 -0.000986104)
(1.50082e-05 2.78588e-07 -0.00101615)
(1.50546e-05 1.70452e-06 -0.000983215)
(1.50494e-05 2.73772e-07 -0.00101474)
(1.36227e-05 1.70441e-06 -0.000987369)
(1.36192e-05 2.73399e-07 -0.00101467)
(1.36042e-05 1.50854e-06 -0.000984838)
(1.36e-05 2.65427e-07 -0.00101331)
(1.23602e-05 1.50845e-06 -0.00098852)
(1.23573e-05 2.65135e-07 -0.00101332)
(1.22939e-05 1.33466e-06 -0.000986304)
(1.22906e-05 2.54855e-07 -0.00101203)
(1.12134e-05 1.33459e-06 -0.000989567)
(1.12111e-05 2.54626e-07 -0.00101209)
(1.11102e-05 1.18046e-06 -0.000987629)
(1.11075e-05 2.42725e-07 -0.00101087)
(1.01719e-05 1.1804e-06 -0.000990519)
(1.017e-05 2.42545e-07 -0.00101097)
(1.00407e-05 1.04375e-06 -0.000988825)
(1.00385e-05 2.2958e-07 -0.00100982)
(9.22612e-06 1.04371e-06 -0.000991385)
(9.22454e-06 2.29439e-07 -0.00100996)
(9.07447e-06 9.226e-07 -0.000989906)
(9.07268e-06 2.15852e-07 -0.00100887)
(8.36739e-06 9.22562e-07 -0.000992172)
(8.36609e-06 2.15741e-07 -0.00100903)
(8.20143e-06 8.15266e-07 -0.000990883)
(8.19998e-06 2.01884e-07 -0.00100802)
(7.58778e-06 8.15234e-07 -0.000992888)
(7.58672e-06 2.01797e-07 -0.00100819)
(7.41258e-06 7.20205e-07 -0.000991765)
(7.4114e-06 1.87943e-07 -0.00100724)
(6.88011e-06 7.20179e-07 -0.000993539)
(6.87924e-06 1.87874e-07 -0.00100743)
(6.69978e-06 6.36039e-07 -0.000992562)
(6.69883e-06 1.74235e-07 -0.00100655)
(6.23782e-06 6.36019e-07 -0.00099413)
(6.2371e-06 1.74181e-07 -0.00100674)
(6.05568e-06 5.61542e-07 -0.000993282)
(6.05491e-06 1.60916e-07 -0.00100592)
(5.65493e-06 5.61526e-07 -0.000994668)
(5.65434e-06 1.60873e-07 -0.00100611)
(5.47365e-06 4.95622e-07 -0.000993932)
(5.47302e-06 1.48099e-07 -0.00100535)
(5.12603e-06 4.95608e-07 -0.000995157)
(5.12555e-06 1.48066e-07 -0.00100554)
(4.94768e-06 4.37303e-07 -0.000994519)
(4.94717e-06 1.35866e-07 -0.00100484)
(4.64617e-06 4.37292e-07 -0.000995602)
(4.64577e-06 1.3584e-07 -0.00100502)
(4.47236e-06 3.85723e-07 -0.00099505)
(4.47195e-06 1.2427e-07 -0.00100437)
(4.21085e-06 3.85714e-07 -0.000996006)
(4.21053e-06 1.24249e-07 -0.00100455)
(4.04281e-06 3.40112e-07 -0.000995529)
(4.04248e-06 1.13341e-07 -0.00100395)
(3.816e-06 3.40104e-07 -0.000996374)
(3.81573e-06 1.13325e-07 -0.00100412)
(3.65461e-06 2.99787e-07 -0.000995961)
(3.65434e-06 1.03096e-07 -0.00100357)
(3.45788e-06 2.99781e-07 -0.000996708)
(3.45767e-06 1.03082e-07 -0.00100373)
(3.30377e-06 2.64143e-07 -0.000996352)
(3.30355e-06 9.35337e-08 -0.00100323)
(3.13313e-06 2.64138e-07 -0.000997011)
(3.13295e-06 9.35232e-08 -0.00100338)
(2.98669e-06 2.32642e-07 -0.000996705)
(2.98651e-06 8.46464e-08 -0.00100292)
(2.83867e-06 2.32638e-07 -0.000997287)
(2.83852e-06 8.4638e-08 -0.00100306)
(2.70011e-06 2.04808e-07 -0.000997024)
(2.69996e-06 7.64176e-08 -0.00100264)
(2.5717e-06 2.04805e-07 -0.000997537)
(2.57158e-06 7.64109e-08 -0.00100277)
(2.4411e-06 1.80219e-07 -0.000997312)
(2.44098e-06 6.88263e-08 -0.00100239)
(2.32969e-06 1.80217e-07 -0.000997765)
(2.32959e-06 6.8821e-08 -0.00100251)
(2.207e-06 1.58501e-07 -0.000997572)
(2.2069e-06 6.18465e-08 -0.00100216)
(2.11033e-06 1.58498e-07 -0.000997971)
(2.11025e-06 6.18423e-08 -0.00100227)
(1.99541e-06 1.39321e-07 -0.000997807)
(1.99533e-06 5.54501e-08 -0.00100195)
(1.91153e-06 1.39319e-07 -0.000998159)
(1.91146e-06 5.54467e-08 -0.00100206)
(1.80417e-06 1.22387e-07 -0.000998019)
(1.8041e-06 4.96061e-08 -0.00100177)
(1.73138e-06 1.22385e-07 -0.00099833)
(1.73133e-06 4.96034e-08 -0.00100186)
(1.63131e-06 1.07438e-07 -0.000998211)
(1.63126e-06 4.4282e-08 -0.0010016)
(1.56815e-06 1.07437e-07 -0.000998485)
(1.56811e-06 4.42799e-08 -0.00100168)
(1.47508e-06 9.42456e-08 -0.000998384)
(1.47504e-06 3.94446e-08 -0.00100144)
(1.42028e-06 9.42447e-08 -0.000998625)
(1.42024e-06 3.94429e-08 -0.00100152)
(1.33388e-06 8.26054e-08 -0.00099854)
(1.33385e-06 3.5061e-08 -0.00100131)
(1.28633e-06 8.26047e-08 -0.000998753)
(1.2863e-06 3.50597e-08 -0.00100138)
(1.20626e-06 7.23381e-08 -0.000998682)
(1.20623e-06 3.10991e-08 -0.00100118)
(1.16502e-06 7.23375e-08 -0.000998869)
(1.165e-06 3.10981e-08 -0.00100124)
(1.09092e-06 6.32849e-08 -0.00099881)
(1.0909e-06 2.75279e-08 -0.00100107)
(1.05517e-06 6.32844e-08 -0.000998974)
(1.05515e-06 2.7527e-08 -0.00100113)
(9.86694e-07 5.53056e-08 -0.000998925)
(9.86677e-07 2.43175e-08 -0.00100097)
(9.55705e-07 5.53052e-08 -0.00099907)
(9.55689e-07 2.43168e-08 -0.00100102)
(8.92509e-07 4.82764e-08 -0.00099903)
(8.92494e-07 2.14395e-08 -0.00100087)
(8.65671e-07 4.82761e-08 -0.000999157)
(8.65658e-07 2.1439e-08 -0.00100092)
(8.07408e-07 4.2088e-08 -0.000999124)
(8.07396e-07 1.88673e-08 -0.00100079)
(7.84186e-07 4.20877e-08 -0.000999236)
(7.84176e-07 1.88669e-08 -0.00100083)
(7.30525e-07 3.66442e-08 -0.000999209)
(7.30515e-07 1.65755e-08 -0.00100071)
(7.10456e-07 3.6644e-08 -0.000999308)
(7.10447e-07 1.65752e-08 -0.00100075)
(6.61078e-07 3.18599e-08 -0.000999287)
(6.6107e-07 1.45405e-08 -0.00100065)
(6.43758e-07 3.18597e-08 -0.000999373)
(6.43751e-07 1.45402e-08 -0.00100068)
(5.9836e-07 2.76604e-08 -0.000999357)
(5.98354e-07 1.27402e-08 -0.00100058)
(5.83439e-07 2.76602e-08 -0.000999432)
(5.83434e-07 1.274e-08 -0.00100061)
(5.41733e-07 2.39796e-08 -0.00099942)
(5.41728e-07 1.11542e-08 -0.00100053)
(5.28908e-07 2.39795e-08 -0.000999486)
(5.28903e-07 1.11541e-08 -0.00100055)
(4.90623e-07 2.07595e-08 -0.000999477)
(4.90619e-07 9.76378e-09 -0.00100048)
(4.79627e-07 2.07594e-08 -0.000999535)
(4.79623e-07 9.76364e-09 -0.0010005)
(4.44509e-07 1.79489e-08 -0.000999529)
(4.44506e-07 8.55151e-09 -0.00100043)
(4.35112e-07 1.79488e-08 -0.000999579)
(4.35109e-07 8.55139e-09 -0.00100045)
(4.02923e-07 1.55028e-08 -0.000999576)
(4.02921e-07 7.50167e-09 -0.00100039)
(3.94922e-07 1.55027e-08 -0.00099962)
(3.9492e-07 7.50158e-09 -0.0010004)
(3.65443e-07 1.33815e-08 -0.000999619)
(3.65441e-07 6.59999e-09 -0.00100035)
(3.58661e-07 1.33815e-08 -0.000999657)
(3.58659e-07 6.59992e-09 -0.00100036)
(3.31686e-07 1.15501e-08 -0.000999658)
(3.31685e-07 5.83364e-09 -0.00100032)
(3.2597e-07 1.15501e-08 -0.00099969)
(3.25968e-07 5.83358e-09 -0.00100033)
(3.01311e-07 9.97802e-09 -0.000999693)
(3.01309e-07 5.19121e-09 -0.00100029)
(2.96524e-07 9.97799e-09 -0.00099972)
(2.96523e-07 5.19117e-09 -0.00100029)
(2.74007e-07 8.63817e-09 -0.000999725)
(2.74006e-07 4.66265e-09 -0.00100026)
(2.70032e-07 8.63815e-09 -0.000999748)
(2.7003e-07 4.66261e-09 -0.00100026)
(2.49497e-07 7.50693e-09 -0.000999754)
(2.49496e-07 4.23923e-09 -0.00100023)
(2.46229e-07 7.50691e-09 -0.000999773)
(2.46228e-07 4.2392e-09 -0.00100024)
(2.27529e-07 6.5636e-09 -0.000999781)
(2.27529e-07 3.91349e-09 -0.00100021)
(2.24879e-07 6.56358e-09 -0.000999797)
(2.24879e-07 3.91347e-09 -0.00100021)
(2.07881e-07 5.79019e-09 -0.000999805)
(2.0788e-07 3.67918e-09 -0.00100019)
(2.0577e-07 5.79017e-09 -0.000999818)
(2.05769e-07 3.67917e-09 -0.00100019)
(1.9035e-07 5.17123e-09 -0.000999827)
(1.90349e-07 3.53104e-09 -0.00100017)
(1.8871e-07 5.17122e-09 -0.000999837)
(1.88709e-07 3.53102e-09 -0.00100017)
(1.74757e-07 4.69367e-09 -0.000999847)
(1.74757e-07 3.46436e-09 -0.00100015)
(1.73528e-07 4.69366e-09 -0.000999855)
(1.73528e-07 3.46435e-09 -0.00100015)
(1.60945e-07 4.34675e-09 -0.000999866)
(1.60945e-07 3.47406e-09 -0.00100013)
(1.60072e-07 4.34674e-09 -0.000999871)
(1.60072e-07 3.47405e-09 -0.00100013)
(1.48778e-07 4.12149e-09 -0.000999883)
(1.48778e-07 3.55275e-09 -0.00100012)
(1.48209e-07 4.12148e-09 -0.000999886)
(1.48209e-07 3.55275e-09 -0.00100011)
(1.38149e-07 4.00837e-09 -0.000999899)
(1.38149e-07 3.68811e-09 -0.0010001)
(1.37829e-07 4.00837e-09 -0.000999899)
(1.37829e-07 3.6881e-09 -0.0010001)
(1.28997e-07 3.98903e-09 -0.000999913)
(1.28997e-07 3.86247e-09 -0.00100009)
(1.2887e-07 3.98903e-09 -0.000999912)
(1.2887e-07 3.86247e-09 -0.00100008)
(1.21374e-07 4.03458e-09 -0.000999928)
(1.21374e-07 4.04335e-09 -0.00100008)
(1.21383e-07 4.03458e-09 -0.000999924)
(1.21383e-07 4.04335e-09 -0.00100007)
(1.15566e-07 4.07001e-09 -0.000999942)
(1.15566e-07 4.21316e-09 -0.00100007)
(1.15709e-07 4.07001e-09 -0.000999936)
(1.15709e-07 4.21316e-09 -0.00100006)
(1.12368e-07 4.05679e-09 -0.000999953)
(1.12368e-07 4.29467e-09 -0.00100006)
(1.12606e-07 4.05679e-09 -0.000999946)
(1.12606e-07 4.29467e-09 -0.00100004)
)
;

boundaryField
{
    inlet
    {
        type            zeroGradient;
    }
    outlet
    {
        type            zeroGradient;
    }
    repeat_boundary
    {
        type            slip;
    }
}


// ************************************************************************* //
