# vtk DataFile Version 4.0
Generated by LIGGGHTS
ASCII
DATASET POLYDATA
POINTS 1188 float
-4.97456 -4.23049 0.500001 -2.87655 -4.09359 0.511008 -1.82898 -4.15631 0.500023 
-0.83415 -4.6069 0.499968 0.11127 -4.93261 0.499947 1.24696 -4.0762 0.499946 
2.39466 -4.46173 0.854471 3.25639 -4.8312 0.500074 -4.38892 -3.4316 0.637726 
-3.41585 -3.24695 0.499965 -2.3014 -3.27493 0.500124 -0.985089 -3.61843 0.499906 
0.257047 -3.78447 0.500076 1.30908 -3.07818 0.499988 2.85071 -3.64442 0.499982 
3.65853 -3.0539 0.500117 4.03568 -3.9949 0.50001 4.64734 -3.20311 0.500001 
-4.05155 -2.44616 0.50033 -2.91857 -2.37942 0.499964 -1.47151 -2.79364 0.79041 
-0.911559 -2.01682 0.500038 -0.332351 -2.85213 0.499997 0.613119 -2.35937 0.49996 
2.30399 -2.62646 0.499966 3.19411 -2.16833 0.499992 -4.78416 -1.76554 0.500156 
-3.43738 -1.5559 0.73354 -1.98384 -1.98242 0.499986 -0.647386 -1.05231 0.500021 
0.289985 -1.41288 0.499996 1.27198 -1.60712 0.500154 2.99211 -1.11717 0.504229 
2.28875 -1.70913 0.897709 4.21911 -1.84594 0.499967 -4.06772 -0.809171 0.499919 
-2.99024 -0.691429 0.499997 -1.97633 -0.948503 0.500007 -0.735177 -0.0680317 0.655224 
0.970403 -0.653697 0.50001 2.0281 -0.829453 0.499996 2.7711 -0.141906 0.499868 
3.96334 -0.879234 0.499931 4.94706 -0.81771 0.67158 -4.65659 0.124357 0.500059 
-3.65923 0.0985208 0.595255 -3.31824 0.994931 0.878255 -2.682 0.288156 0.49993 
-1.71923 0.0179448 0.499903 0.169319 0.329072 0.499963 1.16924 0.334933 0.500894 
2.09847 0.526947 0.816315 2.99097 0.854854 0.499997 3.7504 0.0978134 0.500064 
4.5235 0.734597 0.499997 -4.21567 1.22335 0.499997 -3.41798 1.92074 0.499989 
-2.43144 1.26051 0.500101 -1.45946 1.49558 0.500007 -0.514623 1.12527 0.499992 
0.466272 1.31955 0.50017 1.415 1.25679 0.809765 2.30957 1.58718 0.499997 
3.80856 1.53875 0.499986 -4.38881 2.22268 0.500403 -3.65125 2.90058 0.500009 
-2.42591 2.26045 0.499906 -1.47571 2.42333 0.872956 -0.598302 2.12171 0.499946 
0.30947 2.58708 0.500011 1.22666 2.18868 0.499952 2.14825 2.57667 0.500191 
3.12357 2.32137 0.499927 4.57417 2.18438 0.499905 -4.22387 3.78392 0.499996 
-4.92254 3.06845 0.501728 -3.22861 3.80168 0.596894 -1.29731 3.33821 0.499984 
-0.297075 3.3821 0.499986 1.56742 3.39496 0.499998 2.58121 3.47803 0.49997 
4.02012 3.0171 0.500033 4.65589 3.98922 0.499983 -4.73219 4.79908 0.499975 
-3.73681 4.65744 0.499952 -2.75659 4.91355 0.499986 -2.26087 4.0343 0.499998 
-1.66993 4.84414 0.499938 -0.870989 4.24275 0.500033 0.857859 4.36167 0.500077 
1.62869 4.99877 0.499996 2.4938 4.49716 0.500183 3.63537 4.05591 0.500017 
4.22269 4.89061 0.500291 -4.34943 -4.60511 1.20767 -3.36399 -4.7788 1.23687 
-2.17783 -4.72437 1.24538 -1.26631 -4.32198 1.35559 -0.283631 -4.16539 1.2502 
0.764877 -4.75534 1.23563 1.57716 -4.20714 1.43466 2.50893 -4.00617 1.73731 
3.35172 -4.1384 1.21532 3.97303 -4.63141 1.82443 -4.57425 -3.60206 1.68814 
-3.70649 -3.83943 1.25124 -2.76045 -3.96889 1.54852 -1.88186 -3.50674 1.37824 
-0.891093 -3.4023 1.47161 0.823955 -3.49221 1.27036 1.58125 -3.03325 1.8662 
2.06134 -3.41255 1.0684 3.81759 -3.34072 1.59844 4.56293 -3.9778 1.34988 
-4.82311 -2.74133 1.21689 -4.43283 -2.14863 1.92317 -3.83057 -2.82656 1.39843 
-2.85117 -2.99641 1.28778 -1.81926 -2.20912 1.69095 -0.787294 -2.40954 1.41133 
0.188436 -2.69243 1.34175 0.768864 -2.10167 1.90312 1.40353 -2.3399 1.16783 
2.25086 -2.30991 1.69808 2.97771 -2.85098 1.20399 3.93314 -2.39912 1.28234 
-4.24996 -1.38541 1.29653 -3.49142 -1.87415 1.72765 -2.61573 -1.79367 1.25167 
-2.62588 -1.01356 1.87713 -1.42357 -1.46238 1.15624 -0.0696616 -1.71356 1.38331 
0.770325 -1.17235 1.34345 1.74556 -1.19725 1.56321 3.10831 -1.85879 1.45077 
3.98554 -1.38733 1.36085 4.88484 -1.42884 1.79599 -4.51107 -0.329523 1.37927 
-3.19793 -0.209055 1.69585 -2.33731 -0.334395 1.20243 -1.37456 -0.210112 1.44249 
-0.668651 -0.914457 1.51696 0.0829544 -0.552203 0.965396 1.57881 -0.262946 1.19077 
2.54712 -0.644635 1.33484 3.66295 -0.275544 1.65653 4.49672 -0.0620519 1.14731 
-4.86403 0.692411 1.29736 -3.91038 0.462958 1.49193 -2.1997 0.676639 1.28501 
-1.22514 0.702723 1.06258 -0.570706 0.269028 1.79507 0.0307181 0.902318 1.308 
0.68035 0.144089 1.36319 1.50493 0.580096 1.72352 2.88571 0.299887 1.38944 
3.71571 0.820712 1.19012 4.35082 0.606119 1.93206 -4.61731 1.90587 1.42097 
-3.63094 1.74547 1.46118 -2.11943 1.75839 1.30979 -2.82915 1.25551 1.8033 
-1.57208 1.15992 1.89527 -0.888194 1.6143 1.3127 0.0669132 1.89729 1.21204 
1.22199 1.95815 1.49594 2.33556 1.13358 1.6636 3.08317 1.59518 1.18617 
4.50935 1.46694 1.20971 -4.28576 2.85275 1.27185 -3.05413 2.55056 1.22177 
-1.59892 2.36208 1.91369 -0.468221 2.75463 1.26311 0.549894 2.69451 1.57417 
1.59023 2.87719 1.35541 2.22828 2.08208 1.36561 3.07241 2.35334 1.8381 
3.8386 2.2525 1.20284 4.73536 2.66574 1.36132 -4.86654 3.48811 1.79848 
-3.528 3.46706 1.49243 -2.17939 3.13202 0.923421 -2.56704 3.50376 1.76681 
-1.3196 3.22566 1.49395 -0.00470441 3.51581 1.71664 0.715141 3.50459 1.01145 
1.97878 3.87501 1.27483 2.46781 3.1454 1.75278 3.26221 3.06799 1.15045 
4.2635 3.55204 1.30917 -4.49505 4.28704 1.32553 -3.61489 4.42054 1.78111 
-2.67433 4.41213 1.36126 -1.57209 4.15226 1.2153 -1.53149 4.88129 1.89858 
-0.725376 4.81396 1.30787 -0.852141 4.0154 1.89627 -0.000221072 4.20303 0.990256 
0.194343 4.6906 1.84237 1.11611 4.33948 1.47483 1.96925 4.86069 1.45436 
2.95979 4.98859 1.50555 2.96753 4.02357 1.24363 3.88033 4.47331 1.37523 
4.75528 4.95647 1.34406 -4.84688 -4.48544 2.07219 -4.36773 -4.839 2.87553 
-3.83838 -4.45404 2.05507 -2.77244 -4.84291 2.0405 -2.69063 -4.13484 2.7417 
-1.92427 -4.21244 2.10075 -0.561217 -4.64856 2.13499 0.394919 -4.35721 2.075 
1.26067 -4.85484 2.12761 2.9321 -4.60396 2.41833 2.14594 -4.03161 2.66941 
4.30161 -4.80721 2.7524 -4.23399 -3.78961 2.68951 -3.40101 -3.46043 2.12474 
-2.38587 -3.33367 2.22444 -1.04904 -3.80838 2.37183 -0.0866256 -3.92372 2.83664 
-0.0177435 -3.45418 1.95587 -0.604179 -3.07498 2.94466 1.2295 -3.8581 2.30873 
2.68536 -3.10223 2.1268 3.63392 -3.89171 2.41241 4.60592 -3.68205 2.30682 
-4.72259 -2.95337 2.44112 -3.73103 -2.58841 2.48619 -2.71922 -2.40075 2.08293 
-2.03123 -2.58513 2.78474 -1.24843 -2.83973 2.21703 -0.169784 -2.48586 2.25222 
0.73698 -2.96971 2.39833 0.725076 -2.10638 2.90305 1.62518 -2.18991 2.46891 
2.06752 -2.97883 2.90335 3.45796 -2.46815 2.1624 4.58766 -2.35272 2.03693 
4.12286 -2.92765 2.75124 -4.69381 -1.62167 2.79962 -3.43424 -1.13378 2.45328 
-2.18207 -1.63091 2.52659 -0.780925 -1.70414 2.12005 -0.213171 -1.76273 2.94171 
0.478055 -1.27616 2.3868 1.565 -1.18506 2.54669 2.72557 -1.85047 2.44884 
3.14448 -1.04448 2.03063 4.28715 -1.05491 2.5051 -4.36951 -0.893639 2.19307 
-3.17021 -0.199976 2.69536 -2.27314 -0.640362 2.73585 -1.59704 -0.983959 2.03667 
-0.412713 -0.0622959 2.72533 -0.882524 -0.944351 2.76215 0.0998283 -0.454043 1.96128 
0.531832 -0.367577 2.8652 1.09634 -0.45822 2.04464 2.20433 -0.0508052 2.06292 
2.78275 -0.466718 2.76463 3.79955 -0.258434 2.86262 4.7709 -0.288774 2.08215 
-4.33842 0.0977283 2.32135 -4.92327 0.97953 2.50963 -3.67756 0.845941 2.38581 
-2.0726 0.0962695 2.08966 -2.6985 0.67766 2.6095 -1.11585 0.64054 2.6178 
0.823475 0.494196 2.45023 2.37505 0.82286 2.61331 3.21395 0.354465 2.3323 
3.91417 0.912273 2.77905 -4.23677 1.68992 2.32019 -3.26726 1.74106 2.55978 
-2.24591 1.60272 2.54015 -1.26244 1.75612 2.63592 -0.418738 1.1896 2.15492 
0.581237 1.36536 2.00562 0.0847348 1.77974 2.786 1.56252 1.41427 2.27204 
3.13462 1.37858 2.21265 4.10012 1.62948 2.10752 -4.6692 2.57749 2.16148 
-3.59529 2.54423 2.06261 -2.601 2.43012 2.10509 -1.61772 2.67558 2.86308 
-0.549331 2.17787 2.07596 0.0967649 2.84635 2.45262 0.885845 2.23459 2.3971 
1.86687 2.36664 2.25352 2.72145 2.33326 2.77424 3.70688 2.39545 2.61606 
-4.0374 3.39379 2.35016 -3.16695 3.8678 2.48429 -2.45096 3.20851 2.71508 
-0.870611 3.14095 2.38364 0.389419 3.97372 2.51347 1.05545 3.46729 1.96022 
1.77061 3.28434 2.63895 2.75123 3.4837 2.65008 3.48471 3.58392 1.97787 
4.31344 3.05941 2.17787 4.10823 3.88891 2.6982 -4.46667 4.16772 2.81569 
-3.44787 4.80584 2.68888 -2.29012 4.31501 2.28158 -1.37929 4.29934 2.69738 
-0.409353 4.54402 2.70506 0.520943 4.93296 2.76852 1.57331 4.22431 2.36055 
2.54043 4.3003 2.10484 3.53057 4.60319 2.30304 4.80103 4.38904 2.16758 
-4.7947 -4.85184 3.77988 -3.56241 -4.33609 3.18956 -2.74308 -4.18056 3.7412 
-1.87101 -4.49767 3.20776 -0.876078 -4.47717 3.1022 0.0772845 -4.60884 3.54633 
1.91467 -4.47515 3.84839 2.62489 -4.93199 3.31161 3.49808 -4.45119 3.22998 
4.93972 -4.13758 3.13236 -4.8934 -3.28943 3.64629 -3.90404 -3.40138 3.5522 
-2.95554 -3.28151 3.1905 -1.76657 -3.52341 3.00739 -0.453347 -3.67406 3.73283 
0.840993 -4.01278 3.21717 0.458511 -3.31353 3.93282 1.77452 -3.48525 3.86375 
2.64639 -3.87654 3.52136 3.17755 -3.21533 2.99052 4.1017 -3.67161 3.43806 
-4.3489 -2.53907 3.27149 -3.48817 -2.42799 3.90937 -2.96045 -2.29139 3.0509 
-2.16435 -2.04559 3.61614 -1.19771 -2.04486 2.96278 -1.33409 -2.82476 3.58113 
-0.0658269 -2.52968 3.58706 1.1481 -2.9377 3.30917 2.00196 -2.5145 3.78662 
3.4437 -2.26316 3.14112 3.00236 -2.77998 3.87836 4.29865 -2.66746 3.70065 
-3.77401 -1.72549 3.18429 -2.82454 -1.31627 3.22591 -1.67886 -1.233 3.29357 
-0.796585 -1.17369 3.76049 0.898724 -1.19394 3.29237 0.170553 -1.59347 3.84951 
1.7148 -1.01852 3.84317 2.10146 -1.69967 3.21555 2.94242 -1.65047 3.75443 
3.42547 -1.27497 2.96282 4.38274 -1.98031 2.94207 4.70305 -1.71157 3.85043 
-4.97986 -0.575804 3.00736 -4.58838 -0.973883 3.83765 -3.95408 -0.631348 3.1441 
-2.32372 -0.831614 3.9438 -1.45647 -0.177704 3.08087 -0.133558 -0.44081 3.60805 
1.8371 -0.383884 3.08008 3.31237 -0.496964 3.7027 4.21169 -0.917125 3.49262 
-4.44971 0.221102 3.31021 -3.46004 0.533284 3.31037 -2.55336 0.043138 3.4445 
-1.90491 0.770362 3.21914 -0.762467 0.359201 3.56201 0.107608 0.697908 3.11806 
0.900026 0.0951927 3.67193 1.64245 0.629009 3.26649 2.97086 0.355392 3.30225 
2.2569 0.0103857 3.9114 4.55638 0.287119 3.22251 -4.21237 1.18409 3.1825 
[...]
POINT_DATA 1188
FIELD FieldData 7
id 1 1188 int
48 62 69 126 50 115 89 31 120 
60 12 7 23 28 51 64 29 24 
49 79 129 104 11 56 59 14 20 
99 45 1 18 22 78 82 109 27 
15 19 105 26 4 86 43 67 54 
65 108 37 80 16 35 110 2 114 
46 33 3 71 21 42 55 119 53 
97 52 94 8 84 25 13 6 63 
47 36 9 81 87 40 34 44 5 
41 38 58 57 17 10 88 32 39 
30 72 76 112 161 165 151 214 77 
106 168 213 136 231 166 127 284 210 
220 100 157 93 197 123 103 212 194 
172 174 132 83 180 102 160 70 135 
164 217 155 191 61 85 150 207 159 
66 196 139 258 117 169 147 98 91 
158 309 130 101 167 143 73 125 113 
124 171 215 137 193 68 153 133 190 
187 146 74 131 186 163 128 134 142 
203 122 173 154 138 175 95 211 162 
222 118 185 121 144 96 116 235 92 
170 107 178 152 111 267 141 206 90 
148 75 156 198 149 192 145 260 291 
189 263 321 244 195 199 221 316 322 
336 333 280 266 281 255 140 303 253 
245 233 205 262 272 225 312 248 249 
289 298 228 318 247 223 282 234 274 
283 204 254 285 279 241 179 313 224 
359 264 184 188 257 227 230 177 181 
269 369 270 208 271 265 216 250 277 
238 273 256 331 176 326 259 232 226 
218 311 239 261 236 219 243 183 315 
200 276 240 201 297 293 252 325 314 
182 237 209 275 327 242 278 306 292 
376 229 328 290 320 268 202 332 251 
431 349 404 380 310 377 428 364 341 
346 389 422 350 348 371 343 399 405 
339 319 344 288 400 375 384 324 420 
330 342 433 287 432 356 335 323 360 
419 329 378 440 305 391 354 302 453 
295 503 368 439 317 337 355 383 401 
373 338 358 308 361 301 421 387 334 
407 435 304 372 299 393 347 294 340 
412 367 424 300 352 379 418 353 461 
374 403 366 246 362 286 357 388 296 
406 390 381 345 445 423 392 409 413 
385 425 363 382 416 397 410 398 307 
365 351 386 501 468 542 484 513 426 
446 443 478 457 396 477 518 456 455 
553 500 492 482 481 448 544 460 411 
465 555 488 417 370 458 442 490 462 
472 510 402 549 427 535 434 415 550 
474 444 408 537 471 525 493 499 437 
480 475 469 470 463 429 449 414 512 
394 452 524 450 531 479 489 497 519 
447 454 459 483 473 504 430 486 395 
545 466 520 496 438 487 491 495 436 
494 451 502 464 441 516 467 476 540 
558 616 611 557 569 539 514 570 536 
529 505 485 507 533 563 581 508 538 
548 528 556 515 506 534 498 527 568 
517 573 522 552 596 554 509 541 526 
574 521 543 599 551 511 562 584 523 
530 532 546 578 565 575 547 602 615 
576 572 608 589 571 586 588 582 587 
579 595 610 564 593 607 594 580 561 
614 560 605 612 567 601 591 609 600 
577 617 613 559 598 566 583 597 585 
603 639 604 606 590 592 642 643 669 
631 626 636 633 654 658 675 651 676 
630 647 624 653 627 640 619 662 629 
656 644 666 622 650 623 667 638 659 
727 661 672 648 668 632 655 634 649 
670 665 625 618 716 646 664 660 679 
635 621 641 674 671 673 714 628 663 
620 657 637 652 723 645 692 728 686 
680 709 718 722 699 696 703 720 697 
724 702 717 719 682 713 698 690 683 
706 712 677 729 685 711 687 694 726 
707 721 695 708 725 689 678 684 705 
715 693 704 688 691 681 701 738 780 
767 700 710 787 761 784 756 765 753 
757 786 741 745 774 733 750 735 825 
732 764 777 744 752 769 740 775 802 
770 742 755 766 772 746 739 736 737 
743 768 781 734 759 773 782 762 783 
754 771 785 779 778 748 758 760 763 
751 776 731 730 747 749 804 837 807 
800 831 833 822 828 844 791 808 818 
834 846 823 810 836 788 820 815 829 
794 842 806 811 805 789 827 809 792 
812 839 793 845 801 814 819 816 840 
796 790 817 797 899 835 798 832 821 
891 795 843 889 841 813 803 799 830 
824 826 838 883 886 862 879 854 880 
851 876 881 957 865 884 897 874 875 
869 849 860 870 853 848 856 878 892 
864 866 863 872 896 857 858 867 873 
890 885 882 888 847 855 877 871 852 
861 895 893 859 953 887 850 894 898 
868 926 951 938 929 937 950 941 915 
903 925 943 934 909 940 959 948 947 
914 939 932 952 905 901 955 949 924 
900 913 921 942 928 930 946 907 917 
954 923 956 922 906 910 918 912 908 
1003 931 927 911 944 919 916 958 904 
920 933 936 945 935 902 986 1005 1012 
990 969 1014 997 989 995 968 961 960 
998 1009 967 988 1007 974 1011 976 993 
1016 992 999 1008 973 963 980 1002 962 
983 964 1024 987 1041 1010 972 1000 971 
978 975 1067 982 984 1006 1034 981 1065 
1025 1028 1038 966 979 1053 1068 1055 1004 
977 991 985 965 1013 970 1048 1064 1036 
1001 994 1037 1015 996 1029 1119 1039 1054 
1020 1045 1027 1058 1043 1030 1073 1032 1021 
1071 1026 1076 1023 1066 1022 1097 1052 1018 
1070 1063 1061 1035 1095 1056 1050 1059 1093 
1049 1069 1017 1047 1040 1116 1019 1057 1087 
1051 1033 1079 1031 1060 1042 1046 1062 1044 
1098 1104 1170 1099 1074 1127 1121 1108 1077 
1125 1122 1103 1147 1126 1080 1107 1090 1142 
1081 1150 1089 1072 1092 1084 1155 1088 1118 
1141 1101 1086 1128 1100 1112 1110 1117 1085 
1153 1166 1120 1113 1082 1096 1123 1111 1175 
1078 1115 1163 1106 1124 1083 1140 1188 1075 
1102 1091 1109 1094 1114 1135 1105 1130 1129 
1168 1187 1154 1184 1182 1180 1158 1156 1133 
1139 1179 1162 1146 1181 1169 1152 1138 1171 
1167 1164 1160 1144 1134 1183 1149 1157 1178 
1145 1165 1172 1136 1173 1186 1131 1137 1132 
1159 1151 1185 1177 1176 1148 1174 1143 1161 

type 1 1188 int
1 1 1 1 1 1 1 1 1 
1 1 1 1 1 1 1 1 1 
1 1 1 1 1 1 1 1 1 
1 1 1 1 1 1 1 1 1 
1 1 1 1 1 1 1 1 1 
1 1 1 1 1 1 1 1 1 
1 1 1 1 1 1 1 1 1 
1 1 1 1 1 1 1 1 1 
1 1 1 1 1 1 1 1 1 
1 1 1 1 1 1 1 1 1 
1 1 1 1 1 1 1 1 1 
1 1 1 1 1 1 1 1 1 
1 1 1 1 1 1 1 1 1 
1 1 1 1 1 1 1 1 1 
1 1 1 1 1 1 1 1 1 
1 1 1 1 1 1 1 1 1 
1 1 1 1 1 1 1 1 1 
1 1 1 1 1 1 1 1 1 
1 1 1 1 1 1 1 1 1 
1 1 1 1 1 1 1 1 1 
1 1 1 1 1 1 1 1 1 
1 1 1 1 1 1 1 1 1 
1 1 1 1 1 1 1 1 1 
1 1 1 1 1 1 1 1 1 
1 1 1 1 1 1 1 1 1 
1 1 1 1 1 1 1 1 1 
1 1 1 1 1 1 1 1 1 
1 1 1 1 1 1 1 1 1 
1 1 1 1 1 1 1 1 1 
1 1 1 1 1 1 1 1 1 
1 1 1 1 1 1 1 1 1 
1 1 1 1 1 1 1 1 1 
1 1 1 1 1 1 1 1 1 
1 1 1 1 1 1 1 1 1 
1 1 1 1 1 1 1 1 1 
1 1 1 1 1 1 1 1 1 
1 1 1 1 1 1 1 1 1 
1 1 1 1 1 1 1 1 1 
1 1 1 1 1 1 1 1 1 
1 1 1 1 1 1 1 1 1 
1 1 1 1 1 1 1 1 1 
1 1 1 1 1 1 1 1 1 
1 1 1 1 1 1 1 1 1 
1 1 1 1 1 1 1 1 1 
1 1 1 1 1 1 1 1 1 
1 1 1 1 1 1 1 1 1 
1 1 1 1 1 1 1 1 1 
1 1 1 1 1 1 1 1 1 
1 1 1 1 1 1 1 1 1 
1 1 1 1 1 1 1 1 1 
1 1 1 1 1 1 1 1 1 
1 1 1 1 1 1 1 1 1 
1 1 1 1 1 1 1 1 1 
1 1 1 1 1 1 1 1 1 
1 1 1 1 1 1 1 1 1 
1 1 1 1 1 1 1 1 1 
1 1 1 1 1 1 1 1 1 
1 1 1 1 1 1 1 1 1 
1 1 1 1 1 1 1 1 1 
1 1 1 1 1 1 1 1 1 
1 1 1 1 1 1 1 1 1 
1 1 1 1 1 1 1 1 1 
1 1 1 1 1 1 1 1 1 
1 1 1 1 1 1 1 1 1 
1 1 1 1 1 1 1 1 1 
1 1 1 1 1 1 1 1 1 
1 1 1 1 1 1 1 1 1 
1 1 1 1 1 1 1 1 1 
1 1 1 1 1 1 1 1 1 
1 1 1 1 1 1 1 1 1 
1 1 1 1 1 1 1 1 1 
1 1 1 1 1 1 1 1 1 
1 1 1 1 1 1 1 1 1 
1 1 1 1 1 1 1 1 1 
1 1 1 1 1 1 1 1 1 
1 1 1 1 1 1 1 1 1 
1 1 1 1 1 1 1 1 1 
1 1 1 1 1 1 1 1 1 
1 1 1 1 1 1 1 1 1 
1 1 1 1 1 1 1 1 1 
1 1 1 1 1 1 1 1 1 
1 1 1 1 1 1 1 1 1 
1 1 1 1 1 1 1 1 1 
1 1 1 1 1 1 1 1 1 
1 1 1 1 1 1 1 1 1 
1 1 1 1 1 1 1 1 1 
1 1 1 1 1 1 1 1 1 
1 1 1 1 1 1 1 1 1 
1 1 1 1 1 1 1 1 1 
1 1 1 1 1 1 1 1 1 
1 1 1 1 1 1 1 1 1 
1 1 1 1 1 1 1 1 1 
1 1 1 1 1 1 1 1 1 
1 1 1 1 1 1 1 1 1 
1 1 1 1 1 1 1 1 1 
1 1 1 1 1 1 1 1 1 
1 1 1 1 1 1 1 1 1 
1 1 1 1 1 1 1 1 1 
1 1 1 1 1 1 1 1 1 
1 1 1 1 1 1 1 1 1 
1 1 1 1 1 1 1 1 1 
1 1 1 1 1 1 1 1 1 
1 1 1 1 1 1 1 1 1 
1 1 1 1 1 1 1 1 1 
1 1 1 1 1 1 1 1 1 
1 1 1 1 1 1 1 1 1 
1 1 1 1 1 1 1 1 1 
1 1 1 1 1 1 1 1 1 
1 1 1 1 1 1 1 1 1 
1 1 1 1 1 1 1 1 1 
1 1 1 1 1 1 1 1 1 
1 1 1 1 1 1 1 1 1 
1 1 1 1 1 1 1 1 1 
1 1 1 1 1 1 1 1 1 
1 1 1 1 1 1 1 1 1 
1 1 1 1 1 1 1 1 1 
1 1 1 1 1 1 1 1 1 
1 1 1 1 1 1 1 1 1 
1 1 1 1 1 1 1 1 1 
1 1 1 1 1 1 1 1 1 
1 1 1 1 1 1 1 1 1 
1 1 1 1 1 1 1 1 1 
1 1 1 1 1 1 1 1 1 
1 1 1 1 1 1 1 1 1 
1 1 1 1 1 1 1 1 1 
1 1 1 1 1 1 1 1 1 
1 1 1 1 1 1 1 1 1 
1 1 1 1 1 1 1 1 1 
1 1 1 1 1 1 1 1 1 
1 1 1 1 1 1 1 1 1 
1 1 1 1 1 1 1 1 1 
1 1 1 1 1 1 1 1 1 

i 3 1188 int
0 0 0 0 0 0 0 0 0 
0 0 0 0 0 0 0 0 0 
0 0 0 0 0 0 0 0 0 
0 0 0 0 0 0 0 0 0 
0 0 0 0 0 0 0 0 0 
0 0 0 0 0 0 0 0 0 
0 0 0 0 0 0 0 0 0 
0 0 0 0 0 0 0 0 0 
0 0 0 0 0 0 1 0 0 
0 0 0 0 0 0 0 0 0 
0 0 0 0 0 0 0 0 0 
0 0 0 0 0 0 0 0 0 
0 0 0 0 0 0 0 0 0 
0 0 0 0 0 0 0 0 0 
0 0 0 -1 0 0 0 0 0 
0 0 0 0 0 0 0 0 0 
0 0 0 0 0 0 0 0 0 
0 0 0 0 0 0 0 0 0 
0 0 0 0 0 0 0 0 0 
0 0 0 0 0 0 0 0 0 
0 0 0 0 0 0 0 0 0 
0 0 0 0 0 0 0 0 0 
0 0 0 0 0 0 0 0 0 
0 0 0 0 0 0 0 0 0 
0 0 0 0 0 0 0 0 0 
1 0 0 0 0 0 0 0 0 
0 0 0 0 0 0 0 0 0 
0 0 0 0 0 0 0 0 0 
0 0 0 0 -1 0 0 0 0 
0 -1 0 0 0 0 0 0 0 
0 0 0 0 0 0 0 0 0 
0 -1 0 0 0 0 0 1 0 
0 0 0 0 0 0 0 0 0 
0 0 0 0 0 0 0 0 0 
0 0 0 0 0 0 0 0 0 
0 0 0 0 0 0 0 0 0 
0 0 0 0 0 0 0 0 0 
0 0 0 0 0 0 0 0 0 
0 0 0 0 0 0 0 0 0 
0 0 0 0 0 0 0 0 0 
0 0 0 0 0 0 0 0 0 
0 0 0 0 0 0 0 0 0 
0 0 0 0 0 0 0 0 0 
0 0 0 0 0 0 0 0 0 
0 0 0 0 0 0 0 0 0 
0 0 0 0 0 0 0 0 0 
0 0 0 0 0 0 0 0 0 
0 0 0 0 0 0 0 0 0 
0 0 0 0 0 0 0 0 0 
0 0 0 0 0 0 0 0 0 
0 0 0 0 0 0 0 0 0 
0 0 0 0 0 0 0 0 0 
0 0 0 0 0 0 0 0 0 
0 0 0 0 0 0 0 0 0 
0 0 0 0 0 0 0 0 0 
0 0 0 0 0 0 0 0 0 
0 0 0 0 0 0 0 0 0 
0 0 0 0 0 0 0 0 0 
0 0 0 0 0 0 0 0 0 
0 0 0 0 0 0 0 0 0 
0 0 0 0 0 0 0 0 0 
0 0 0 0 0 0 0 0 0 
0 0 0 0 0 0 0 0 0 
0 0 0 0 0 0 0 0 0 
0 0 0 0 0 0 0 0 0 
0 0 0 0 0 0 0 0 0 
0 -1 0 0 0 0 0 0 0 
0 -1 0 0 0 0 0 0 0 
0 0 0 0 0 0 0 0 0 
0 0 0 0 1 0 0 0 0 
0 0 0 0 0 0 0 0 0 
0 0 0 0 0 0 0 0 0 
0 0 0 0 0 0 0 0 0 
0 0 0 0 0 0 0 0 0 
0 0 0 0 0 0 0 0 0 
0 0 0 0 0 0 0 0 0 
0 0 0 0 0 0 0 0 0 
0 0 0 0 0 0 0 0 0 
0 0 0 0 0 0 0 0 0 
0 0 0 0 0 0 0 0 0 
0 0 0 0 0 0 0 0 0 
0 0 0 0 0 0 0 0 0 
0 0 0 0 0 0 0 0 0 
0 0 0 0 0 0 0 0 0 
0 0 0 0 0 0 0 0 0 
0 0 0 0 0 0 0 0 0 
0 0 0 0 0 0 0 0 0 
0 0 0 0 0 0 0 0 0 
0 0 0 0 0 0 0 0 0 
0 0 0 0 0 0 0 0 0 
0 0 0 0 0 0 0 0 0 
0 0 0 0 0 0 0 0 0 
0 0 0 0 0 0 0 0 0 
0 0 0 0 0 0 0 0 0 
0 0 0 0 0 0 0 0 0 
0 0 0 0 0 0 0 0 0 
0 0 0 0 0 0 0 0 0 
0 0 0 0 0 0 0 0 0 
0 0 0 0 0 0 0 0 0 
0 0 0 0 0 0 0 0 0 
0 0 0 0 0 0 0 0 0 
0 0 0 0 0 0 0 0 0 
0 0 0 0 0 0 0 0 0 
0 0 0 0 -1 0 0 0 0 
0 0 0 0 0 0 -1 0 0 
0 0 0 0 0 0 0 0 0 
0 0 0 0 0 0 0 0 0 
0 0 0 0 0 0 0 0 0 
-1 0 0 0 0 0 0 0 0 
0 0 0 0 0 0 0 0 0 
0 0 0 0 0 0 0 0 0 
0 0 0 0 0 0 0 0 0 
0 0 0 0 0 0 0 0 0 
0 0 0 0 0 0 0 0 0 
0 0 0 0 0 0 0 0 0 
0 0 0 0 0 0 0 0 0 
0 0 0 0 0 0 0 0 0 
0 0 0 0 0 0 0 0 0 
0 0 0 0 0 0 0 0 0 
0 0 0 0 0 0 0 0 0 
0 0 0 0 0 0 0 0 0 
0 0 0 0 0 0 0 0 0 
0 0 0 0 0 0 0 0 0 
0 0 0 0 0 0 0 0 0 
0 0 0 0 0 0 0 0 0 
0 0 0 0 0 0 0 0 0 
0 0 0 0 0 0 0 0 0 
0 0 0 0 0 0 0 0 0 
0 0 0 0 0 0 0 0 0 
0 0 0 0 0 0 0 0 0 
0 0 0 0 0 0 0 0 0 
0 0 0 0 0 0 0 0 0 
0 0 0 0 0 0 0 0 0 
0 0 0 0 0 0 0 0 0 
0 0 0 0 0 0 0 0 0 
0 0 0 0 0 0 0 0 0 
0 0 0 0 0 0 0 0 0 
0 0 0 0 0 0 0 0 0 
0 0 0 0 0 0 0 0 0 
0 0 0 0 0 0 0 0 0 
0 0 0 0 -1 0 0 0 0 
0 0 0 0 0 0 0 0 0 
0 0 0 0 0 0 0 0 0 
0 0 0 0 0 0 0 0 0 
0 0 0 0 0 0 0 0 0 
0 0 0 0 0 0 0 0 0 
0 0 0 0 0 0 0 0 0 
0 0 0 0 0 0 0 0 0 
0 0 0 0 0 0 0 0 0 
0 0 0 0 0 0 0 0 0 
0 0 0 0 0 0 0 0 0 
-1 0 0 0 0 0 0 0 0 
0 0 0 0 0 0 0 0 0 
0 0 0 0 0 0 0 0 0 
0 0 0 0 0 0 0 0 0 
0 0 0 0 0 0 0 0 0 
0 0 0 0 0 0 0 0 0 
0 0 0 0 0 0 0 0 0 
0 0 0 0 0 0 0 0 0 
0 0 0 0 0 0 0 0 0 
0 0 0 0 0 0 0 0 0 
0 0 0 0 0 0 0 0 0 
0 0 0 0 0 0 0 0 0 
0 0 0 0 0 0 0 0 0 
0 0 0 0 0 0 0 0 0 
0 0 0 0 0 0 0 0 0 
0 0 0 0 0 0 0 0 0 
0 0 0 0 0 0 0 0 0 
0 0 0 0 0 0 0 0 0 
0 0 0 0 0 0 0 0 0 
0 0 0 0 0 0 0 0 0 
0 0 0 0 0 0 0 0 0 
0 0 0 0 0 0 0 0 0 
0 0 0 0 0 0 0 0 0 
0 0 0 0 0 0 0 0 0 
0 0 0 0 0 0 0 0 0 
0 0 0 0 0 0 0 0 0 
0 0 0 0 0 0 0 0 0 
0 0 0 0 0 0 0 0 0 
0 0 0 0 0 0 0 0 0 
0 0 0 0 0 0 0 0 0 
0 0 0 0 0 0 0 0 0 
0 0 0 0 0 0 0 0 0 
0 0 0 0 0 0 0 0 0 
0 0 0 0 0 0 0 0 0 
0 0 0 0 0 0 0 0 0 
0 0 0 0 0 0 0 0 0 
0 0 0 0 0 0 0 0 0 
0 0 0 0 0 0 0 0 0 
0 0 0 0 0 0 0 0 0 
0 0 0 0 0 0 0 0 0 
0 0 0 0 0 0 0 0 0 
0 0 0 0 0 0 0 0 0 
0 0 0 0 0 0 0 0 0 
0 0 0 0 0 0 0 0 0 
0 0 0 0 0 0 0 0 0 
0 0 0 0 0 0 0 0 0 
0 0 0 0 0 0 0 0 0 
0 0 0 0 0 0 0 0 0 
0 0 0 0 0 0 0 0 0 
0 0 0 0 0 0 0 0 0 
0 0 0 0 0 0 0 0 0 
0 0 0 0 0 0 0 0 0 
0 0 0 0 0 0 0 0 0 
0 0 0 0 0 0 0 0 0 
0 0 0 0 0 0 0 0 0 
0 0 0 0 0 0 0 0 0 
0 0 0 0 0 0 0 0 0 
0 0 0 0 0 0 0 0 0 
0 0 0 0 0 0 0 0 0 
0 0 0 0 0 0 0 0 0 
0 0 0 0 0 0 0 0 0 
0 0 0 0 0 0 0 0 0 
0 0 0 0 0 0 0 0 0 
0 0 0 0 0 0 0 0 0 
0 0 0 0 0 0 0 0 0 
0 0 0 0 0 0 0 0 0 
0 0 0 0 0 0 0 0 0 
0 0 0 0 0 0 0 0 0 
0 0 0 0 0 0 0 0 0 
0 0 0 0 0 0 0 0 0 
0 0 0 0 0 0 0 0 0 
0 0 0 0 0 0 0 0 0 
0 0 0 0 0 0 0 0 0 
0 0 0 0 0 0 0 0 0 
0 0 0 0 0 0 0 0 0 
0 0 0 0 0 0 0 0 0 
0 0 0 0 0 0 0 0 0 
0 0 0 0 0 0 0 0 0 
0 0 0 0 0 0 0 0 0 
0 0 0 0 0 0 0 0 0 
0 0 0 0 0 0 0 0 0 
0 0 0 0 0 0 0 0 0 
0 0 0 0 0 0 0 0 0 
0 0 0 0 0 0 0 0 0 
0 0 0 0 0 0 0 0 0 
0 0 0 0 0 0 0 0 0 
0 0 0 0 0 0 0 0 0 
0 0 0 0 0 0 0 0 0 
0 0 0 0 0 0 0 0 0 
0 0 0 0 0 0 0 0 0 
0 0 0 0 0 0 0 0 0 
0 0 0 0 0 0 0 0 0 
0 0 0 0 0 0 0 0 0 
0 0 0 0 0 0 0 0 0 
0 0 0 0 0 0 0 0 0 
0 0 0 0 0 0 0 0 0 
0 0 0 0 0 0 0 0 0 
0 0 0 0 0 0 0 0 0 
0 0 0 0 0 0 0 0 0 
0 0 0 0 0 0 0 0 0 
0 0 0 0 0 0 0 0 0 
0 0 0 0 0 0 0 0 0 
0 0 0 0 0 0 0 0 0 
0 0 0 0 0 0 0 0 0 
0 0 0 0 0 0 0 0 0 
0 0 0 0 0 0 0 0 0 
0 0 0 0 0 0 0 0 0 
0 0 0 0 0 0 0 0 0 
0 0 0 0 0 0 0 0 0 
0 0 0 0 0 0 0 0 0 
0 0 0 0 0 0 0 0 0 
0 0 0 0 0 0 0 0 0 
0 0 0 0 0 0 0 0 0 
0 0 0 0 0 0 0 0 0 
0 0 0 0 0 0 0 0 0 
0 0 0 0 0 0 0 0 0 
0 0 0 0 0 0 0 0 0 
0 0 0 0 0 0 0 0 0 
0 0 0 0 0 0 0 0 0 
0 0 0 0 0 0 0 0 0 
0 0 0 0 0 0 0 0 0 
0 0 0 0 0 0 0 0 0 
0 0 0 0 0 0 0 0 0 
0 0 0 0 0 0 0 0 0 
0 0 0 0 0 0 0 0 0 
0 0 0 0 0 0 0 0 0 
0 0 0 0 0 0 0 0 0 
0 0 0 0 0 0 0 0 0 
0 0 0 0 0 0 0 0 0 
0 0 0 0 0 0 0 0 0 
0 0 0 0 0 0 0 0 0 
0 0 0 0 0 0 0 0 0 
0 0 0 0 0 0 0 0 0 
0 0 0 0 0 0 0 0 0 
0 0 0 0 0 0 0 0 0 
0 0 0 0 0 0 0 0 0 
0 0 0 0 0 0 0 0 0 
0 0 0 0 0 0 0 0 0 
0 0 0 0 0 0 0 0 0 
0 0 0 0 0 0 0 0 0 
0 0 0 0 0 0 0 0 0 
0 0 0 0 0 0 0 0 0 
0 0 0 0 0 0 0 0 0 
0 0 0 0 0 0 0 0 0 
0 0 0 0 0 0 0 0 0 
0 0 0 0 0 0 0 0 0 
0 0 0 0 0 0 0 0 0 
0 0 0 0 0 0 0 0 0 
0 0 0 0 0 0 0 0 0 
0 0 0 0 0 0 0 0 0 
0 0 0 0 0 0 0 0 0 
0 0 0 0 0 0 0 0 0 
0 0 0 0 0 0 0 0 0 
0 0 0 0 0 0 0 0 0 
0 0 0 0 0 0 0 0 0 
0 0 0 0 0 0 0 0 0 
0 0 0 0 0 0 0 0 0 
0 0 0 0 0 0 0 0 0 
0 0 0 0 0 0 0 0 0 
0 0 0 0 0 0 0 0 0 
0 0 0 0 0 0 0 0 0 
0 0 0 0 0 0 0 0 0 
0 0 0 0 0 0 0 0 0 
0 0 0 0 0 0 0 0 0 
0 0 0 0 0 0 0 0 0 
0 0 0 0 0 0 0 0 0 
0 0 0 0 0 0 0 0 0 
0 0 0 0 0 0 0 0 0 
0 0 0 0 0 0 0 0 0 
0 0 0 0 0 0 0 0 0 
0 0 0 0 0 0 0 0 0 
0 0 0 0 0 0 0 0 0 
0 0 0 0 0 0 0 0 0 
0 0 0 0 0 0 0 0 0 
0 0 0 0 0 0 0 0 0 
0 0 0 0 0 0 0 0 0 
0 0 0 0 0 0 0 0 0 
0 0 0 0 0 0 0 0 0 
0 0 0 0 0 0 0 0 0 
0 0 0 0 0 0 0 0 0 
0 0 0 0 0 0 0 0 0 
0 0 0 0 0 0 0 0 0 
0 0 0 0 0 0 0 0 0 
0 0 0 0 0 0 0 0 0 
0 0 0 0 0 0 0 0 0 
0 0 0 0 0 0 0 0 0 
0 0 0 0 0 0 0 0 0 
0 0 0 0 0 0 0 0 0 
0 0 0 0 0 0 0 0 0 
0 0 0 0 0 0 0 0 0 
0 0 0 0 0 0 0 0 0 
0 0 0 0 0 0 0 0 0 
0 0 0 0 0 0 0 0 0 
0 0 0 0 0 0 0 0 0 
0 0 0 0 0 0 0 0 0 
0 0 0 0 0 0 0 0 0 
0 0 0 0 0 0 0 0 0 
0 0 0 0 0 0 0 0 0 
0 0 0 0 0 0 0 0 0 
0 0 0 0 0 0 0 0 0 
0 0 0 0 0 0 0 0 0 
0 0 0 0 0 0 0 0 0 
0 0 0 0 0 0 0 0 0 
0 0 0 0 0 0 0 0 0 
0 0 0 0 0 0 0 0 0 
0 0 0 0 0 0 0 0 0 
0 0 0 0 0 0 0 0 0 
0 0 0 0 0 0 0 0 0 
0 0 0 0 0 0 0 0 0 
0 0 0 0 0 0 0 0 0 
0 0 0 0 0 0 0 0 0 
0 0 0 0 0 0 0 0 0 
0 0 0 0 0 0 0 0 0 
0 0 0 0 0 0 0 0 0 
0 0 0 0 0 0 0 0 0 
0 0 0 0 0 0 0 0 0 
0 0 0 0 0 0 0 0 0 
0 0 0 0 0 0 0 0 0 
0 0 0 0 0 0 0 0 0 
0 0 0 0 0 0 0 0 0 
0 0 0 0 0 0 0 0 0 
0 0 0 0 0 0 0 0 0 
0 0 0 0 0 0 0 0 0 
0 0 0 0 0 0 0 0 0 
0 0 0 0 0 0 0 0 0 
0 0 0 0 0 0 0 0 0 
0 0 0 0 0 0 0 0 0 
0 0 0 0 0 0 0 0 0 
0 0 0 0 0 0 0 0 0 
0 0 0 0 0 0 0 0 0 
0 0 0 0 0 0 0 0 0 
0 0 0 0 0 0 0 0 0 
0 0 0 0 0 0 0 0 0 
0 0 0 0 0 0 0 0 0 
0 0 0 0 0 0 0 0 0 
0 0 0 0 0 0 0 0 0 
0 0 0 0 0 0 0 0 0 
0 0 0 0 0 0 0 0 0 
0 0 0 0 0 0 0 0 0 
0 0 0 0 0 0 0 0 0 
0 0 0 0 0 0 0 0 0 
0 0 0 0 0 0 0 0 0 
0 0 0 0 0 0 0 0 0 
0 0 0 0 0 0 0 0 0 
0 0 0 0 0 0 0 0 0 

v 3 1188 double
-6.48267e-05 0.000358685 -6.65813e-06 0.000138873 -0.000287289 -0.000120999 0.000260082 4.43098e-05 -7.64055e-05 
9.86412e-05 -7.36016e-05 -4.43688e-05 5.70235e-05 -0.00013514 -1.78653e-05 -0.000204728 9.04949e-05 -7.70988e-05 
-0.000399031 8.67982e-05 -0.000434643 -0.000477898 -0.000146146 -2.1728e-05 8.71414e-05 -9.64302e-05 -6.12261e-05 
8.48364e-05 -8.9195e-05 -2.04529e-05 3.8559e-05 -9.83817e-05 -2.26574e-05 0.000346983 -6.92412e-05 -1.77473e-05 
0.000154927 3.58419e-05 5.84308e-05 -0.000203366 1.88399e-05 -2.22371e-05 0.000171645 0.00017746 7.19081e-06 
0.000152616 0.000295711 0.000166524 0.000310709 -3.93074e-05 3.03632e-05 0.000109161 -6.98291e-05 3.92001e-05 
0.000806533 0.000233925 5.67442e-05 3.72769e-05 -5.09342e-05 -3.71779e-05 -0.000157874 -0.000263471 1.52671e-06 
-0.000192099 8.01642e-05 3.97623e-05 4.6562e-05 0.000188851 1.89467e-15 -0.000155838 -3.7952e-05 6.23928e-05 
6.02511e-05 9.98522e-05 -1.82887e-05 8.80283e-05 0.000269603 -1.8874e-05 0.000557988 -1.95534e-06 -0.000140766 
-0.000186788 0.000336435 -0.000430993 6.05628e-05 5.94447e-05 -2.53426e-05 -0.00049688 0.000194101 1.01629e-05 
-0.000154527 6.29928e-05 1.90143e-05 -0.000114719 9.42578e-05 0.000199067 -0.000107507 -0.000166226 0.000253225 
-0.000155541 1.30515e-05 0.000101295 0.000468478 0.000214694 -0.000192377 0.000261242 0.000325894 1.79462e-05 
-0.000502883 -0.000140641 7.6797e-16 -0.00022777 0.000111552 2.05403e-06 -0.000287764 3.2271e-05 1.87238e-05 
-0.000368162 8.92576e-05 2.5731e-05 -2.05325e-05 -2.75442e-05 -6.94199e-06 -0.000241065 -0.000210687 -0.000338509 
-0.000162447 3.85235e-05 3.09075e-05 2.1811e-05 -0.000170117 -0.000152955 -0.000755002 0.000577887 -2.92884e-05 
-0.00034326 0.000713365 -0.000610607 -0.000329064 0.00061299 -0.000335703 -0.000216968 0.000285535 -4.16369e-05 
-0.000220044 0.000260224 1.62457e-05 -0.000408076 7.33778e-05 4.36287e-05 -0.000509145 0.000167246 -0.000280379 
-0.000305986 -0.000105571 -0.000817377 -4.4194e-06 -4.3763e-05 -2.51302e-09 -0.000161985 7.66972e-05 8.88644e-05 
0.000178793 5.35107e-05 -1.48517e-15 -0.000201736 0.000830562 -1.56528e-08 3.21519e-05 0.000569953 -3.61585e-05 
5.73064e-05 -0.000150289 2.82669e-05 6.2078e-05 1.43616e-05 2.91248e-05 -8.84116e-05 3.80348e-05 2.60798e-05 
-0.00013609 7.27211e-05 7.84168e-05 -3.77528e-05 0.000135844 -0.00036071 0.000163122 0.000122527 -9.86307e-09 
-0.000166088 -2.61334e-06 2.34238e-05 -8.50403e-05 0.000276303 0.000319268 0.00016221 -0.000167116 1.73392e-06 
0.000249332 -0.000151608 4.7954e-06 -0.000323284 8.4085e-05 9.71106e-05 -0.000339432 3.79306e-05 9.03923e-06 
-0.000282056 4.8346e-05 2.84289e-05 -0.000180322 0.000220834 1.02665e-05 -6.43056e-05 3.34426e-05 4.96069e-06 
6.15311e-06 0.0001092 0.000100275 7.53258e-05 4.69452e-05 -0.00028827 -0.000175633 0.000149039 5.4307e-07 
-0.000356633 0.00020562 -0.000141717 -0.000191727 8.5432e-06 -2.14404e-07 -4.30488e-05 -0.000173054 -5.42695e-05 
-0.000235899 0.000121142 1.34966e-05 -2.65153e-05 0.000300429 -1.2006e-05 0.00010002 1.3134e-05 2.02359e-05 
0.000134043 -0.00010071 -3.08335e-05 3.51517e-05 -0.00010935 -0.000142561 -0.000450658 8.64791e-05 5.30491e-05 
-0.000352974 -5.82164e-05 9.22731e-06 5.01819e-05 -0.000310816 -4.20654e-06 -0.000291071 0.000408568 2.03084e-05 
6.29851e-05 7.49095e-05 2.59227e-05 -0.00011132 -0.000170091 2.70896e-05 -0.00014245 7.58004e-05 -3.02282e-05 
-0.000507414 0.000535125 1.08735e-05 -0.000547959 0.000495158 3.76451e-05 -0.000281395 -8.01392e-05 1.5101e-05 
-0.000524107 -0.000344654 -9.4408e-05 0.000107983 -0.000139087 4.4167e-05 -0.000474521 5.90222e-05 -9.66783e-06 
4.52404e-05 0.000271983 -0.00013143 8.07523e-05 0.000187645 -0.000137052 0.000331833 -0.00013666 0.000162223 
-0.000238547 2.08966e-05 0.000210873 -0.000209884 0.000167519 -8.63331e-05 -5.19533e-05 -0.000212584 -0.00017922 
0.000288012 -0.000320839 3.83505e-05 0.000574439 -0.000683345 -0.000475275 -4.88126e-05 0.000749314 -8.79789e-05 
-0.000165971 0.000143667 2.79119e-05 -0.000219948 -9.65147e-05 0.000143936 0.000355903 -9.50625e-05 -0.000107823 
0.000511552 4.05273e-05 -3.78637e-05 0.000297715 -0.000210652 0.000126321 -0.00036355 -0.000158255 0.000163702 
3.63653e-05 5.9188e-05 -9.3687e-05 -0.000234687 4.45229e-05 -0.000661772 0.000138719 0.000176179 3.96026e-05 
0.000170089 3.58584e-06 -0.000317398 1.62709e-05 0.000192094 -0.000246085 0.000196512 -6.82207e-05 -4.5347e-05 
0.000304748 -2.95058e-05 0.00022318 -9.07296e-05 -3.60559e-05 -0.000502946 -0.000332988 -4.02222e-05 -5.94624e-05 
-9.12483e-05 5.67926e-05 0.000200243 -8.73825e-05 0.000591067 -0.00059216 -5.79142e-05 -0.00014403 3.29623e-05 
7.4037e-05 -0.000559435 7.01722e-05 4.87586e-05 0.000599167 0.000150182 -2.60047e-05 0.000193436 -0.000307894 
-5.76817e-05 0.000346148 3.49419e-05 3.47758e-05 0.000653598 0.000141998 -0.000105144 0.000265312 -0.000269574 