# vtk DataFile Version 4.0
Generated by LIGGGHTS
ASCII
DATASET POLYDATA
POINTS 1400 float
-4.94296 -4.19878 0.49999 -2.84202 -4.07637 0.499985 -1.82427 -4.15571 0.499997 
-0.823577 -4.6145 0.499949 0.119627 -4.94666 0.499956 1.18819 -4.07016 0.499965 
1.58946 -4.9861 0.499995 2.38323 -4.45197 0.790882 3.23565 -4.88643 0.499984 
-4.38441 -3.37669 0.616198 -3.3998 -3.2464 0.499971 -2.37053 -3.1945 0.499993 
-0.976985 -3.62427 0.499928 0.180253 -3.7558 0.499996 1.32115 -3.07852 0.499983 
2.86104 -3.62309 0.499949 3.65678 -3.01753 0.499952 4.07868 -3.98182 0.499997 
4.64689 -3.15753 0.499989 -3.98328 -2.40097 0.499976 -2.92837 -2.36454 0.499924 
-1.48825 -2.80811 0.768976 -0.913599 -2.03526 0.49998 -0.318475 -2.84519 0.499973 
0.629151 -2.35665 0.499957 2.3353 -2.61829 0.499973 3.2053 -2.1253 0.499977 
-4.74492 -1.753 0.499985 -3.48454 -1.5494 0.661402 -1.96761 -1.97279 0.499956 
-0.690052 -1.06064 0.49995 0.266878 -1.42425 0.499994 1.28227 -1.54507 0.499999 
2.9691 -1.15363 0.499989 2.22358 -1.70102 0.882174 4.25523 -1.76919 0.499966 
-4.06988 -0.75492 0.49994 -3.0753 -0.651127 0.501639 -2.00736 -0.962572 0.499984 
-0.751921 -0.0661013 0.583506 0.951966 -0.601185 0.499987 1.96483 -0.813962 0.499945 
2.74252 -0.179682 0.499965 3.9236 -0.825797 0.49998 4.92423 -0.808845 0.499997 
-4.70564 0.120635 0.49994 -3.70727 0.177007 0.499998 -2.71272 0.280769 0.499942 
-1.74318 0.0359015 0.499989 0.154836 0.347096 0.499939 1.1543 0.378163 0.499946 
2.10798 0.553554 0.744116 3.01992 0.883157 0.49996 3.69828 0.148463 0.499975 
4.50683 0.736828 0.499938 -4.40349 1.11097 0.499997 -3.32808 1.03153 0.859662 
-3.38136 1.96311 0.499998 -2.41878 1.24069 0.499973 -1.45162 1.49497 0.499966 
-0.504081 1.13024 0.499963 0.48017 1.30677 0.499961 1.43598 1.29236 0.793413 
2.33628 1.61406 0.499949 3.81868 1.54845 0.499965 -4.35597 2.20588 0.499967 
-3.63873 2.92942 0.499956 -2.40439 2.24359 0.499956 -1.48633 2.4314 0.849058 
-0.600568 2.12555 0.499976 0.286366 2.58745 0.499998 1.2176 2.22306 0.499996 
2.1453 2.59636 0.499988 3.11623 2.3572 0.499933 4.62291 2.15771 0.499997 
4.05966 2.98402 0.499998 -4.23698 3.81484 0.499997 -4.88859 3.05459 0.499951 
-3.23592 3.84445 0.520559 -1.31096 3.3596 0.499963 -0.311426 3.38909 0.499969 
1.56165 3.40832 0.499936 2.56442 3.50471 0.499997 3.66588 3.90735 0.499997 
4.70864 3.97907 0.499977 -4.75021 4.81997 0.49992 -3.7578 4.69718 0.499954 
-2.75311 4.92761 0.499982 -2.2564 4.04458 0.499968 -1.6718 4.85591 0.499959 
-0.870136 4.25715 0.49994 0.843792 4.34761 0.499967 2.44659 4.49883 0.499987 
4.20075 4.85182 0.499934 -4.38971 -4.60109 1.23122 -3.35429 -4.75946 1.23604 
-2.18747 -4.73709 1.25384 -1.27571 -4.32565 1.34378 -0.195082 -4.33316 1.2251 
0.763602 -4.75476 1.24047 1.5579 -4.1754 1.4231 2.51054 -4.04592 1.69803 
2.94515 -4.96759 1.45339 3.38165 -4.09746 1.20974 3.94359 -4.65861 1.81737 
4.58045 -4.03523 1.36376 -4.61982 -3.49292 1.62124 -3.7432 -3.83823 1.22921 
-2.7908 -3.97704 1.50099 -1.92607 -3.50067 1.34219 -0.940478 -3.3923 1.47189 
0.822608 -3.51999 1.2507 1.55586 -3.01509 1.84075 2.07584 -3.39398 1.07522 
3.91284 -3.30519 1.50995 -4.83067 -2.57047 1.11842 -4.44793 -2.09759 1.92846 
-3.90458 -2.8301 1.39975 -2.90247 -2.94522 1.31354 -1.82459 -2.29466 1.55842 
-0.838127 -2.39855 1.42854 0.220033 -2.72634 1.33413 0.76586 -2.08305 1.87098 
1.40245 -2.30928 1.13371 2.24017 -2.30397 1.67974 2.98359 -2.85917 1.22226 
3.86717 -2.3508 1.21485 -4.25076 -1.35985 1.27535 -3.50339 -1.8931 1.6716 
-2.61145 -1.76778 1.23707 -2.6221 -1.01133 1.89095 -1.42583 -1.4456 1.15457 
-0.0906644 -1.73572 1.38042 0.726901 -1.15897 1.34734 1.69772 -1.21531 1.58043 
3.06439 -1.79436 1.43303 3.94493 -1.32523 1.36603 4.86752 -1.39192 1.7459 
-4.45932 -0.369118 1.33621 -3.47247 -0.514392 1.40922 -2.35743 -0.33939 1.19931 
-1.3795 -0.247804 1.38725 -0.658001 -0.925703 1.52891 0.0519171 -0.548543 0.932547 
0.148301 -0.487285 1.92595 1.59491 -0.194006 1.19182 2.50933 -0.687651 1.32912 
3.67019 -0.20914 1.61483 4.49238 -0.0930859 1.05765 -4.87448 0.659264 1.32549 
-3.90242 0.454806 1.44059 -2.19027 0.643876 1.27134 -1.21742 0.6893 1.0446 
-0.585825 0.234448 1.7581 0.0182838 0.900931 1.32123 0.661616 0.135527 1.33561 
1.43575 0.648344 1.70662 2.87555 0.335446 1.34671 3.71903 0.856011 1.21448 
4.33299 0.479786 1.90828 -4.61337 1.9104 1.41996 -3.62206 1.78358 1.45396 
-2.14239 1.7383 1.32213 -2.86769 1.19945 1.75335 -1.55994 1.13793 1.87006 
-0.876817 1.60713 1.31048 0.0755542 1.89219 1.20245 1.21491 1.92917 1.53197 
2.30453 1.12638 1.57775 3.07489 1.61977 1.17399 4.52647 1.45019 1.20035 
-4.27276 2.84069 1.26809 -3.00123 2.62305 1.20686 -1.51668 2.31955 1.84232 
-0.534709 2.77533 1.25719 0.560827 2.68446 1.57224 1.5517 2.84843 1.32839 
2.21455 2.09947 1.36568 3.06372 2.39896 1.80063 3.84141 2.2776 1.18389 
4.74463 2.67376 1.34867 -4.83859 3.51315 1.75524 -3.55397 3.52086 1.41167 
-2.19496 3.13436 0.909491 -2.61227 3.48837 1.74642 -1.38689 3.2466 1.49064 
-0.00916165 3.49404 1.71258 0.706893 3.49897 1.01087 1.93887 3.91828 1.27296 
2.42126 3.16001 1.71142 3.27036 3.11687 1.13158 4.27438 3.55461 1.29447 
-4.46816 4.33887 1.32993 -3.58856 4.44431 1.79374 -2.69404 4.40221 1.34874 
-1.60423 4.19093 1.24373 -0.856771 4.00035 1.88018 -0.728431 4.81638 1.31664 
-0.00772405 4.19837 1.0027 0.192591 4.67923 1.85628 1.04432 4.3156 1.47909 
1.95353 4.90624 1.42667 2.94052 4.05381 1.24694 3.84935 4.45817 1.34934 
4.72848 4.94104 1.34456 -4.90804 -4.50841 2.09598 -4.45505 -4.77259 2.9474 
-3.83806 -4.43444 2.04862 -2.78043 -4.88539 2.04522 -2.75265 -4.09615 2.65861 
-1.95042 -4.20988 2.07265 -1.73275 -4.76205 2.87769 -0.585785 -4.62651 2.13463 
0.376844 -4.36258 2.07505 1.2598 -4.84431 2.10403 2.93085 -4.62817 2.39388 
2.1039 -4.10896 2.60953 4.27802 -4.86958 2.73585 -4.39961 -3.77941 2.55416 
-3.56616 -3.42998 2.1247 -2.47193 -3.28173 2.15093 -1.06279 -3.78375 2.38384 
-1.90416 -3.62337 2.89978 -0.0649117 -3.47457 1.94778 -0.577469 -3.09004 2.91605 
0.0988764 -3.82523 2.87125 1.19721 -3.83306 2.29065 1.87396 -3.1529 2.79131 
2.59902 -3.1359 2.1029 3.55193 -3.85415 2.26392 3.15419 -3.22322 2.93003 
4.56095 -3.68595 2.30057 -4.83539 -2.89404 2.39265 -3.75082 -2.5237 2.50515 
-2.688 -2.30838 2.0748 -2.0722 -2.62888 2.79457 -1.27238 -2.81891 2.22522 
-1.2206 -2.12682 2.94561 -0.178884 -2.49219 2.22064 0.697486 -2.96908 2.35162 
0.726595 -2.13437 2.90141 1.62456 -2.23817 2.46658 3.37722 -2.50871 2.07209 
4.48111 -2.27828 2.00079 4.07526 -2.89584 2.67451 -4.76355 -1.62104 2.7556 
-3.45549 -1.19993 2.41036 -2.12116 -1.62526 2.53518 -0.80062 -1.70107 2.14414 
-0.223441 -1.81286 2.95306 0.449753 -1.30576 2.41491 1.6485 -1.24477 2.57878 
2.74173 -1.80281 2.38491 4.14253 -1.0935 2.36658 4.29433 -1.91639 2.91407 
-4.38068 -0.89717 2.18173 -3.32202 -0.231082 2.619 -2.36951 -0.662795 2.79352 
-1.52392 -0.991425 2.04007 -0.332022 -0.047318 2.68464 -0.725144 -0.958287 2.80937 
0.586662 -0.396505 2.86919 1.17682 -0.448951 2.06366 1.72278 -0.299559 2.89675 
2.14118 -0.0647046 2.01937 2.69869 -0.489058 2.73289 3.17879 -0.985408 2.00961 
3.72707 -0.306236 2.82215 4.76298 -0.421337 1.96259 4.93545 -0.680509 2.91279 
-4.42291 0.101259 2.21791 -4.92236 0.952355 2.37954 -3.69896 0.895555 2.31481 
-2.04977 0.0532831 2.066 -2.77237 0.601404 2.54913 -1.13434 0.532336 2.54237 
0.864213 0.495649 2.51284 2.32439 0.783184 2.51686 3.20149 0.358906 2.29178 
3.91354 0.934353 2.69404 -4.27455 1.71307 2.33989 -3.28307 1.79628 2.43982 
-2.25782 1.50656 2.48403 -1.2507 1.73587 2.60948 -0.495383 1.18261 2.13158 
0.58914 1.32444 2.02461 0.0502574 1.73746 2.75947 1.58677 1.4285 2.31364 
3.19998 1.34674 2.12776 4.14116 1.69751 2.08928 -4.66995 2.61318 2.15715 
-3.61877 2.62561 1.99331 -3.91066 2.73122 2.94393 -2.49772 2.36553 2.03157 
-1.61251 2.65231 2.78042 -0.542554 2.17893 2.0598 0.107571 2.8299 2.45162 
0.879708 2.19302 2.43638 1.83986 2.3957 2.24419 2.71035 2.41473 2.73595 
3.69632 2.45095 2.57332 4.8286 2.24212 2.93869 -4.0032 3.49458 2.30466 
-4.86419 3.33154 2.82513 -3.12844 3.92987 2.51773 -2.44656 3.1962 2.68828 
-0.847311 3.10239 2.32012 0.395919 3.94931 2.50884 1.07213 3.44558 1.97131 
1.80297 3.3129 2.6408 2.79772 3.40806 2.60397 3.52602 3.62495 1.95399 
4.36607 3.08068 2.17992 4.12675 3.89689 2.7057 -4.43889 4.23653 2.81407 
-3.50409 4.8748 2.69233 -2.24055 4.29131 2.23306 -1.50703 4.90402 1.93796 
-1.37574 4.31406 2.7346 -0.404173 4.53334 2.6456 0.539819 4.92879 2.76148 
1.58073 4.23331 2.31898 1.76262 4.98835 2.95206 2.55782 4.3288 2.12892 
3.51599 4.56823 2.28566 4.81937 4.36327 2.15558 -4.83323 -4.84763 3.87005 
-3.65442 -4.18853 3.08068 -2.83541 -4.08588 3.65504 -2.27165 -4.86694 3.92338 
-0.790609 -4.43292 3.09404 0.109699 -4.5844 3.52205 1.02206 -4.29159 3.16189 
2.01098 -4.59859 3.85075 3.50185 -4.4337 3.19142 4.80352 -4.14218 3.17713 
4.18231 -4.43677 3.92788 -4.07846 -3.33798 3.39196 -3.16086 -3.21659 3.01357 
-2.37756 -3.12931 3.62895 -1.86099 -3.95895 3.84073 -0.495394 -3.69865 3.70526 
0.493532 -3.64977 3.84511 1.65014 -3.6815 3.68129 1.02384 -3.00368 3.29623 
2.60192 -3.87844 3.44544 4.91794 -3.23486 3.58158 4.00041 -3.59671 3.41677 
-4.54121 -2.46365 3.24598 -3.60211 -2.52433 3.7253 -2.96514 -2.19402 3.02877 
-2.15402 -2.02769 3.58946 -1.4058 -2.96317 3.46165 0.109453 -2.65083 3.49499 
1.14184 -2.15498 3.81173 2.01903 -2.754 3.74161 3.0166 -2.76212 3.82559 
3.36006 -2.25063 3.038 4.06116 -2.62501 3.64484 -4.72032 -1.12642 3.73894 
-3.85131 -1.7464 3.14837 -3.01156 -1.2284 3.311 -1.60437 -1.24079 3.30005 
-0.707567 -1.38716 3.71747 0.938844 -1.23534 3.28426 0.242437 -1.7184 3.83282 
1.88039 -1.03627 3.5559 2.21235 -1.91975 3.22521 3.01739 -1.69061 3.79228 
3.35171 -1.25398 2.95715 4.52752 -1.77107 3.87555 -4.02352 -0.752745 3.10456 
-3.4592 -0.259106 3.82401 -1.45774 -0.301788 2.98908 -1.73217 -0.0322356 3.91208 
-0.14 -0.585601 3.52958 2.26431 -0.13718 3.76608 3.13891 -0.617188 3.6982 
3.93414 -0.0212028 3.80925 4.14813 -0.938173 3.47279 -4.4742 0.152813 3.21524 
-3.51477 0.545911 3.23339 -2.62587 0.092189 3.3972 -1.94322 0.754298 3.08685 
[...]
POINT_DATA 1400
FIELD FieldData 7
id 1 1400 int
48 62 69 126 50 115 30 89 31 
120 60 12 7 23 28 51 64 29 
24 49 79 129 104 11 56 59 14 
20 99 45 1 18 22 78 82 109 
27 15 19 105 26 4 86 43 67 
54 65 37 80 16 35 110 2 114 
46 33 108 3 71 21 42 55 119 
53 97 52 94 8 84 25 13 6 
63 47 36 41 9 81 87 40 34 
44 5 76 38 58 57 17 10 88 
32 39 72 112 161 165 151 214 77 
106 168 213 198 136 231 123 166 127 
284 210 220 100 157 93 197 103 212 
194 172 174 132 83 180 102 160 70 
135 164 217 155 191 61 85 150 207 
159 66 196 139 258 117 169 147 98 
227 91 158 309 130 101 167 143 73 
125 113 124 171 215 137 193 68 153 
133 190 187 146 74 131 186 163 128 
134 142 203 122 173 154 138 175 95 
211 162 222 118 185 121 144 96 116 
235 92 170 107 178 152 111 206 141 
90 148 75 156 149 192 145 260 291 
189 263 321 244 380 195 199 221 316 
322 336 333 280 266 281 348 140 303 
255 253 318 245 233 319 205 262 272 
225 312 248 324 249 289 298 228 247 
223 282 234 274 283 204 254 285 279 
241 313 302 224 359 264 184 188 257 
230 177 355 181 269 179 369 270 295 
208 271 265 216 250 277 238 273 256 
331 176 326 259 232 226 218 311 239 
261 236 219 243 353 183 315 200 276 
240 201 297 293 379 252 296 325 314 
182 237 209 275 327 242 278 306 292 
376 229 267 328 290 320 268 398 202 
332 251 431 349 404 484 310 377 343 
428 341 346 396 422 350 448 455 371 
399 405 342 339 389 344 288 400 375 
384 420 330 402 433 432 287 356 503 
335 323 360 419 329 378 440 305 391 
354 453 368 415 317 474 337 407 383 
470 401 373 338 358 308 414 361 301 
421 387 334 424 435 509 304 429 372 
299 393 347 294 340 412 367 300 352 
479 418 489 461 374 403 366 246 362 
286 459 430 388 406 390 416 381 345 
445 423 392 357 409 413 385 425 363 
382 451 397 410 307 364 365 351 386 
477 468 558 542 513 426 446 443 516 
539 457 514 501 456 553 500 492 557 
478 465 482 505 481 518 507 544 460 
411 529 581 555 488 417 370 458 442 
595 548 439 490 528 462 498 472 556 
510 549 471 427 515 535 434 506 550 
534 444 527 408 537 525 493 614 541 
499 522 552 437 480 475 554 469 601 
463 521 449 609 512 447 452 524 504 
450 531 617 497 519 559 543 394 438 
454 483 473 546 486 395 562 545 466 
520 523 496 530 487 532 491 495 511 
436 604 494 547 502 464 590 441 602 
467 540 615 476 672 626 616 611 536 
576 669 631 572 608 589 570 709 718 
571 648 633 569 632 588 587 485 579 
649 655 582 533 563 586 618 508 634 
538 670 665 580 610 564 625 658 568 
607 675 654 651 719 664 676 594 660 
647 627 596 517 593 561 685 711 573 
605 612 600 621 574 567 641 577 673 
591 674 653 671 560 662 599 629 551 
721 622 695 613 656 584 619 598 526 
585 566 583 714 666 578 639 628 575 
663 620 693 650 657 623 565 652 667 
597 606 603 701 592 659 688 804 728 
642 741 643 727 686 831 680 774 661 
822 636 732 733 750 722 745 699 668 
738 825 696 700 780 703 767 720 764 
697 724 702 717 752 769 821 740 775 
716 682 713 802 698 690 729 683 823 
766 706 815 772 795 710 746 646 739 
677 624 737 743 811 768 630 694 761 
679 759 773 687 640 762 787 708 725 
778 726 635 707 771 784 637 756 715 
748 845 689 644 783 754 678 786 684 
819 753 785 779 758 691 765 751 730 
776 704 757 692 705 760 723 763 638 
790 681 747 749 731 645 899 886 837 
826 879 800 854 880 798 865 950 832 
851 807 808 828 735 744 957 833 844 
884 791 897 874 835 777 834 869 846 
849 947 810 914 836 818 794 770 742 
755 905 848 901 856 863 891 829 878 
712 842 864 788 866 820 873 890 781 
896 734 805 857 858 843 907 736 806 
867 827 809 923 792 841 855 812 906 
813 782 889 789 882 793 803 944 847 
801 814 1003 877 839 816 852 888 911 
861 840 796 893 859 953 799 871 797 
958 904 868 824 887 830 920 850 838 
894 883 817 935 929 898 986 1005 862 
1029 926 951 1012 938 990 1020 937 969 
941 1010 909 876 915 903 925 1000 1043 
934 961 860 968 940 1030 881 997 875 
995 984 948 1067 943 981 949 960 971 
959 870 853 1006 1034 955 966 924 1065 
998 1025 892 939 921 913 932 1018 1009 
942 993 872 928 930 900 1007 974 946 
1050 1011 1059 967 1016 954 979 1049 956 
922 1004 992 910 1047 976 917 977 912 
991 999 908 885 965 919 1008 1013 918 
970 927 973 1064 980 933 895 1001 1037 
916 931 983 994 996 963 1046 987 936 
945 1015 964 902 1114 1098 1121 1187 1119 
1014 1039 1104 989 1099 1127 1024 1045 1180 
1108 1032 1158 1077 1125 972 1027 1054 1041 
1076 1133 1122 1103 1073 1126 1072 1021 1071 
975 1090 1058 1026 1142 1097 1023 1081 1066 
1089 1028 978 982 952 1084 1128 1052 1088 
988 1118 1056 1101 1022 1038 1063 1085 1100 
1061 1035 1112 1095 1110 1086 1070 1117 1040 
1093 1120 1053 1068 1069 1055 1017 1123 1111 
1175 1079 1019 985 1115 1087 1106 1096 1051 
1124 1116 1140 1188 1075 1057 1036 1002 1163 
1031 962 1109 1060 1083 1094 1033 1177 1048 
1102 1105 1062 1091 1130 1044 1074 1161 1042 
1129 1272 1168 1221 1242 1170 1244 1184 1182 
1211 1245 1236 1147 1229 1218 1156 1154 1107 
1215 1198 1225 1139 1202 1179 1222 1162 1217 
1226 1206 1146 1171 1167 1181 1169 1150 1164 
1152 1197 1201 1141 1080 1138 1224 1189 1297 
1205 1160 1196 1214 1247 1144 1092 1134 1155 
1183 1166 1223 1209 1149 1082 1157 1194 1136 
1178 1220 1292 1153 1204 1145 1078 1113 1219 
1172 1207 1173 1193 1241 1186 1165 1203 1131 
1227 1185 1216 1195 1137 1132 1159 1246 1234 
1210 1208 1212 1176 1243 1135 1148 1174 1151 
1235 1143 1230 1342 1337 1293 1304 1191 1294 
1299 1291 1351 1331 1253 1269 1233 1213 1254 
1261 1262 1300 1238 1308 1265 1252 1281 1301 
1239 1320 1282 1192 1339 1287 1285 1350 1251 
1307 1255 1270 1348 1274 1302 1237 1290 1288 
1264 1276 1296 1275 1256 1240 1334 1263 1333 
1271 1228 1231 1327 1250 1359 1257 1284 1340 
1258 1298 1267 1248 1249 1319 1286 1322 1278 
1200 1268 1190 1289 1277 1330 1266 1313 1259 
1232 1280 1329 1295 1199 1279 1260 1283 1369 
1335 1382 1344 1362 1312 1323 1399 1347 1374 
1305 1273 1317 1310 1325 1341 1328 1353 1375 
1376 1354 1383 1318 1315 1356 1343 1303 1309 
1346 1306 1355 1358 1314 1357 1338 1372 1395 
1349 1352 1326 1332 1361 1324 1316 1397 1377 
1400 1311 1345 1321 1336 1385 1394 1360 1371 
1392 1363 1365 1364 1378 1368 1389 1370 1381 
1398 1366 1386 1388 1384 1391 1390 1380 1393 
1379 1373 1387 1396 1367 
type 1 1400 int
1 1 1 1 1 1 1 1 1 
1 1 1 1 1 1 1 1 1 
1 1 1 1 1 1 1 1 1 
1 1 1 1 1 1 1 1 1 
1 1 1 1 1 1 1 1 1 
1 1 1 1 1 1 1 1 1 
1 1 1 1 1 1 1 1 1 
1 1 1 1 1 1 1 1 1 
1 1 1 1 1 1 1 1 1 
1 1 1 1 1 1 1 1 1 
1 1 1 1 1 1 1 1 1 
1 1 1 1 1 1 1 1 1 
1 1 1 1 1 1 1 1 1 
1 1 1 1 1 1 1 1 1 
1 1 1 1 1 1 1 1 1 
1 1 1 1 1 1 1 1 1 
1 1 1 1 1 1 1 1 1 
1 1 1 1 1 1 1 1 1 
1 1 1 1 1 1 1 1 1 
1 1 1 1 1 1 1 1 1 
1 1 1 1 1 1 1 1 1 
1 1 1 1 1 1 1 1 1 
1 1 1 1 1 1 1 1 1 
1 1 1 1 1 1 1 1 1 
1 1 1 1 1 1 1 1 1 
1 1 1 1 1 1 1 1 1 
1 1 1 1 1 1 1 1 1 
1 1 1 1 1 1 1 1 1 
1 1 1 1 1 1 1 1 1 
1 1 1 1 1 1 1 1 1 
1 1 1 1 1 1 1 1 1 
1 1 1 1 1 1 1 1 1 
1 1 1 1 1 1 1 1 1 
1 1 1 1 1 1 1 1 1 
1 1 1 1 1 1 1 1 1 
1 1 1 1 1 1 1 1 1 
1 1 1 1 1 1 1 1 1 
1 1 1 1 1 1 1 1 1 
1 1 1 1 1 1 1 1 1 
1 1 1 1 1 1 1 1 1 
1 1 1 1 1 1 1 1 1 
1 1 1 1 1 1 1 1 1 
1 1 1 1 1 1 1 1 1 
1 1 1 1 1 1 1 1 1 
1 1 1 1 1 1 1 1 1 
1 1 1 1 1 1 1 1 1 
1 1 1 1 1 1 1 1 1 
1 1 1 1 1 1 1 1 1 
1 1 1 1 1 1 1 1 1 
1 1 1 1 1 1 1 1 1 
1 1 1 1 1 1 1 1 1 
1 1 1 1 1 1 1 1 1 
1 1 1 1 1 1 1 1 1 
1 1 1 1 1 1 1 1 1 
1 1 1 1 1 1 1 1 1 
1 1 1 1 1 1 1 1 1 
1 1 1 1 1 1 1 1 1 
1 1 1 1 1 1 1 1 1 
1 1 1 1 1 1 1 1 1 
1 1 1 1 1 1 1 1 1 
1 1 1 1 1 1 1 1 1 
1 1 1 1 1 1 1 1 1 
1 1 1 1 1 1 1 1 1 
1 1 1 1 1 1 1 1 1 
1 1 1 1 1 1 1 1 1 
1 1 1 1 1 1 1 1 1 
1 1 1 1 1 1 1 1 1 
1 1 1 1 1 1 1 1 1 
1 1 1 1 1 1 1 1 1 
1 1 1 1 1 1 1 1 1 
1 1 1 1 1 1 1 1 1 
1 1 1 1 1 1 1 1 1 
1 1 1 1 1 1 1 1 1 
1 1 1 1 1 1 1 1 1 
1 1 1 1 1 1 1 1 1 
1 1 1 1 1 1 1 1 1 
1 1 1 1 1 1 1 1 1 
1 1 1 1 1 1 1 1 1 
1 1 1 1 1 1 1 1 1 
1 1 1 1 1 1 1 1 1 
1 1 1 1 1 1 1 1 1 
1 1 1 1 1 1 1 1 1 
1 1 1 1 1 1 1 1 1 
1 1 1 1 1 1 1 1 1 
1 1 1 1 1 1 1 1 1 
1 1 1 1 1 1 1 1 1 
1 1 1 1 1 1 1 1 1 
1 1 1 1 1 1 1 1 1 
1 1 1 1 1 1 1 1 1 
1 1 1 1 1 1 1 1 1 
1 1 1 1 1 1 1 1 1 
1 1 1 1 1 1 1 1 1 
1 1 1 1 1 1 1 1 1 
1 1 1 1 1 1 1 1 1 
1 1 1 1 1 1 1 1 1 
1 1 1 1 1 1 1 1 1 
1 1 1 1 1 1 1 1 1 
1 1 1 1 1 1 1 1 1 
1 1 1 1 1 1 1 1 1 
1 1 1 1 1 1 1 1 1 
1 1 1 1 1 1 1 1 1 
1 1 1 1 1 1 1 1 1 
1 1 1 1 1 1 1 1 1 
1 1 1 1 1 1 1 1 1 
1 1 1 1 1 1 1 1 1 
1 1 1 1 1 1 1 1 1 
1 1 1 1 1 1 1 1 1 
1 1 1 1 1 1 1 1 1 
1 1 1 1 1 1 1 1 1 
1 1 1 1 1 1 1 1 1 
1 1 1 1 1 1 1 1 1 
1 1 1 1 1 1 1 1 1 
1 1 1 1 1 1 1 1 1 
1 1 1 1 1 1 1 1 1 
1 1 1 1 1 1 1 1 1 
1 1 1 1 1 1 1 1 1 
1 1 1 1 1 1 1 1 1 
1 1 1 1 1 1 1 1 1 
1 1 1 1 1 1 1 1 1 
1 1 1 1 1 1 1 1 1 
1 1 1 1 1 1 1 1 1 
1 1 1 1 1 1 1 1 1 
1 1 1 1 1 1 1 1 1 
1 1 1 1 1 1 1 1 1 
1 1 1 1 1 1 1 1 1 
1 1 1 1 1 1 1 1 1 
1 1 1 1 1 1 1 1 1 
1 1 1 1 1 1 1 1 1 
1 1 1 1 1 1 1 1 1 
1 1 1 1 1 1 1 1 1 
1 1 1 1 1 1 1 1 1 
1 1 1 1 1 1 1 1 1 
1 1 1 1 1 1 1 1 1 
1 1 1 1 1 1 1 1 1 
1 1 1 1 1 1 1 1 1 
1 1 1 1 1 1 1 1 1 
1 1 1 1 1 1 1 1 1 
1 1 1 1 1 1 1 1 1 
1 1 1 1 1 1 1 1 1 
1 1 1 1 1 1 1 1 1 
1 1 1 1 1 1 1 1 1 
1 1 1 1 1 1 1 1 1 
1 1 1 1 1 1 1 1 1 
1 1 1 1 1 1 1 1 1 
1 1 1 1 1 1 1 1 1 
1 1 1 1 1 1 1 1 1 
1 1 1 1 1 1 1 1 1 
1 1 1 1 1 1 1 1 1 
1 1 1 1 1 1 1 1 1 
1 1 1 1 1 1 1 1 1 
1 1 1 1 1 1 1 1 1 
1 1 1 1 1 1 1 1 1 
1 1 1 1 1 1 1 1 1 
1 1 1 1 1 1 1 1 1 
1 1 1 1 1 1 1 1 1 
1 1 1 1 1 
i 3 1400 int
0 0 0 0 0 0 0 0 0 
0 0 0 0 0 0 0 0 0 
0 1 0 0 0 0 0 0 0 
0 0 0 0 0 0 0 0 0 
0 0 0 0 0 0 0 0 0 
0 0 0 0 0 0 0 0 0 
0 0 0 0 0 0 0 0 0 
0 0 0 0 0 0 0 0 0 
0 0 0 0 0 0 0 0 0 
1 0 0 0 0 0 0 0 0 
0 0 0 0 0 0 0 0 0 
0 0 0 0 0 0 0 0 0 
0 0 0 0 0 0 0 0 0 
0 0 0 0 0 0 0 0 0 
0 0 0 0 0 0 -1 0 0 
0 0 0 0 0 0 0 0 0 
0 0 0 0 0 0 0 0 0 
0 0 0 0 0 0 0 0 0 
0 0 0 0 0 0 0 0 0 
0 0 0 0 0 0 0 0 0 
0 0 0 0 0 0 0 0 0 
0 0 0 0 0 0 0 0 0 
0 0 0 0 0 0 0 0 0 
0 0 0 0 0 0 0 0 0 
0 0 0 0 0 0 0 0 0 
0 0 0 0 0 0 1 0 0 
0 0 0 0 0 0 0 0 0 
0 0 0 0 0 0 0 0 0 
0 0 0 0 0 0 0 0 0 
0 -1 0 0 0 0 0 -1 0 
0 0 0 0 0 0 0 0 0 
0 -1 0 0 0 0 0 1 0 
0 0 0 0 0 0 0 0 0 
0 0 0 0 0 0 0 0 0 
0 0 0 0 0 0 0 0 0 
0 0 0 0 0 0 0 0 0 
0 0 0 0 0 0 0 0 0 
0 0 0 0 0 0 0 0 0 
0 0 0 0 0 0 0 0 0 
0 0 0 0 0 0 0 0 0 
0 0 0 0 0 0 0 0 0 
0 0 0 0 0 0 0 0 0 
0 0 0 0 0 0 0 0 0 
0 0 0 0 0 0 0 0 0 
0 0 0 0 0 0 0 0 0 
0 0 0 0 0 0 0 0 0 
0 0 0 0 0 0 0 0 0 
0 0 0 0 0 0 0 0 0 
0 0 0 0 0 0 0 0 0 
0 0 0 0 0 0 0 0 0 
0 0 0 0 0 0 0 0 0 
0 0 0 0 0 0 0 0 0 
0 0 0 0 0 0 0 0 0 
0 0 0 0 0 0 0 0 0 
0 0 0 0 0 0 0 0 0 
0 0 0 0 0 0 0 0 0 
0 0 0 0 0 0 0 0 0 
0 0 0 0 0 0 0 0 0 
0 0 0 0 0 0 0 0 0 
0 0 0 0 0 0 0 0 0 
0 0 0 0 0 0 0 0 0 
0 0 0 0 0 0 0 0 0 
0 0 0 0 0 0 0 0 0 
0 0 0 0 0 0 0 0 0 
0 0 0 0 0 0 0 0 0 
0 0 0 0 0 0 0 0 0 
0 0 0 0 -1 0 0 0 0 
0 0 0 0 0 0 0 0 0 
0 0 0 0 0 0 0 0 0 
0 0 0 0 1 0 0 0 0 
0 0 0 0 0 0 0 0 0 
0 0 0 0 0 0 0 0 0 
0 0 0 0 0 0 0 0 0 
0 0 0 0 0 0 0 0 0 
0 0 0 0 0 0 0 0 0 
0 0 0 0 0 0 0 0 0 
0 0 0 0 0 0 0 0 0 
0 0 0 0 0 0 0 0 0 
0 0 0 0 0 0 0 0 0 
0 0 0 0 0 0 0 0 0 
0 0 0 0 0 0 0 0 0 
0 0 0 0 0 0 0 0 0 
0 0 0 0 0 0 0 0 0 
0 0 0 0 0 0 0 0 0 
0 0 0 0 0 0 0 0 0 
0 0 0 0 0 0 0 0 0 
0 0 0 0 0 0 0 0 0 
0 0 0 0 0 0 0 0 0 
0 0 0 0 0 0 0 0 0 
0 0 0 0 0 0 -1 0 0 
0 0 0 0 0 0 0 0 0 
0 0 0 0 0 0 0 0 0 
0 0 0 0 0 0 0 0 0 
0 0 0 0 0 0 0 0 0 
0 0 0 0 0 0 0 0 0 
0 0 0 0 0 0 0 0 0 
0 0 0 0 0 0 0 0 0 
0 0 0 0 0 0 0 0 0 
0 0 0 0 0 0 0 0 0 
0 0 0 0 0 0 0 0 0 
0 0 0 -1 0 0 0 0 0 
0 0 0 0 0 0 0 0 0 
0 0 0 0 0 0 0 0 0 
0 0 0 0 0 0 0 0 0 
0 0 0 0 0 0 0 0 0 
0 0 0 0 0 0 0 0 0 
0 0 0 0 0 0 0 -1 0 
0 0 0 0 -1 0 0 0 0 
0 0 0 -1 0 0 0 0 0 
0 0 0 0 0 0 0 0 0 
0 0 0 0 0 0 0 0 0 
0 0 0 0 0 0 -1 0 0 
0 0 0 0 0 0 0 0 0 
0 0 0 0 0 0 0 0 0 
0 0 0 0 0 0 0 0 0 
0 0 0 -1 0 0 0 0 0 
0 0 0 0 0 0 0 0 0 
0 0 0 0 0 0 0 0 0 
0 0 0 0 0 0 0 0 0 
0 0 0 0 0 0 0 0 0 
0 0 0 0 0 0 0 0 0 
0 0 0 0 0 0 0 0 0 
0 0 0 0 0 0 0 0 0 
0 0 0 0 0 0 0 0 0 
0 0 0 0 0 0 0 0 0 
0 0 0 0 0 0 0 0 0 
0 0 0 0 0 0 0 0 0 
0 0 0 0 0 0 0 0 0 
0 0 0 0 0 0 0 0 0 
0 0 0 0 0 0 0 0 0 
0 0 0 0 0 0 0 0 0 
0 0 0 0 0 0 0 0 0 
0 0 0 0 0 0 0 0 0 
0 0 0 0 0 0 0 0 0 
0 0 0 0 0 0 0 0 0 
0 0 0 0 0 0 0 0 0 
0 0 0 0 0 0 0 0 0 
0 0 0 0 0 0 0 0 0 
0 0 0 0 0 0 0 0 0 
0 0 0 0 0 0 0 0 0 
0 0 0 0 0 0 0 0 0 
0 0 0 0 0 0 0 0 0 
0 0 0 0 0 0 0 0 0 
0 0 0 0 0 0 0 0 0 
0 0 0 0 0 0 0 0 0 
0 0 0 0 0 0 0 -1 0 
0 0 0 0 0 0 0 0 0 
1 0 0 0 0 0 0 0 0 
0 0 0 0 0 0 0 0 0 
0 0 0 0 0 0 0 1 0 
0 0 0 0 0 0 0 0 0 
0 0 0 0 0 0 0 0 0 
0 0 0 0 0 0 0 0 0 
0 0 0 0 0 0 0 0 0 
0 0 0 0 0 0 0 0 0 
0 0 0 0 0 0 0 0 0 
0 0 0 0 0 0 0 0 0 
0 0 0 0 0 0 -1 0 0 
0 0 0 0 0 0 0 0 0 
0 0 0 0 0 0 0 0 0 
0 0 0 0 0 0 0 0 0 
0 0 0 0 0 0 0 0 0 
0 0 0 0 0 0 0 0 0 
0 0 0 0 0 0 0 0 0 
0 0 0 0 0 0 0 0 0 
0 0 0 0 0 0 0 0 0 
0 0 0 0 0 0 0 0 0 
0 0 0 0 0 0 0 0 0 
0 0 0 0 0 0 0 0 0 
0 0 0 0 0 0 0 0 0 
0 0 0 0 0 0 0 0 0 
0 0 0 0 0 0 0 0 0 
0 0 0 0 0 0 0 0 0 
0 0 0 0 0 0 0 0 0 
0 0 0 0 0 0 0 0 0 
0 0 0 0 0 0 0 0 0 
0 0 0 0 0 0 0 0 0 
0 0 0 0 0 0 0 0 0 
0 0 0 0 0 0 0 0 0 
0 0 0 0 0 0 0 0 0 
0 0 0 0 0 0 0 0 0 
0 0 0 0 0 0 0 0 0 
0 0 0 0 0 0 0 0 0 
0 0 0 0 0 0 0 0 0 
0 0 0 0 0 0 0 0 0 
0 0 0 0 0 0 0 0 0 
0 0 0 0 0 0 0 0 0 
0 0 0 0 0 0 0 0 0 
0 0 0 0 0 0 0 0 0 
0 0 0 0 0 0 0 0 0 
0 0 0 0 0 0 0 0 0 
0 0 0 0 0 0 0 0 0 
0 0 0 0 0 0 0 0 0 
0 0 0 0 0 0 0 0 0 
0 0 0 0 0 0 0 0 0 
0 0 0 0 0 0 0 0 0 
0 0 0 0 0 0 0 0 0 
0 0 0 0 0 0 0 0 0 
0 0 0 0 0 0 0 0 0 
0 0 0 0 0 0 0 0 0 
0 0 0 0 0 0 0 0 0 
0 0 0 0 0 0 0 0 0 
0 0 0 0 0 0 0 0 0 
0 0 0 0 0 0 0 0 0 
0 0 0 0 0 0 0 0 0 
0 0 0 0 0 0 0 0 0 
0 0 0 0 0 0 0 0 0 
0 0 0 0 0 0 0 0 0 
0 0 0 0 0 0 0 0 0 
0 0 0 0 0 0 0 0 0 
0 0 0 0 0 0 0 0 0 
0 0 0 0 0 0 0 0 0 
0 0 0 0 0 0 0 0 0 
0 0 0 0 0 0 0 0 0 
0 0 0 0 0 0 0 0 0 
0 0 0 0 0 0 0 0 0 
0 0 0 0 0 0 0 0 0 
0 0 0 0 0 0 0 0 0 
0 0 0 0 0 0 0 0 0 
0 0 0 0 0 0 0 0 0 
0 0 0 0 0 0 0 0 0 
0 0 0 0 0 0 0 0 0 
0 0 0 0 0 0 0 0 0 
0 0 0 0 0 0 0 0 0 
0 0 0 0 0 0 0 0 0 
0 0 0 0 0 0 0 0 0 
0 0 0 0 0 0 0 0 0 
0 0 0 0 0 0 0 0 0 
0 0 0 0 0 0 0 0 0 
0 0 0 0 0 0 0 0 0 
0 0 0 0 0 0 0 0 0 
0 0 0 0 0 0 0 0 0 
0 0 0 0 0 0 0 0 0 
0 0 0 0 0 0 0 0 0 
0 0 0 0 0 0 0 0 0 
0 0 0 0 0 0 0 0 0 
0 0 0 0 0 0 0 0 0 
0 0 0 0 0 0 0 0 0 
0 0 0 0 0 0 0 0 0 
0 0 0 0 0 0 0 0 0 
0 0 0 0 0 0 0 0 0 
0 0 0 0 0 0 0 0 0 
0 0 0 0 0 0 0 0 0 
0 0 0 0 0 0 0 0 0 
0 0 0 0 0 0 0 0 0 
0 0 0 0 0 0 0 0 0 
0 0 0 0 0 0 0 0 0 
0 0 0 0 0 0 0 0 0 
0 0 0 0 0 0 0 0 0 
0 0 0 0 0 0 0 0 0 
0 0 0 0 0 0 0 0 0 
1 0 0 0 0 0 0 0 0 
0 0 0 0 0 0 0 0 0 
0 0 0 0 0 0 0 0 0 
0 0 0 0 0 0 0 0 0 
0 0 0 0 0 0 0 0 0 
0 0 0 0 0 0 0 0 0 
0 0 0 0 0 0 0 0 0 
0 0 0 0 0 0 0 0 0 
0 -1 0 0 0 0 0 0 0 
0 0 0 0 0 0 0 0 0 
0 0 0 0 0 0 0 0 0 
0 0 0 -1 0 0 0 0 0 
0 0 0 0 0 0 0 0 0 
0 1 0 0 0 0 0 0 0 
0 0 0 0 0 0 0 0 0 
0 0 0 0 0 0 0 0 0 
0 0 0 0 0 0 0 0 0 
0 0 0 0 0 0 0 0 0 
0 0 0 0 0 0 0 0 0 
0 0 0 0 0 0 0 0 0 
0 0 0 0 0 0 0 0 0 
0 0 0 0 0 0 0 0 0 
0 0 0 0 0 0 0 0 0 
0 0 0 0 0 0 0 0 0 
0 0 0 0 0 0 0 0 0 
0 0 0 0 0 0 0 0 0 
0 0 0 0 0 0 1 0 0 
0 0 0 0 0 0 0 0 0 
0 0 0 0 0 0 0 0 0 
0 0 0 0 0 0 0 0 0 
0 0 0 0 0 0 0 0 0 
0 0 0 0 0 0 0 0 0 
0 0 0 0 0 0 0 0 0 
0 0 0 0 0 0 0 0 0 
0 0 0 0 0 0 0 0 0 
0 0 0 0 0 0 0 0 0 
0 0 0 0 0 0 0 0 0 
0 0 0 0 0 0 0 0 0 
0 0 0 0 0 0 0 0 0 
0 0 0 0 0 0 0 0 0 
0 0 0 0 0 0 0 0 0 
0 0 0 0 0 0 0 0 0 
0 0 0 0 0 0 0 0 0 
0 0 0 0 0 0 0 0 0 
0 0 0 0 0 0 0 0 0 
0 0 0 0 0 0 0 0 0 
0 0 0 0 0 0 1 0 0 
0 0 0 0 0 0 0 0 0 
0 0 0 0 0 0 0 0 0 
0 0 0 0 0 0 0 0 0 
0 0 0 0 -1 0 0 0 0 
0 0 0 0 0 0 0 0 0 
0 0 0 0 0 0 0 0 0 
0 0 0 0 0 0 0 0 0 
0 0 0 0 0 0 0 0 0 
0 0 0 0 0 0 0 0 0 
0 0 0 0 0 0 0 0 0 
0 0 0 0 0 0 0 0 0 
0 0 0 1 0 0 0 0 0 
0 0 0 0 0 0 0 0 0 
0 0 0 0 0 0 0 0 0 
0 0 0 0 0 0 0 0 0 
0 0 0 0 0 0 0 0 0 
0 0 0 0 0 0 0 0 0 
0 0 0 0 0 0 0 0 0 
0 0 0 0 0 0 0 0 0 
0 0 0 0 0 0 0 0 0 
0 0 0 0 0 0 0 0 0 
0 0 0 0 0 0 0 0 0 
0 0 0 0 0 0 0 0 0 
0 0 0 1 0 0 0 0 0 
0 0 0 0 0 0 0 0 0 
0 0 0 0 0 0 0 0 0 
0 0 0 0 0 0 0 0 0 
0 0 0 0 0 0 0 0 0 
0 0 0 0 0 0 0 0 0 
0 0 0 0 0 0 0 0 0 
0 0 0 0 0 0 0 0 0 
0 0 0 0 0 0 0 0 0 
0 0 0 0 0 0 0 0 0 
0 0 0 0 0 0 0 0 0 
0 0 0 0 0 0 0 0 0 
0 0 0 0 0 0 0 0 0 
0 0 0 0 0 0 0 0 0 
0 0 0 0 0 0 0 0 0 
0 0 0 0 0 0 0 0 0 
0 0 0 1 0 0 0 0 0 
0 0 0 0 -1 0 0 0 0 
0 0 0 0 0 0 0 0 0 
0 0 0 0 1 0 0 0 0 
0 0 0 0 0 0 0 0 0 
0 0 0 0 0 0 0 0 0 
0 0 0 0 0 0 0 0 0 
-1 0 0 0 0 0 0 0 0 
0 0 0 0 0 0 0 0 0 
0 0 0 0 0 0 0 0 0 
0 0 0 0 0 0 0 0 0 
0 0 0 0 0 0 0 0 0 
0 0 0 0 0 0 0 0 0 
0 0 0 0 0 0 0 0 0 
0 0 0 0 0 0 0 0 0 
0 0 0 0 0 0 0 0 0 
0 0 0 0 0 0 0 0 0 
0 0 0 0 0 0 0 0 0 
0 0 0 0 0 0 0 0 0 
0 0 0 0 0 0 0 0 0 
0 0 0 0 0 0 0 0 0 
0 0 0 0 0 0 0 0 0 
0 0 0 0 0 0 0 0 0 
0 0 0 0 0 0 0 0 0 
0 0 0 0 0 0 0 0 0 
0 0 0 0 0 0 0 0 0 
0 0 0 0 0 0 0 0 0 
0 0 0 0 0 0 0 0 0 
0 0 0 0 0 0 0 0 0 
0 0 0 0 0 0 0 0 0 
0 0 0 0 0 0 0 0 0 
0 0 0 0 0 0 0 0 0 
0 0 0 0 0 0 0 0 0 
0 0 0 0 0 0 0 0 0 
0 0 0 0 0 0 0 0 0 
0 0 0 0 0 0 0 0 0 
0 0 0 0 0 0 0 0 0 
0 0 0 0 0 0 0 0 0 
0 0 0 0 0 0 0 0 0 
0 0 0 0 0 0 0 0 0 
0 -1 0 0 0 0 0 0 0 
0 0 0 0 0 0 0 0 0 
0 0 0 0 0 0 0 0 0 
0 0 0 0 0 0 0 0 0 
0 0 0 0 0 0 0 0 0 
0 0 0 0 0 0 0 0 0 
0 0 0 0 0 0 0 0 0 
0 0 0 0 0 0 0 0 0 
0 0 0 0 0 0 0 0 0 
0 0 0 0 0 0 0 0 0 
0 0 0 0 0 0 0 0 0 
0 0 0 0 0 0 0 0 0 
0 0 0 0 0 0 0 0 0 
0 0 0 0 0 0 0 0 0 
0 0 0 0 0 0 0 0 0 
0 0 0 0 0 0 0 0 0 
0 0 0 0 0 0 0 0 0 
0 0 0 0 0 0 0 0 0 
0 0 0 0 0 0 -1 0 0 
0 0 0 0 0 0 0 0 0 
0 0 0 0 0 0 0 0 0 
0 0 0 0 0 0 0 0 0 
0 0 0 0 0 0 0 0 0 
0 0 0 0 0 0 0 0 0 
0 0 0 0 0 0 0 0 0 
0 0 0 0 0 0 0 0 0 
0 0 0 0 0 0 0 0 0 
0 0 0 0 0 0 0 0 0 
0 0 0 0 0 0 0 0 0 
0 0 0 0 0 0 0 0 0 
0 0 0 0 0 0 0 0 0 
0 0 0 0 0 0 0 0 0 
0 0 0 0 0 0 0 0 0 
0 0 0 0 0 0 0 0 0 
0 0 0 0 0 0 0 0 0 
0 0 0 0 0 0 0 0 0 
0 0 0 0 0 0 0 0 0 
0 0 0 0 0 0 0 0 0 
0 0 0 0 0 0 0 0 0 
0 0 0 0 0 0 0 0 0 
0 0 0 0 0 0 0 0 0 
0 0 0 0 0 0 0 0 0 
0 0 0 0 0 0 0 0 0 
0 0 0 0 0 0 0 0 0 
0 0 0 0 0 0 0 0 0 
0 0 0 0 0 0 0 0 0 
0 0 0 0 0 0 0 0 0 
0 0 0 0 0 0 0 0 0 
0 0 0 0 0 0 0 0 0 
0 0 0 0 0 0 0 0 0 
0 0 0 0 0 0 0 0 0 
0 0 0 0 0 0 0 0 0 
0 0 0 0 0 0 0 0 0 
0 0 0 0 0 0 0 0 0 
0 0 0 0 0 0 0 0 0 
0 0 0 0 0 0 0 0 0 
0 0 0 0 0 0 0 0 0 
0 0 0 0 0 0 0 0 0 
0 0 0 0 0 0 0 0 0 
0 0 0 0 0 0 0 0 0 
0 0 0 0 0 0 0 0 0 
0 0 0 0 0 0 0 0 0 
0 0 0 0 0 0 0 0 0 
0 0 0 0 0 0 0 0 0 
0 0 0 0 0 0 0 0 0 
0 0 0 0 0 0 0 0 0 
0 0 0 0 0 0 0 0 0 
0 0 0 0 0 0 0 0 0 
0 0 0 0 0 0 0 0 0 
0 0 0 0 0 0 0 0 0 
0 0 0 0 0 0 0 0 0 
0 0 0 0 0 0 0 0 0 
0 0 0 0 0 0 0 0 0 
0 0 0 0 0 0 0 0 0 
0 0 0 0 0 0 0 0 0 
0 0 0 0 0 0 0 0 0 
0 0 0 0 0 0 0 0 0 
0 0 0 0 0 0 0 0 0 
0 0 0 0 0 0 0 0 0 
0 0 0 0 0 0 0 0 0 
0 0 0 0 0 0 0 0 0 
0 0 0 0 0 0 0 0 0 
0 0 0 0 0 0 0 0 0 
0 0 0 0 0 0 0 0 0 
0 0 0 0 0 0 0 0 0 
0 0 0 0 0 0 0 0 0 
0 0 0 0 0 0 0 0 0 
0 0 0 0 0 0 0 0 0 
0 0 0 0 0 0 0 0 0 
0 0 0 0 0 0 
v 3 1400 double
3.16187e-05 -1.85055e-05 1.71451e-06 5.20376e-05 1.31329e-05 2.07429e-06 -2.18173e-05 -1.17174e-06 1.14695e-08 
2.35841e-05 1.86185e-06 1.20641e-05 2.48941e-05 -2.95381e-06 5.36467e-06 2.10475e-05 2.81098e-05 4.02725e-06 
-1.83064e-05 1.19721e-05 1.36111e-06 -1.68286e-05 1.74119e-05 -1.4491e-06 -2.74721e-06 4.26824e-05 -1.08497e-05 
7.54891e-06 4.05473e-05 -9.59937e-06 7.18508e-06 -6.96382e-06 -1.78445e-06 3.40067e-05 2.09915e-05 1.3236e-05 
1.79456e-06 7.15206e-07 1.62678e-05 -5.3603e-05 0.000116943 -4.00632e-07 5.53479e-06 -2.43975e-05 1.10641e-06 
-9.13036e-06 1.11772e-05 -1.85688e-06 4.26142e-06 8.68154e-06 5.54144e-06 4.36139e-06 3.51532e-05 -2.04845e-15 
1.05736e-05 4.22514e-05 -5.21993e-07 7.15657e-06 -2.23366e-06 -6.15698e-06 -1.13791e-05 -3.27283e-06 7.39327e-06 
9.70712e-06 1.21003e-05 3.20143e-05 2.39264e-05 -7.26379e-06 5.07316e-06 -2.13803e-05 0.000103979 5.05648e-06 
1.32901e-05 -2.289e-05 1.43146e-05 3.51616e-06 5.04376e-06 1.28263e-06 4.94499e-06 4.82344e-06 -6.32127e-06 
-1.95935e-07 -1.11805e-05 -1.88073e-06 -1.47063e-05 1.47537e-06 3.54959e-06 -7.81543e-06 9.46231e-06 1.40294e-05 
1.22838e-05 -1.64561e-06 2.72683e-06 1.43396e-05 -1.44668e-05 8.65678e-07 -8.25863e-06 9.08043e-06 -3.36338e-06 
-6.27182e-05 -1.54953e-05 -7.45267e-06 -1.50991e-05 -4.20179e-07 4.10984e-06 6.7077e-06 1.53489e-05 4.0208e-06 
-1.32716e-05 -1.62105e-07 -2.84607e-06 -6.42962e-06 -2.06447e-06 -1.34791e-05 1.41795e-06 -9.17509e-06 1.71725e-06 
7.22442e-06 -2.44398e-06 6.23319e-06 2.55263e-05 2.6378e-05 -1.12441e-05 -6.17202e-05 -1.41458e-05 1.02761e-06 
-3.80381e-05 -1.53466e-05 -3.21733e-06 -3.41194e-06 6.28764e-06 6.2644e-07 -3.90526e-05 -5.58198e-06 1.85234e-14 
7.65663e-07 1.1374e-05 4.45875e-06 6.27878e-06 -8.6291e-06 8.5401e-06 3.4247e-06 -5.13463e-06 9.03148e-06 
4.90662e-06 -1.34865e-05 4.78274e-06 3.91444e-06 1.83798e-06 4.1221e-06 5.4124e-06 1.48837e-05 -1.09084e-06 
1.19734e-05 1.3502e-05 2.04364e-06 6.32535e-06 3.75663e-05 3.01379e-06 -1.72642e-05 5.15011e-06 6.04015e-06 