# vtk DataFile Version 4.0
Generated by LIGGGHTS
ASCII
DATASET POLYDATA
POINTS 1400 float
-4.94844 -4.20495 0.499998 -2.87699 -4.09234 0.499997 -1.87049 -4.14755 0.499997 
-0.825553 -4.61977 0.499945 0.119658 -4.94666 0.499957 1.18824 -4.07131 0.499979 
1.59226 -4.98623 0.499985 2.38482 -4.45148 0.792972 3.24367 -4.87161 0.499982 
-4.38903 -3.38496 0.621089 -3.40647 -3.24403 0.49997 -2.36296 -3.23195 0.499997 
-0.992472 -3.63385 0.499982 0.218418 -3.7842 0.499998 1.31847 -3.07331 0.499959 
2.86254 -3.62329 0.499969 3.65457 -3.01287 0.499944 4.07473 -3.99094 0.500045 
4.64258 -3.16702 0.499979 -3.97252 -2.40681 0.499978 -2.9263 -2.36691 0.499932 
-1.48914 -2.8105 0.77445 -0.904473 -2.03437 0.49993 -0.312862 -2.88765 0.499974 
0.619599 -2.3581 0.499971 2.33492 -2.6202 0.499949 3.2026 -2.12078 0.499975 
-4.7421 -1.76825 0.499997 -3.4812 -1.54991 0.656381 -1.97345 -1.97984 0.499958 
-0.689894 -1.05774 0.499988 0.263895 -1.42354 0.49997 1.29486 -1.55262 0.499999 
2.97489 -1.14706 0.499992 2.23635 -1.70182 0.88304 4.25775 -1.77197 0.499984 
-4.07847 -0.763329 0.499943 -3.07891 -0.64658 0.507728 -2.00568 -0.961803 0.499992 
-0.750639 -0.0635819 0.588343 0.958682 -0.609671 0.499997 1.98668 -0.812549 0.499941 
2.75436 -0.171731 0.499942 3.92314 -0.82964 0.49998 4.92301 -0.816939 0.500097 
-4.70267 0.11312 0.499992 -3.70399 0.164193 0.49993 -2.71117 0.283278 0.499967 
-1.74132 0.0397344 0.49998 0.157014 0.34656 0.499904 1.15666 0.372022 0.499969 
2.10782 0.547967 0.753467 3.01858 0.873905 0.499963 3.70425 0.146065 0.499985 
4.5142 0.737539 0.499931 -4.31583 1.17322 0.499997 -3.32356 1.01836 0.858626 
-3.39182 1.94933 0.499996 -2.4189 1.24826 0.49995 -1.45025 1.49661 0.499958 
-0.503336 1.13329 0.499972 0.479991 1.31501 0.499989 1.43478 1.28635 0.795854 
2.3353 1.60491 0.49997 3.81637 1.54666 0.499971 -4.36036 2.20368 0.500005 
-3.63897 2.91843 0.499969 -2.40088 2.24815 0.499962 -1.47896 2.42815 0.862541 
-0.596359 2.12893 0.499995 0.292425 2.59126 0.499997 1.21978 2.2171 0.500107 
2.14742 2.5908 0.499927 3.1205 2.35022 0.499956 4.60956 2.15557 0.499972 
4.05173 2.98711 0.499997 -4.23849 3.81613 0.499996 -4.90042 3.06641 0.499997 
-3.23905 3.83384 0.545133 -1.3089 3.35931 0.499995 -0.309343 3.38994 0.499996 
1.56503 3.40586 0.499968 2.56308 3.50036 0.499993 3.65653 3.95201 0.499997 
4.70041 3.98334 0.499993 -4.74518 4.81568 0.499986 -3.75306 4.69042 0.499981 
-2.7644 4.91402 0.499963 -2.26103 4.0374 0.499983 -1.67017 4.84434 0.499985 
-0.862841 4.25427 0.499968 0.851948 4.34153 0.499937 2.4541 4.50555 0.499997 
4.20608 4.8569 0.499932 -4.38273 -4.59836 1.22471 -3.35849 -4.75665 1.23383 
-2.19022 -4.74755 1.25028 -1.28322 -4.33637 1.34263 -0.218314 -4.30812 1.23129 
0.759138 -4.75436 1.24425 1.55514 -4.17691 1.42537 2.50803 -4.04411 1.69791 
2.93942 -4.9723 1.44722 3.38082 -4.096 1.21262 3.94507 -4.66013 1.81538 
4.57777 -4.03127 1.36345 -4.60563 -3.51732 1.62673 -3.74011 -3.83234 1.23651 
-2.78385 -3.97917 1.48934 -1.91067 -3.51265 1.3485 -0.923529 -3.41247 1.47269 
0.825036 -3.51682 1.2487 1.54726 -3.01988 1.83256 2.07263 -3.39835 1.07052 
3.91029 -3.30393 1.52411 -4.85675 -2.64853 1.19319 -4.45202 -2.1006 1.92587 
-3.89739 -2.84681 1.3948 -2.89082 -2.95603 1.30709 -1.8205 -2.28696 1.55943 
-0.834835 -2.41786 1.42075 0.214137 -2.72987 1.33503 0.742764 -2.07175 1.87146 
1.38613 -2.31187 1.14459 2.23729 -2.31382 1.67383 2.98671 -2.84356 1.22467 
3.87414 -2.35261 1.21808 -4.2685 -1.35917 1.28022 -3.50822 -1.87659 1.67289 
-2.61423 -1.76878 1.23803 -2.61256 -1.01028 1.88962 -1.41951 -1.4528 1.14443 
-0.0948047 -1.74637 1.37581 0.718139 -1.16405 1.35614 1.69501 -1.20989 1.56503 
3.06398 -1.80308 1.43795 3.93583 -1.31773 1.37266 4.85452 -1.39958 1.75897 
-4.46294 -0.376797 1.33818 -3.29787 -0.347936 1.51804 -2.34999 -0.335779 1.19965 
-1.37105 -0.245977 1.38386 -0.656562 -0.931043 1.52608 0.052825 -0.548001 0.93446 
0.138988 -0.477896 1.92825 1.59197 -0.206077 1.19008 2.51731 -0.686005 1.33802 
3.67307 -0.212966 1.61747 4.49628 -0.0880914 1.06374 -4.87486 0.658532 1.32028 
-3.90464 0.44677 1.43788 -2.18897 0.648587 1.27049 -1.21522 0.693549 1.04749 
-0.586754 0.242859 1.76584 0.0196329 0.901571 1.3202 0.66223 0.135368 1.3366 
1.44351 0.633481 1.71261 2.87769 0.332966 1.35431 3.72173 0.849562 1.21062 
4.33573 0.477767 1.90691 -4.61255 1.90401 1.42013 -3.62259 1.76771 1.45595 
-2.12987 1.74313 1.31938 -2.85088 1.21192 1.76494 -1.55979 1.13758 1.87454 
-0.876182 1.60238 1.31185 0.0741344 1.89513 1.20619 1.22116 1.93355 1.52764 
2.30676 1.12134 1.58332 3.07539 1.61165 1.17256 4.52401 1.44904 1.20247 
-4.26996 2.83401 1.27111 -3.0071 2.60696 1.20967 -1.52435 2.32027 1.86728 
-0.509284 2.77199 1.26081 0.562331 2.68404 1.57932 1.55997 2.85422 1.334 
2.21288 2.09252 1.36437 3.06206 2.38917 1.80117 3.84269 2.27251 1.18726 
4.74686 2.66846 1.34733 -4.8443 3.50226 1.77374 -3.54927 3.5068 1.43803 
-2.188 3.13108 0.91833 -2.60187 3.48469 1.75713 -1.36645 3.23295 1.49045 
-0.852387 3.9986 1.88209 -0.000117999 3.50018 1.71955 0.71299 3.49639 1.01602 
1.94153 3.91485 1.274 2.43378 3.16184 1.7106 3.27442 3.10775 1.1343 
4.27794 3.55069 1.29643 -4.48418 4.32291 1.33008 -3.60103 4.44384 1.7833 
-2.69305 4.39393 1.35104 -1.59848 4.17196 1.23678 -1.50888 4.88672 1.93036 
-0.722338 4.81345 1.31726 -0.000319172 4.1973 1.00268 0.188358 4.67672 1.85972 
1.04597 4.3173 1.48059 1.94744 4.90286 1.42816 2.95626 4.05017 1.23716 
3.86204 4.45852 1.35017 4.73463 4.94709 1.34392 -4.88427 -4.50225 2.08654 
-4.45661 -4.79355 2.94237 -3.84216 -4.447 2.05243 -2.78778 -4.89126 2.04387 
-2.75644 -4.10494 2.66086 -1.95606 -4.23057 2.07476 -0.583159 -4.63324 2.13852 
0.379664 -4.36766 2.08471 1.25909 -4.84476 2.1082 2.92389 -4.63556 2.38868 
2.10966 -4.10026 2.61343 4.27051 -4.87954 2.73511 -4.38324 -3.78609 2.57236 
-3.5307 -3.42357 2.12477 -2.47018 -3.29548 2.14831 -1.07188 -3.7961 2.38412 
-1.90065 -3.60463 2.90984 -0.019486 -3.8856 2.86964 -0.0518265 -3.47444 1.95867 
-0.621347 -3.08591 2.92512 1.1994 -3.83514 2.29542 1.88831 -3.14214 2.79551 
2.61057 -3.13598 2.1039 3.58731 -3.87626 2.32283 3.14013 -3.23502 2.94638 
4.57021 -3.69281 2.30441 -4.82031 -2.90487 2.3924 -3.7868 -2.54429 2.52639 
-2.70508 -2.32729 2.06251 -2.07791 -2.62814 2.78137 -1.27888 -2.8322 2.21518 
-1.23281 -2.11752 2.9395 -0.183403 -2.51845 2.22787 0.70317 -2.96016 2.36534 
0.714457 -2.12209 2.91067 1.58318 -2.21392 2.42364 3.38405 -2.50276 2.07666 
4.48674 -2.29596 2.0064 4.07265 -2.90953 2.67882 -4.76014 -1.62853 2.76431 
-3.45399 -1.18931 2.39936 -2.14723 -1.64209 2.53076 -0.806172 -1.7138 2.13022 
-0.239918 -1.82573 2.9468 0.435677 -1.29539 2.42182 1.58809 -1.22323 2.55923 
2.73162 -1.80889 2.38138 4.15239 -1.09022 2.40058 4.29987 -1.93251 2.91905 
-4.38792 -0.903454 2.18498 -3.26944 -0.23844 2.64793 -2.32533 -0.687716 2.79149 
-1.59131 -0.990223 2.01439 -0.337973 -0.0427578 2.69188 -0.718578 -0.962794 2.78459 
0.587067 -0.374197 2.87726 1.18711 -0.421212 2.07873 1.72124 -0.298285 2.91515 
2.12458 -0.0767477 2.02688 2.67815 -0.522936 2.73127 3.18884 -0.993856 2.01199 
3.7129 -0.307265 2.84577 4.76104 -0.425912 1.96687 4.90462 -0.683199 2.92245 
-4.4245 0.0977779 2.21751 -4.92507 0.946983 2.39059 -3.68064 0.887731 2.30694 
-2.06098 0.0629521 2.07109 -2.75298 0.61339 2.56031 -1.13217 0.551101 2.56242 
0.883043 0.516584 2.53248 2.31744 0.771521 2.52005 3.2 0.355799 2.3006 
3.92182 0.918547 2.70338 -4.26626 1.69779 2.33541 -3.27807 1.79018 2.46001 
-2.24377 1.50647 2.50382 -1.24793 1.7214 2.62402 -0.484223 1.18281 2.13688 
0.581621 1.32665 2.02963 0.0528805 1.73772 2.77215 1.59211 1.42538 2.30487 
3.19928 1.34064 2.12715 4.13993 1.68222 2.09577 -4.67055 2.59477 2.15672 
-3.6219 2.60784 1.99832 -2.50192 2.42059 2.05238 -1.59973 2.63828 2.81234 
-0.554278 2.17765 2.06376 0.0979941 2.82787 2.45322 0.872929 2.19644 2.42775 
1.83383 2.39763 2.23791 2.70205 2.4105 2.73386 3.68959 2.4333 2.57844 
4.8279 2.23083 2.94165 -4.00925 3.46988 2.32515 -4.83956 3.29163 2.85369 
-3.12176 3.88815 2.51871 -2.42533 3.1904 2.69637 -0.854707 3.11015 2.34095 
0.400155 3.95256 2.51679 1.07213 3.44821 1.97451 1.80829 3.31379 2.63782 
2.80312 3.41049 2.60697 3.52558 3.62781 1.95063 4.34921 3.06671 2.17391 
4.13586 3.89103 2.69825 -4.45132 4.21315 2.8272 -3.51378 4.85622 2.69011 
-2.24759 4.2857 2.23974 -1.37702 4.30292 2.73144 -0.405856 4.52838 2.65396 
0.543226 4.91772 2.76477 1.59286 4.23498 2.31371 1.76406 4.98433 2.95431 
2.56955 4.3231 2.11804 3.52302 4.569 2.2924 4.8259 4.36766 2.1537 
-4.85553 -4.85112 3.85899 -3.65001 -4.22234 3.09405 -2.83155 -4.11082 3.65795 
-2.24576 -4.88022 3.91263 -1.84404 -4.62071 2.98885 -0.820714 -4.44754 3.09995 
0.0653423 -4.6381 3.52271 0.908745 -4.23945 3.16258 1.99034 -4.64492 3.8554 
3.49757 -4.42173 3.1793 4.80829 -4.15172 3.16054 -4.05047 -3.36196 3.41454 
-3.13838 -3.2344 3.02491 -2.3939 -3.13526 3.6851 -1.85467 -3.96259 3.84236 
-0.540426 -3.70429 3.70773 0.450875 -3.61252 3.80359 1.64901 -3.67022 3.70192 
2.59416 -3.89397 3.46379 4.93711 -3.24938 3.57183 4.01396 -3.59548 3.40458 
-4.50426 -2.4872 3.24483 -3.5934 -2.53704 3.74709 -2.97325 -2.23817 3.02176 
-2.16556 -2.01745 3.56851 -1.43537 -2.93195 3.48515 0.105905 -2.67801 3.47722 
1.04384 -2.97958 3.30585 1.9848 -2.72829 3.7012 1.15606 -2.1227 3.809 
2.99323 -2.77633 3.82304 3.36609 -2.26621 3.04805 4.08869 -2.62607 3.6382 
-4.71438 -1.10763 3.74381 -3.83855 -1.74945 3.1331 -3.73926 -1.18396 3.95185 
-2.98898 -1.24577 3.28957 -1.60744 -1.24258 3.2717 -0.712136 -1.3669 3.6994 
0.904529 -1.22186 3.30222 0.227263 -1.73774 3.82672 1.84065 -1.02396 3.59273 
2.14252 -1.88604 3.18572 2.95931 -1.70957 3.77237 3.34369 -1.27036 2.96041 
4.54734 -1.76936 3.87406 -4.02629 -0.724498 3.10018 -3.44767 -0.232004 3.85831 
-1.43034 -0.295473 3.00377 -1.70826 -0.107571 3.9458 -0.1447 -0.559861 3.53319 
2.26624 -0.134632 3.75973 3.13769 -0.620277 3.69175 3.9258 -0.0288483 3.86198 
4.12741 -0.944648 3.49529 -4.48651 0.166692 3.21314 -3.51462 0.544071 3.23124 
-2.61021 0.0575842 3.3943 -1.93701 0.745637 3.12309 -1.41258 0.998131 3.93624 
[...]
POINT_DATA 1400
FIELD FieldData 7
id 1 1400 int
48 62 69 126 50 115 30 89 31 
120 60 12 7 23 28 51 64 29 
24 49 79 129 104 11 56 59 14 
20 99 45 1 18 22 78 82 109 
27 15 19 105 26 4 86 43 67 
54 65 37 80 16 35 110 2 114 
46 33 108 3 71 21 42 55 119 
53 97 52 94 8 84 25 13 6 
63 47 36 41 9 81 87 40 34 
44 5 76 38 58 57 17 10 88 
32 39 72 112 161 165 151 214 77 
106 168 213 198 136 231 123 166 127 
284 210 220 100 157 93 197 103 212 
194 172 174 132 83 180 102 160 70 
135 164 217 155 191 61 85 150 207 
159 66 196 139 258 117 169 147 98 
227 91 158 309 130 101 167 143 73 
125 113 124 171 215 137 193 68 153 
133 190 187 146 74 131 186 163 128 
134 142 203 122 173 154 138 175 95 
211 162 222 118 185 121 206 144 96 
116 235 92 170 107 178 152 111 267 
141 90 148 75 156 149 192 145 260 
291 189 263 321 244 195 199 221 316 
322 336 333 280 266 281 348 255 140 
303 253 318 245 233 319 205 262 272 
225 312 248 324 249 289 298 228 247 
223 282 234 274 283 204 254 285 279 
241 313 302 224 359 264 184 188 257 
230 177 355 181 269 179 369 270 295 
208 271 265 216 250 277 238 273 256 
331 176 326 259 232 226 218 311 239 
261 236 219 243 183 315 200 276 240 
201 297 293 379 252 296 325 314 182 
237 209 275 327 242 278 306 292 376 
229 328 290 320 268 398 202 332 251 
431 349 404 484 380 310 377 343 428 
341 346 422 350 448 455 371 399 405 
339 389 344 288 400 375 384 420 330 
342 433 402 432 287 356 503 335 442 
323 360 419 329 378 440 305 391 354 
453 368 415 317 474 337 407 383 470 
401 373 338 358 308 414 361 301 421 
387 334 424 435 304 429 372 299 393 
347 294 340 412 367 300 352 418 489 
353 461 374 403 366 246 362 286 459 
430 388 406 390 381 345 445 423 392 
357 413 385 425 363 382 416 397 410 
307 364 365 351 386 477 468 558 542 
513 426 446 443 478 516 539 457 514 
396 501 456 553 500 492 557 465 482 
505 481 518 507 544 460 411 529 555 
488 417 370 458 595 548 439 490 528 
462 498 472 556 510 549 471 427 515 
535 434 506 550 534 444 408 537 525 
493 614 541 499 522 552 437 480 475 
554 469 601 509 463 521 449 609 512 
452 524 504 450 531 479 617 497 519 
447 543 394 438 454 483 473 546 486 
395 562 545 466 520 523 496 530 487 
532 491 590 409 495 511 436 604 494 
547 451 502 464 441 467 540 615 476 
672 626 616 611 536 576 669 631 572 
608 589 570 709 718 571 648 633 569 
632 588 485 579 649 655 582 533 563 
581 586 618 607 508 634 587 538 670 
665 580 610 564 625 658 568 675 654 
651 719 676 664 594 660 647 527 627 
517 593 561 685 711 573 605 612 600 
596 621 567 641 577 673 591 674 653 
671 560 662 526 599 574 629 551 622 
613 656 584 559 619 598 585 566 583 
714 666 578 639 628 575 663 620 693 
650 657 623 565 652 667 597 606 603 
701 602 592 659 688 804 728 642 741 
643 727 686 680 774 661 822 636 732 
733 750 722 745 699 668 738 696 825 
700 780 703 767 720 697 724 702 717 
752 769 740 775 682 713 698 729 690 
683 766 706 716 772 746 646 739 677 
624 737 743 768 630 710 694 679 759 
773 687 640 762 787 708 761 725 778 
726 635 707 771 721 784 695 637 756 
715 689 644 754 678 786 684 753 785 
779 758 845 691 765 751 730 776 704 
757 731 692 705 723 763 638 681 747 
749 645 899 886 837 807 879 800 831 
798 833 865 851 808 828 735 744 844 
884 832 791 874 764 818 835 777 834 
869 846 849 821 810 836 802 794 770 
742 755 820 823 815 891 795 829 712 
842 788 811 863 873 872 781 734 805 
843 736 806 789 827 809 890 792 783 
841 812 813 782 839 793 803 888 748 
847 801 814 819 877 799 816 852 911 
861 840 796 893 859 953 797 824 830 
826 920 760 850 838 790 817 883 898 
868 986 862 926 951 854 938 880 929 
937 950 941 876 915 903 925 957 934 
897 909 940 881 875 948 943 947 860 
914 998 870 853 905 848 901 856 955 
949 924 878 892 913 921 864 866 942 
928 930 900 896 857 858 946 907 867 
917 954 923 956 922 855 906 910 889 
882 912 908 885 919 1003 931 918 927 
973 944 895 916 983 871 958 904 887 
933 936 894 945 935 902 1005 987 1012 
989 990 969 1010 1014 972 997 995 1000 
968 971 959 978 952 975 1067 961 960 
982 984 1006 981 939 932 1009 966 988 
1007 974 1011 976 967 993 1016 979 1068 
1004 992 977 991 999 985 965 1008 1013 
970 963 980 1002 1001 962 964 994 1015 
996 1024 1041 1030 1026 1066 1034 1065 1025 
1028 1038 1049 1053 1055 1057 1048 1064 1036 
1031 1046 1037 1029 1119 1039 1054 1020 1045 
1027 1058 1043 1032 1021 1071 1076 1023 1022 
1052 1018 1070 1063 1061 1035 1056 1050 1059 
1069 1017 1047 1040 1019 1087 1051 1033 1079 
1060 1042 1062 1044 1098 1104 1099 1074 1127 
1121 1108 1077 1125 1122 1103 1073 1126 1080 
1107 1090 1081 1089 1072 1092 1084 1097 1088 
1118 1101 1086 1128 1100 1112 1095 1110 1117 
1085 1093 1120 1113 1082 1096 1123 1116 1111 
1078 1115 1106 1124 1083 1075 1102 1091 1109 
1094 1114 1105 1130 1129 1170 1156 1147 1146 
1142 1150 1171 1155 1141 1153 1166 1145 1165 
1175 1163 1140 1188 1185 1135 1168 1187 1154 
1184 1182 1180 1158 1217 1133 1139 1179 1162 
1181 1169 1152 1138 1167 1164 1160 1214 1144 
1134 1183 1149 1157 1178 1209 1172 1136 1173 
1186 1131 1137 1132 1159 1234 1151 1177 1176 
1148 1174 1143 1161 1221 1242 1191 1244 1211 
1245 1236 1229 1218 1233 1213 1215 1225 1238 
1202 1222 1206 1198 1197 1201 1192 1226 1224 
1239 1205 1196 1247 1237 1189 1223 1194 1240 
1193 1204 1228 1231 1219 1207 1220 1241 1190 
1203 1227 1216 1195 1200 1232 1246 1210 1208 
1212 1243 1199 1235 1230 1272 1293 1294 1299 
1291 1269 1254 1261 1300 1273 1253 1265 1252 
1281 1301 1262 1282 1302 1287 1285 1297 1255 
1270 1296 1274 1290 1292 1251 1288 1264 1276 
1275 1263 1271 1250 1256 1257 1284 1258 1298 
1267 1248 1359 1249 1286 1266 1278 1268 1289 
1277 1279 1259 1280 1295 1260 1283 1337 1351 
1331 1312 1323 1335 1347 1317 1310 1325 1305 
1320 1353 1339 1348 1315 1343 1303 1346 1334 
1333 1314 1357 1327 1340 1326 1322 1330 1313 
1329 1345 1336 1342 1304 1369 1382 1344 1362 
1399 1374 1308 1392 1363 1365 1364 1354 1328 
1376 1341 1307 1383 1318 1306 1356 1350 1309 
1388 1355 1358 1338 1372 1319 1395 1349 1316 
1332 1352 1324 1397 1377 1400 1311 1321 1394 
1360 1371 1378 1368 1389 1375 1370 1381 1398 
1366 1386 1384 1391 1373 1390 1380 1393 1361 
1379 1387 1396 1367 1385 
type 1 1400 int
1 1 1 1 1 1 1 1 1 
1 1 1 1 1 1 1 1 1 
1 1 1 1 1 1 1 1 1 
1 1 1 1 1 1 1 1 1 
1 1 1 1 1 1 1 1 1 
1 1 1 1 1 1 1 1 1 
1 1 1 1 1 1 1 1 1 
1 1 1 1 1 1 1 1 1 
1 1 1 1 1 1 1 1 1 
1 1 1 1 1 1 1 1 1 
1 1 1 1 1 1 1 1 1 
1 1 1 1 1 1 1 1 1 
1 1 1 1 1 1 1 1 1 
1 1 1 1 1 1 1 1 1 
1 1 1 1 1 1 1 1 1 
1 1 1 1 1 1 1 1 1 
1 1 1 1 1 1 1 1 1 
1 1 1 1 1 1 1 1 1 
1 1 1 1 1 1 1 1 1 
1 1 1 1 1 1 1 1 1 
1 1 1 1 1 1 1 1 1 
1 1 1 1 1 1 1 1 1 
1 1 1 1 1 1 1 1 1 
1 1 1 1 1 1 1 1 1 
1 1 1 1 1 1 1 1 1 
1 1 1 1 1 1 1 1 1 
1 1 1 1 1 1 1 1 1 
1 1 1 1 1 1 1 1 1 
1 1 1 1 1 1 1 1 1 
1 1 1 1 1 1 1 1 1 
1 1 1 1 1 1 1 1 1 
1 1 1 1 1 1 1 1 1 
1 1 1 1 1 1 1 1 1 
1 1 1 1 1 1 1 1 1 
1 1 1 1 1 1 1 1 1 
1 1 1 1 1 1 1 1 1 
1 1 1 1 1 1 1 1 1 
1 1 1 1 1 1 1 1 1 
1 1 1 1 1 1 1 1 1 
1 1 1 1 1 1 1 1 1 
1 1 1 1 1 1 1 1 1 
1 1 1 1 1 1 1 1 1 
1 1 1 1 1 1 1 1 1 
1 1 1 1 1 1 1 1 1 
1 1 1 1 1 1 1 1 1 
1 1 1 1 1 1 1 1 1 
1 1 1 1 1 1 1 1 1 
1 1 1 1 1 1 1 1 1 
1 1 1 1 1 1 1 1 1 
1 1 1 1 1 1 1 1 1 
1 1 1 1 1 1 1 1 1 
1 1 1 1 1 1 1 1 1 
1 1 1 1 1 1 1 1 1 
1 1 1 1 1 1 1 1 1 
1 1 1 1 1 1 1 1 1 
1 1 1 1 1 1 1 1 1 
1 1 1 1 1 1 1 1 1 
1 1 1 1 1 1 1 1 1 
1 1 1 1 1 1 1 1 1 
1 1 1 1 1 1 1 1 1 
1 1 1 1 1 1 1 1 1 
1 1 1 1 1 1 1 1 1 
1 1 1 1 1 1 1 1 1 
1 1 1 1 1 1 1 1 1 
1 1 1 1 1 1 1 1 1 
1 1 1 1 1 1 1 1 1 
1 1 1 1 1 1 1 1 1 
1 1 1 1 1 1 1 1 1 
1 1 1 1 1 1 1 1 1 
1 1 1 1 1 1 1 1 1 
1 1 1 1 1 1 1 1 1 
1 1 1 1 1 1 1 1 1 
1 1 1 1 1 1 1 1 1 
1 1 1 1 1 1 1 1 1 
1 1 1 1 1 1 1 1 1 
1 1 1 1 1 1 1 1 1 
1 1 1 1 1 1 1 1 1 
1 1 1 1 1 1 1 1 1 
1 1 1 1 1 1 1 1 1 
1 1 1 1 1 1 1 1 1 
1 1 1 1 1 1 1 1 1 
1 1 1 1 1 1 1 1 1 
1 1 1 1 1 1 1 1 1 
1 1 1 1 1 1 1 1 1 
1 1 1 1 1 1 1 1 1 
1 1 1 1 1 1 1 1 1 
1 1 1 1 1 1 1 1 1 
1 1 1 1 1 1 1 1 1 
1 1 1 1 1 1 1 1 1 
1 1 1 1 1 1 1 1 1 
1 1 1 1 1 1 1 1 1 
1 1 1 1 1 1 1 1 1 
1 1 1 1 1 1 1 1 1 
1 1 1 1 1 1 1 1 1 
1 1 1 1 1 1 1 1 1 
1 1 1 1 1 1 1 1 1 
1 1 1 1 1 1 1 1 1 
1 1 1 1 1 1 1 1 1 
1 1 1 1 1 1 1 1 1 
1 1 1 1 1 1 1 1 1 
1 1 1 1 1 1 1 1 1 
1 1 1 1 1 1 1 1 1 
1 1 1 1 1 1 1 1 1 
1 1 1 1 1 1 1 1 1 
1 1 1 1 1 1 1 1 1 
1 1 1 1 1 1 1 1 1 
1 1 1 1 1 1 1 1 1 
1 1 1 1 1 1 1 1 1 
1 1 1 1 1 1 1 1 1 
1 1 1 1 1 1 1 1 1 
1 1 1 1 1 1 1 1 1 
1 1 1 1 1 1 1 1 1 
1 1 1 1 1 1 1 1 1 
1 1 1 1 1 1 1 1 1 
1 1 1 1 1 1 1 1 1 
1 1 1 1 1 1 1 1 1 
1 1 1 1 1 1 1 1 1 
1 1 1 1 1 1 1 1 1 
1 1 1 1 1 1 1 1 1 
1 1 1 1 1 1 1 1 1 
1 1 1 1 1 1 1 1 1 
1 1 1 1 1 1 1 1 1 
1 1 1 1 1 1 1 1 1 
1 1 1 1 1 1 1 1 1 
1 1 1 1 1 1 1 1 1 
1 1 1 1 1 1 1 1 1 
1 1 1 1 1 1 1 1 1 
1 1 1 1 1 1 1 1 1 
1 1 1 1 1 1 1 1 1 
1 1 1 1 1 1 1 1 1 
1 1 1 1 1 1 1 1 1 
1 1 1 1 1 1 1 1 1 
1 1 1 1 1 1 1 1 1 
1 1 1 1 1 1 1 1 1 
1 1 1 1 1 1 1 1 1 
1 1 1 1 1 1 1 1 1 
1 1 1 1 1 1 1 1 1 
1 1 1 1 1 1 1 1 1 
1 1 1 1 1 1 1 1 1 
1 1 1 1 1 1 1 1 1 
1 1 1 1 1 1 1 1 1 
1 1 1 1 1 1 1 1 1 
1 1 1 1 1 1 1 1 1 
1 1 1 1 1 1 1 1 1 
1 1 1 1 1 1 1 1 1 
1 1 1 1 1 1 1 1 1 
1 1 1 1 1 1 1 1 1 
1 1 1 1 1 1 1 1 1 
1 1 1 1 1 1 1 1 1 
1 1 1 1 1 1 1 1 1 
1 1 1 1 1 1 1 1 1 
1 1 1 1 1 1 1 1 1 
1 1 1 1 1 1 1 1 1 
1 1 1 1 1 1 1 1 1 
1 1 1 1 1 1 1 1 1 
1 1 1 1 1 
i 3 1400 int
0 0 0 0 0 0 0 0 0 
0 0 0 0 0 0 0 0 0 
0 1 0 0 0 0 0 0 0 
0 0 0 0 0 0 0 0 0 
0 0 0 0 0 0 0 0 0 
0 0 0 0 0 0 0 0 0 
0 0 0 0 0 0 0 0 0 
0 0 0 0 0 0 0 0 0 
0 0 0 0 0 0 0 0 0 
1 0 0 0 0 0 0 0 0 
0 0 0 0 0 0 0 0 0 
0 0 0 0 0 0 0 0 0 
0 0 0 0 0 0 0 0 0 
0 0 0 0 0 0 0 0 0 
0 0 0 0 0 0 -1 0 0 
0 0 0 0 0 0 0 0 0 
0 0 0 0 0 0 0 0 0 
0 0 0 0 0 0 0 0 0 
0 0 0 0 0 0 0 0 0 
0 0 0 0 0 0 0 0 0 
0 0 0 0 0 0 0 0 0 
0 0 0 0 0 0 0 0 0 
0 0 0 0 0 0 0 0 0 
0 0 0 0 0 0 0 0 0 
0 0 0 0 0 0 0 0 0 
0 0 0 0 0 0 1 0 0 
0 0 0 0 0 0 0 0 0 
0 0 0 0 0 0 0 0 0 
0 0 0 0 0 0 0 0 0 
0 -1 0 0 0 0 0 -1 0 
0 0 0 0 0 0 0 0 0 
0 -1 0 0 0 0 0 1 0 
0 0 0 0 0 0 0 0 0 
0 0 0 0 0 0 0 0 0 
0 0 0 0 0 0 0 0 0 
0 0 0 0 0 0 0 0 0 
0 0 0 0 0 0 0 0 0 
0 0 0 0 0 0 0 0 0 
0 0 0 0 0 0 0 0 0 
0 0 0 0 0 0 0 0 0 
0 0 0 0 0 0 0 0 0 
0 0 0 0 0 0 0 0 0 
0 0 0 0 0 0 0 0 0 
0 0 0 0 0 0 0 0 0 
0 0 0 0 0 0 0 0 0 
0 0 0 0 0 0 0 0 0 
0 0 0 0 0 0 0 0 0 
0 0 0 0 0 0 0 0 0 
0 0 0 0 0 0 0 0 0 
0 0 0 0 0 0 0 0 0 
0 0 0 0 0 0 0 0 0 
0 0 0 0 0 0 0 0 0 
0 0 0 0 0 0 0 0 0 
0 0 0 0 0 0 0 0 0 
0 0 0 0 0 0 0 0 0 
0 0 0 0 0 0 0 0 0 
0 0 0 0 0 0 0 0 0 
0 0 0 0 0 0 0 0 0 
0 0 0 0 0 0 0 0 0 
0 0 0 0 0 0 0 0 0 
0 0 0 0 0 0 0 0 0 
0 0 0 0 0 0 0 0 0 
0 0 0 0 0 0 0 0 0 
0 0 0 0 0 0 0 0 0 
0 0 0 0 0 0 0 0 0 
0 0 0 0 0 0 0 0 0 
0 0 0 0 0 0 0 -1 0 
0 0 0 0 0 0 0 0 0 
0 0 0 0 0 0 0 0 0 
0 0 0 0 0 0 0 1 0 
0 0 0 0 0 0 0 0 0 
0 0 0 0 0 0 0 0 0 
0 0 0 0 0 0 0 0 0 
0 0 0 0 0 0 0 0 0 
0 0 0 0 0 0 0 0 0 
0 0 0 0 0 0 0 0 0 
0 0 0 0 0 0 0 0 0 
0 0 0 0 0 0 0 0 0 
0 0 0 0 0 0 0 0 0 
0 0 0 0 0 0 0 0 0 
0 0 0 0 0 0 0 0 0 
0 0 0 0 0 0 0 0 0 
0 0 0 0 0 0 0 0 0 
0 0 0 0 0 0 0 0 0 
0 0 0 0 0 0 0 0 0 
0 0 0 0 0 0 0 0 0 
0 0 0 0 0 0 0 0 0 
0 0 0 0 0 0 0 0 0 
0 0 0 0 0 0 0 0 0 
0 0 0 0 0 0 -1 0 0 
0 0 0 0 0 0 0 0 0 
0 0 0 0 0 0 0 0 0 
0 0 0 0 0 0 0 0 0 
0 0 0 0 0 0 0 0 0 
0 0 0 0 0 0 0 0 0 
0 0 0 0 0 0 0 0 0 
0 0 0 0 0 0 0 0 0 
0 0 0 0 0 0 0 0 0 
0 0 0 0 0 0 0 0 0 
0 0 0 0 0 0 0 0 0 
-1 0 0 0 0 0 0 0 0 
0 0 0 0 0 0 0 0 0 
0 0 0 0 0 0 0 0 0 
0 0 0 0 0 0 0 0 0 
0 0 0 0 0 0 0 0 0 
0 0 0 0 0 0 0 0 0 
0 -1 0 0 0 0 0 -1 0 
0 0 0 0 0 0 -1 0 0 
0 0 0 0 0 0 0 0 0 
0 0 0 0 0 0 0 0 0 
0 0 0 0 0 0 0 0 0 
0 0 0 -1 0 0 0 0 0 
0 0 0 0 0 0 0 0 0 
0 0 0 0 0 0 0 0 0 
0 0 0 -1 0 0 0 0 0 
0 0 0 0 0 0 0 0 0 
0 0 0 0 0 0 0 0 0 
0 0 0 0 0 0 0 0 0 
0 0 0 0 0 0 0 0 0 
0 0 0 0 0 0 0 0 0 
0 0 0 0 0 0 0 0 0 
0 0 0 0 0 0 0 0 0 
0 0 0 0 0 0 0 0 0 
0 0 0 0 0 0 0 0 0 
0 0 0 0 0 0 0 0 0 
0 0 0 0 0 0 0 0 0 
0 0 0 0 0 0 0 0 0 
0 0 0 0 0 0 0 0 0 
0 0 0 0 0 0 0 0 0 
0 0 0 0 0 0 0 0 0 
0 0 0 0 0 0 0 0 0 
0 0 0 0 0 0 0 0 0 
0 0 0 0 0 0 0 0 0 
0 0 0 0 0 0 0 0 0 
0 0 0 0 0 0 0 0 0 
0 0 0 0 0 0 0 0 0 
0 0 0 0 0 0 0 0 0 
0 0 0 0 0 0 0 0 0 
0 0 0 0 0 0 0 0 0 
0 0 0 0 0 0 0 0 0 
0 0 0 0 0 0 0 0 0 
0 0 0 0 0 0 0 0 0 
0 0 0 0 0 0 0 0 0 
0 0 0 0 0 0 0 0 0 
0 0 0 0 -1 0 0 0 0 
0 0 0 0 0 0 1 0 0 
0 0 0 0 0 0 0 0 0 
0 0 0 0 0 0 0 0 0 
0 0 0 0 0 0 0 1 0 
0 0 0 0 0 0 0 0 0 
0 0 0 0 0 0 0 0 0 
0 0 0 0 0 0 0 0 0 
0 0 0 0 0 0 0 0 0 
0 0 0 0 0 0 0 0 0 
0 0 0 0 0 0 0 0 0 
0 0 0 0 0 0 0 0 0 
0 0 0 -1 0 0 0 0 0 
0 0 0 0 0 0 0 0 0 
0 0 0 0 0 0 0 0 0 
0 0 0 0 0 0 0 0 0 
0 0 0 0 0 0 0 0 0 
0 0 0 0 0 0 0 0 0 
0 0 0 0 0 0 0 0 0 
0 0 0 0 0 0 0 0 0 
0 0 0 0 0 0 0 0 0 
0 0 0 0 0 0 0 0 0 
0 0 0 0 0 0 0 0 0 
0 0 0 0 0 0 0 0 0 
0 0 0 0 0 0 0 0 0 
0 0 0 0 0 0 0 0 0 
0 0 0 0 0 0 0 0 0 
0 0 0 0 0 0 0 0 0 
0 0 0 0 0 0 0 0 0 
0 0 0 0 0 0 0 0 0 
0 0 0 0 0 0 0 0 0 
0 0 0 0 0 0 0 0 0 
0 0 0 0 0 0 0 0 0 
0 0 0 0 0 0 0 0 0 
0 0 0 0 0 0 0 0 0 
0 0 0 0 0 0 0 0 0 
0 0 0 0 0 0 0 0 0 
0 0 0 0 0 0 0 0 0 
0 0 0 0 0 0 0 0 0 
0 0 0 0 0 0 0 0 0 
0 0 0 0 0 0 0 0 0 
0 0 0 0 0 0 0 0 0 
0 0 0 0 0 0 0 0 0 
0 0 0 0 0 0 0 0 0 
0 0 0 0 0 0 0 0 0 
0 0 0 0 0 0 0 0 0 
0 0 0 0 0 0 0 0 0 
0 0 0 0 0 0 0 0 0 
0 0 0 0 0 0 0 0 0 
0 0 0 0 0 0 0 0 0 
0 0 0 0 0 0 0 0 0 
0 0 0 0 0 0 0 0 0 
0 0 0 0 0 0 0 0 0 
0 0 0 0 0 0 0 0 0 
0 0 0 0 0 0 0 0 0 
0 0 0 0 0 0 0 0 0 
0 0 0 0 0 0 0 0 0 
0 0 0 0 0 0 0 0 0 
1 0 0 0 0 0 0 0 0 
0 0 0 0 0 0 0 0 0 
0 0 0 0 0 0 0 0 0 
0 0 0 0 0 0 0 0 0 
0 0 0 0 0 0 0 0 0 
0 0 0 0 0 0 0 0 0 
0 0 0 0 0 0 0 0 0 
0 0 0 0 0 0 0 0 0 
0 0 0 0 0 0 0 0 0 
0 0 0 0 0 0 0 0 0 
0 0 0 0 0 0 0 0 0 
0 0 0 0 0 0 0 0 0 
0 0 0 0 0 0 0 0 0 
0 0 0 0 0 0 0 0 0 
0 0 0 0 0 0 0 0 0 
0 0 0 0 0 0 0 0 0 
0 0 0 0 0 0 0 0 0 
0 0 0 0 0 0 0 0 0 
0 0 0 0 0 0 0 0 0 
0 0 0 0 0 0 0 0 0 
0 0 0 0 0 0 0 0 0 
0 0 0 0 0 0 0 0 0 
0 0 0 0 0 0 0 0 0 
0 0 0 0 0 0 0 0 0 
0 0 0 0 0 0 0 0 0 
0 0 0 0 0 0 0 0 0 
0 0 0 0 0 0 0 0 0 
0 0 0 0 0 0 0 0 0 
0 0 0 0 0 0 0 0 0 
0 0 0 0 0 0 0 0 0 
0 0 0 0 0 0 0 0 0 
0 0 0 0 0 0 0 0 0 
0 0 0 0 0 0 0 0 0 
0 0 0 0 0 0 0 0 0 
0 0 0 0 0 0 0 0 0 
0 0 0 0 0 0 0 0 0 
0 0 0 0 0 0 0 0 0 
0 0 0 0 0 0 0 0 0 
0 0 0 0 0 0 0 0 0 
0 0 0 0 0 0 0 0 0 
0 0 0 0 0 0 0 0 0 
0 0 0 0 0 0 0 0 0 
0 0 0 0 0 0 0 0 0 
0 0 0 0 0 0 0 0 0 
0 0 0 0 0 0 0 0 0 
0 0 0 0 0 0 0 0 0 
0 0 0 1 0 0 0 0 0 
0 0 0 0 0 0 0 0 0 
0 0 0 0 0 0 0 0 0 
0 0 0 0 0 0 0 0 0 
0 0 0 0 0 0 0 0 0 
0 0 0 0 0 0 0 0 0 
0 0 0 0 0 0 0 0 0 
0 0 0 -1 0 0 0 -1 0 
0 0 0 0 0 0 0 0 0 
0 0 0 0 0 0 0 0 0 
0 0 0 0 0 0 0 0 0 
0 0 0 0 0 0 0 0 0 
0 0 0 0 0 0 0 0 0 
0 0 0 0 0 0 0 0 0 
0 0 0 0 0 0 0 0 0 
0 0 0 0 0 0 0 0 0 
0 0 0 0 0 0 0 0 0 
0 0 0 0 0 0 0 0 0 
0 0 0 0 0 0 0 0 0 
0 0 0 0 0 0 0 0 0 
0 0 0 0 0 0 0 0 0 
0 0 0 0 0 0 0 0 0 
0 0 0 0 0 0 0 0 0 
0 0 0 0 0 0 0 0 0 
0 0 0 0 0 0 0 0 0 
0 0 0 0 0 0 0 0 0 
0 0 0 0 0 0 0 0 0 
0 0 0 0 0 0 0 0 0 
0 0 0 0 0 0 0 0 0 
0 0 0 0 0 0 0 0 0 
0 0 0 0 0 0 0 0 0 
0 0 0 0 0 0 0 0 0 
0 0 0 0 0 0 0 0 0 
0 0 0 0 0 0 0 0 0 
0 0 0 0 0 0 0 0 0 
0 0 0 0 0 0 0 0 0 
0 0 0 0 0 0 0 0 0 
0 0 0 0 0 0 0 0 0 
0 0 0 0 0 0 0 0 0 
0 0 0 0 0 0 0 0 0 
0 0 0 0 0 0 0 0 0 
0 0 0 0 0 0 0 0 0 
0 0 0 0 0 0 0 0 0 
0 0 0 0 0 0 0 0 0 
0 0 0 0 0 0 0 0 0 
0 0 0 0 0 0 0 0 0 
0 0 0 0 0 0 0 0 0 
0 0 0 0 0 0 0 0 0 
0 0 0 0 0 0 0 0 0 
0 0 0 0 0 0 0 0 0 
0 0 0 0 0 0 0 0 0 
0 0 0 0 0 0 0 0 0 
0 0 0 0 0 0 0 0 0 
0 0 0 0 0 0 0 0 0 
0 0 0 0 0 0 0 0 0 
0 0 0 0 0 0 0 0 0 
0 0 0 0 0 0 0 0 0 
0 0 0 0 0 0 0 0 0 
0 0 0 0 0 0 0 0 0 
0 0 0 0 0 0 0 0 0 
0 0 0 0 0 0 0 0 0 
0 0 0 0 0 0 0 0 0 
0 0 0 0 0 0 0 0 0 
0 0 0 0 0 0 0 0 0 
0 0 0 0 0 0 0 0 0 
0 0 0 0 0 0 0 0 0 
0 0 0 0 0 0 0 0 0 
0 0 0 0 0 0 0 0 0 
0 0 0 0 0 0 0 0 0 
0 0 0 0 0 0 0 0 0 
0 0 0 0 0 0 0 0 0 
0 0 0 0 0 0 0 0 0 
0 0 0 0 0 0 0 0 0 
0 0 0 0 0 0 0 0 0 
0 0 0 0 0 0 0 0 0 
0 0 0 0 0 0 0 0 0 
0 0 0 0 0 0 0 0 0 
0 0 0 0 0 0 0 0 0 
0 0 0 0 0 0 0 0 0 
0 0 0 0 0 0 0 0 0 
0 0 0 0 0 0 0 0 0 
0 0 0 0 0 0 0 0 0 
0 0 0 0 0 0 0 0 0 
0 0 0 0 0 0 0 0 0 
0 0 0 0 0 0 0 0 0 
0 0 0 0 0 0 0 0 0 
0 0 0 0 0 0 0 0 0 
0 0 0 0 0 0 0 0 0 
0 0 0 0 0 0 0 0 0 
0 0 0 0 0 0 0 0 0 
0 0 0 0 0 0 0 0 0 
0 0 0 0 0 0 0 0 0 
0 0 0 0 0 0 0 0 0 
0 0 0 0 0 0 0 0 0 
0 0 0 0 0 0 0 0 0 
0 0 0 0 0 0 0 0 0 
0 0 0 0 0 0 0 0 0 
0 0 0 0 0 0 0 0 0 
0 0 0 0 0 0 0 0 0 
0 0 0 0 0 0 0 0 0 
0 0 0 0 0 0 0 0 0 
0 0 0 0 0 0 0 0 0 
0 0 0 0 0 0 0 0 0 
0 0 0 0 0 0 0 0 0 
0 0 0 0 0 0 0 0 0 
0 0 0 0 0 0 0 0 0 
0 0 0 0 0 0 0 0 0 
0 0 0 0 0 0 0 0 0 
0 0 0 0 0 0 0 0 0 
0 0 0 0 0 0 0 0 0 
0 0 0 0 0 0 0 0 0 
0 0 0 0 0 0 0 0 0 
0 0 0 0 0 0 0 0 0 
0 0 0 0 0 0 0 0 0 
0 0 0 0 0 0 0 0 0 
0 0 0 0 0 0 0 0 0 
0 0 0 0 0 0 0 0 0 
0 0 0 0 0 0 0 0 0 
0 0 0 0 0 0 0 0 0 
0 0 0 0 0 0 0 0 0 
0 0 0 0 0 0 0 0 0 
0 0 0 0 0 0 0 0 0 
0 0 0 0 0 0 0 0 0 
0 0 0 0 0 0 0 0 0 
0 0 0 0 0 0 0 0 0 
0 0 0 0 0 0 0 0 0 
0 0 0 0 0 0 0 0 0 
0 0 0 0 0 0 0 0 0 
0 0 0 0 0 0 0 0 0 
0 0 0 0 0 0 0 0 0 
0 0 0 0 0 0 0 0 0 
0 0 0 0 0 0 0 0 0 
0 0 0 0 0 0 0 0 0 
0 0 0 0 0 0 0 0 0 
0 0 0 0 0 0 0 0 0 
0 0 0 0 0 0 0 0 0 
0 0 0 0 0 0 0 0 0 
0 0 0 0 0 0 0 0 0 
0 0 0 0 0 0 0 0 0 
0 0 0 0 0 0 0 0 0 
0 0 0 0 0 0 0 0 0 
0 0 0 0 0 0 0 0 0 
0 0 0 0 0 0 0 0 0 
0 0 0 0 0 0 0 0 0 
0 0 0 0 0 0 0 0 0 
0 0 0 0 0 0 0 0 0 
0 0 0 0 0 0 0 0 0 
0 0 0 0 0 0 0 0 0 
0 0 0 0 0 0 0 0 0 
0 0 0 0 0 0 0 0 0 
0 0 0 0 0 0 0 0 0 
0 0 0 0 0 0 0 0 0 
0 0 0 0 0 0 0 0 0 
0 0 0 0 0 0 0 0 0 
0 0 0 0 0 0 0 0 0 
0 0 0 0 0 0 0 0 0 
0 0 0 0 0 0 0 0 0 
0 0 0 0 0 0 0 0 0 
0 0 0 0 0 0 0 0 0 
0 0 0 0 0 0 0 0 0 
0 0 0 0 0 0 0 0 0 
0 0 0 0 0 0 0 0 0 
0 0 0 0 0 0 0 0 0 
0 0 0 0 0 0 0 0 0 
0 0 0 0 0 0 0 0 0 
0 0 0 0 0 0 0 0 0 
0 0 0 0 0 0 0 0 0 
0 0 0 0 0 0 0 0 0 
0 0 0 0 0 0 0 0 0 
0 0 0 0 0 0 0 0 0 
0 0 0 0 0 0 0 0 0 
0 0 0 0 0 0 0 0 0 
0 0 0 0 0 0 0 0 0 
0 0 0 0 0 0 0 0 0 
0 0 0 0 0 0 0 0 0 
0 0 0 0 0 0 0 0 0 
0 0 0 0 0 0 0 0 0 
0 0 0 0 0 0 0 0 0 
0 0 0 0 0 0 0 0 0 
0 0 0 0 0 0 0 0 0 
0 0 0 0 0 0 0 0 0 
0 0 0 0 0 0 0 0 0 
0 0 0 0 0 0 0 0 0 
0 0 0 0 0 0 0 0 0 
0 0 0 0 0 0 0 0 0 
0 0 0 0 0 0 0 0 0 
0 0 0 0 0 0 0 0 0 
0 0 0 0 0 0 0 0 0 
0 0 0 0 0 0 0 0 0 
0 0 0 0 0 0 0 0 0 
0 0 0 0 0 0 0 0 0 
0 0 0 0 0 0 0 0 0 
0 0 0 0 0 0 0 0 0 
0 0 0 0 0 0 0 0 0 
0 0 0 0 0 0 0 0 0 
0 0 0 0 0 0 0 0 0 
0 0 0 0 0 0 0 0 0 
0 0 0 0 0 0 0 0 0 
0 0 0 0 0 0 0 0 0 
0 0 0 0 0 0 0 0 0 
0 0 0 0 0 0 0 0 0 
0 0 0 0 0 0 0 0 0 
0 0 0 0 0 0 0 0 0 
0 0 0 0 0 0 0 0 0 
0 0 0 0 0 0 0 0 0 
0 0 0 0 0 0 0 0 0 
0 0 0 0 0 0 0 0 0 
0 0 0 0 0 0 0 0 0 
0 0 0 0 0 0 0 0 0 
0 0 0 0 0 0 0 0 0 
0 0 0 0 0 0 0 0 0 
0 0 0 0 0 0 0 0 0 
0 0 0 0 0 0 0 0 0 
0 0 0 0 0 0 0 0 0 
0 0 0 0 0 0 0 0 0 
0 0 0 0 0 0 0 0 0 
0 0 0 0 0 0 0 0 0 
0 0 0 0 0 0 0 0 0 
0 0 0 0 0 0 
v 3 1400 double
1.52681e-05 6.43197e-05 4.79878e-06 6.45198e-05 -2.5037e-05 -1.39301e-06 0.00013143 2.76243e-05 -1.2974e-15 
-0.000100829 -4.05894e-05 2.62305e-06 -3.2652e-05 4.52758e-05 1.91548e-05 5.10811e-05 -5.40273e-07 -1.18335e-05 
-4.88483e-05 6.10725e-05 -2.92824e-06 -5.60751e-05 6.06296e-05 9.88618e-06 -8.13679e-05 -7.22636e-06 -1.07155e-05 
2.20951e-05 7.37281e-05 2.9111e-05 4.02863e-05 -4.98151e-05 2.55361e-06 -3.65197e-05 0.00010499 -9.21884e-16 
2.92549e-05 5.52744e-07 -8.79647e-06 -7.87107e-05 2.53298e-05 3.52276e-06 4.78445e-05 -0.000114778 2.85837e-05 
-4.28392e-05 4.77376e-05 2.60254e-05 1.752e-05 -1.19118e-06 1.23157e-05 2.78253e-05 0.000162071 2.44747e-05 
3.71913e-05 0.00011945 6.57303e-06 -8.92329e-05 -4.80162e-05 3.98375e-06 -2.1891e-06 -1.52321e-05 -1.57586e-05 
3.33195e-05 1.09826e-05 1.13082e-05 -7.33486e-05 -2.66302e-05 3.34369e-06 -6.54955e-05 -0.000104589 1.41687e-05 
2.57975e-05 -0.000134241 -3.58975e-07 7.64185e-05 3.94926e-05 5.61197e-06 2.46371e-05 -4.59169e-05 -2.01332e-06 
2.49486e-06 3.89969e-05 1.23233e-07 -9.85527e-05 -7.96458e-05 -2.34951e-06 -5.4164e-05 -1.90594e-05 5.30936e-06 
-5.45309e-05 -7.4691e-05 3.71088e-05 0.000120328 -8.24046e-05 -1.19459e-05 1.13356e-05 4.6369e-05 -2.37944e-06 
2.95338e-05 -2.12776e-05 -2.19568e-05 6.07786e-05 2.23451e-05 -4.56789e-08 -6.83693e-06 -1.14033e-05 1.09024e-05 
-2.95824e-05 -3.37731e-05 1.13954e-05 -2.00042e-05 -8.63338e-05 -1.36498e-05 5.59512e-05 2.62849e-06 5.90767e-06 
-1.46281e-05 -7.73534e-05 -5.25208e-06 -0.000146649 1.87573e-05 1.70678e-15 5.07837e-05 5.47314e-05 5.10653e-06 
6.38687e-05 -5.4471e-05 7.34607e-06 1.60346e-05 -3.30291e-05 1.16452e-06 -3.92023e-06 -1.68667e-05 -1.13008e-05 
-3.00614e-05 0.000118895 5.3594e-06 -1.93082e-05 4.06221e-05 -3.83325e-06 5.05541e-06 -6.32633e-05 5.32039e-06 
4.47287e-06 -5.18859e-05 -1.88684e-06 -2.82376e-05 -7.69156e-05 1.02162e-05 -2.60109e-05 -1.21601e-05 2.74971e-05 