# vtk DataFile Version 4.0
Generated by LIGGGHTS
ASCII
DATASET POLYDATA
POINTS 1016 float
-4.99772 -4.23238 0.499998 -2.91715 -4.0433 0.62939 -1.78612 -4.1755 0.502506 
-0.858336 -4.61381 0.499997 0.104359 -4.93815 0.500016 1.33648 -4.06677 0.500272 
2.47877 -4.54258 0.842555 3.334 -4.94661 0.50423 4.01971 -4.04656 0.499988 
-4.40878 -3.44599 0.696188 -3.45671 -3.21146 0.499976 -2.26442 -3.29563 0.499996 
-1.03579 -3.51438 0.500052 0.340835 -3.96656 0.499993 1.40735 -3.06843 0.499994 
2.88473 -3.69515 0.499998 3.65647 -3.05921 0.499929 4.65082 -3.16811 0.500006 
-4.10318 -2.43566 0.499997 -2.91944 -2.36627 0.500095 -0.958369 -2.03255 0.500439 
-0.313132 -2.82156 0.500064 0.669852 -2.37822 0.49996 2.25954 -2.54183 0.499992 
3.20517 -2.12872 0.49997 -4.80477 -1.72276 0.5 -3.42451 -1.55418 0.793035 
-1.99815 -1.97741 0.500019 -0.647453 -1.04142 0.500037 0.314299 -1.37228 0.500001 
1.3657 -1.57403 0.500285 2.97821 -1.10109 0.500063 4.20677 -1.95013 0.502814 
-4.09715 -0.867491 0.500158 -2.97013 -0.711278 0.505001 -2.00462 -0.971466 0.499986 
-1.6671 -0.000326494 0.500056 -0.693864 -0.0694095 0.730443 0.998101 -0.64204 0.499998 
2.01762 -0.81365 0.500115 2.74304 -0.153611 0.716826 3.97004 -0.968543 0.500052 
4.927 -0.785732 0.725053 -4.62851 0.0820242 0.500148 -3.64458 0.00981533 0.66341 
-2.69477 0.276548 0.499997 0.186348 0.345514 0.500003 1.19023 0.378867 0.499998 
2.99076 0.867692 0.500197 3.70407 0.0214837 0.502054 4.42173 0.749217 0.500314 
-4.40738 1.21397 0.499997 -3.47717 1.85769 0.499997 -2.48742 1.25591 0.500156 
-1.51243 1.5074 0.499997 -0.532812 1.17483 0.500201 0.511476 1.32219 0.500326 
1.43278 1.26986 0.886181 2.30884 1.61098 0.500174 3.73633 1.54685 0.500673 
-4.41775 2.21461 0.500873 -3.64648 2.8515 0.503251 -2.46201 2.25574 0.50062 
-1.52303 2.43444 0.908936 -0.639495 2.16942 0.500012 0.289138 2.59061 0.499999 
1.26694 2.18223 0.499997 2.17061 2.61494 0.500003 3.13458 2.34739 0.500839 
4.50833 2.20459 0.499997 -4.26307 3.65553 0.50053 -3.29388 3.78639 0.712514 
-2.23231 3.13997 0.909324 -1.33728 3.33008 0.501977 -0.338256 3.37401 0.499979 
1.54312 3.39666 0.50019 2.67934 3.47755 0.499994 3.94176 3.04377 0.499922 
4.92543 3.0973 0.675771 -4.65858 4.82691 0.499981 -3.66809 4.68929 0.500096 
-2.71152 4.98092 0.500759 -2.35163 4.04793 0.503246 -1.72175 4.82659 0.499998 
-0.913989 4.23685 0.499997 0.85042 4.35534 0.499946 1.63373 4.97763 0.504691 
2.5075 4.49042 0.500022 3.70611 4.12453 0.499869 4.33252 4.99876 0.500938 
4.70404 4.05642 0.499985 -4.32391 -4.5936 1.24304 -3.25364 -4.75366 1.29808 
-2.18262 -4.70471 1.28936 -1.25787 -4.33368 1.37681 -0.257827 -4.22852 1.2643 
0.758112 -4.64746 1.19866 1.60094 -4.17707 1.46015 2.53443 -4.02168 1.78335 
3.35669 -4.17973 1.23664 4.03183 -4.56022 1.88019 -4.53996 -3.62799 1.71083 
-3.67435 -3.83339 1.25348 -2.74794 -3.94272 1.61376 -1.85216 -3.53217 1.44271 
-0.85919 -3.35602 1.47152 0.781775 -3.5537 1.29841 1.56513 -3.05077 1.83946 
2.13545 -3.40999 1.10016 3.59404 -3.34486 1.73663 4.56562 -3.81843 1.30617 
-4.85179 -2.74748 1.25899 -3.78545 -2.90433 1.68623 -2.80134 -2.9969 1.28896 
-1.51759 -2.7439 0.926326 -1.70694 -2.18669 1.83497 -0.740376 -2.36302 1.42729 
0.209112 -2.66485 1.33989 1.48344 -2.31906 1.15775 2.29856 -2.32385 1.73855 
2.9475 -2.82904 1.16715 3.89702 -2.4958 1.29031 -4.28714 -1.39428 1.32883 
-3.53612 -1.93585 1.71055 -2.54754 -1.76392 1.30789 -1.45604 -1.4709 1.1705 
-0.0295689 -1.66043 1.39374 0.871207 -1.21185 1.31503 1.77988 -1.26369 1.72946 
2.31064 -1.66775 0.983048 3.19858 -1.78559 1.43921 4.10968 -1.3739 1.40417 
-4.39581 -0.398255 1.35065 -2.41481 -0.318428 1.25437 -1.44367 -0.194736 1.45877 
-0.715056 -0.87904 1.48789 0.156705 -0.505028 1.02676 1.58532 -0.278843 1.22621 
2.47353 -0.556438 1.59245 4.63383 -0.149915 1.4391 -4.88554 0.705725 1.23854 
-3.97035 0.47946 1.572 -3.30286 0.916943 0.9694 -2.20894 0.684402 1.27305 
-1.23515 0.717651 1.04788 -0.612912 0.301244 1.71201 0.0333467 0.937873 1.29117 
0.793822 0.301151 1.42545 1.66401 0.464109 1.89156 2.17431 0.612074 1.01888 
2.97892 0.304957 1.64435 3.70732 0.82311 1.19626 4.38433 0.699673 1.92192 
-4.64518 1.88314 1.41755 -3.67371 1.66789 1.51707 -2.12535 1.73746 1.29863 
-2.82059 1.24997 1.82934 -1.57012 1.17661 1.91308 -0.920543 1.64284 1.30244 
0.206056 1.9238 1.24072 2.31827 1.2165 1.81227 3.02344 1.57891 1.20281 
4.47195 1.4706 1.19118 -4.31318 2.83344 1.28423 -3.10445 2.4467 1.24275 
-1.61858 2.38421 1.91879 -0.375977 2.74217 1.2763 0.545994 2.76532 1.66326 
1.18972 2.0117 1.52535 1.52883 2.94549 1.39245 2.17644 2.10979 1.36297 
2.99513 2.34413 1.88697 3.78559 2.22394 1.26056 4.67364 2.6092 1.51141 
-4.90699 3.47767 1.78436 -3.48335 3.31149 1.57221 -2.51001 3.40116 1.83656 
-1.23329 3.20799 1.49944 -0.0589664 3.5597 1.75731 0.694386 3.51331 1.0162 
2.04515 3.9261 1.18426 2.42271 3.17825 1.78008 3.24168 3.06206 1.21556 
4.20725 3.60747 1.28257 -4.49151 4.24541 1.29654 -3.61504 4.42361 1.77133 
-2.6694 4.35524 1.40275 -1.62315 4.0749 1.18809 -1.60498 4.76571 1.91093 
-0.752466 4.80521 1.32166 -0.0354836 4.19621 0.981957 0.142536 4.78811 1.76845 
1.04961 4.43176 1.47702 1.9424 4.88233 1.46052 2.9864 4.97025 1.61125 
3.04106 4.0421 1.24183 3.87729 4.52427 1.50868 4.78009 4.98396 1.3951 
-4.77143 -4.5027 2.13929 -3.6881 -4.36855 2.11279 -1.91632 -4.2489 2.13909 
-0.56594 -4.6098 2.14097 0.42393 -4.31163 2.10102 0.549434 -4.92507 2.93161 
1.31603 -4.80129 2.20166 2.84361 -4.57797 2.55564 -3.24947 -3.49946 2.36186 
-2.27747 -3.25466 2.30455 -1.11628 -3.8599 2.59578 -0.118311 -3.71664 2.92047 
0.00708894 -3.41124 1.97401 1.21967 -3.79275 2.41428 2.57412 -3.33427 2.50859 
3.69965 -3.90637 2.56003 4.6305 -3.49042 2.25218 -4.50456 -2.9953 2.4997 
-4.48295 -2.13822 1.96799 -3.36135 -2.60277 2.80361 -2.71293 -2.38435 2.07441 
-1.10055 -2.83582 2.32707 -0.109168 -2.45074 2.26343 0.865095 -2.19143 1.93316 
0.77065 -2.85573 2.67571 1.68128 -2.17582 2.51195 2.68746 -2.02659 2.62226 
3.61164 -2.24008 2.22893 4.57027 -2.47547 2.02949 4.10367 -2.86885 2.8321 
-4.59118 -1.65981 2.88973 -3.33776 -1.14746 2.64703 -2.21928 -1.66936 2.56958 
-1.60161 -1.03576 2.05909 -0.703479 -1.65134 2.13358 0.420998 -1.47446 2.47083 
1.63422 -1.19796 2.71661 3.048 -1.12772 2.17961 4.78799 -1.4137 2.13782 
-4.23826 -0.984961 2.24077 -4.18654 -0.00162496 2.42189 -3.13887 -0.0854763 2.36906 
-2.63527 -1.00216 1.95007 -2.17145 -0.626681 2.77334 -0.42978 -0.0428802 2.63392 
-0.913004 -0.90858 2.77309 0.0931992 -0.640797 2.02637 0.52413 -0.283563 2.8563 
1.08431 -0.512071 2.05977 1.94331 -0.268903 2.51184 3.74185 -0.539848 2.5957 
4.64493 -0.139758 2.43898 -4.86106 0.718031 2.58738 -3.61793 0.820661 2.44449 
-2.11056 0.156292 2.11934 -2.64993 0.776285 2.69568 -1.11907 0.681338 2.6577 
0.926445 0.590022 2.56022 2.15669 0.854319 2.77849 3.02275 0.184408 2.63606 
3.99364 0.9834 2.81204 -4.34325 1.52403 2.30072 -2.15146 1.64037 2.76546 
-1.15452 1.69215 2.66261 -0.409502 1.25495 2.13959 0.576286 1.37037 2.01512 
1.51645 1.49249 2.34209 3.10212 1.35672 2.41739 3.991 1.63485 2.05244 
-4.63366 2.47936 2.22893 -3.56688 2.18897 2.36389 -2.60868 2.20341 2.07681 
-2.49203 2.86443 2.82155 -0.516875 2.26434 2.1441 0.848559 2.22877 2.45114 
1.84243 2.46926 2.23502 2.71523 2.5133 2.84902 3.73276 2.42765 2.6046 
-4.10552 3.3412 2.36664 -3.18212 3.69455 2.52044 -1.18052 3.2122 2.4981 
-0.173241 3.08604 2.63173 1.0491 3.57937 1.99997 1.75503 3.32308 2.75248 
2.7228 3.57698 2.81363 3.42547 3.794 2.13131 4.22551 3.19459 2.19345 
-4.98803 4.51384 2.25176 -2.21877 4.01702 2.56931 -2.74338 4.88814 2.26484 
-0.914416 4.04358 1.9514 0.267591 4.13058 2.51144 1.58162 4.28062 2.50085 
2.46922 4.22775 2.0425 3.12909 4.49287 2.79197 -4.80278 -4.07809 3.10349 
-3.76999 -4.67717 3.06405 -2.30682 -4.01447 3.02968 -1.80111 -4.52649 3.72441 
-0.851077 -4.03261 3.54452 2.08539 -4.39787 3.93165 4.34795 -4.70522 2.9692 
-3.83076 -3.50826 3.17554 -2.58286 -3.25819 3.81196 0.812276 -3.60142 3.34685 
1.96051 -3.87204 3.08797 3.28361 -3.28593 3.22506 4.38677 -3.58752 3.49444 
-4.21382 -2.48479 3.31356 -3.08107 -2.38863 3.74081 -1.99629 -2.60773 3.01437 
-0.476559 -2.76713 3.13835 2.16658 -2.72496 3.19287 3.57296 -2.11755 3.22539 
4.56819 -2.10301 3.34641 -3.75262 -1.6056 3.4332 -2.54897 -1.27922 3.43518 
-1.32106 -1.8708 2.9612 -1.52978 -1.46293 3.85983 -0.343836 -1.66956 3.08487 
0.971356 -1.9287 3.17146 1.97886 -1.62464 3.55291 3.72649 -1.18962 3.6148 
4.56852 -1.1386 3.07509 -4.66716 -0.345712 3.2396 -3.579 -0.640807 3.6827 
-1.39803 -0.165572 3.2345 -0.240509 -0.336696 3.57269 1.0236 -0.971805 3.47745 
1.84281 -0.435512 3.76063 2.66666 -0.735503 3.02135 -2.95363 0.0642433 3.34141 
-1.84458 0.726147 3.34481 0.20555 0.691089 3.28511 2.55339 0.240634 3.51729 
-4.20048 1.21151 3.24021 -4.40258 1.97099 3.92086 -3.22297 1.53104 3.03589 
-1.70569 1.69905 3.66911 -0.598295 1.28371 3.3865 0.340197 1.68242 3.12373 
1.2352 1.26112 3.27329 3.26161 1.32525 3.40419 -4.58618 2.76189 3.18893 
-3.39208 2.20058 3.76685 -1.62862 2.77542 3.33582 -0.46889 2.26936 3.14341 
1.02833 2.56656 3.3773 3.17697 2.31605 3.89457 -1.40727 3.93665 3.14923 
-0.198769 3.57494 3.93188 2.52994 3.28312 3.75155 4.0488 3.76359 2.99666 
-4.36289 4.2145 2.9806 -3.17573 4.50833 3.17842 -2.07532 4.5141 3.6203 
-0.456549 4.24387 3.19166 0.930421 4.20341 3.25665 1.66498 4.35177 3.94044 
4.38231 4.27645 3.78824 -4.495 -4.20759 4.68551 -3.34954 -4.17827 4.08017 
-0.0592842 -4.23532 4.17594 0.941563 -4.3967 4.26541 -4.39146 -3.20582 3.98399 
-1.31279 -3.58453 4.35598 -0.410651 -3.09349 4.1385 2.45653 -3.14992 4.05232 
3.26179 -3.90586 4.01068 -2.09892 -2.3333 3.97078 -1.181 -2.29451 4.90623 
-0.408547 -2.03974 4.01169 1.07612 -2.28454 4.10019 4.14921 -2.47015 4.21694 
-3.92362 -1.70035 4.4141 1.80939 -1.16273 4.73915 2.81215 -1.83449 4.07974 
-2.40468 -0.492872 4.19977 0.0772426 -0.921596 4.34528 2.91937 -0.733028 3.98886 
3.74685 -0.133939 3.96018 -4.29634 0.314238 3.97637 -3.23245 0.68187 4.10017 
-1.04133 0.366619 4.00539 0.56949 0.254972 4.22932 1.61697 0.647055 3.96394 
[...]
POINT_DATA 1016
FIELD FieldData 7
id 1 1016 int
48 62 69 126 50 115 89 31 29 
120 60 12 7 23 28 51 64 24 
49 79 104 11 56 59 14 20 99 
45 1 18 22 78 109 27 15 19 
80 105 26 4 86 43 67 54 65 
37 16 35 2 114 46 33 3 71 
21 42 55 119 53 97 52 94 8 
84 25 13 6 63 47 36 9 87 
118 40 34 44 5 41 81 58 57 
17 10 88 32 39 30 72 76 112 
38 161 165 151 214 77 106 168 213 
136 231 166 127 284 210 220 100 157 
93 197 123 103 194 172 129 174 132 
83 102 160 70 135 164 217 155 61 
85 150 207 82 159 66 139 117 169 
147 98 91 158 130 101 167 108 143 
73 125 113 124 171 110 215 137 193 
68 153 133 190 187 146 74 186 163 
128 134 142 203 122 173 131 154 138 
175 95 211 162 222 185 121 144 96 
116 235 92 170 107 178 152 111 267 
141 90 148 75 156 198 149 192 145 
260 189 244 195 199 320 221 316 280 
266 281 255 140 253 245 233 205 262 
212 272 225 248 249 180 289 228 241 
247 223 282 234 274 283 184 204 285 
279 179 196 224 208 258 191 264 188 
257 227 230 177 181 309 270 271 265 
216 250 277 238 273 256 331 176 259 
232 226 218 239 261 236 219 243 183 
314 200 240 201 297 293 252 325 182 
276 209 275 327 242 278 251 229 263 
206 237 268 202 332 346 291 321 380 
310 364 336 333 350 343 322 319 344 
288 375 312 303 318 287 302 335 323 
324 360 254 298 305 354 313 295 368 
317 337 329 355 269 359 308 301 334 
304 379 326 299 393 311 294 300 296 
353 315 246 286 388 328 345 357 306 
292 376 382 290 307 365 386 431 349 
377 398 389 348 371 339 341 384 420 
330 342 356 370 440 391 358 378 383 
369 373 338 361 421 387 372 347 340 
367 352 374 366 362 385 390 381 392 
363 351 426 428 422 404 399 405 396 
417 400 433 432 442 439 411 402 415 
419 407 401 434 414 444 435 429 394 
412 424 403 438 423 430 395 406 413 
436 416 397 410 441 443 481 448 427 
503 408 437 469 447 459 418 461 486 
445 409 425 468 484 446 478 477 501 
455 500 492 482 457 485 456 460 465 
488 490 462 472 453 458 498 471 493 
499 474 480 475 470 463 449 452 450 
479 489 497 496 454 483 473 451 487 
491 495 466 494 502 464 467 476 542 
507 544 555 556 549 550 537 512 524 
531 519 543 546 551 520 558 513 557 
539 514 518 553 536 529 505 533 508 
538 548 528 510 515 535 506 534 527 
517 525 522 552 554 509 541 521 526 
599 504 511 545 523 530 532 575 547 
516 540 615 616 611 569 572 608 570 
563 581 568 593 564 614 573 596 567 
591 609 600 574 577 617 598 562 584 
578 565 602 576 589 571 586 588 582 
587 579 595 610 607 594 580 647 561 
560 605 612 601 662 613 559 566 583 
597 585 603 639 604 606 590 592 659 
642 643 727 669 631 661 672 626 648 
668 632 636 655 633 654 634 649 670 
665 625 658 675 618 651 676 630 646 
624 664 653 660 627 635 621 640 641 
674 671 619 629 673 656 644 714 666 
622 628 663 620 650 657 623 637 652 
667 638 645 728 680 718 699 697 702 
698 706 716 677 729 679 694 721 708 
725 689 705 693 704 691 723 681 701 
692 686 709 722 738 696 780 703 720 
724 717 719 700 682 713 690 683 712 
685 711 710 687 726 707 784 695 756 
765 678 684 715 786 688 741 745 774 
733 750 735 825 732 767 764 777 744 
752 769 740 775 802 770 742 755 766 
772 746 739 736 737 743 768 781 734 
759 773 782 762 787 761 783 754 771 
785 779 778 748 753 757 758 760 763 
751 776 731 730 747 749 804 837 807 
800 831 833 822 828 835 798 844 832 
791 808 818 834 846 823 821 810 836 
788 820 815 829 794 842 806 811 795 
805 843 789 827 809 792 841 812 813 
839 793 845 803 801 814 819 799 816 
830 840 796 790 817 797 824 826 838 
862 879 854 880 899 876 865 884 897 
874 869 849 860 870 848 856 891 878 
892 864 863 896 857 889 867 873 882 
847 855 877 871 852 861 893 859 887 
894 883 898 868 886 938 929 950 851 
881 903 957 943 940 875 947 914 939 
853 932 905 924 913 866 942 872 930 
858 907 917 954 890 885 922 906 910 
918 888 911 895 919 916 953 958 904 
920 850 935 986 926 951 1012 990 937 
969 941 915 1014 997 989 925 995 934 
968 909 959 948 961 960 998 952 901 
955 949 900 921 1009 967 928 988 946 
1011 976 993 1016 923 956 992 912 999 
908 1003 931 927 973 963 944 980 1002 
962 983 964 933 936 945 902 1005 987 
1010 972 1000 971 978 975 982 984 1006 
981 966 1007 974 979 1004 977 991 985 
965 1008 1013 970 1001 994 1015 996 
type 1 1016 int
1 1 1 1 1 1 1 1 1 
1 1 1 1 1 1 1 1 1 
1 1 1 1 1 1 1 1 1 
1 1 1 1 1 1 1 1 1 
1 1 1 1 1 1 1 1 1 
1 1 1 1 1 1 1 1 1 
1 1 1 1 1 1 1 1 1 
1 1 1 1 1 1 1 1 1 
1 1 1 1 1 1 1 1 1 
1 1 1 1 1 1 1 1 1 
1 1 1 1 1 1 1 1 1 
1 1 1 1 1 1 1 1 1 
1 1 1 1 1 1 1 1 1 
1 1 1 1 1 1 1 1 1 
1 1 1 1 1 1 1 1 1 
1 1 1 1 1 1 1 1 1 
1 1 1 1 1 1 1 1 1 
1 1 1 1 1 1 1 1 1 
1 1 1 1 1 1 1 1 1 
1 1 1 1 1 1 1 1 1 
1 1 1 1 1 1 1 1 1 
1 1 1 1 1 1 1 1 1 
1 1 1 1 1 1 1 1 1 
1 1 1 1 1 1 1 1 1 
1 1 1 1 1 1 1 1 1 
1 1 1 1 1 1 1 1 1 
1 1 1 1 1 1 1 1 1 
1 1 1 1 1 1 1 1 1 
1 1 1 1 1 1 1 1 1 
1 1 1 1 1 1 1 1 1 
1 1 1 1 1 1 1 1 1 
1 1 1 1 1 1 1 1 1 
1 1 1 1 1 1 1 1 1 
1 1 1 1 1 1 1 1 1 
1 1 1 1 1 1 1 1 1 
1 1 1 1 1 1 1 1 1 
1 1 1 1 1 1 1 1 1 
1 1 1 1 1 1 1 1 1 
1 1 1 1 1 1 1 1 1 
1 1 1 1 1 1 1 1 1 
1 1 1 1 1 1 1 1 1 
1 1 1 1 1 1 1 1 1 
1 1 1 1 1 1 1 1 1 
1 1 1 1 1 1 1 1 1 
1 1 1 1 1 1 1 1 1 
1 1 1 1 1 1 1 1 1 
1 1 1 1 1 1 1 1 1 
1 1 1 1 1 1 1 1 1 
1 1 1 1 1 1 1 1 1 
1 1 1 1 1 1 1 1 1 
1 1 1 1 1 1 1 1 1 
1 1 1 1 1 1 1 1 1 
1 1 1 1 1 1 1 1 1 
1 1 1 1 1 1 1 1 1 
1 1 1 1 1 1 1 1 1 
1 1 1 1 1 1 1 1 1 
1 1 1 1 1 1 1 1 1 
1 1 1 1 1 1 1 1 1 
1 1 1 1 1 1 1 1 1 
1 1 1 1 1 1 1 1 1 
1 1 1 1 1 1 1 1 1 
1 1 1 1 1 1 1 1 1 
1 1 1 1 1 1 1 1 1 
1 1 1 1 1 1 1 1 1 
1 1 1 1 1 1 1 1 1 
1 1 1 1 1 1 1 1 1 
1 1 1 1 1 1 1 1 1 
1 1 1 1 1 1 1 1 1 
1 1 1 1 1 1 1 1 1 
1 1 1 1 1 1 1 1 1 
1 1 1 1 1 1 1 1 1 
1 1 1 1 1 1 1 1 1 
1 1 1 1 1 1 1 1 1 
1 1 1 1 1 1 1 1 1 
1 1 1 1 1 1 1 1 1 
1 1 1 1 1 1 1 1 1 
1 1 1 1 1 1 1 1 1 
1 1 1 1 1 1 1 1 1 
1 1 1 1 1 1 1 1 1 
1 1 1 1 1 1 1 1 1 
1 1 1 1 1 1 1 1 1 
1 1 1 1 1 1 1 1 1 
1 1 1 1 1 1 1 1 1 
1 1 1 1 1 1 1 1 1 
1 1 1 1 1 1 1 1 1 
1 1 1 1 1 1 1 1 1 
1 1 1 1 1 1 1 1 1 
1 1 1 1 1 1 1 1 1 
1 1 1 1 1 1 1 1 1 
1 1 1 1 1 1 1 1 1 
1 1 1 1 1 1 1 1 1 
1 1 1 1 1 1 1 1 1 
1 1 1 1 1 1 1 1 1 
1 1 1 1 1 1 1 1 1 
1 1 1 1 1 1 1 1 1 
1 1 1 1 1 1 1 1 1 
1 1 1 1 1 1 1 1 1 
1 1 1 1 1 1 1 1 1 
1 1 1 1 1 1 1 1 1 
1 1 1 1 1 1 1 1 1 
1 1 1 1 1 1 1 1 1 
1 1 1 1 1 1 1 1 1 
1 1 1 1 1 1 1 1 1 
1 1 1 1 1 1 1 1 1 
1 1 1 1 1 1 1 1 1 
1 1 1 1 1 1 1 1 1 
1 1 1 1 1 1 1 1 1 
1 1 1 1 1 1 1 1 1 
1 1 1 1 1 1 1 1 1 
1 1 1 1 1 1 1 1 1 
1 1 1 1 1 1 1 1 1 
1 1 1 1 1 1 1 1 1 
1 1 1 1 1 1 1 1 
i 3 1016 int
0 0 0 0 0 0 0 0 0 
0 0 0 0 0 0 0 0 0 
0 0 0 0 0 0 0 0 0 
0 0 0 0 0 0 0 0 0 
0 0 0 0 0 0 0 0 0 
0 0 0 0 0 0 0 0 0 
0 0 0 0 0 0 0 0 0 
0 0 0 0 0 0 0 0 0 
0 0 0 1 0 0 0 0 0 
0 0 0 0 0 0 0 0 0 
0 0 0 0 0 0 0 0 0 
0 0 0 0 0 0 0 0 0 
0 0 0 0 0 0 0 0 0 
0 0 0 0 0 0 0 0 0 
-1 0 0 0 0 0 0 0 0 
0 0 0 0 0 0 0 0 0 
0 0 0 0 0 0 0 0 0 
0 0 0 0 0 0 0 0 0 
0 0 0 0 0 0 0 0 0 
0 0 0 0 0 0 0 0 0 
0 0 0 0 0 0 0 0 0 
0 0 0 0 0 0 0 0 0 
0 0 0 0 0 0 0 0 0 
0 0 0 0 0 0 0 0 0 
0 0 0 0 0 0 0 0 0 
0 0 0 0 0 0 0 0 0 
0 0 0 0 0 0 0 0 0 
0 -1 0 0 0 0 0 -1 0 
0 0 0 0 0 0 0 0 0 
0 0 0 0 0 0 0 -1 0 
0 0 0 0 0 0 0 1 0 
0 0 0 0 0 0 0 0 0 
0 0 0 0 0 0 0 0 0 
0 0 0 0 0 0 0 0 0 
0 0 0 0 0 0 0 0 0 
0 0 0 0 0 0 0 0 0 
0 0 0 0 0 0 0 0 0 
0 0 0 0 0 0 0 0 0 
0 0 0 0 0 0 0 0 0 
0 0 0 0 0 0 0 0 0 
0 0 0 0 0 0 0 0 0 
0 0 0 0 0 0 0 0 0 
0 0 0 0 0 0 0 0 0 
0 0 0 0 0 0 0 0 0 
0 0 0 0 0 0 0 0 0 
0 0 0 0 0 0 0 0 0 
0 0 0 0 0 0 0 0 0 
0 0 0 0 0 0 0 0 0 
0 0 0 0 0 0 0 0 0 
0 0 0 0 0 0 0 0 0 
0 0 0 0 0 0 0 0 0 
0 0 0 0 0 0 0 0 0 
0 0 0 0 0 0 0 0 0 
0 0 0 0 0 0 0 0 0 
0 0 0 0 0 0 0 0 0 
0 0 0 0 0 0 0 0 0 
0 0 0 0 0 0 0 0 0 
0 0 0 0 0 0 0 0 0 
0 0 0 0 0 0 0 0 0 
0 0 0 0 0 0 0 0 0 
0 0 0 0 0 0 0 0 0 
0 0 0 0 0 0 0 0 0 
0 0 0 0 0 0 0 0 0 
0 0 0 0 0 0 0 -1 0 
0 0 0 0 0 0 0 -1 0 
0 0 0 0 0 0 0 0 0 
0 0 0 0 0 0 0 0 0 
0 0 0 0 0 0 0 0 0 
0 0 0 0 0 0 0 0 0 
0 0 0 0 0 0 0 0 0 
0 0 0 0 0 0 0 0 0 
0 0 0 0 0 0 0 0 0 
0 0 0 0 0 0 0 0 0 
0 0 0 0 0 0 0 0 0 
0 0 0 0 0 0 0 0 0 
0 0 0 0 0 0 0 0 0 
0 0 0 0 0 0 0 0 0 
0 0 0 0 0 0 0 0 0 
0 0 0 0 0 0 0 0 0 
0 0 0 0 0 0 0 0 0 
0 0 0 0 0 0 0 0 0 
0 0 0 0 0 0 0 0 0 
0 0 0 0 0 0 0 0 0 
0 0 0 0 0 0 0 0 0 
0 0 0 0 0 0 0 0 0 
0 0 0 0 0 0 0 0 0 
0 0 0 0 0 0 0 0 0 
0 0 0 0 0 0 0 0 0 
0 0 0 0 0 0 0 0 0 
0 0 0 0 0 0 0 0 0 
0 0 0 0 0 0 0 0 0 
0 0 0 0 0 0 0 0 0 
0 0 0 0 0 0 0 0 0 
0 0 0 0 0 0 0 0 0 
0 0 0 0 0 0 0 0 0 
0 0 0 0 0 0 0 0 0 
0 0 0 0 0 0 0 0 0 
0 0 0 0 0 0 0 0 0 
0 0 0 0 0 0 0 0 0 
0 0 0 0 0 0 0 0 0 
0 0 0 0 0 0 0 0 0 
0 0 0 0 0 0 0 0 0 
0 0 0 0 0 0 0 0 0 
0 0 0 0 0 0 0 0 0 
0 0 0 0 0 0 0 0 0 
0 0 0 0 0 0 0 0 0 
0 0 0 0 0 0 0 0 0 
0 0 0 0 0 0 0 0 0 
0 0 0 0 0 0 0 0 0 
0 0 0 0 0 0 0 0 0 
0 0 0 0 0 0 0 0 0 
0 0 0 0 0 0 0 0 0 
0 0 0 0 0 0 0 0 0 
0 0 0 0 0 0 0 0 0 
0 0 0 0 0 0 0 0 0 
0 0 0 0 0 0 0 0 0 
0 0 0 0 0 0 0 0 0 
0 0 0 0 0 0 0 0 0 
0 0 0 0 0 0 0 0 0 
0 0 0 0 0 0 0 0 0 
0 0 0 0 0 0 0 0 0 
0 0 0 0 0 0 0 0 0 
0 0 0 0 0 0 0 0 0 
0 0 0 0 0 0 0 0 0 
0 0 0 0 0 0 0 0 0 
0 0 0 0 0 0 0 0 0 
0 0 0 0 0 0 0 0 0 
0 0 0 0 0 0 0 0 0 
0 0 0 0 0 0 0 0 0 
0 0 0 0 0 0 0 0 0 
0 0 0 0 0 0 0 0 0 
0 0 0 0 0 0 0 0 0 
0 0 0 0 0 0 0 0 0 
0 0 0 0 0 0 0 0 0 
0 0 0 0 0 0 0 0 0 
0 0 0 0 0 0 0 0 0 
0 0 0 0 0 0 0 0 0 
0 0 0 0 0 0 0 0 0 
0 0 0 0 0 0 0 0 0 
0 0 0 0 0 0 0 0 0 
0 0 0 0 0 0 0 0 0 
0 0 0 0 0 0 0 0 0 
0 0 0 0 0 0 0 0 0 
0 0 0 0 0 0 0 0 0 
0 0 0 0 0 0 0 0 0 
0 0 0 0 0 0 0 0 0 
0 0 0 0 0 0 0 0 0 
0 0 0 0 0 0 0 0 0 
0 0 0 0 0 0 0 0 0 
0 0 0 0 0 0 0 0 0 
0 0 0 0 0 0 0 0 0 
0 0 0 0 0 0 0 0 0 
0 0 0 0 0 0 0 0 0 
0 0 0 0 0 0 0 0 0 
0 0 0 0 0 0 0 0 0 
0 0 0 0 0 0 0 0 0 
0 0 0 0 0 0 0 0 0 
0 0 0 0 0 0 0 0 0 
0 0 0 0 0 0 0 0 0 
0 0 0 0 0 0 0 0 0 
0 0 0 0 0 0 0 0 0 
0 0 0 0 0 0 0 0 0 
0 0 0 0 0 0 0 0 0 
0 0 0 0 0 0 0 0 0 
0 0 0 0 0 0 0 0 0 
0 0 0 0 0 0 0 0 0 
0 0 0 0 0 0 0 0 0 
0 0 0 0 0 0 0 0 0 
0 0 0 0 0 0 0 0 0 
0 0 0 0 0 0 0 0 0 
0 0 0 0 0 0 0 0 0 
0 0 0 0 0 0 0 0 0 
0 0 0 0 0 0 0 0 0 
0 0 0 0 0 0 0 0 0 
0 0 0 0 0 0 0 0 0 
0 0 0 0 0 0 0 0 0 
0 0 0 0 0 0 0 0 0 
0 0 0 0 0 0 0 0 0 
0 0 0 0 0 0 0 0 0 
0 0 0 0 0 0 0 0 0 
0 0 0 0 0 0 0 0 0 
0 0 0 0 0 0 0 0 0 
0 0 0 0 0 0 0 0 0 
0 0 0 0 0 0 0 0 0 
0 0 0 0 0 0 0 0 0 
0 0 0 0 0 0 0 0 0 
0 0 0 0 0 0 0 0 0 
0 0 0 0 0 0 0 0 0 
0 0 0 0 0 0 0 0 0 
0 0 0 0 0 0 0 0 0 
0 0 0 0 0 0 0 0 0 
0 0 0 0 0 0 0 0 0 
0 0 0 0 0 0 0 0 0 
0 0 0 0 0 0 0 0 0 
0 0 0 0 0 0 0 0 0 
0 0 0 0 0 0 0 0 0 
0 0 0 0 0 0 0 0 0 
0 0 0 0 0 0 0 0 0 
0 0 0 0 0 0 0 0 0 
0 0 0 0 0 0 0 0 0 
0 0 0 0 0 0 0 0 0 
0 0 0 0 0 0 0 0 0 
0 0 0 0 0 0 0 0 0 
0 0 0 0 0 0 0 0 0 
0 0 0 0 0 0 0 0 0 
0 0 0 0 0 0 0 0 0 
0 0 0 0 0 0 0 0 0 
0 0 0 0 0 0 0 0 0 
0 0 0 0 0 0 0 0 0 
0 0 0 0 0 0 0 0 0 
0 0 0 0 0 0 0 0 0 
0 0 0 0 0 0 0 0 0 
0 0 0 0 0 0 0 0 0 
0 0 0 0 0 0 0 0 0 
0 0 0 0 0 0 0 0 0 
0 0 0 0 0 0 0 0 0 
0 0 0 0 0 0 0 0 0 
0 0 0 0 0 0 0 0 0 
0 0 0 0 0 0 0 0 0 
0 0 0 0 0 0 0 0 0 
0 0 0 0 0 0 0 0 0 
0 0 0 0 0 0 0 0 0 
0 0 0 0 0 0 0 0 0 
0 0 0 0 0 0 0 0 0 
0 0 0 0 0 0 0 0 0 
0 0 0 0 0 0 0 0 0 
0 0 0 0 0 0 0 0 0 
0 0 0 0 0 0 0 0 0 
0 0 0 0 0 0 0 0 0 
0 0 0 0 0 0 0 0 0 
0 0 0 0 0 0 0 0 0 
0 0 0 0 0 0 0 0 0 
0 0 0 0 0 0 0 0 0 
0 0 0 0 0 0 0 0 0 
0 0 0 0 0 0 0 0 0 
0 0 0 0 0 0 0 0 0 
0 0 0 0 0 0 0 0 0 
0 0 0 0 0 0 0 0 0 
0 0 0 0 0 0 0 0 0 
0 0 0 0 0 0 0 0 0 
0 0 0 0 0 0 0 0 0 
0 0 0 0 0 0 0 0 0 
0 0 0 0 0 0 0 0 0 
0 0 0 0 0 0 0 0 0 
0 0 0 0 0 0 0 0 0 
0 0 0 0 0 0 0 0 0 
0 0 0 0 0 0 0 0 0 
0 0 0 0 0 0 0 0 0 
0 0 0 0 0 0 0 0 0 
0 0 0 0 0 0 0 0 0 
0 0 0 0 0 0 0 0 0 
0 0 0 0 0 0 0 0 0 
0 0 0 0 0 0 0 0 0 
0 0 0 0 0 0 0 0 0 
0 0 0 0 0 0 0 0 0 
0 0 0 0 0 0 0 0 0 
0 0 0 0 0 0 0 0 0 
0 0 0 0 0 0 0 0 0 
0 0 0 0 0 0 0 0 0 
0 0 0 0 0 0 0 0 0 
0 0 0 0 0 0 0 0 0 
0 0 0 0 0 0 0 0 0 
0 0 0 0 0 0 0 0 0 
0 0 0 0 0 0 0 0 0 
0 0 0 0 0 0 0 0 0 
0 0 0 0 0 0 0 0 0 
0 0 0 0 0 0 0 0 0 
0 0 0 0 0 0 0 0 0 
0 0 0 0 0 0 0 0 0 
0 0 0 0 0 0 0 0 0 
0 0 0 0 0 0 0 0 0 
0 0 0 0 0 0 0 0 0 
0 0 0 0 0 0 0 0 0 
0 0 0 0 0 0 0 0 0 
0 0 0 0 0 0 0 0 0 
0 0 0 0 0 0 0 0 0 
0 0 0 0 0 0 0 0 0 
0 0 0 0 0 0 0 0 0 
0 0 0 0 0 0 0 0 0 
0 0 0 0 0 0 0 0 0 
0 0 0 0 0 0 0 0 0 
0 0 0 0 0 0 0 0 0 
0 0 0 0 0 0 0 0 0 
0 0 0 0 0 0 0 0 0 
0 0 0 0 0 0 0 0 0 
0 0 0 0 0 0 0 0 0 
0 0 0 0 0 0 0 0 0 
0 0 0 0 0 0 0 0 0 
0 0 0 0 0 0 0 0 0 
0 0 0 0 0 0 0 0 0 
0 0 0 0 0 0 0 0 0 
0 0 0 0 0 0 0 0 0 
0 0 0 0 0 0 0 0 0 
0 0 0 0 0 0 0 0 0 
0 0 0 0 0 0 0 0 0 
0 0 0 0 0 0 0 0 0 
0 0 0 0 0 0 0 0 0 
0 0 0 0 0 0 0 0 0 
0 0 0 0 0 0 0 0 0 
0 0 0 0 0 0 0 0 0 
0 0 0 0 0 0 0 0 0 
0 0 0 0 0 0 0 0 0 
0 0 0 0 0 0 0 0 0 
0 0 0 0 0 0 0 0 0 
0 0 0 0 0 0 0 0 0 
0 0 0 0 0 0 0 0 0 
0 0 0 0 0 0 0 0 0 
0 0 0 0 0 0 0 0 0 
0 0 0 0 0 0 0 0 0 
0 0 0 0 0 0 0 0 0 
0 0 0 0 0 0 0 0 0 
0 0 0 0 0 0 0 0 0 
0 0 0 0 0 0 0 0 0 
0 0 0 0 0 0 0 0 0 
0 0 0 0 0 0 0 0 0 
0 0 0 0 0 0 0 0 0 
0 0 0 0 0 0 0 0 0 
0 0 0 0 0 0 0 0 0 
0 0 0 0 0 0 0 0 0 
0 0 0 0 0 0 0 0 0 
0 0 0 0 0 0 0 0 0 
0 0 0 0 0 0 0 0 0 
0 0 0 0 0 0 0 0 0 
0 0 0 0 0 0 0 0 0 
0 0 0 0 0 0 0 0 0 
0 0 0 0 0 0 0 0 0 
0 0 0 0 0 0 0 0 0 
0 0 0 0 0 0 0 0 0 
0 0 0 0 0 0 0 0 0 
0 0 0 0 0 0 0 0 0 
0 0 0 0 0 0 0 0 0 
0 0 0 0 0 0 0 0 0 
0 0 0 0 0 0 0 0 0 
0 0 0 0 0 0 0 0 0 
0 0 0 0 0 0 0 0 0 
0 0 0 0 0 0 0 0 0 
0 0 0 0 0 0 0 0 0 
0 0 0 0 0 0 0 0 0 
0 0 0 0 0 0 
v 3 1016 double
-0.000120456 8.39508e-05 1.32536e-05 -0.000339986 -0.000667254 -0.000786938 -8.17454e-05 0.000397304 5.78631e-05 
0.000133964 -0.000993132 -3.46165e-08 -0.000399418 0.00111318 -0.000133329 -0.000346953 0.000872115 -2.7284e-06 
-0.000454584 -3.4203e-05 -8.04377e-05 -9.88866e-05 -2.75398e-05 -0.000504879 -6.42354e-05 -0.000309985 2.60569e-05 
0.000587253 -0.000166607 -0.000335232 0.000476509 5.79028e-06 -0.000150532 -0.000966661 -0.000187558 3.32867e-05 
0.00078001 -0.000561603 -1.18033e-06 -0.000391163 0.00100746 -5.90561e-05 -0.000482848 0.000477268 7.92699e-05 
0.00012515 -0.000357867 -2.4948e-05 7.36443e-05 -0.000192102 -0.000285218 0.000487806 -0.000332496 -5.45661e-06 
-0.000443182 -0.000571682 5.02516e-11 -2.95994e-05 0.000326989 5.4624e-06 0.00133394 -0.000183313 6.06292e-05 
0.000261142 -0.000129665 0.000116645 0.000719323 -0.000375409 -1.82875e-05 0.000888251 -0.00138419 -1.90702e-05 
-0.000684719 -0.00110215 6.40312e-05 -0.000311341 -0.000859681 -1.06239e-05 -0.000402484 0.00021852 -0.000248943 
2.99816e-05 0.00041596 -2.68788e-05 0.000574673 0.000895115 -4.89655e-05 -0.000854148 -0.00035602 -1.47799e-05 
0.000237407 -0.000147699 -1.34702e-06 -6.26786e-05 -0.000641417 7.36519e-06 -0.00120249 0.00128287 -0.000117312 
0.00038225 4.26637e-05 3.77595e-05 0.000382914 4.9437e-05 0.000171761 0.000275405 -0.000246471 -1.59073e-05 
-0.000402663 4.13722e-05 0.000190021 -0.000676102 0.00101676 -0.000504908 -0.000843122 -0.000355062 1.85872e-06 
5.14535e-05 -0.000249903 4.69722e-05 0.000556765 -7.22189e-05 -0.0018331 -0.000115989 -0.000817043 -0.000132211 
-0.00025452 -0.000468925 -0.000236031 0.000200148 -0.000505849 2.44523e-05 0.000338604 0.000106113 -0.000136044 
0.000433106 4.5008e-06 -0.000144418 7.21258e-05 -0.000171804 2.59897e-05 0.000237262 2.5567e-06 -8.71427e-06 
0.000586757 -0.000258271 8.08893e-05 0.00100292 -9.74515e-05 0.000105938 0.000522025 -9.94084e-05 7.20281e-05 
-0.00120492 0.00136259 -2.14118e-14 0.00131595 0.000283401 -7.47711e-10 0.000586401 -0.000253766 0.000186302 
0.000638353 0.000190879 6.07387e-07 0.000326606 -0.000188157 8.28873e-05 -0.000308349 -2.20279e-05 -6.15235e-05 
0.000100793 0.000558963 -0.000802934 0.000458641 -9.05078e-05 -2.38625e-05 0.00134657 0.000451773 4.73389e-05 
0.000771959 -3.05048e-07 0.000154624 0.000415937 0.000552078 -0.000135077 0.00024701 9.66889e-05 -0.000264895 
0.00146906 0.000344799 0.000128583 0.00021217 4.59396e-05 2.00403e-05 -0.000361945 -0.000441886 4.1607e-06 
-0.0011994 -0.000395165 -2.67797e-08 -0.000709436 -0.000877268 -3.81063e-05 -0.000760089 -0.000898434 -3.40723e-05 
-7.1683e-05 0.000423361 -4.96067e-11 -3.67565e-05 0.00130037 8.26644e-05 0.000287481 0.000278261 -0.000228081 
0.000355424 -0.000657638 0.00061954 -5.82795e-06 0.0010754 0.000360988 -1.62362e-05 0.000774973 3.86437e-05 
0.00149992 0.000238351 9.67802e-06 -0.000247622 -0.00123438 -8.93437e-05 5.70935e-05 -0.000301126 -0.000420036 
0.000483443 3.50961e-05 -0.00135707 -0.000656699 0.000185941 7.75583e-05 -0.000758967 -0.000231072 4.67945e-05 
-0.000359257 -0.00135775 0.000373816 0.000686777 -0.000964747 -9.77393e-05 -0.00028568 0.000391524 2.70798e-06 
0.000194564 0.00113328 -3.31281e-07 0.000598909 0.00168386 5.0684e-05 0.00078755 0.00110257 -0.000329727 
0.000113876 -0.000234828 8.92452e-06 -0.000626956 -0.000146895 -0.000817179 7.40098e-06 0.00122572 -5.07311e-05 
-0.000519093 0.000246717 -3.39864e-05 -0.00103201 0.000504195 -4.90646e-05 -0.000366662 3.77147e-05 -0.000573625 
0.00106218 -0.00175414 -0.000284305 0.000543779 -0.000339513 -1.96306e-05 0.000586578 -0.00246487 0.000487903 
-0.00127412 0.00112287 0.000715242 -0.000811547 0.000470245 0.000449317 -0.000362691 0.000338038 -0.000758731 
-0.000150251 -0.000940812 -0.000113424 0.00043274 -0.000907803 -0.00047928 0.000189235 -0.000638845 -0.000296558 
0.00025809 -0.000700789 -0.000217887 0.000300265 -0.00144893 -0.000596805 -0.000385913 -0.000606671 -0.00280675 
0.00019087 -0.00103854 0.000198002 -0.000197202 -0.000383783 0.000733897 9.12131e-06 -0.000313587 -0.000216624 
-0.00044826 0.000107459 -0.000983637 0.00125357 -0.00144497 3.97054e-05 -9.02424e-05 -0.000675698 0.000236958 
0.000949227 0.000243373 -0.000612513 -0.00222543 0.00136947 -0.00268456 -0.00193421 -0.00114026 -0.000242492 
0.000360868 8.08247e-05 -0.000838077 0.000467158 0.000976392 -0.000749461 0.000256626 -0.000813043 5.72189e-05 
0.000504174 -0.000201542 -0.000140513 0.0014027 0.000299168 -1.26769e-05 0.00130738 -0.000208293 0.000546001 
0.000360004 -0.0010674 0.000363125 -0.000640907 -0.00039594 -0.000109767 0.000222844 0.000220146 0.000174321 
0.000165217 0.000762119 -8.5164e-05 -0.0020415 -0.000704891 -0.0012247 0.000215314 -0.000145544 0.000121092 
-0.000479202 -4.68542e-05 0.000229585 -0.00114345 0.000676381 1.35654e-05 -0.00046266 0.000592587 -0.00142659 
1.02131e-05 -0.00113504 -0.000402523 -0.000674606 -0.000376481 -0.000174407 0.000295818 -0.00261088 -0.000982171 
-0.000648359 -7.39678e-05 -0.000157279 0.000258837 -0.00145272 -0.000737798 7.93085e-05 -0.00103958 -0.000215364 
0.000443056 -0.000644991 -7.74844e-05 -0.00159172 -0.000432274 -0.000868541 -0.0003545 -0.00138011 0.00067998 
0.000886862 -0.000753077 -0.00184369 0.00024544 -0.000571971 -0.000151315 0.000524878 -0.000351021 -7.51156e-07 
0.0005014 -0.000920647 -0.000202087 0.000522257 -0.000190525 0.000252457 0.00042837 -0.000452725 0.000125656 
0.000368806 -0.000394381 -0.000381095 -0.000207006 -0.000561016 3.01093e-06 0.000174355 -0.000610415 0.000457305 
-0.000778569 -0.00220588 -0.00110833 -0.00127292 0.000327175 -0.000791694 -0.000516855 -0.000498555 -0.0024022 
-0.0001773 -0.000251573 -0.00226084 0.00101537 0.000409338 -0.0004441 0.000562433 -0.00106812 -9.07033e-06 
0.00118243 -0.000444478 0.000172819 0.00143937 0.000587207 0.000136419 0.000305023 0.00133381 -0.000182932 
0.00121127 0.000232465 0.00036542 -0.000217713 -0.000324678 -0.000765319 0.000413022 -0.000185418 8.54238e-05 
-0.00127299 -0.000221438 9.22993e-05 0.000503262 -0.000998864 -0.00171509 0.00128478 -8.25372e-05 0.000159074 
0.00089333 -7.95677e-05 4.13702e-05 -0.000137843 0.000859131 -0.00022145 -0.000223245 0.00134117 -0.000757545 
0.000393145 -0.000200036 0.000530343 -0.000620137 6.80271e-05 0.000380521 0.000590566 -0.000138512 -0.00210597 
0.00127551 3.02275e-05 -0.000505556 0.000145908 0.000893862 0.000309863 1.91619e-05 0.000150438 -0.000401523 
0.000382638 0.00168656 -0.000126019 0.00125112 0.000156949 -0.000689276 0.00144776 2.55463e-06 -0.00123738 
-0.00118308 0.00086096 0.000256334 -0.000324774 0.00103368 -3.81262e-05 -0.00114493 0.000371449 0.000258768 
0.000321921 -0.0012529 -0.00409951 -0.000209204 0.000221119 0.000135149 0.0015516 0.0016618 0.00017959 
0.000662847 0.000235104 0.000923875 0.000138972 0.00152837 -0.000105006 0.000195972 -0.000363511 0.000124704 
-0.00025094 -0.000662265 -2.46449e-05 -0.000673249 0.000747038 0.000456465 3.43303e-05 -0.000522012 -0.000252934 
0.0004354 -0.000756013 -0.00034114 0.000385202 0.000295621 0.000153803 0.00164691 -0.000256842 0.000682411 
-0.000617255 -0.000872353 0.00102553 0.000422391 0.000707349 -0.00024616 -0.000389841 -0.000425489 0.000920486 