FoamFile
{version 2.0; format ascii;class Cloud<passiveParticle>; location 0;object  positions;}
41
(
( -67.7801 -326.83 99.8294 ) 0 
( -236.786 -433.41 99.7887 ) 0 
( -138.474 -139.876 99.8315 ) 0 
( -485.709 -332.776 99.7836 ) 0 
( -342.475 -138.19 99.8554 ) 0 
( -436.55 -45.7602 284.441 ) 0 
( -241.555 -268.625 212.752 ) 0 
( -414.953 -404.827 272.183 ) 0 
( -106.342 -224.835 353.318 ) 0 
( -239.732 -61.5527 253.254 ) 0 
( -135.509 -423.548 281.573 ) 0 
( -452.35 -229.703 361.09 ) 0 
( -304.016 -117.387 434.076 ) 0 
( -67.7077 -174.212 542.804 ) 0 
( -29.0279 -385.082 446.719 ) 0 
( -135.127 -11.468 448.12 ) 0 
( -489.067 -413.846 457.572 ) 0 
( -281.22 -327.983 399.368 ) 0 
( -391.104 -255.29 549.668 ) 0 
( -178.828 -338.537 570.712 ) 0 
( -244.713 -129.968 624.572 ) 0 
( -146.499 -279.159 758.841 ) 0 
( -27.8147 -452.502 635.433 ) 0 
( -57.4687 -101.911 733.669 ) 0 
( -336.907 -396.093 680.787 ) 0 
( -462.899 -280.085 784.37 ) 0 
( -439.777 -111.402 679.631 ) 0 
( -299.708 -163.125 813.898 ) 0 
( -450.136 -42.6802 867.143 ) 0 
( -175.833 -476.737 767.604 ) 0 
( -174.727 -234.472 955.917 ) 0 
( -305.205 -362.711 875.354 ) 0 
( -378.821 -216.087 989.714 ) 0 
( -121.78 -42.4694 973.308 ) 0 
( -254.675 -498.804 1012.87 ) 0 
( -71.7184 -421.827 929.223 ) 0 
( -364.669 -34.4524 1072.19 ) 0 
( -142.603 -362.132 1106.45 ) 0 
( -72.4101 -38.3569 1167.06 ) 0 
( -245.98 -182.473 1135.38 ) 0 
( -395.538 -384.241 1096.66 ) 0 
)
