/*--------------------------------*- C++ -*----------------------------------*\
| =========                 |                                                 |
| \\      /  F ield         | OpenFOAM: The Open Source CFD Toolbox           |
|  \\    /   O peration     | Version:  5.x                                   |
|   \\  /    A nd           | Web:      www.OpenFOAM.org                      |
|    \\/     M anipulation  |                                                 |
\*---------------------------------------------------------------------------*/
FoamFile
{
    version     2.0;
    format      ascii;
    class       surfaceScalarField;
    location    "10000";
    object      phi;
}
// * * * * * * * * * * * * * * * * * * * * * * * * * * * * * * * * * * * * * //

dimensions      [0 3 -1 0 0 0 0];

internalField   nonuniform List<scalar> 
179
(
2.97313e+07
2.97364e+07
2.97423e+07
2.97486e+07
2.97562e+07
2.97636e+07
2.97723e+07
2.97792e+07
2.97831e+07
2.97878e+07
2.97899e+07
2.97914e+07
2.97918e+07
2.979e+07
2.97845e+07
2.97813e+07
2.97782e+07
2.97713e+07
2.9762e+07
2.97542e+07
2.9746e+07
2.97328e+07
2.97208e+07
2.97067e+07
2.96956e+07
2.96853e+07
2.96756e+07
2.96674e+07
2.9662e+07
2.96582e+07
2.96559e+07
2.96581e+07
2.96577e+07
2.96585e+07
2.96606e+07
2.9667e+07
2.96725e+07
2.96795e+07
2.96933e+07
2.97025e+07
2.9712e+07
2.97127e+07
2.97158e+07
2.97221e+07
2.97244e+07
2.97316e+07
2.97437e+07
2.9759e+07
2.97751e+07
2.97895e+07
2.98064e+07
2.98284e+07
2.98543e+07
2.98814e+07
2.99129e+07
2.99486e+07
2.99829e+07
3.00133e+07
3.00447e+07
3.00747e+07
3.01007e+07
3.01222e+07
3.01356e+07
3.01458e+07
3.01464e+07
3.01354e+07
3.0125e+07
3.01062e+07
3.00794e+07
3.00504e+07
3.0022e+07
2.99837e+07
2.99324e+07
2.98801e+07
2.98277e+07
2.97739e+07
2.97201e+07
2.96672e+07
2.96117e+07
2.95499e+07
2.9485e+07
2.94184e+07
2.9354e+07
2.92945e+07
2.92406e+07
2.91866e+07
2.91357e+07
2.90958e+07
2.90594e+07
2.90336e+07
2.9023e+07
2.90247e+07
2.9038e+07
2.90686e+07
2.91125e+07
2.91661e+07
2.92298e+07
2.93047e+07
2.93853e+07
2.94714e+07
2.9561e+07
2.96559e+07
2.97519e+07
2.98515e+07
2.99535e+07
3.00555e+07
3.01503e+07
3.0239e+07
3.03182e+07
3.04029e+07
3.04744e+07
3.05493e+07
3.06171e+07
3.06877e+07
3.07418e+07
3.0782e+07
3.08154e+07
3.0837e+07
3.08478e+07
3.08578e+07
3.08565e+07
3.085e+07
3.08401e+07
3.08246e+07
3.08109e+07
3.07965e+07
3.07908e+07
3.07991e+07
3.08334e+07
3.08698e+07
3.09161e+07
3.09613e+07
3.09999e+07
3.10297e+07
3.10465e+07
3.10488e+07
3.10332e+07
3.09993e+07
3.09468e+07
3.0878e+07
3.07932e+07
3.06877e+07
3.05654e+07
3.04235e+07
3.02694e+07
3.01049e+07
2.99366e+07
2.97679e+07
2.96022e+07
2.9442e+07
2.92854e+07
2.91338e+07
2.89836e+07
2.88381e+07
2.86954e+07
2.85594e+07
2.84304e+07
2.83103e+07
2.82004e+07
2.81002e+07
2.80103e+07
2.79305e+07
2.78599e+07
2.77988e+07
2.77491e+07
2.77093e+07
2.7679e+07
2.76592e+07
2.76485e+07
2.76482e+07
2.76578e+07
2.76713e+07
2.76915e+07
2.77135e+07
2.77311e+07
2.77442e+07
2.77541e+07
2.77631e+07
2.77459e+07
)
;

boundaryField
{
    inlet
    {
        type            calculated;
        value           uniform 2.77209e+07;
    }
    outlet
    {
        type            calculated;
        value           uniform -2.97281e+07;
    }
    repeat_boundary
    {
        type            calculated;
        value           uniform 0;
    }
    procBoundary0to1
    {
        type            processor;
        value           nonuniform List<scalar> 
180
(
-1306.67
-2780.26
-4253.64
-5142.91
-6598.96
-6212.98
-8675.21
-7108.78
-3468.28
-2095.68
865.744
1289.05
2227.55
4707.25
9125.96
9988.04
9645.69
11419.1
12574.5
9967.46
10746.5
10778.5
10333.6
11702
10597.5
11340.2
10958.1
11381.4
8618.66
7153.1
6398.03
4243.64
6052.69
4432.43
1561.11
-4318.73
-3674.44
-1555.39
-5205.34
-5271.65
-10830.6
-6199.41
-10026
-12620.8
-12052
-16254
-16663.2
-15579.9
-15864.4
-13936
-14992.7
-15840.1
-14716.2
-12278.3
-11145.2
-12073.6
-8242.58
-2954.65
-1351.24
1788.86
5278.34
8570.23
14996.8
20502.2
28252.2
36722.6
39163.5
43418.1
48531.7
49414.4
47562
48570.2
52408.6
49622.2
48764.2
48800.7
48596.8
42977.5
41952
42980.6
42345.8
42176.8
36876.7
30597.7
21539.7
20512.2
11524
-1239.56
-4789.72
-10515
-18228.5
-21480.7
-23136.1
-29450.2
-33712.2
-34881
-38638.6
-43432.1
-44450.7
-45318.6
-45665.4
-47207.2
-46083.8
-46457.1
-46860.1
-44010.9
-36392
-28095.2
-17947.6
-20859.2
-9608.15
-12726.2
-5683.36
-7537.12
6890.24
19925.2
25582.1
33080.3
41228.9
37207
46088.8
46292.4
49108.9
58292
58370.1
65022.2
63187.9
59208.9
45186.3
48125
42829.2
46454.6
52653.1
55258.8
64240.8
70635.5
81487
86716.2
94096.1
97269.3
101804
105291
109018
109768
108380
101113
92187
77849.7
63767.4
46774.1
33327.3
18581.1
7037.74
-7242.56
-20392.6
-36993.5
-52803.8
-70483.5
-86105.3
-101191
-113241
-123168
-130121
-134863
-137283
-138173
-137806
-136769
-135350
-133389
-131875
-131147
-132174
-130029
-125647
-119545
-111072
-100505
-70443.5
-43447.7
)
;
    }
    procBoundary0to2
    {
        type            processor;
        value           nonuniform List<scalar> 
180
(
-1923.88
-2239.78
-1658.2
-1139.4
-1036.15
-1160.64
-41.6079
171.102
-431.285
-2535.42
-2982.14
-2861.8
-2568.86
-2900.91
-3641.93
-6814.65
-6486.92
-4602.47
-3272.82
-2157.07
-2500.87
2395.75
1667.45
2403.29
459.64
-1016.78
-1253.13
-3181.32
-3212.46
-3361.28
-4126.15
-6351.58
-5702.57
-5236.76
-3655.78
-2043.08
-1900.32
-5402.37
-8593.57
-3975.66
1365.5
5513.75
6899.83
6306.01
9812.58
9031.82
4550.29
311.489
-288.993
-416.011
-1874.02
-6187.25
-11191.4
-14852.3
-20319.3
-23623
-26105.8
-27378.8
-30117.7
-31790.6
-31251.2
-30020.4
-28450.5
-30705.8
-28854.8
-25707.7
-28749.2
-24657.8
-21664
-20485.7
-19165.4
-10285.1
-1058.89
2718.9
3621.66
4941.94
5279.76
9832.73
13563.9
18797.2
22601.3
24393.1
27588.2
28911.9
32306.1
33523.2
39302.3
41154.7
41203.9
36325.4
28857.4
19777.8
9773.95
-1080.51
-10225.7
-18670.6
-25142.5
-31446.1
-36112.8
-40786.4
-43940.9
-47686.7
-49956.1
-53085.8
-55129.8
-58033.4
-58347.1
-60644.7
-61278.4
-63796.8
-61894.5
-62207.1
-62157.2
-63019.9
-61014.3
-60061.2
-59042.7
-54675
-52039.2
-47137.3
-44829
-39755.5
-39239.8
-42783.2
-44696.3
-50606.7
-57455.7
-67539
-79440.8
-84524.9
-89211.2
-91572.5
-91253.4
-85081.9
-81059.8
-72895.3
-65943.8
-52758
-41613.2
-28502.5
-17008.9
241.567
13295.4
32067.1
45727.3
63440.6
76093.5
90873.1
101878
113394
123347
132995
143168
152747
163058
173023
181779
190623
196026
201307
203190
202971
200705
195992
187003
177932
168065
156601
146098
133630
122294
117599
111990
108066
107993
106476
101210
91470
87630.1
68442
)
;
    }
}


// ************************************************************************* //
