/*--------------------------------*- C++ -*----------------------------------*\
| =========                 |                                                 |
| \\      /  F ield         | OpenFOAM: The Open Source CFD Toolbox           |
|  \\    /   O peration     | Version:  5.x                                   |
|   \\  /    A nd           | Web:      www.OpenFOAM.org                      |
|    \\/     M anipulation  |                                                 |
\*---------------------------------------------------------------------------*/
FoamFile
{
    version     2.0;
    format      ascii;
    class       volVectorField;
    location    "300";
    object      stored_U;
}
// * * * * * * * * * * * * * * * * * * * * * * * * * * * * * * * * * * * * * //

dimensions      [0 1 -1 0 0 0 0];

internalField   nonuniform List<vector> 
90
(
(-0.0276215 -0.017717 -4.45857)
(-0.0288935 -0.0181958 -4.44808)
(-0.0258907 -0.0216148 -4.45374)
(-0.0248244 -0.0241755 -4.45972)
(-0.018065 -0.0247674 -4.45083)
(-0.0216458 -0.0251154 -4.45116)
(-0.0230398 -0.0203338 -4.44233)
(-0.0229242 -0.0207542 -4.44816)
(-0.0199291 -0.0227033 -4.44393)
(-0.0177804 -0.0272041 -4.43047)
(-0.0117224 -0.0326711 -4.43148)
(-0.00826426 -0.0379349 -4.42297)
(-0.00719953 -0.0430172 -4.41464)
(-0.007158 -0.0470408 -4.40378)
(-0.00311903 -0.0578176 -4.381)
(0.00142015 -0.0756256 -4.37433)
(-0.00214266 -0.084216 -4.34575)
(-0.00842295 -0.0972686 -4.32866)
(-0.0137348 -0.109393 -4.31057)
(-0.0204132 -0.120949 -4.28872)
(-0.0330478 -0.14038 -4.25307)
(-0.0402492 -0.153103 -4.24495)
(-0.0514933 -0.174237 -4.19887)
(-0.0559768 -0.191775 -4.17838)
(-0.0594308 -0.211144 -4.14691)
(-0.0599837 -0.230967 -4.1135)
(-0.0582946 -0.251295 -4.07776)
(-0.0543739 -0.272116 -4.03889)
(-0.0484505 -0.293416 -3.99668)
(-0.0408271 -0.315111 -3.95091)
(-0.0318817 -0.337088 -3.9014)
(-0.0220475 -0.359181 -3.84811)
(-0.0117867 -0.381172 -3.7911)
(-0.00155599 -0.402796 -3.73058)
(0.00822536 -0.423758 -3.66689)
(0.0172054 -0.443756 -3.60051)
(0.0251208 -0.462513 -3.53199)
(0.0318118 -0.479799 -3.46194)
(0.0372306 -0.495468 -3.39102)
(0.0414371 -0.509464 -3.31981)
(0.0445846 -0.521839 -3.24879)
(0.0468998 -0.532738 -3.1783)
(0.0486538 -0.542375 -3.10851)
(0.0501335 -0.551006 -3.03942)
(0.0516316 -0.558786 -2.97068)
(0.0533652 -0.565847 -2.90188)
(0.055527 -0.572243 -2.83247)
(0.0583136 -0.577897 -2.76187)
(0.0619344 -0.582572 -2.68954)
(0.0666013 -0.585897 -2.61495)
(0.0724272 -0.58737 -2.53778)
(0.0794574 -0.586388 -2.45803)
(0.0876693 -0.582391 -2.37537)
(0.0969725 -0.575149 -2.2902)
(0.107132 -0.56507 -2.2024)
(0.118034 -0.551728 -2.11238)
(0.129903 -0.533843 -2.02073)
(0.142679 -0.511474 -1.92796)
(0.156364 -0.484816 -1.83469)
(0.171053 -0.454228 -1.74155)
(0.18695 -0.420249 -1.64912)
(0.204325 -0.38361 -1.55788)
(0.223431 -0.345244 -1.46817)
(0.244387 -0.306276 -1.38018)
(0.26707 -0.267974 -1.294)
(0.291055 -0.231654 -1.2097)
(0.315629 -0.198584 -1.12737)
(0.33989 -0.169891 -1.04718)
(0.362886 -0.146422 -0.969291)
(0.383739 -0.128658 -0.894081)
(0.401689 -0.116664 -0.821935)
(0.416083 -0.110135 -0.753217)
(0.426378 -0.108578 -0.688351)
(0.432153 -0.111388 -0.627596)
(0.433119 -0.117908 -0.571163)
(0.429158 -0.127503 -0.519651)
(0.420207 -0.139677 -0.473516)
(0.406045 -0.154119 -0.432185)
(0.386531 -0.170377 -0.396015)
(0.361593 -0.188114 -0.365253)
(0.331244 -0.207155 -0.340155)
(0.295534 -0.227418 -0.320999)
(0.254699 -0.248895 -0.308083)
(0.209294 -0.271565 -0.30172)
(0.160254 -0.295297 -0.301926)
(0.109235 -0.320018 -0.309194)
(0.0602234 -0.346103 -0.323959)
(0.0165827 -0.373732 -0.351004)
(-0.0109177 -0.401668 -0.393641)
(-0.0228245 -0.420984 -0.408451)
)
;

boundaryField
{
    inlet
    {
        type            calculated;
        value           uniform (-0.0228245 -0.420984 -0.408451);
    }
    outlet
    {
        type            calculated;
        value           uniform (-0.0276215 -0.017717 -4.45857);
    }
    repeat_boundary
    {
        type            calculated;
        value           nonuniform List<vector> 
180
(
(-0.0276215 0 -4.45857)
(-0.0288935 0 -4.44808)
(-0.0258907 0 -4.45374)
(-0.0248244 0 -4.45972)
(-0.018065 0 -4.45083)
(-0.0216458 0 -4.45116)
(-0.0230398 0 -4.44233)
(-0.0229242 0 -4.44816)
(-0.0199291 0 -4.44393)
(-0.0177804 0 -4.43047)
(-0.0117224 0 -4.43148)
(-0.00826426 0 -4.42297)
(-0.00719953 0 -4.41464)
(-0.007158 0 -4.40378)
(-0.00311903 0 -4.381)
(0.00142015 0 -4.37433)
(-0.00214266 0 -4.34575)
(-0.00842295 0 -4.32866)
(-0.0137348 0 -4.31057)
(-0.0204132 0 -4.28872)
(-0.0330478 0 -4.25307)
(-0.0402492 0 -4.24495)
(-0.0514933 0 -4.19887)
(-0.0559768 0 -4.17838)
(-0.0594308 0 -4.14691)
(-0.0599837 0 -4.1135)
(-0.0582946 0 -4.07776)
(-0.0543739 0 -4.03889)
(-0.0484505 0 -3.99668)
(-0.0408271 0 -3.95091)
(-0.0318817 0 -3.9014)
(-0.0220475 0 -3.84811)
(-0.0117867 0 -3.7911)
(-0.00155599 0 -3.73058)
(0.00822536 0 -3.66689)
(0.0172054 0 -3.60051)
(0.0251208 0 -3.53199)
(0.0318118 0 -3.46194)
(0.0372306 0 -3.39102)
(0.0414371 0 -3.31981)
(0.0445846 0 -3.24879)
(0.0468998 0 -3.1783)
(0.0486538 0 -3.10851)
(0.0501335 0 -3.03942)
(0.0516316 0 -2.97068)
(0.0533652 0 -2.90188)
(0.055527 0 -2.83247)
(0.0583136 0 -2.76187)
(0.0619344 0 -2.68954)
(0.0666013 0 -2.61495)
(0.0724272 0 -2.53778)
(0.0794574 0 -2.45803)
(0.0876693 0 -2.37537)
(0.0969725 0 -2.2902)
(0.107132 0 -2.2024)
(0.118034 0 -2.11238)
(0.129903 0 -2.02073)
(0.142679 0 -1.92796)
(0.156364 0 -1.83469)
(0.171053 0 -1.74155)
(0.18695 0 -1.64912)
(0.204325 0 -1.55788)
(0.223431 0 -1.46817)
(0.244387 0 -1.38018)
(0.26707 0 -1.294)
(0.291055 0 -1.2097)
(0.315629 0 -1.12737)
(0.33989 0 -1.04718)
(0.362886 0 -0.969291)
(0.383739 0 -0.894081)
(0.401689 0 -0.821935)
(0.416083 0 -0.753217)
(0.426378 0 -0.688351)
(0.432153 0 -0.627596)
(0.433119 0 -0.571163)
(0.429158 0 -0.519651)
(0.420207 0 -0.473516)
(0.406045 0 -0.432185)
(0.386531 0 -0.396015)
(0.361593 0 -0.365253)
(0.331244 0 -0.340155)
(0.295534 0 -0.320999)
(0.254699 0 -0.308083)
(0.209294 0 -0.30172)
(0.160254 0 -0.301926)
(0.109235 0 -0.309194)
(0.0602234 0 -0.323959)
(0.0165827 0 -0.351004)
(-0.0109177 0 -0.393641)
(-0.0228245 0 -0.408451)
(0 -0.017717 -4.45857)
(0 -0.0181958 -4.44808)
(0 -0.0216148 -4.45374)
(0 -0.0241755 -4.45972)
(0 -0.0247674 -4.45083)
(0 -0.0251154 -4.45116)
(0 -0.0203338 -4.44233)
(0 -0.0207542 -4.44816)
(0 -0.0227033 -4.44393)
(0 -0.0272041 -4.43047)
(0 -0.0326711 -4.43148)
(0 -0.0379349 -4.42297)
(0 -0.0430172 -4.41464)
(0 -0.0470408 -4.40378)
(0 -0.0578176 -4.381)
(0 -0.0756256 -4.37433)
(0 -0.084216 -4.34575)
(0 -0.0972686 -4.32866)
(0 -0.109393 -4.31057)
(0 -0.120949 -4.28872)
(0 -0.14038 -4.25307)
(0 -0.153103 -4.24495)
(0 -0.174237 -4.19887)
(0 -0.191775 -4.17838)
(0 -0.211144 -4.14691)
(0 -0.230967 -4.1135)
(0 -0.251295 -4.07776)
(0 -0.272116 -4.03889)
(0 -0.293416 -3.99668)
(0 -0.315111 -3.95091)
(0 -0.337088 -3.9014)
(0 -0.359181 -3.84811)
(0 -0.381172 -3.7911)
(0 -0.402796 -3.73058)
(0 -0.423758 -3.66689)
(0 -0.443756 -3.60051)
(0 -0.462513 -3.53199)
(0 -0.479799 -3.46194)
(0 -0.495468 -3.39102)
(0 -0.509464 -3.31981)
(0 -0.521839 -3.24879)
(0 -0.532738 -3.1783)
(0 -0.542375 -3.10851)
(0 -0.551006 -3.03942)
(0 -0.558786 -2.97068)
(0 -0.565847 -2.90188)
(0 -0.572243 -2.83247)
(0 -0.577897 -2.76187)
(0 -0.582572 -2.68954)
(0 -0.585897 -2.61495)
(0 -0.58737 -2.53778)
(0 -0.586388 -2.45803)
(0 -0.582391 -2.37537)
(0 -0.575149 -2.2902)
(0 -0.56507 -2.2024)
(0 -0.551728 -2.11238)
(0 -0.533843 -2.02073)
(0 -0.511474 -1.92796)
(0 -0.484816 -1.83469)
(0 -0.454228 -1.74155)
(0 -0.420249 -1.64912)
(0 -0.38361 -1.55788)
(0 -0.345244 -1.46817)
(0 -0.306276 -1.38018)
(0 -0.267974 -1.294)
(0 -0.231654 -1.2097)
(0 -0.198584 -1.12737)
(0 -0.169891 -1.04718)
(0 -0.146422 -0.969291)
(0 -0.128658 -0.894081)
(0 -0.116664 -0.821935)
(0 -0.110135 -0.753217)
(0 -0.108578 -0.688351)
(0 -0.111388 -0.627596)
(0 -0.117908 -0.571163)
(0 -0.127503 -0.519651)
(0 -0.139677 -0.473516)
(0 -0.154119 -0.432185)
(0 -0.170377 -0.396015)
(0 -0.188114 -0.365253)
(0 -0.207155 -0.340155)
(0 -0.227418 -0.320999)
(0 -0.248895 -0.308083)
(0 -0.271565 -0.30172)
(0 -0.295297 -0.301926)
(0 -0.320018 -0.309194)
(0 -0.346103 -0.323959)
(0 -0.373732 -0.351004)
(0 -0.401668 -0.393641)
(0 -0.420984 -0.408451)
)
;
    }
    procBoundary1to0
    {
        type            processor;
        value           nonuniform List<vector> 
90
(
(0.0155969 -0.00252554 -4.27262)
(0.0119921 -0.00229657 -4.27258)
(0.0107538 -0.00114049 -4.26852)
(0.0206317 0.000263453 -4.26268)
(0.0297097 0.00230257 -4.27344)
(0.0386829 0.00389172 -4.26366)
(0.0438939 0.00192188 -4.27485)
(0.0505679 0.00311649 -4.27724)
(0.0617235 0.00129467 -4.27681)
(0.0693586 -0.00581448 -4.29319)
(0.0788713 -0.00932784 -4.29016)
(0.0898133 -0.0124288 -4.29622)
(0.0961218 -0.0206863 -4.31414)
(0.103223 -0.0292228 -4.31684)
(0.112622 -0.03769 -4.31543)
(0.121693 -0.0517589 -4.33035)
(0.126917 -0.0676999 -4.33512)
(0.12618 -0.0846528 -4.3391)
(0.124224 -0.103211 -4.34062)
(0.121976 -0.123323 -4.33947)
(0.117779 -0.144533 -4.33462)
(0.111933 -0.166748 -4.32637)
(0.105453 -0.189789 -4.31405)
(0.0984139 -0.213105 -4.29785)
(0.0917128 -0.236477 -4.27789)
(0.0856251 -0.259646 -4.25449)
(0.0799362 -0.282404 -4.22809)
(0.0747146 -0.304652 -4.19905)
(0.0699613 -0.326424 -4.16777)
(0.0656232 -0.347898 -4.1346)
(0.0615857 -0.369389 -4.09989)
(0.0576651 -0.391322 -4.06389)
(0.0536147 -0.414175 -4.02681)
(0.049148 -0.438413 -3.98875)
(0.0439692 -0.464408 -3.94978)
(0.037818 -0.492371 -3.90986)
(0.0305305 -0.522286 -3.86903)
(0.0220421 -0.553947 -3.82726)
(0.0124465 -0.586939 -3.78462)
(0.00200525 -0.620696 -3.74118)
(-0.00882806 -0.654524 -3.69713)
(-0.0194248 -0.687666 -3.65271)
(-0.0290077 -0.719319 -3.60824)
(-0.0367191 -0.748674 -3.56404)
(-0.0417665 -0.775023 -3.52064)
(-0.0434847 -0.797679 -3.47848)
(-0.0414037 -0.81603 -3.43804)
(-0.035283 -0.829574 -3.39976)
(-0.02513 -0.837928 -3.36412)
(-0.011196 -0.840791 -3.33158)
(0.00601796 -0.83791 -3.30252)
(0.0258369 -0.82912 -3.27717)
(0.0475163 -0.814474 -3.25592)
(0.0704118 -0.794099 -3.23887)
(0.0939218 -0.768315 -3.22601)
(0.117453 -0.737656 -3.21729)
(0.140502 -0.702882 -3.21254)
(0.162637 -0.664904 -3.21157)
(0.183503 -0.62469 -3.21427)
(0.202839 -0.583178 -3.22059)
(0.220474 -0.541236 -3.23062)
(0.236268 -0.49967 -3.24445)
(0.250016 -0.459282 -3.26213)
(0.261344 -0.420942 -3.28348)
(0.269664 -0.38561 -3.308)
(0.274234 -0.354291 -3.33487)
(0.274273 -0.327894 -3.36293)
(0.269171 -0.307008 -3.39086)
(0.258714 -0.291706 -3.41736)
(0.243131 -0.281494 -3.44124)
(0.222954 -0.275478 -3.46161)
(0.198879 -0.272502 -3.47769)
(0.171778 -0.271335 -3.48901)
(0.142848 -0.270703 -3.49487)
(0.113564 -0.269433 -3.49543)
(0.0854128 -0.266341 -3.4902)
(0.0597428 -0.260567 -3.48012)
(0.0377635 -0.251252 -3.46493)
(0.0202428 -0.23776 -3.44567)
(0.00763965 -0.219558 -3.42231)
(0.000259273 -0.196339 -3.39589)
(-0.00149649 -0.167827 -3.36657)
(0.00263073 -0.133738 -3.33511)
(0.0128122 -0.0937373 -3.30156)
(0.029326 -0.0477245 -3.26693)
(0.0496172 0.00292704 -3.23273)
(0.0741643 0.0602045 -3.20081)
(0.104766 0.127589 -3.17384)
(0.141356 0.203938 -3.14619)
(0.164171 0.25261 -3.1197)
)
;
    }
    procBoundary1to3
    {
        type            processor;
        value           nonuniform List<vector> 
90
(
(-0.0333944 0.000914813 -4.41821)
(-0.0275307 0.00414524 -4.40618)
(-0.022962 0.00661554 -4.43878)
(-0.0210417 0.00788505 -4.41071)
(-0.0247746 0.00687164 -4.42511)
(-0.0236615 0.0109703 -4.4445)
(-0.0182386 0.0171586 -4.43896)
(-0.0145603 0.0204049 -4.4388)
(-0.0102017 0.0216167 -4.43788)
(-0.00633925 0.0211298 -4.43464)
(-0.00407308 0.0191197 -4.43082)
(-0.00113051 0.0169617 -4.42839)
(0.00372573 0.0151428 -4.42887)
(0.00738893 0.0141915 -4.42831)
(0.00619958 0.00966259 -4.39218)
(0.00675573 -0.00202944 -4.40807)
(0.00875772 -0.00618078 -4.42121)
(0.0107861 -0.00755779 -4.40861)
(0.00518842 -0.018832 -4.39245)
(3.35248e-05 -0.0266833 -4.42158)
(-0.0101476 -0.0361973 -4.42165)
(-0.0212095 -0.0474752 -4.40256)
(-0.0210686 -0.0584814 -4.4323)
(-0.0205651 -0.0698477 -4.44182)
(-0.0161102 -0.0815016 -4.45839)
(-0.00859833 -0.0939722 -4.47544)
(0.00224667 -0.106811 -4.49382)
(0.0165159 -0.11974 -4.51254)
(0.0342264 -0.132458 -4.53127)
(0.0553372 -0.144571 -4.54924)
(0.0796923 -0.155658 -4.56588)
(0.107009 -0.16528 -4.58054)
(0.13686 -0.173003 -4.59261)
(0.168676 -0.178433 -4.60154)
(0.201751 -0.181246 -4.60682)
(0.235284 -0.181232 -4.60809)
(0.268424 -0.17833 -4.60511)
(0.300345 -0.172664 -4.59782)
(0.330314 -0.164563 -4.58641)
(0.357767 -0.154565 -4.57125)
(0.382369 -0.143392 -4.55299)
(0.40404 -0.131889 -4.53246)
(0.422946 -0.120936 -4.51065)
(0.439449 -0.111348 -4.48863)
(0.454 -0.103732 -4.46745)
(0.46703 -0.0983815 -4.44793)
(0.478868 -0.095256 -4.43046)
(0.48972 -0.0938722 -4.41534)
(0.499709 -0.0935732 -4.40218)
(0.508892 -0.0936925 -4.39011)
(0.5173 -0.0936169 -4.37785)
(0.524996 -0.0928844 -4.36394)
(0.532103 -0.0912509 -4.34683)
(0.538776 -0.0887061 -4.32519)
(0.545108 -0.0853259 -4.29802)
(0.551057 -0.0811464 -4.26465)
(0.556422 -0.0761855 -4.22481)
(0.560884 -0.0704324 -4.17851)
(0.564099 -0.063891 -4.126)
(0.565821 -0.0566213 -4.06795)
(0.565986 -0.048842 -4.00506)
(0.564755 -0.0408633 -3.93826)
(0.562505 -0.0329795 -3.86853)
(0.559779 -0.0252751 -3.79698)
(0.557233 -0.0175111 -3.72458)
(0.555543 -0.00910476 -3.65252)
(0.555245 0.000745081 -3.5818)
(0.556627 0.0128811 -3.51313)
(0.559747 0.0279746 -3.44728)
(0.564402 0.0463257 -3.38459)
(0.570225 0.0678416 -3.32543)
(0.576598 0.0919214 -3.26988)
(0.582718 0.117786 -3.21773)
(0.588026 0.1452 -3.16929)
(0.592316 0.173912 -3.1245)
(0.595477 0.203646 -3.08313)
(0.597821 0.234211 -3.04486)
(0.599709 0.265851 -3.01044)
(0.601597 0.299213 -2.97922)
(0.604066 0.335131 -2.95114)
(0.607762 0.37438 -2.92574)
(0.613475 0.417577 -2.90249)
(0.622016 0.465474 -2.88058)
(0.634482 0.519091 -2.85886)
(0.652123 0.579368 -2.83651)
(0.675876 0.648394 -2.81279)
(0.706563 0.727609 -2.7875)
(0.745452 0.822967 -2.75483)
(0.795289 0.936543 -2.69813)
(0.84059 1.02699 -2.6327)
)
;
    }
}


// ************************************************************************* //
