/*--------------------------------*- C++ -*----------------------------------*\
| =========                 |                                                 |
| \\      /  F ield         | OpenFOAM: The Open Source CFD Toolbox           |
|  \\    /   O peration     | Version:  5.x                                   |
|   \\  /    A nd           | Web:      www.OpenFOAM.org                      |
|    \\/     M anipulation  |                                                 |
\*---------------------------------------------------------------------------*/
FoamFile
{
    version     2.0;
    format      ascii;
    class       volVectorField;
    location    "40000";
    object      U;
}
// * * * * * * * * * * * * * * * * * * * * * * * * * * * * * * * * * * * * * //

dimensions      [0 1 -1 0 0 0 0];

internalField   nonuniform List<vector> 
2250
(
(-6.71816e-12 4.04913e-11 -0.001)
(-2.07672e-11 4.05871e-11 -0.001)
(-4.1208e-11 4.32541e-11 -0.001)
(-4.63187e-11 4.14516e-11 -0.001)
(-5.86948e-11 3.7722e-11 -0.001)
(-6.70766e-12 1.10648e-10 -0.001)
(-1.81049e-11 1.10637e-10 -0.001)
(-4.03874e-11 1.12188e-10 -0.001)
(-5.20212e-11 1.07983e-10 -0.001)
(-6.4501e-11 1.0143e-10 -0.001)
(-6.93082e-12 1.68681e-10 -0.001)
(-1.94747e-11 1.66028e-10 -0.001)
(-4.39315e-11 1.62707e-10 -0.001)
(-5.7234e-11 1.55733e-10 -0.001)
(-6.47005e-11 1.56173e-10 -0.001)
(-9.67709e-12 2.07618e-10 -0.000999999)
(-2.44293e-11 2.06058e-10 -0.000999999)
(-5.06949e-11 1.99954e-10 -0.000999999)
(-5.85641e-11 1.95776e-10 -0.000999999)
(-6.86121e-11 1.82002e-10 -0.001)
(-8.97145e-12 2.05954e-10 -0.000999999)
(-2.7623e-11 2.06745e-10 -0.000999999)
(-5.42267e-11 2.04622e-10 -0.000999999)
(-7.51919e-11 1.99321e-10 -0.000999999)
(-8.00779e-11 1.68738e-10 -0.000999999)
(-2.25502e-11 1.12869e-10 -0.001)
(-6.18846e-11 1.14521e-10 -0.001)
(-1.18072e-10 1.17003e-10 -0.001)
(-1.40176e-10 1.12422e-10 -0.001)
(-1.64659e-10 1.0346e-10 -0.001)
(-2.11443e-11 3.15021e-10 -0.001)
(-5.80283e-11 3.16014e-10 -0.001)
(-1.20346e-10 3.14373e-10 -0.001)
(-1.54231e-10 3.02838e-10 -0.001)
(-1.75682e-10 2.9081e-10 -0.001)
(-2.21219e-11 4.80402e-10 -0.001)
(-6.31998e-11 4.73824e-10 -0.001)
(-1.31478e-10 4.6273e-10 -0.001)
(-1.64182e-10 4.46437e-10 -0.001)
(-1.72413e-10 4.5552e-10 -0.001)
(-2.85974e-11 6.00409e-10 -0.000999999)
(-7.6659e-11 5.95234e-10 -0.000999999)
(-1.47768e-10 5.74927e-10 -0.000999999)
(-1.61462e-10 5.63366e-10 -0.001)
(-1.73635e-10 5.58514e-10 -0.001)
(-2.85682e-11 6.05093e-10 -0.000999999)
(-8.9978e-11 6.08823e-10 -0.000999999)
(-1.63377e-10 5.97294e-10 -0.000999999)
(-1.80591e-10 5.91543e-10 -0.000999999)
(-1.86322e-10 5.22659e-10 -0.000999999)
(-4.56432e-11 1.82271e-10 -0.001)
(-1.22652e-10 1.87198e-10 -0.001)
(-2.09094e-10 1.86168e-10 -0.001)
(-2.58332e-10 1.798e-10 -0.001)
(-2.9151e-10 1.71619e-10 -0.001)
(-4.11281e-11 5.24941e-10 -0.001)
(-1.19481e-10 5.27704e-10 -0.001)
(-2.17092e-10 5.20406e-10 -0.001)
(-2.73668e-10 5.057e-10 -0.001)
(-3.00049e-10 4.98914e-10 -0.001)
(-4.38941e-11 8.04535e-10 -0.001)
(-1.28518e-10 7.94236e-10 -0.001)
(-2.31627e-10 7.78517e-10 -0.001)
(-2.80506e-10 7.59337e-10 -0.001)
(-2.90337e-10 7.84443e-10 -0.001)
(-5.28877e-11 1.00811e-09 -0.000999999)
(-1.471e-10 9.92047e-10 -0.001)
(-2.5206e-10 9.62939e-10 -0.001)
(-2.67825e-10 9.52077e-10 -0.001)
(-2.76204e-10 9.8577e-10 -0.001)
(-6.18935e-11 1.04553e-09 -0.000999999)
(-1.75751e-10 1.04351e-09 -0.000999999)
(-2.7172e-10 1.02065e-09 -0.000999999)
(-2.57715e-10 1.02666e-09 -0.000999999)
(-2.5085e-10 9.66597e-10 -0.000999999)
(-7.40863e-11 2.58889e-10 -0.001)
(-1.96772e-10 2.65089e-10 -0.001)
(-3.13387e-10 2.62051e-10 -0.001)
(-3.91663e-10 2.57961e-10 -0.001)
(-4.42522e-10 2.51073e-10 -0.001)
(-6.85349e-11 7.54676e-10 -0.001)
(-1.9461e-10 7.56542e-10 -0.001)
(-3.21293e-10 7.44173e-10 -0.001)
(-4.03635e-10 7.3191e-10 -0.001)
(-4.44443e-10 7.3461e-10 -0.001)
(-7.37016e-11 1.15709e-09 -0.001)
(-2.09148e-10 1.1427e-09 -0.001)
(-3.38756e-10 1.12418e-09 -0.001)
(-4.02096e-10 1.10536e-09 -0.001)
(-4.29425e-10 1.14346e-09 -0.001)
(-8.50329e-11 1.43465e-09 -0.001)
(-2.2981e-10 1.40972e-09 -0.001)
(-3.58722e-10 1.38786e-09 -0.001)
(-3.84339e-10 1.37645e-09 -0.001)
(-3.89713e-10 1.45703e-09 -0.001)
(-1.01247e-10 1.53909e-09 -0.000999999)
(-2.58795e-10 1.52764e-09 -0.000999999)
(-3.72104e-10 1.50538e-09 -0.000999999)
(-3.32839e-10 1.52007e-09 -0.000999999)
(-3.66047e-10 1.43888e-09 -0.001)
(-1.04999e-10 3.56369e-10 -0.001)
(-2.90277e-10 3.60619e-10 -0.001)
(-4.52546e-10 3.57745e-10 -0.001)
(-5.60739e-10 3.55152e-10 -0.001)
(-6.39433e-10 3.55616e-10 -0.001)
(-1.01606e-10 1.03285e-09 -0.001)
(-2.90195e-10 1.02898e-09 -0.001)
(-4.58911e-10 1.01795e-09 -0.001)
(-5.6397e-10 1.01166e-09 -0.001)
(-6.33313e-10 1.02396e-09 -0.001)
(-1.10925e-10 1.57845e-09 -0.001)
(-3.07744e-10 1.56161e-09 -0.001)
(-4.70791e-10 1.55004e-09 -0.001)
(-5.55807e-10 1.54592e-09 -0.001)
(-6.19764e-10 1.5825e-09 -0.001)
(-1.21394e-10 1.93954e-09 -0.001)
(-3.21746e-10 1.9229e-09 -0.001)
(-4.74711e-10 1.92236e-09 -0.001)
(-5.31531e-10 1.92929e-09 -0.001)
(-5.85379e-10 2.02394e-09 -0.001)
(-1.31116e-10 2.14421e-09 -0.000999999)
(-3.28666e-10 2.13638e-09 -0.000999999)
(-4.64429e-10 2.12742e-09 -0.000999999)
(-4.54262e-10 2.14743e-09 -0.000999999)
(-5.78501e-10 2.04711e-09 -0.001)
(-1.43312e-10 4.90367e-10 -0.001)
(-4.16995e-10 4.89625e-10 -0.001)
(-6.57968e-10 4.86911e-10 -0.001)
(-8.17431e-10 4.86834e-10 -0.001)
(-9.3171e-10 4.86724e-10 -0.001)
(-1.4523e-10 1.40354e-09 -0.001)
(-4.22179e-10 1.39415e-09 -0.001)
(-6.61929e-10 1.38851e-09 -0.001)
(-8.19081e-10 1.39404e-09 -0.001)
(-9.26312e-10 1.4116e-09 -0.001)
(-1.55578e-10 2.14336e-09 -0.001)
(-4.3555e-10 2.13285e-09 -0.001)
(-6.59363e-10 2.13802e-09 -0.001)
(-7.95867e-10 2.15726e-09 -0.001)
(-9.11298e-10 2.20726e-09 -0.001)
(-1.59847e-10 2.65186e-09 -0.001)
(-4.31794e-10 2.65773e-09 -0.001)
(-6.37698e-10 2.6818e-09 -0.001)
(-7.49914e-10 2.7174e-09 -0.001)
(-8.99674e-10 2.83522e-09 -0.001)
(-1.54627e-10 2.97116e-09 -0.000999999)
(-4.10715e-10 2.97738e-09 -0.000999999)
(-5.99854e-10 2.98725e-09 -0.000999999)
(-6.42461e-10 3.00769e-09 -0.000999999)
(-9.06975e-10 2.90378e-09 -0.001)
(-1.98195e-10 6.74724e-10 -0.001)
(-6.00687e-10 6.67848e-10 -0.001)
(-9.6268e-10 6.64472e-10 -0.001)
(-1.21162e-09 6.66152e-10 -0.001)
(-1.36457e-09 6.70995e-10 -0.001)
(-2.06689e-10 1.91986e-09 -0.001)
(-6.13328e-10 1.90769e-09 -0.001)
(-9.66103e-10 1.90933e-09 -0.001)
(-1.20727e-09 1.92673e-09 -0.001)
(-1.35903e-09 1.9561e-09 -0.001)
(-2.14365e-10 2.94861e-09 -0.001)
(-6.16105e-10 2.94997e-09 -0.001)
(-9.4555e-10 2.97082e-09 -0.001)
(-1.16716e-09 3.00816e-09 -0.001)
(-1.33949e-09 3.0701e-09 -0.001)
(-2.10973e-10 3.70192e-09 -0.001)
(-5.96968e-10 3.72692e-09 -0.001)
(-9.08159e-10 3.76034e-09 -0.001)
(-1.10808e-09 3.80413e-09 -0.001)
(-1.35328e-09 3.89543e-09 -0.001)
(-1.96281e-10 4.13619e-09 -0.000999999)
(-5.64813e-10 4.157e-09 -0.000999999)
(-8.6856e-10 4.17609e-09 -0.000999999)
(-1.03207e-09 4.17846e-09 -0.000999999)
(-1.36359e-09 4.09529e-09 -0.001)
(-2.82535e-10 9.21553e-10 -0.001)
(-8.61501e-10 9.10525e-10 -0.001)
(-1.38023e-09 9.08147e-10 -0.001)
(-1.74831e-09 9.12525e-10 -0.001)
(-1.94704e-09 9.26033e-10 -0.00100001)
(-2.95795e-10 2.63495e-09 -0.001)
(-8.78256e-10 2.62515e-09 -0.001)
(-1.38078e-09 2.63264e-09 -0.001)
(-1.73357e-09 2.65477e-09 -0.001)
(-1.94036e-09 2.69343e-09 -0.001)
(-2.9784e-10 4.08461e-09 -0.001)
(-8.70592e-10 4.09862e-09 -0.001)
(-1.3534e-09 4.11984e-09 -0.001)
(-1.69086e-09 4.14967e-09 -0.001)
(-1.92427e-09 4.19657e-09 -0.001)
(-2.89546e-10 5.1904e-09 -0.001)
(-8.51076e-10 5.22051e-09 -0.001)
(-1.33009e-09 5.23601e-09 -0.001)
(-1.65698e-09 5.25748e-09 -0.001)
(-1.95624e-09 5.2755e-09 -0.001)
(-2.77519e-10 5.75062e-09 -0.000999998)
(-8.35083e-10 5.77697e-09 -0.000999999)
(-1.31673e-09 5.77832e-09 -0.000999999)
(-1.65138e-09 5.75178e-09 -0.001)
(-1.98777e-09 5.69576e-09 -0.001)
(-4.04583e-10 1.2498e-09 -0.00100001)
(-1.20818e-09 1.24111e-09 -0.00100001)
(-1.91001e-09 1.24116e-09 -0.00100001)
(-2.41519e-09 1.24676e-09 -0.00100001)
(-2.68101e-09 1.2614e-09 -0.00100001)
(-4.16343e-10 3.60794e-09 -0.001)
(-1.22148e-09 3.60719e-09 -0.001)
(-1.90798e-09 3.6145e-09 -0.00100001)
(-2.39937e-09 3.62806e-09 -0.00100001)
(-2.6791e-09 3.65571e-09 -0.00100001)
(-4.129e-10 5.636e-09 -0.001)
(-1.21097e-09 5.65798e-09 -0.001)
(-1.89305e-09 5.66062e-09 -0.001)
(-2.37863e-09 5.65514e-09 -0.001)
(-2.67843e-09 5.6628e-09 -0.00100001)
(-4.05077e-10 7.19849e-09 -0.001)
(-1.20797e-09 7.21766e-09 -0.001)
(-1.9113e-09 7.19418e-09 -0.001)
(-2.39738e-09 7.16429e-09 -0.001)
(-2.70482e-09 7.17355e-09 -0.001)
(-4.07437e-10 7.92204e-09 -0.000999998)
(-1.22943e-09 7.94289e-09 -0.000999998)
(-1.94685e-09 7.91236e-09 -0.000999999)
(-2.39926e-09 7.87625e-09 -0.001)
(-2.79407e-09 7.785e-09 -0.001)
(-5.62816e-10 1.69184e-09 -0.00100001)
(-1.64751e-09 1.69002e-09 -0.00100001)
(-2.57333e-09 1.69147e-09 -0.00100001)
(-3.24346e-09 1.69385e-09 -0.00100001)
(-3.60875e-09 1.69683e-09 -0.00100001)
(-5.68827e-10 4.91672e-09 -0.00100001)
(-1.65425e-09 4.92542e-09 -0.00100001)
(-2.57444e-09 4.92436e-09 -0.00100001)
(-3.24418e-09 4.91697e-09 -0.00100001)
(-3.62043e-09 4.91072e-09 -0.00100001)
(-5.64446e-10 7.70008e-09 -0.001)
(-1.65265e-09 7.71934e-09 -0.001)
(-2.58711e-09 7.69393e-09 -0.00100001)
(-3.26343e-09 7.64531e-09 -0.00100001)
(-3.64018e-09 7.60373e-09 -0.00100001)
(-5.64238e-10 9.8156e-09 -0.001)
(-1.67561e-09 9.81198e-09 -0.001)
(-2.64913e-09 9.75181e-09 -0.001)
(-3.33465e-09 9.66404e-09 -0.001)
(-3.6594e-09 9.68458e-09 -0.001)
(-5.86751e-10 1.07845e-08 -0.000999998)
(-1.73575e-09 1.07912e-08 -0.000999998)
(-2.73563e-09 1.07373e-08 -0.000999999)
(-3.33067e-09 1.06973e-08 -0.001)
(-3.78898e-09 1.05542e-08 -0.001)
(-7.61016e-10 2.29217e-09 -0.00100001)
(-2.21017e-09 2.29608e-09 -0.00100001)
(-3.43828e-09 2.29549e-09 -0.00100001)
(-4.33236e-09 2.28995e-09 -0.00100001)
(-4.83064e-09 2.27542e-09 -0.00100001)
(-7.62785e-10 6.66976e-09 -0.00100001)
(-2.21545e-09 6.68097e-09 -0.00100001)
(-3.45108e-09 6.66664e-09 -0.00100001)
(-4.3607e-09 6.63628e-09 -0.00100001)
(-4.85927e-09 6.59154e-09 -0.00100001)
(-7.6382e-10 1.04235e-08 -0.00100001)
(-2.23059e-09 1.04306e-08 -0.00100001)
(-3.49016e-09 1.03842e-08 -0.00100001)
(-4.41602e-09 1.03099e-08 -0.00100001)
(-4.89098e-09 1.02215e-08 -0.00100001)
(-7.75481e-10 1.32085e-08 -0.001)
(-2.27523e-09 1.31875e-08 -0.001)
(-3.57263e-09 1.31126e-08 -0.001)
(-4.52382e-09 1.29915e-08 -0.001)
(-4.92098e-09 1.29482e-08 -0.00100001)
(-8.09843e-10 1.45553e-08 -0.000999998)
(-2.35234e-09 1.45527e-08 -0.000999998)
(-3.68697e-09 1.44966e-08 -0.000999999)
(-4.58049e-09 1.44521e-08 -0.001)
(-5.02459e-09 1.43143e-08 -0.001)
(-1.0182e-09 3.10847e-09 -0.00100001)
(-2.96197e-09 3.11304e-09 -0.00100001)
(-4.61745e-09 3.10738e-09 -0.00100002)
(-5.83065e-09 3.09438e-09 -0.00100002)
(-6.49292e-09 3.07155e-09 -0.00100002)
(-1.0213e-09 9.0288e-09 -0.00100001)
(-2.97464e-09 9.03584e-09 -0.00100001)
(-4.64513e-09 9.01238e-09 -0.00100001)
(-5.87765e-09 8.973e-09 -0.00100001)
(-6.52992e-09 8.91642e-09 -0.00100002)
(-1.03009e-09 1.40618e-08 -0.00100001)
(-3.00172e-09 1.40607e-08 -0.00100001)
(-4.69e-09 1.4016e-08 -0.00100001)
(-5.93819e-09 1.39489e-08 -0.00100001)
(-6.55459e-09 1.3856e-08 -0.00100001)
(-1.04898e-09 1.77257e-08 -0.001)
(-3.048e-09 1.7714e-08 -0.001)
(-4.75811e-09 1.76564e-08 -0.001)
(-6.03818e-09 1.75552e-08 -0.00100001)
(-6.57707e-09 1.74385e-08 -0.00100001)
(-1.07508e-09 1.96203e-08 -0.000999997)
(-3.10545e-09 1.9627e-08 -0.000999998)
(-4.84985e-09 1.95909e-08 -0.000999999)
(-6.15617e-09 1.95576e-08 -0.001)
(-6.59925e-09 1.95229e-08 -0.001)
(-1.36943e-09 4.21801e-09 -0.00100002)
(-3.99762e-09 4.21933e-09 -0.00100002)
(-6.2465e-09 4.21039e-09 -0.00100002)
(-7.89723e-09 4.19687e-09 -0.00100002)
(-8.76463e-09 4.18471e-09 -0.00100003)
(-1.37848e-09 1.22351e-08 -0.00100002)
(-4.02091e-09 1.22397e-08 -0.00100002)
(-6.28121e-09 1.22194e-08 -0.00100002)
(-7.93805e-09 1.21919e-08 -0.00100002)
(-8.79413e-09 1.21652e-08 -0.00100002)
(-1.39046e-09 1.90225e-08 -0.00100001)
(-4.04487e-09 1.9031e-08 -0.00100001)
(-6.30745e-09 1.90095e-08 -0.00100001)
(-7.96718e-09 1.89773e-08 -0.00100002)
(-8.79517e-09 1.89288e-08 -0.00100002)
(-1.40582e-09 2.39343e-08 -0.001)
(-4.07125e-09 2.3957e-08 -0.001)
(-6.3366e-09 2.39373e-08 -0.00100001)
(-8.01937e-09 2.38905e-08 -0.00100001)
(-8.78205e-09 2.38006e-08 -0.00100001)
(-1.41258e-09 2.6569e-08 -0.000999996)
(-4.08832e-09 2.65997e-08 -0.000999997)
(-6.37548e-09 2.65902e-08 -0.000999998)
(-8.10391e-09 2.65968e-08 -0.001)
(-8.68391e-09 2.66892e-08 -0.001)
(-1.86083e-09 5.72774e-09 -0.00100002)
(-5.42798e-09 5.72856e-09 -0.00100003)
(-8.47238e-09 5.72209e-09 -0.00100003)
(-1.06953e-08 5.71583e-09 -0.00100003)
(-1.18411e-08 5.72295e-09 -0.00100003)
(-1.87407e-09 1.66253e-08 -0.00100002)
(-5.45492e-09 1.66386e-08 -0.00100002)
(-8.50172e-09 1.66304e-08 -0.00100002)
(-1.07149e-08 1.6623e-08 -0.00100003)
(-1.18573e-08 1.66331e-08 -0.00100003)
(-1.88219e-09 2.58617e-08 -0.00100001)
(-5.4657e-09 2.58962e-08 -0.00100002)
(-8.50583e-09 2.58959e-08 -0.00100002)
(-1.07139e-08 2.58924e-08 -0.00100002)
(-1.18466e-08 2.58781e-08 -0.00100002)
(-1.88828e-09 3.25584e-08 -0.00100001)
(-5.47126e-09 3.26187e-08 -0.00100001)
(-8.50774e-09 3.26223e-08 -0.00100001)
(-1.07337e-08 3.26129e-08 -0.00100001)
(-1.18171e-08 3.25341e-08 -0.00100001)
(-1.88306e-09 3.61633e-08 -0.000999994)
(-5.46496e-09 3.62175e-08 -0.000999995)
(-8.51359e-09 3.62192e-08 -0.000999997)
(-1.08022e-08 3.62532e-08 -0.001)
(-1.16662e-08 3.64045e-08 -0.001)
(-2.54055e-09 7.78774e-09 -0.00100003)
(-7.37847e-09 7.79658e-09 -0.00100004)
(-1.14785e-08 7.79654e-09 -0.00100004)
(-1.44516e-08 7.79787e-09 -0.00100004)
(-1.59945e-08 7.80905e-09 -0.00100005)
(-2.55085e-09 2.26443e-08 -0.00100003)
(-7.39856e-09 2.26789e-08 -0.00100003)
(-1.14996e-08 2.26786e-08 -0.00100003)
(-1.44667e-08 2.26765e-08 -0.00100004)
(-1.60146e-08 2.26804e-08 -0.00100004)
(-2.55317e-09 3.52738e-08 -0.00100002)
(-7.40249e-09 3.53365e-08 -0.00100002)
(-1.15052e-08 3.53329e-08 -0.00100002)
(-1.44787e-08 3.53176e-08 -0.00100003)
(-1.60293e-08 3.5273e-08 -0.00100003)
(-2.55445e-09 4.44512e-08 -0.00100001)
(-7.40839e-09 4.4536e-08 -0.00100001)
(-1.15217e-08 4.45262e-08 -0.00100001)
(-1.45279e-08 4.44913e-08 -0.00100002)
(-1.60402e-08 4.43437e-08 -0.00100002)
(-2.5519e-09 4.93437e-08 -0.000999992)
(-7.41369e-09 4.94154e-08 -0.000999993)
(-1.15526e-08 4.94017e-08 -0.000999996)
(-1.46613e-08 4.94112e-08 -0.001)
(-1.59485e-08 4.95139e-08 -0.00100001)
(-3.45915e-09 1.0606e-08 -0.00100005)
(-1.0011e-08 1.06295e-08 -0.00100005)
(-1.55376e-08 1.06336e-08 -0.00100005)
(-1.95394e-08 1.06331e-08 -0.00100006)
(-2.1641e-08 1.06229e-08 -0.00100006)
(-3.46171e-09 3.08773e-08 -0.00100004)
(-1.00226e-08 3.09381e-08 -0.00100004)
(-1.55644e-08 3.09315e-08 -0.00100005)
(-1.95876e-08 3.09078e-08 -0.00100005)
(-2.16955e-08 3.08581e-08 -0.00100006)
(-3.46273e-09 4.81413e-08 -0.00100003)
(-1.00361e-08 4.82252e-08 -0.00100003)
(-1.56009e-08 4.81917e-08 -0.00100003)
(-1.9652e-08 4.8127e-08 -0.00100004)
(-2.17624e-08 4.80144e-08 -0.00100005)
(-3.46836e-09 6.0695e-08 -0.00100001)
(-1.00662e-08 6.07949e-08 -0.00100001)
(-1.56668e-08 6.0745e-08 -0.00100002)
(-1.97667e-08 6.06457e-08 -0.00100002)
(-2.18446e-08 6.04159e-08 -0.00100003)
(-3.47661e-09 6.73356e-08 -0.000999988)
(-1.01035e-08 6.74271e-08 -0.000999991)
(-1.57538e-08 6.7382e-08 -0.000999995)
(-1.99812e-08 6.73339e-08 -0.001)
(-2.18514e-08 6.73522e-08 -0.00100001)
(-4.68715e-09 1.44625e-08 -0.00100006)
(-1.35632e-08 1.44996e-08 -0.00100007)
(-2.10569e-08 1.44997e-08 -0.00100007)
(-2.65086e-08 1.44845e-08 -0.00100008)
(-2.93692e-08 1.44435e-08 -0.00100009)
(-4.68547e-09 4.21069e-08 -0.00100005)
(-1.35794e-08 4.21897e-08 -0.00100006)
(-2.11136e-08 4.21613e-08 -0.00100006)
(-2.6616e-08 4.20965e-08 -0.00100007)
(-2.94783e-08 4.19889e-08 -0.00100008)
(-4.692e-09 6.5652e-08 -0.00100004)
(-1.36168e-08 6.57509e-08 -0.00100004)
(-2.1195e-08 6.5676e-08 -0.00100004)
(-2.67343e-08 6.55532e-08 -0.00100005)
(-2.95932e-08 6.53926e-08 -0.00100006)
(-4.70979e-09 8.27822e-08 -0.00100001)
(-1.36835e-08 8.28975e-08 -0.00100002)
(-2.13171e-08 8.28026e-08 -0.00100002)
(-2.69017e-08 8.26431e-08 -0.00100003)
(-2.97257e-08 8.23813e-08 -0.00100004)
(-4.73162e-09 9.18225e-08 -0.000999984)
(-1.37564e-08 9.19441e-08 -0.000999987)
(-2.14546e-08 9.18645e-08 -0.000999993)
(-2.71557e-08 9.1765e-08 -0.001)
(-2.97996e-08 9.17229e-08 -0.00100001)
(-6.33817e-09 1.9726e-08 -0.00100009)
(-1.83853e-08 1.97691e-08 -0.00100009)
(-2.85972e-08 1.97557e-08 -0.0010001)
(-3.60534e-08 1.97205e-08 -0.00100011)
(-3.99272e-08 1.96641e-08 -0.00100012)
(-6.34335e-09 5.73903e-08 -0.00100007)
(-1.84283e-08 5.74856e-08 -0.00100008)
(-2.87024e-08 5.74253e-08 -0.00100008)
(-3.6215e-08 5.73193e-08 -0.0010001)
(-4.00881e-08 5.71863e-08 -0.00100011)
(-6.36206e-09 8.94456e-08 -0.00100005)
(-1.84974e-08 8.95592e-08 -0.00100005)
(-2.88248e-08 8.94452e-08 -0.00100006)
(-3.63652e-08 8.92782e-08 -0.00100007)
(-4.02339e-08 8.90965e-08 -0.00100008)
(-6.39719e-09 1.128e-07 -0.00100002)
(-1.86027e-08 1.12934e-07 -0.00100002)
(-2.89913e-08 1.12797e-07 -0.00100003)
(-3.65669e-08 1.12589e-07 -0.00100004)
(-4.03923e-08 1.12307e-07 -0.00100005)
(-6.4384e-09 1.2514e-07 -0.000999979)
(-1.87179e-08 1.25301e-07 -0.000999983)
(-2.91767e-08 1.25177e-07 -0.00099999)
(-3.68553e-08 1.25028e-07 -0.001)
(-4.05117e-08 1.24932e-07 -0.00100001)
(-8.58581e-09 2.6883e-08 -0.00100012)
(-2.49662e-08 2.69247e-08 -0.00100012)
(-3.88879e-08 2.68955e-08 -0.00100013)
(-4.90243e-08 2.68479e-08 -0.00100015)
(-5.42585e-08 2.67945e-08 -0.00100016)
(-8.60983e-09 7.81592e-08 -0.0010001)
(-2.50531e-08 7.82618e-08 -0.00100011)
(-3.90421e-08 7.81707e-08 -0.00100012)
(-4.92209e-08 7.80392e-08 -0.00100013)
(-5.44597e-08 7.79012e-08 -0.00100015)
(-8.64528e-09 1.21779e-07 -0.00100007)
(-2.51549e-08 1.21917e-07 -0.00100007)
(-3.91941e-08 1.21772e-07 -0.00100008)
(-4.93934e-08 1.21574e-07 -0.0010001)
(-5.46333e-08 1.21358e-07 -0.00100011)
(-8.69944e-09 1.5362e-07 -0.00100002)
(-2.52968e-08 1.53784e-07 -0.00100003)
(-3.93958e-08 1.53602e-07 -0.00100004)
(-4.96395e-08 1.5334e-07 -0.00100005)
(-5.48353e-08 1.52996e-07 -0.00100007)
(-8.76785e-09 1.70498e-07 -0.000999971)
(-2.54688e-08 1.707e-07 -0.000999977)
(-3.96471e-08 1.70507e-07 -0.000999987)
(-4.99997e-08 1.70277e-07 -0.001)
(-5.50289e-08 1.70084e-07 -0.00100002)
(-1.16704e-08 3.65903e-08 -0.00100016)
(-3.39625e-08 3.66333e-08 -0.00100017)
(-5.28949e-08 3.65958e-08 -0.00100018)
(-6.65911e-08 3.65471e-08 -0.0010002)
(-7.36645e-08 3.64955e-08 -0.00100022)
(-1.17168e-08 1.06363e-07 -0.00100014)
(-3.40923e-08 1.06486e-07 -0.00100014)
(-5.30868e-08 1.06378e-07 -0.00100016)
(-6.68219e-08 1.06233e-07 -0.00100018)
(-7.3911e-08 1.06076e-07 -0.0010002)
(-1.17673e-08 1.6574e-07 -0.00100009)
(-3.42203e-08 1.65928e-07 -0.0010001)
(-5.32621e-08 1.65755e-07 -0.00100011)
(-6.70285e-08 1.65526e-07 -0.00100013)
(-7.41178e-08 1.65249e-07 -0.00100016)
(-1.18387e-08 2.0916e-07 -0.00100003)
(-3.43989e-08 2.0938e-07 -0.00100004)
(-5.35028e-08 2.09142e-07 -0.00100005)
(-6.73336e-08 2.08813e-07 -0.00100007)
(-7.43999e-08 2.08383e-07 -0.0010001)
(-1.19362e-08 2.32275e-07 -0.000999961)
(-3.46401e-08 2.32524e-07 -0.000999969)
(-5.38421e-08 2.32229e-07 -0.000999983)
(-6.77881e-08 2.31863e-07 -0.001)
(-7.47075e-08 2.3153e-07 -0.00100002)
(-1.59046e-08 4.97525e-08 -0.00100022)
(-4.62526e-08 4.98138e-08 -0.00100023)
(-7.1961e-08 4.97792e-08 -0.00100025)
(-9.0474e-08 4.97342e-08 -0.00100027)
(-1.00015e-07 4.96804e-08 -0.0010003)
(-1.59648e-08 1.44666e-07 -0.00100019)
(-4.64101e-08 1.44847e-07 -0.0010002)
(-7.2185e-08 1.44736e-07 -0.00100022)
(-9.07508e-08 1.44584e-07 -0.00100024)
(-1.0032e-07 1.44403e-07 -0.00100027)
(-1.60226e-08 2.25527e-07 -0.00100013)
(-4.65533e-08 2.25803e-07 -0.00100014)
(-7.23807e-08 2.25599e-07 -0.00100016)
(-9.09919e-08 2.25331e-07 -0.00100018)
(-1.0055e-07 2.24995e-07 -0.00100021)
(-1.61093e-08 2.84757e-07 -0.00100004)
(-4.67754e-08 2.85072e-07 -0.00100005)
(-7.26767e-08 2.84751e-07 -0.00100007)
(-9.13622e-08 2.84328e-07 -0.0010001)
(-1.00937e-07 2.83794e-07 -0.00100013)
(-1.6236e-08 3.1644e-07 -0.000999948)
(-4.71053e-08 3.16751e-07 -0.000999958)
(-7.31419e-08 3.16315e-07 -0.000999977)
(-9.19499e-08 3.1574e-07 -0.001)
(-1.01416e-07 3.15198e-07 -0.00100003)
(-2.16991e-08 6.76093e-08 -0.0010003)
(-6.30403e-08 6.77134e-08 -0.00100031)
(-9.79731e-08 6.76916e-08 -0.00100034)
(-1.23067e-07 6.76587e-08 -0.00100037)
(-1.35885e-07 6.76274e-08 -0.00100041)
(-2.17602e-08 1.96677e-07 -0.00100025)
(-6.32089e-08 1.96967e-07 -0.00100027)
(-9.82251e-08 1.96871e-07 -0.00100029)
(-1.23374e-07 1.96733e-07 -0.00100033)
(-1.36235e-07 1.96575e-07 -0.00100037)
(-2.18158e-08 3.06797e-07 -0.00100017)
(-6.33507e-08 3.07208e-07 -0.00100019)
(-9.84213e-08 3.06974e-07 -0.00100021)
(-1.23617e-07 3.06669e-07 -0.00100025)
(-1.36465e-07 3.06279e-07 -0.00100029)
(-2.19193e-08 3.87635e-07 -0.00100006)
(-6.36248e-08 3.8808e-07 -0.00100008)
(-9.8792e-08 3.87637e-07 -0.0010001)
(-1.2408e-07 3.87058e-07 -0.00100014)
(-1.36983e-07 3.86305e-07 -0.00100018)
(-2.20885e-08 4.3112e-07 -0.00099993)
(-6.4091e-08 4.31511e-07 -0.000999944)
(-9.94673e-08 4.30867e-07 -0.00099997)
(-1.24949e-07 4.29972e-07 -0.00100001)
(-1.3775e-07 4.29062e-07 -0.00100005)
(-2.96256e-08 9.18198e-08 -0.0010004)
(-8.60125e-08 9.19922e-08 -0.00100042)
(-1.33549e-07 9.20025e-08 -0.00100046)
(-1.67569e-07 9.20144e-08 -0.00100051)
(-1.84741e-07 9.20483e-08 -0.00100056)
(-2.96778e-08 2.67214e-07 -0.00100034)
(-8.61715e-08 2.67673e-07 -0.00100036)
(-1.33796e-07 2.67641e-07 -0.0010004)
(-1.67855e-07 2.67592e-07 -0.00100045)
(-1.8508e-07 2.6754e-07 -0.00100051)
(-2.97185e-08 4.1711e-07 -0.00100024)
(-8.62703e-08 4.17725e-07 -0.00100026)
(-1.33922e-07 4.17504e-07 -0.00100029)
(-1.68017e-07 4.17206e-07 -0.00100034)
(-1.85256e-07 4.16802e-07 -0.0010004)
(-2.98374e-08 5.27503e-07 -0.00100008)
(-8.65827e-08 5.28122e-07 -0.0010001)
(-1.34351e-07 5.27543e-07 -0.00100014)
(-1.68572e-07 5.26765e-07 -0.00100019)
(-1.85898e-07 5.25708e-07 -0.00100024)
(-3.00735e-08 5.87333e-07 -0.000999906)
(-8.72373e-08 5.87827e-07 -0.000999925)
(-1.35312e-07 5.86874e-07 -0.000999961)
(-1.69852e-07 5.85514e-07 -0.00100001)
(-1.87056e-07 5.84063e-07 -0.00100007)
(-4.05133e-08 1.2456e-07 -0.00100055)
(-1.1757e-07 1.24837e-07 -0.00100057)
(-1.82342e-07 1.24934e-07 -0.00100062)
(-2.28398e-07 1.25065e-07 -0.00100069)
(-2.51363e-07 1.25222e-07 -0.00100077)
(-4.05414e-08 3.62632e-07 -0.00100047)
(-1.17662e-07 3.63362e-07 -0.0010005)
(-1.82482e-07 3.6353e-07 -0.00100055)
(-2.28562e-07 3.63744e-07 -0.00100061)
(-2.51565e-07 3.63965e-07 -0.00100069)
(-4.05323e-08 5.66523e-07 -0.00100032)
(-1.17603e-07 5.6747e-07 -0.00100035)
(-1.82359e-07 5.67401e-07 -0.0010004)
(-2.28436e-07 5.67274e-07 -0.00100046)
(-2.51494e-07 5.67047e-07 -0.00100054)
(-4.06436e-08 7.17368e-07 -0.00100012)
(-1.17875e-07 7.18261e-07 -0.00100014)
(-1.82728e-07 7.17607e-07 -0.00100019)
(-2.28936e-07 7.16685e-07 -0.00100026)
(-2.52117e-07 7.15426e-07 -0.00100033)
(-4.09597e-08 8.00005e-07 -0.000999875)
(-1.18731e-07 8.00633e-07 -0.000999901)
(-1.83981e-07 7.9924e-07 -0.000999949)
(-2.30618e-07 7.97251e-07 -0.00100002)
(-2.53731e-07 7.95078e-07 -0.00100009)
(-5.55772e-08 1.68656e-07 -0.00100074)
(-1.61175e-07 1.69117e-07 -0.00100078)
(-2.49561e-07 1.6943e-07 -0.00100085)
(-3.11871e-07 1.69841e-07 -0.00100094)
(-3.42445e-07 1.70281e-07 -0.00100105)
(-5.553e-08 4.91258e-07 -0.00100064)
(-1.61033e-07 4.92476e-07 -0.00100067)
(-2.4934e-07 4.93156e-07 -0.00100074)
(-3.11636e-07 4.94027e-07 -0.00100083)
(-3.42201e-07 4.94949e-07 -0.00100094)
(-5.53763e-08 7.68339e-07 -0.00100044)
(-1.60542e-07 7.69885e-07 -0.00100048)
(-2.48556e-07 7.70289e-07 -0.00100054)
(-3.10723e-07 7.70742e-07 -0.00100063)
(-3.41348e-07 7.71161e-07 -0.00100074)
(-5.5407e-08 9.74613e-07 -0.00100016)
(-1.60562e-07 9.75984e-07 -0.0010002)
(-2.48551e-07 9.75409e-07 -0.00100027)
(-3.10791e-07 9.74515e-07 -0.00100035)
(-3.41545e-07 9.73265e-07 -0.00100046)
(-5.57962e-08 1.08933e-06 -0.000999834)
(-1.61598e-07 1.09012e-06 -0.000999869)
(-2.50085e-07 1.08811e-06 -0.000999936)
(-3.12868e-07 1.08527e-06 -0.00100003)
(-3.43685e-07 1.08207e-06 -0.00100013)
(-7.66006e-08 2.27747e-07 -0.001001)
(-2.21883e-07 2.28571e-07 -0.00100105)
(-3.42768e-07 2.29379e-07 -0.00100115)
(-4.27056e-07 2.3043e-07 -0.00100128)
(-4.67376e-07 2.31566e-07 -0.00100143)
(-7.6339e-08 6.63881e-07 -0.00100086)
(-2.2111e-07 6.66037e-07 -0.00100092)
(-3.41592e-07 6.67913e-07 -0.00100101)
(-4.25706e-07 6.70336e-07 -0.00100114)
(-4.65972e-07 6.72969e-07 -0.00100128)
(-7.58231e-08 1.03997e-06 -0.0010006)
(-2.19566e-07 1.04263e-06 -0.00100065)
(-3.39215e-07 1.04423e-06 -0.00100074)
(-4.22881e-07 1.04622e-06 -0.00100086)
(-4.63136e-07 1.04834e-06 -0.00100101)
(-7.56025e-08 1.3223e-06 -0.00100023)
(-2.18849e-07 1.32451e-06 -0.00100028)
(-3.38101e-07 1.32438e-06 -0.00100037)
(-4.21637e-07 1.32398e-06 -0.00100049)
(-4.61958e-07 1.32329e-06 -0.00100063)
(-7.60383e-08 1.4825e-06 -0.000999782)
(-2.19997e-07 1.48348e-06 -0.000999831)
(-3.39827e-07 1.48059e-06 -0.000999921)
(-4.23975e-07 1.47664e-06 -0.00100004)
(-4.64479e-07 1.47206e-06 -0.00100018)
(-1.06239e-07 3.06424e-07 -0.00100135)
(-3.07255e-07 3.07971e-07 -0.00100142)
(-4.73161e-07 3.0987e-07 -0.00100156)
(-5.87128e-07 3.12341e-07 -0.00100174)
(-6.39526e-07 3.15059e-07 -0.00100194)
(-1.05454e-07 8.94146e-07 -0.00100117)
(-3.04971e-07 8.98149e-07 -0.00100124)
(-4.69716e-07 9.02708e-07 -0.00100137)
(-5.83071e-07 9.08627e-07 -0.00100155)
(-6.35383e-07 9.1515e-07 -0.00100175)
(-1.04103e-07 1.4037e-06 -0.00100081)
(-3.01019e-07 1.4085e-06 -0.00100088)
(-4.63701e-07 1.41289e-06 -0.00100101)
(-5.75885e-07 1.41854e-06 -0.00100118)
(-6.28037e-07 1.42472e-06 -0.00100137)
(-1.03259e-07 1.79058e-06 -0.00100032)
(-2.98488e-07 1.79429e-06 -0.00100039)
(-4.59811e-07 1.79547e-06 -0.00100051)
(-5.7129e-07 1.79681e-06 -0.00100067)
(-6.23401e-07 1.79811e-06 -0.00100086)
(-1.03678e-07 2.01588e-06 -0.000999718)
(-2.99521e-07 2.01706e-06 -0.000999784)
(-4.61292e-07 2.01297e-06 -0.000999906)
(-5.7325e-07 2.00757e-06 -0.00100007)
(-6.25704e-07 2.00133e-06 -0.00100026)
(-1.48553e-07 4.10244e-07 -0.00100181)
(-4.28958e-07 4.13223e-07 -0.00100192)
(-6.57808e-07 4.17488e-07 -0.00100211)
(-8.11785e-07 4.22995e-07 -0.00100237)
(-8.78404e-07 4.29116e-07 -0.00100265)
(-1.46604e-07 1.1986e-06 -0.00100157)
(-4.23281e-07 1.20628e-06 -0.00100167)
(-6.4928e-07 1.21672e-06 -0.00100186)
(-8.01675e-07 1.23024e-06 -0.00100211)
(-8.6812e-07 1.24521e-06 -0.00100238)
(-1.43403e-07 1.88706e-06 -0.0010011)
(-4.13986e-07 1.89604e-06 -0.0010012)
(-6.35232e-07 1.90667e-06 -0.00100138)
(-7.8492e-07 1.92054e-06 -0.00100161)
(-8.51001e-07 1.9358e-06 -0.00100187)
(-1.41147e-07 2.418e-06 -0.00100045)
(-4.07322e-07 2.42444e-06 -0.00100054)
(-6.24954e-07 2.42889e-06 -0.00100071)
(-7.72611e-07 2.43471e-06 -0.00100093)
(-8.3852e-07 2.44105e-06 -0.00100118)
(-1.41392e-07 2.73756e-06 -0.000999643)
(-4.07673e-07 2.73891e-06 -0.000999733)
(-6.25112e-07 2.73325e-06 -0.000999899)
(-7.72765e-07 2.72599e-06 -0.00100012)
(-8.39228e-07 2.71787e-06 -0.00100036)
(-2.09871e-07 5.45515e-07 -0.0010024)
(-6.05689e-07 5.51299e-07 -0.00100256)
(-9.23622e-07 5.6067e-07 -0.00100285)
(-1.13159e-06 5.72504e-07 -0.00100322)
(-1.21306e-06 5.85863e-07 -0.00100363)
(-2.05477e-07 1.5959e-06 -0.00100209)
(-5.92633e-07 1.61094e-06 -0.00100224)
(-9.04066e-07 1.63421e-06 -0.00100251)
(-1.10841e-06 1.6639e-06 -0.00100286)
(-1.18961e-06 1.69693e-06 -0.00100326)
(-1.98255e-07 2.52204e-06 -0.00100149)
(-5.71627e-07 2.53934e-06 -0.00100163)
(-8.7253e-07 2.56367e-06 -0.00100188)
(-1.07106e-06 2.59542e-06 -0.0010022)
(-1.15187e-06 2.63031e-06 -0.00100256)
(-1.92931e-07 3.25238e-06 -0.00100064)
(-5.5592e-07 3.26394e-06 -0.00100076)
(-8.48216e-07 3.27583e-06 -0.00100099)
(-1.04186e-06 3.29189e-06 -0.00100129)
(-1.12246e-06 3.30975e-06 -0.00100162)
(-1.92667e-07 3.71012e-06 -0.000999561)
(-5.54348e-07 3.7114e-06 -0.000999684)
(-8.44793e-07 3.70362e-06 -0.000999908)
(-1.03714e-06 3.69416e-06 -0.0010002)
(-1.11854e-06 3.68453e-06 -0.00100052)
(-2.99846e-07 7.18823e-07 -0.00100315)
(-8.68741e-07 7.29819e-07 -0.00100339)
(-1.31449e-06 7.50385e-07 -0.00100383)
(-1.5964e-06 7.74893e-07 -0.00100437)
(-1.68759e-06 8.03963e-07 -0.00100499)
(-2.90718e-07 2.10421e-06 -0.00100276)
(-8.3996e-07 2.13391e-06 -0.00100298)
(-1.27155e-06 2.18556e-06 -0.00100339)
(-1.54543e-06 2.24893e-06 -0.00100389)
(-1.63698e-06 2.32104e-06 -0.00100446)
(-2.7478e-07 3.34128e-06 -0.00100201)
(-7.93112e-07 3.3754e-06 -0.0010022)
(-1.20196e-06 3.42955e-06 -0.00100256)
(-1.46383e-06 3.49972e-06 -0.00100299)
(-1.5566e-06 3.57694e-06 -0.00100349)
(-2.63016e-07 4.35096e-06 -0.00100092)
(-7.58306e-07 4.37197e-06 -0.00100108)
(-1.14755e-06 4.39983e-06 -0.0010014)
(-1.39816e-06 4.43778e-06 -0.00100178)
(-1.49184e-06 4.48114e-06 -0.00100222)
(-2.61811e-07 5.01293e-06 -0.000999487)
(-7.52534e-07 5.01322e-06 -0.00099965)
(-1.13643e-06 5.00236e-06 -0.000999955)
(-1.38253e-06 4.99024e-06 -0.00100032)
(-1.47759e-06 4.98157e-06 -0.00100074)
(-4.31209e-07 9.36914e-07 -0.00100408)
(-1.27349e-06 9.55887e-07 -0.0010044)
(-1.90354e-06 1.00215e-06 -0.00100515)
(-2.29313e-06 1.04935e-06 -0.0010059)
(-2.36961e-06 1.11502e-06 -0.00100695)
(-4.14733e-07 2.73503e-06 -0.00100359)
(-1.21188e-06 2.79284e-06 -0.0010039)
(-1.81274e-06 2.90975e-06 -0.00100456)
(-2.18352e-06 3.04031e-06 -0.00100526)
(-2.26498e-06 3.20112e-06 -0.00100617)
(-3.79685e-07 4.36601e-06 -0.0010027)
(-1.10645e-06 4.43465e-06 -0.00100295)
(-1.6593e-06 4.55375e-06 -0.00100347)
(-2.00557e-06 4.7067e-06 -0.00100404)
(-2.0984e-06 4.87675e-06 -0.00100477)
(-3.5478e-07 5.78001e-06 -0.00100136)
(-1.03304e-06 5.81735e-06 -0.00100156)
(-1.54111e-06 5.87756e-06 -0.00100202)
(-1.86069e-06 5.95951e-06 -0.00100245)
(-1.96176e-06 6.05806e-06 -0.00100305)
(-3.53108e-07 6.74275e-06 -0.000999433)
(-1.01999e-06 6.73907e-06 -0.000999642)
(-1.51752e-06 6.72313e-06 -0.00100007)
(-1.82507e-06 6.70546e-06 -0.00100051)
(-1.9291e-06 6.70827e-06 -0.00100107)
(-6.08602e-07 1.2117e-06 -0.00100519)