/*--------------------------------*- C++ -*----------------------------------*\
| =========                 |                                                 |
| \\      /  F ield         | OpenFOAM: The Open Source CFD Toolbox           |
|  \\    /   O peration     | Version:  5.x                                   |
|   \\  /    A nd           | Web:      www.OpenFOAM.org                      |
|    \\/     M anipulation  |                                                 |
\*---------------------------------------------------------------------------*/
FoamFile
{
    version     2.0;
    format      ascii;
    class       surfaceScalarField;
    location    "0.01";
    object      phi;
}
// * * * * * * * * * * * * * * * * * * * * * * * * * * * * * * * * * * * * * //

dimensions      [0 3 -1 0 0 0 0];

internalField   nonuniform List<scalar> 
179
(
-2.49983e-10
-2.49982e-10
-2.49982e-10
-2.49981e-10
-2.4998e-10
-2.49979e-10
-2.49978e-10
-2.49976e-10
-2.49974e-10
-2.49972e-10
-2.4997e-10
-2.49967e-10
-2.49964e-10
-2.49961e-10
-2.49957e-10
-2.49953e-10
-2.49948e-10
-2.49943e-10
-2.49937e-10
-2.49931e-10
-2.49924e-10
-2.49916e-10
-2.49908e-10
-2.49898e-10
-2.49888e-10
-2.49876e-10
-2.49863e-10
-2.49849e-10
-2.49834e-10
-2.49816e-10
-2.49798e-10
-2.49777e-10
-2.49754e-10
-2.49728e-10
-2.497e-10
-2.4967e-10
-2.49636e-10
-2.49598e-10
-2.49557e-10
-2.49512e-10
-2.49462e-10
-2.49407e-10
-2.49346e-10
-2.4928e-10
-2.49206e-10
-2.49126e-10
-2.49037e-10
-2.48938e-10
-2.4883e-10
-2.48711e-10
-2.4858e-10
-2.48436e-10
-2.48277e-10
-2.48101e-10
-2.47908e-10
-2.47695e-10
-2.4746e-10
-2.47202e-10
-2.46919e-10
-2.46606e-10
-2.46261e-10
-2.45882e-10
-2.45464e-10
-2.45004e-10
-2.44497e-10
-2.43938e-10
-2.43323e-10
-2.42645e-10
-2.41898e-10
-2.41076e-10
-2.40171e-10
-2.39175e-10
-2.38083e-10
-2.36888e-10
-2.35592e-10
-2.3421e-10
-2.3277e-10
-2.31304e-10
-2.29962e-10
-2.29235e-10
-2.29237e-10
-2.29185e-10
-2.3554e-10
-2.35644e-10
-2.28318e-10
-2.14481e-10
-2.13393e-10
-2.04955e-10
-2.05652e-10
-2.18337e-10
-2.32911e-10
-2.42647e-10
-2.54998e-10
-2.68569e-10
-2.67005e-10
-2.64707e-10
-2.50087e-10
-2.42052e-10
-2.3214e-10
-2.27084e-10
-2.19011e-10
-2.13235e-10
-2.12574e-10
-2.12973e-10
-2.12514e-10
-2.13608e-10
-2.15832e-10
-2.18558e-10
-2.21379e-10
-2.24095e-10
-2.26617e-10
-2.28918e-10
-2.30999e-10
-2.32876e-10
-2.34566e-10
-2.36087e-10
-2.37456e-10
-2.38688e-10
-2.39798e-10
-2.40798e-10
-2.41699e-10
-2.4251e-10
-2.43241e-10
-2.43901e-10
-2.44495e-10
-2.45031e-10
-2.45514e-10
-2.4595e-10
-2.46343e-10
-2.46698e-10
-2.47018e-10
-2.47307e-10
-2.47567e-10
-2.47803e-10
-2.48015e-10
-2.48207e-10
-2.4838e-10
-2.48537e-10
-2.48678e-10
-2.48805e-10
-2.48921e-10
-2.49025e-10
-2.49119e-10
-2.49204e-10
-2.49281e-10
-2.4935e-10
-2.49413e-10
-2.4947e-10
-2.49521e-10
-2.49567e-10
-2.49609e-10
-2.49647e-10
-2.49681e-10
-2.49712e-10
-2.4974e-10
-2.49765e-10
-2.49788e-10
-2.49809e-10
-2.49827e-10
-2.49844e-10
-2.49859e-10
-2.49873e-10
-2.49885e-10
-2.49897e-10
-2.49907e-10
-2.49916e-10
-2.49925e-10
-2.49932e-10
-2.49939e-10
-2.49945e-10
-2.49951e-10
-2.49956e-10
-2.49961e-10
-2.49965e-10
-2.49969e-10
-2.49973e-10
-2.49977e-10
-2.4998e-10
-2.49983e-10
)
;

boundaryField
{
    inlet
    {
        type            calculated;
        value           uniform -2.49986e-10;
    }
    outlet
    {
        type            calculated;
        value           uniform 2.49983e-10;
    }
    repeat_boundary
    {
        type            calculated;
        value           uniform 0;
    }
    procBoundary0to1
    {
        type            processor;
        value           nonuniform List<scalar> 
180
(
7.09818e-18
-1.03542e-18
-1.13524e-17
-2.148e-17
-3.13452e-17
-4.13089e-17
-5.181e-17
-6.32403e-17
-7.59025e-17
-9.00189e-17
-1.05754e-16
-1.23233e-16
-1.42561e-16
-1.63819e-16
-1.87071e-16
-2.1237e-16
-2.39754e-16
-2.69246e-16
-3.00857e-16
-3.34587e-16
-3.7042e-16
-4.08325e-16
-4.48251e-16
-4.90124e-16
-5.33838e-16
-5.79244e-16
-6.26137e-16
-6.7424e-16
-7.23183e-16
-7.72473e-16
-8.21454e-16
-8.69266e-16
-9.1478e-16
-9.5652e-16
-9.92563e-16
-1.0204e-15
-1.03684e-15
-1.04009e-15
-1.02769e-15
-9.96302e-16
-9.4504e-16
-8.7165e-16
-7.734e-16
-6.47551e-16
-4.9179e-16
-3.05637e-16
-8.72332e-17
1.68631e-16
4.69864e-16
8.27471e-16
1.25334e-15
1.75525e-15
2.33025e-15
2.96562e-15
3.66597e-15
4.51964e-15
5.74498e-15
7.50636e-15
9.46365e-15
1.13887e-14
1.3601e-14
1.61384e-14
1.90472e-14
2.23846e-14
2.62177e-14
3.06215e-14
3.57404e-14
4.16956e-14
4.85651e-14
5.64054e-14
6.5225e-14
7.48976e-14
8.49278e-14
9.41141e-14
1.00161e-13
9.98134e-14
8.6984e-14
5.51022e-14
3.07351e-14
1.80279e-13
1.43999e-13
-8.9004e-14
4.75278e-12
-1.55005e-13
-3.81953e-12
-9.53832e-12
-7.19529e-13
-4.01043e-12
2.98601e-13
4.10183e-12
2.10191e-12
5.69961e-13
-5.5825e-13
-3.23617e-12
-1.92459e-12
-2.01649e-12
-5.56855e-12
-1.88029e-12
-2.5916e-12
-1.19783e-12
-3.57032e-12
-4.60425e-12
-8.60217e-13
-1.89275e-13
-1.04501e-13
1.27237e-12
2.11353e-12
2.48907e-12
2.56785e-12
2.48069e-12
2.31504e-12
2.12202e-12
1.92813e-12
1.74511e-12
1.57695e-12
1.4242e-12
1.28606e-12
1.16134e-12
1.04878e-12
9.47216e-13
8.55558e-13
7.72833e-13
6.98163e-13
6.30756e-13
5.69898e-13
5.14948e-13
4.65326e-13
4.20512e-13
3.80036e-13
3.43475e-13
3.10447e-13
2.8061e-13
2.53652e-13
2.29295e-13
2.07286e-13
1.87397e-13
1.69424e-13
1.53181e-13
1.385e-13
1.25231e-13
1.13238e-13
1.02397e-13
9.25977e-14
8.37395e-14
7.57318e-14
6.84926e-14
6.19482e-14
5.60316e-14
5.06826e-14
4.58466e-14
4.14744e-14
3.75216e-14
3.39478e-14
3.07168e-14
2.77957e-14
2.51548e-14
2.27674e-14
2.06091e-14
1.86582e-14
1.68948e-14
1.5301e-14
1.38608e-14
1.25596e-14
1.13843e-14
1.03229e-14
9.36476e-15
8.50028e-15
7.72072e-15
7.01824e-15
6.38578e-15
5.81697e-15
5.30609e-15
4.84805e-15
4.43836e-15
4.0733e-15
3.75008e-15
3.46747e-15
3.22771e-15
3.0411e-15
2.96073e-15
)
;
    }
    procBoundary0to2
    {
        type            processor;
        value           nonuniform List<scalar> 
180
(
-3.1933e-16
-3.84845e-16
-4.99805e-16
-6.46508e-16
-8.15016e-16
-9.99872e-16
-1.1989e-15
-1.4121e-15
-1.64071e-15
-1.88668e-15
-2.15237e-15
-2.44037e-15
-2.75353e-15
-3.09493e-15
-3.46791e-15
-3.8761e-15
-4.32346e-15
-4.81432e-15
-5.3534e-15
-5.94591e-15
-6.59757e-15
-7.31467e-15
-8.10415e-15
-8.97365e-15
-9.93163e-15
-1.09874e-14
-1.21513e-14
-1.34347e-14
-1.48502e-14
-1.64116e-14
-1.81344e-14
-2.00355e-14
-2.21337e-14
-2.44496e-14
-2.70062e-14
-2.98286e-14
-3.29448e-14
-3.63854e-14
-4.01845e-14
-4.43795e-14
-4.90118e-14
-5.41272e-14
-5.97762e-14
-6.60146e-14
-7.29043e-14
-8.05136e-14
-8.89179e-14
-9.82011e-14
-1.08456e-13
-1.19784e-13
-1.323e-13
-1.46127e-13
-1.61405e-13
-1.78287e-13
-1.9694e-13
-2.17554e-13
-2.40337e-13
-2.65514e-13
-2.93335e-13
-3.24073e-13
-3.58036e-13
-3.95563e-13
-4.37027e-13
-4.82842e-13
-5.33468e-13
-5.8942e-13
-6.51274e-13
-7.19653e-13
-7.95234e-13
-8.78693e-13
-9.7051e-13
-1.07062e-12
-1.17811e-12
-1.28937e-12
-1.39591e-12
-1.48204e-12
-1.52805e-12
-1.52032e-12
-1.37341e-12
-9.0672e-13
-1.41984e-13
3.62487e-14
1.60201e-12
2.59163e-13
-3.50656e-12
-4.29935e-12
-3.68471e-13
-4.42707e-12
3.97629e-13
8.5835e-12
1.24723e-11
9.166e-12
1.29092e-11
1.68073e-11
3.59657e-13
-2.81249e-13
-9.05155e-12
-6.15397e-12
-7.32055e-12
-3.85876e-12
-4.50273e-12
-1.17114e-12
1.9885e-13
5.87883e-13
-3.5475e-13
-1.78429e-13
1.11268e-13
2.36655e-13
2.53644e-13
2.3518e-13
2.07223e-13
1.79016e-13
1.53598e-13
1.3162e-13
1.12842e-13
9.68037e-14
8.30728e-14
7.12944e-14
6.11805e-14
5.2492e-14
4.50266e-14
3.86118e-14
3.30996e-14
2.83631e-14
2.42933e-14
2.07965e-14
1.77923e-14
1.52117e-14
1.29952e-14
1.10919e-14
9.45806e-15
8.05587e-15
6.85297e-15
5.82155e-15
4.9377e-15
4.18087e-15
3.53338e-15
2.98004e-15
2.50848e-15
2.10672e-15
1.7644e-15
1.47437e-15
1.22939e-15
1.02299e-15
8.49475e-16
7.03935e-16
5.82106e-16
4.8032e-16
3.95434e-16
3.24779e-16
2.66085e-16
2.17428e-16
1.77192e-16
1.44023e-16
1.16793e-16
9.46454e-17
7.68805e-17
6.28002e-17
5.18139e-17
4.34297e-17
3.72401e-17
3.29079e-17
3.01537e-17
2.87433e-17
2.84653e-17
2.91195e-17
3.05434e-17
3.25723e-17
3.50689e-17
3.79492e-17
4.11525e-17
4.45656e-17
4.81465e-17
5.19386e-17
5.5953e-17
6.00745e-17
6.39057e-17
6.68481e-17
6.82775e-17
7.37931e-17
)
;
    }
}


// ************************************************************************* //
