FoamFile
{version 2.0; format ascii;class vectorField; location 0;object  v;}
41
(
( 4.99107e-06 -4.85882e-06 4.02493e-05 )  
( -4.40443e-06 -1.96403e-05 3.58873e-05 )  
( -1.24693e-05 -1.11927e-05 3.5861e-05 )  
( -2.01899e-06 -4.31008e-05 6.61991e-05 )  
( 1.20426e-05 -2.48471e-05 0.000116072 )  
( 3.51917e-06 -8.741e-06 0.000148774 )  
( -2.07457e-05 -3.76902e-06 4.70509e-05 )  
( -2.39296e-05 -8.14452e-06 0.000147396 )  
( -1.55442e-05 -4.18963e-05 0.00010734 )  
( -7.52488e-06 -1.64847e-05 0.000122986 )  
( -2.0978e-05 -9.5572e-07 8.37495e-05 )  
( -1.93429e-05 -3.1938e-06 0.000150979 )  
( -3.6301e-08 -1.97382e-05 0.000188189 )  
( -9.11116e-06 1.67743e-06 0.000188597 )  
( 1.66483e-05 -3.21467e-05 0.000138519 )  
( 1.76882e-05 7.80902e-06 0.000240339 )  
( -4.31999e-05 -2.27158e-05 0.000206097 )  
( 1.52016e-05 -1.92312e-05 0.0001842 )  
( 1.53967e-05 -4.28312e-06 0.000215989 )  
( 3.05235e-06 -8.90937e-06 0.000213176 )  
( -1.49417e-05 -2.14118e-05 0.000259431 )  
( 5.49989e-06 -3.06659e-05 0.000174912 )  
( 5.94108e-06 -4.76119e-05 0.000216311 )  
( 1.05228e-05 2.32023e-05 0.000215913 )  
( -1.86504e-05 -6.99527e-07 0.000287753 )  
( 2.07156e-05 4.53493e-07 0.000197261 )  
( -1.44141e-05 -4.14272e-06 0.000241949 )  
( -2.55899e-05 -8.3518e-06 0.000225203 )  
( -1.648e-05 2.81023e-05 0.000207565 )  
( -1.10535e-05 1.69656e-05 0.000222996 )  
( 2.14573e-05 1.3319e-05 0.000212823 )  
( -4.23e-05 -2.14266e-05 0.000188751 )  
( -5.85279e-05 -7.31705e-05 0.00029921 )  
( -2.51503e-05 1.24323e-05 0.000199402 )  
( -7.30832e-06 2.94195e-05 0.000187706 )  
( 4.66572e-05 7.68242e-05 0.000120274 )  
( 5.37337e-05 1.89154e-05 0.000175538 )  
( -3.88312e-06 3.00883e-06 0.000120941 )  
( 1.37337e-05 -5.73654e-05 0.000216496 )  
( 2.02888e-05 -3.38849e-05 8.10004e-05 )  
( 1.95636e-05 9.31638e-05 5.21866e-05 )  
)
