/*--------------------------------*- C++ -*----------------------------------*\
| =========                 |                                                 |
| \\      /  F ield         | OpenFOAM: The Open Source CFD Toolbox           |
|  \\    /   O peration     | Version:  5.x                                   |
|   \\  /    A nd           | Web:      www.OpenFOAM.org                      |
|    \\/     M anipulation  |                                                 |
\*---------------------------------------------------------------------------*/
FoamFile
{
    version     2.0;
    format      ascii;
    class       volScalarField;
    location    "90000";
    object      p;
}
// * * * * * * * * * * * * * * * * * * * * * * * * * * * * * * * * * * * * * //

dimensions      [0 2 -2 0 0 0 0];

internalField   nonuniform List<scalar> 
2250
(
4.26954e-10
4.46684e-10
4.95576e-10
5.45151e-10
5.86071e-10
4.13384e-10
4.17323e-10
4.49134e-10
4.90163e-10
5.31359e-10
3.73779e-10
3.69394e-10
3.91215e-10
4.1901e-10
4.46441e-10
3.48799e-10
3.43197e-10
3.59213e-10
3.74344e-10
3.83712e-10
3.43079e-10
3.39753e-10
3.52157e-10
3.59456e-10
3.58378e-10
1.33563e-09
1.38868e-09
1.49674e-09
1.59297e-09
1.66043e-09
1.28657e-09
1.30066e-09
1.36833e-09
1.44376e-09
1.50683e-09
1.18051e-09
1.17882e-09
1.22483e-09
1.27115e-09
1.3027e-09
1.11888e-09
1.11735e-09
1.14993e-09
1.16698e-09
1.1595e-09
1.11151e-09
1.11776e-09
1.13936e-09
1.13551e-09
1.10693e-09
2.33887e-09
2.38815e-09
2.47654e-09
2.53308e-09
2.53484e-09
2.23207e-09
2.2491e-09
2.30565e-09
2.35035e-09
2.33612e-09
2.09447e-09
2.10469e-09
2.1408e-09
2.15298e-09
2.11207e-09
2.03008e-09
2.04623e-09
2.0669e-09
2.04542e-09
1.97207e-09
2.03745e-09
2.06141e-09
2.06524e-09
2.01949e-09
1.93383e-09
3.39885e-09
3.40885e-09
3.41213e-09
3.36461e-09
3.22653e-09
3.25792e-09
3.26796e-09
3.26532e-09
3.22706e-09
3.08405e-09
3.14153e-09
3.15966e-09
3.14577e-09
3.08295e-09
2.93728e-09
3.10478e-09
3.13249e-09
3.10759e-09
3.02038e-09
2.87064e-09
3.12488e-09
3.15212e-09
3.11219e-09
3.01163e-09
2.87408e-09
4.46574e-09
4.43515e-09
4.33971e-09
4.17563e-09
3.91473e-09
4.33192e-09
4.32947e-09
4.25304e-09
4.12396e-09
3.87902e-09
4.2646e-09
4.27729e-09
4.19806e-09
4.05895e-09
3.84698e-09
4.2565e-09
4.27679e-09
4.19414e-09
4.04872e-09
3.86537e-09
4.26882e-09
4.27712e-09
4.1883e-09
4.04759e-09
3.89776e-09
5.51836e-09
5.46235e-09
5.28379e-09
5.00547e-09
4.61278e-09
5.3883e-09
5.36773e-09
5.2297e-09
5.03257e-09
4.73369e-09
5.34274e-09
5.33362e-09
5.20029e-09
5.01616e-09
4.8007e-09
5.32984e-09
5.32271e-09
5.19509e-09
5.02314e-09
4.8559e-09
5.30755e-09
5.28089e-09
5.15904e-09
5.00539e-09
4.87089e-09
6.50804e-09
6.42657e-09
6.18732e-09
5.80699e-09
5.25773e-09
6.33154e-09
6.28003e-09
6.10385e-09
5.87068e-09
5.53754e-09
6.24529e-09
6.19966e-09
6.03928e-09
5.84923e-09
5.65508e-09
6.18282e-09
6.13623e-09
5.99205e-09
5.82573e-09
5.68068e-09
6.11157e-09
6.04832e-09
5.92016e-09
5.77358e-09
5.64311e-09
7.35326e-09
7.23802e-09
6.97287e-09
6.54528e-09
5.87474e-09
7.08771e-09
6.99594e-09
6.80869e-09
6.57409e-09
6.21379e-09
6.91082e-09
6.82576e-09
6.66985e-09
6.5029e-09
6.31212e-09
6.77424e-09
6.6932e-09
6.56402e-09
6.42324e-09
6.27482e-09
6.66396e-09
6.58059e-09
6.47163e-09
6.34314e-09
6.19864e-09
8.03959e-09
7.89356e-09
7.64173e-09
7.25664e-09
6.61155e-09
7.68022e-09
7.55547e-09
7.38052e-09
7.1747e-09
6.82206e-09
7.40225e-09
7.29345e-09
7.16424e-09
7.03033e-09
6.82962e-09
7.19952e-09
7.10612e-09
7.00991e-09
6.89948e-09
6.74081e-09
7.07697e-09
6.99809e-09
6.9188e-09
6.81365e-09
6.66709e-09
8.67984e-09
8.51484e-09
8.29094e-09
7.99611e-09
7.50954e-09
8.24195e-09
8.10387e-09
7.94584e-09
7.76797e-09
7.45629e-09
7.88203e-09
7.7715e-09
7.66268e-09
7.53885e-09
7.32799e-09
7.63479e-09
7.54745e-09
7.4684e-09
7.36413e-09
7.19867e-09
7.51705e-09
7.45109e-09
7.3806e-09
7.27801e-09
7.1309e-09
9.45976e-09
9.28526e-09
9.06154e-09
8.80116e-09
8.42387e-09
8.94378e-09
8.80469e-09
8.63175e-09
8.42134e-09
8.09953e-09
8.51314e-09
8.40322e-09
8.26497e-09
8.07966e-09
7.80948e-09
8.21977e-09
8.12743e-09
8.00507e-09
7.83203e-09
7.59829e-09
8.09068e-09
8.01276e-09
7.88958e-09
7.71285e-09
7.48275e-09
1.05407e-08
1.03548e-08
1.0069e-08
9.70851e-09
9.22931e-09
9.90195e-09
9.74734e-09
9.48932e-09
9.1362e-09
8.66389e-09
9.3637e-09
9.22234e-09
8.97089e-09
8.61527e-09
8.16053e-09
8.97679e-09
8.83532e-09
8.58148e-09
8.22531e-09
7.784e-09
8.78969e-09
8.64923e-09
8.38809e-09
8.02214e-09
7.56804e-09
1.19878e-08
1.17673e-08
1.13433e-08
1.07565e-08
1.00154e-08
1.11286e-08
1.09148e-08
1.0488e-08
9.8848e-09
9.13353e-09
1.039e-08
1.01634e-08
9.71742e-09
9.09327e-09
8.33181e-09
9.8311e-09
9.58698e-09
9.12652e-09
8.49281e-09
7.73198e-09
9.53527e-09
9.2829e-09
8.81609e-09
8.17807e-09
7.41668e-09
1.37536e-08
1.34491e-08
1.28111e-08
1.19159e-08
1.08664e-08
1.25533e-08
1.22238e-08
1.15609e-08
1.0637e-08
9.54656e-09
1.15026e-08
1.1142e-08
1.0453e-08
9.51e-09
8.40046e-09
1.06999e-08
1.03165e-08
9.61609e-09
8.67442e-09
7.583e-09
1.02652e-08
9.8751e-09
9.17951e-09
8.25394e-09
7.19162e-09
1.57447e-08
1.52927e-08
1.43691e-08
1.30853e-08
1.16302e-08
1.41046e-08
1.36109e-08
1.26654e-08
1.1367e-08
9.88302e-09
1.26562e-08
1.2132e-08
1.11761e-08
9.88883e-09
8.4181e-09
1.15672e-08
1.10292e-08
1.00791e-08
8.82089e-09
7.39637e-09
1.09867e-08
1.0454e-08
9.52345e-09
8.29628e-09
6.90532e-09
1.79545e-08
1.7303e-08
1.60322e-08
1.42639e-08
1.22188e-08
1.58055e-08
1.51148e-08
1.3839e-08
1.20906e-08
1.0092e-08
1.39026e-08
1.31941e-08
1.19302e-08
1.02282e-08
8.28469e-09
1.24986e-08
1.17913e-08
1.0549e-08
8.8902e-09
6.99057e-09
1.17691e-08
1.10815e-08
9.86049e-09
8.22088e-09
6.32307e-09
2.05657e-08
1.96835e-08
1.80012e-08
1.56445e-08
1.28485e-08
1.78131e-08
1.68926e-08
1.52021e-08
1.28707e-08
1.01534e-08
1.5379e-08
1.44492e-08
1.27742e-08
1.04872e-08
7.8171e-09
1.36058e-08
1.26867e-08
1.10286e-08
8.76344e-09
6.09972e-09
1.27014e-08
1.18045e-08
1.01505e-08
7.87664e-09
5.18395e-09
2.39211e-08
2.276e-08
2.05399e-08
1.74241e-08
1.37019e-08
2.0369e-08
1.91535e-08
1.68898e-08
1.37502e-08
1.00393e-08
1.72528e-08
1.60243e-08
1.37538e-08
1.06135e-08
6.89011e-09
1.49993e-08
1.37771e-08
1.1498e-08
8.33946e-09
4.58451e-09
1.38514e-08
1.26388e-08
1.03439e-08
7.15915e-09
3.37091e-09
2.83926e-08
2.68335e-08
2.38363e-08
1.96588e-08
1.47102e-08
2.37213e-08
2.20894e-08
1.90078e-08
1.47345e-08
9.68992e-09
1.96794e-08
1.80234e-08
1.48992e-08
1.05649e-08
5.43194e-09
1.67645e-08
1.50983e-08
1.19363e-08
7.54739e-09
2.35244e-09
1.5262e-08
1.35906e-08
1.04039e-08
5.97852e-09
7.45726e-10
3.43232e-08
3.21763e-08
2.80656e-08
2.23974e-08
1.57671e-08
2.81187e-08
2.58962e-08
2.16698e-08
1.58316e-08
8.98676e-09
2.28149e-08
2.05511e-08
1.62391e-08
1.02711e-08
3.24842e-09
1.89828e-08
1.66878e-08
1.231e-08
6.24227e-09
-8.96581e-10
1.69821e-08
1.46746e-08
1.02599e-08
4.13076e-09
-3.07968e-09
4.21429e-08
3.91813e-08
3.35352e-08
2.57979e-08
1.67891e-08
3.3888e-08
3.08444e-08
2.50356e-08
1.70342e-08
7.66884e-09
2.68694e-08
2.37538e-08
1.77991e-08
9.57178e-09
-8.30151e-11
2.17782e-08
1.86087e-08
1.25446e-08
4.14644e-09
-5.7121e-09
1.91022e-08
1.59086e-08
9.77694e-09
1.2834e-09
-8.69114e-09
5.25047e-08
4.84418e-08
4.06939e-08
3.00818e-08
1.76757e-08
4.1507e-08
3.73203e-08
2.93187e-08
1.83038e-08
5.3799e-09
3.21618e-08
2.78563e-08
1.96173e-08
8.24409e-09
-5.1045e-09
2.53645e-08
2.09728e-08
1.25537e-08
9.21251e-10
-1.27364e-08
2.17803e-08
1.73364e-08
8.81365e-09
-2.94383e-09
-1.67499e-08
6.63255e-08
6.07492e-08
5.01219e-08
3.55441e-08
1.84243e-08
5.16654e-08
4.58864e-08
3.4851e-08
1.9657e-08
1.80195e-09
3.91912e-08
3.32269e-08
2.18174e-08
6.08869e-09
-1.23845e-08
3.01022e-08
2.3999e-08
1.23161e-08
-3.78335e-09
-2.27011e-08
2.52932e-08
1.91026e-08
7.28173e-09
-8.99214e-09
-2.80999e-08
8.4892e-08
7.72365e-08
6.26732e-08
4.26587e-08
1.91122e-08
6.53942e-08
5.7415e-08
4.21974e-08
2.12413e-08
-3.39874e-09
4.87451e-08
4.04776e-08
2.46889e-08
2.94209e-09
-2.26235e-08
3.65837e-08
2.81014e-08
1.19129e-08
-1.0384e-08
-3.65988e-08
3.0129e-08
2.15277e-08
5.14028e-09
-1.74273e-08
-4.39305e-08
1.10111e-07
9.96157e-08
7.96476e-08
5.21705e-08
1.98265e-08
8.42369e-08
7.3224e-08
5.22352e-08
2.33304e-08
-1.06983e-08
6.20249e-08
5.0568e-08
2.87245e-08
-1.36596e-09
-3.67936e-08
4.57478e-08
3.39766e-08
1.1534e-08
-1.93903e-08
-5.57942e-08
3.70987e-08
2.51689e-08
2.41634e-09
-2.89242e-08
-6.58126e-08
1.44709e-07
1.30307e-07
1.02891e-07
6.5165e-08
2.07338e-08
1.10407e-07
9.51997e-08
6.62303e-08
2.63393e-08
-2.0704e-08
8.07967e-08
6.49295e-08
3.46722e-08
-6.99874e-09
-5.61821e-08
5.90297e-08
4.27096e-08
1.15352e-08
-3.13742e-08
-8.20745e-08
4.74593e-08
3.09145e-08
-7.36461e-10
-4.42753e-08
-9.57749e-08
1.92438e-07
1.72615e-07
1.34964e-07
8.31419e-08
2.21072e-08
1.47049e-07
1.26033e-07
8.60008e-08
3.09259e-08
-3.41789e-08
1.07636e-07
8.56648e-08
4.36539e-08
-1.40401e-08
-8.25175e-08
7.85483e-08
5.59318e-08
1.25054e-08
-4.69798e-08
-1.17891e-07
6.30551e-08
4.01213e-08
-4.05318e-09
-6.4447e-08
-1.36659e-07
2.58613e-07
2.31225e-07
1.79509e-07
1.08208e-07
2.42772e-08
1.98729e-07
1.69632e-07
1.1419e-07
3.81769e-08
-5.23292e-08
1.46292e-07
1.15874e-07
5.73133e-08
-2.23304e-08
-1.18417e-07
1.07347e-07
7.61002e-08
1.5243e-08
-6.67329e-08
-1.66968e-07
8.65097e-08
5.48958e-08
-7.25033e-09
-9.02769e-08
-1.9281e-07
3.51091e-07
3.12973e-07
2.41896e-07
1.43471e-07
2.75011e-08
2.72138e-07
2.31733e-07
1.54622e-07
5.00887e-08
-7.73645e-08
2.022e-07
1.60254e-07
7.78437e-08
-3.0714e-08
-1.68377e-07
1.49753e-07
1.07215e-07
2.04185e-08
-8.99328e-08
-2.35613e-07
1.21518e-07
7.89433e-08
-1.05552e-08
-1.21252e-07
-2.71559e-07
4.8197e-07
4.28007e-07
3.30483e-07
1.93921e-07
3.2112e-08
3.77071e-07
3.20795e-07
2.12673e-07
7.08626e-08
-1.13444e-07
2.8321e-07
2.26372e-07
1.07501e-07
-3.55169e-08
-2.4018e-07
2.11785e-07
1.56326e-07
2.75688e-08
-1.13178e-07
-3.34282e-07
1.73078e-07
1.19038e-07
-1.59234e-08
-1.54236e-07
-3.84836e-07
6.71066e-07
5.92635e-07
4.59794e-07
2.68698e-07
3.9762e-08
5.27771e-07
4.49265e-07
2.95641e-07
1.07738e-07
-1.66352e-07
4.00558e-07
3.26e-07
1.49178e-07
-3.1067e-08
-3.43555e-07
3.01743e-07
2.33793e-07
3.64616e-08
-1.31786e-07
-4.75613e-07
2.48048e-07
1.84659e-07
-2.52206e-08
-1.85105e-07
-5.46825e-07
9.50556e-07
8.3349e-07
6.55615e-07
3.83585e-07
5.62593e-08
7.44447e-07
6.34442e-07
4.14165e-07
1.69876e-07
-2.41715e-07
5.70982e-07
4.74506e-07
2.10566e-07
-1.14968e-08
-4.88199e-07
4.31862e-07
3.52335e-07
5.01155e-08
-1.40381e-07
-6.72794e-07
3.56584e-07
2.87666e-07
-3.78986e-08
-2.08906e-07
-7.72615e-07
1.3678e-06
1.1874e-06
9.59047e-07
5.6014e-07
9.2752e-08
1.05809e-06
8.99475e-07
5.86524e-07
2.72174e-07
-3.43892e-07
8.20978e-07
6.92662e-07
3.06931e-07
3.04066e-08
-6.85134e-07
6.19007e-07
5.28867e-07
7.3989e-08
-1.28149e-07
-9.40815e-07
5.12215e-07
4.4501e-07
-5.25178e-08
-2.15105e-07
-1.07884e-06
1.99214e-06
1.70054e-06
1.43602e-06
8.1939e-07
1.62016e-07
1.52495e-06
1.27837e-06
8.43926e-07
4.46957e-07
-4.6642e-07
1.19088e-06
1.00932e-06
4.64629e-07
9.94717e-08
-9.47695e-07
8.81622e-07
7.85376e-07
1.12806e-07
-7.30186e-08
-1.2969e-06
7.29194e-07
6.82593e-07
-6.79892e-08
-1.80245e-07
-1.47881e-06
2.881e-06
2.38895e-06
2.17823e-06
1.11386e-06
2.48039e-07
2.20613e-06
1.78101e-06
1.20627e-06
7.11215e-07
-6.64534e-07
1.69538e-06
1.41002e-06
6.90644e-07
1.48125e-07
-1.32294e-06
1.21338e-06
1.11314e-06
1.53846e-07
3.14628e-08
-1.77032e-06
1.00892e-06
1.01232e-06
-8.66205e-08
-8.58878e-08
-1.97258e-06
3.36095e-06
2.65396e-06
2.78814e-06
1.0082e-06
3.18956e-07
2.48745e-06
1.81253e-06
1.28772e-06
6.04713e-07
-1.01319e-06
1.92468e-06
1.56383e-06
7.848e-07
-2.24035e-07
-1.9009e-06
1.48716e-06
1.34642e-06
1.19295e-07
-6.93224e-08
-2.42742e-06
1.35486e-06
1.36309e-06
-8.26997e-08
-2.14883e-07
-2.62226e-06
1.02394e-05
8.32826e-06
8.61969e-06
6.07706e-06
2.99642e-06
8.7312e-06
6.87754e-06
5.57285e-06
5.80193e-06
8.91398e-08
6.42457e-06
5.55122e-06
3.99289e-06
3.52127e-06
-1.59908e-06
4.71326e-06
5.00742e-06
2.36828e-06
4.25451e-06
-2.4994e-06
3.88562e-06
4.86154e-06
1.63108e-06
4.79625e-06
-3.06019e-06
2.0012e-06
5.20151e-08
2.01407e-06
-3.62251e-06
-2.66465e-06
9.2289e-07
-1.89594e-06
-1.65242e-06
-3.97616e-06
-4.2638e-06
-9.77671e-07
-2.35138e-06
-2.36993e-06
-5.83838e-06
-6.05221e-06
-1.92566e-06
-2.75079e-06
-3.50769e-06
-4.26009e-06
-6.33043e-06
-1.65591e-06
-2.07124e-06
-2.12901e-06
-2.86589e-06
-3.59592e-06
2.99273e-05
2.08664e-05
3.1113e-05
1.96548e-05
1.10343e-05
2.95148e-05
1.57034e-05
1.99633e-05
1.86605e-05
-1.25029e-06
1.64659e-05
1.21233e-05
1.11907e-05
9.7201e-06
-4.66839e-06
1.07016e-05
1.2866e-05
6.55257e-06
1.55191e-05
-4.4253e-06
8.91284e-06
1.40567e-05
5.67175e-06
2.63295e-05
-7.50571e-06
-4.69152e-06
-1.03775e-06
-1.38894e-05
-1.37355e-05
-2.6237e-07
-1.39765e-05
-1.02847e-05
-1.87399e-05
-2.04197e-05
-1.55081e-06
-4.60313e-06
-1.09129e-05
-1.37187e-05
-1.81518e-05
-1.41461e-05
-1.29698e-06
-1.37728e-05
-1.5028e-05
-1.59194e-05
-1.33288e-05
3.26599e-06
-1.18789e-05
3.6652e-07
-3.34675e-06
2.36322e-05
5.11738e-05
2.25734e-05
0.000109722
4.7378e-05
1.29696e-05
0.000106078
-1.24764e-05
5.87596e-05
2.59133e-05
-7.09874e-06
3.70939e-05
-8.76147e-06
-3.4657e-06
5.51592e-06
-5.08247e-05
6.18407e-05
-7.25257e-06
-2.95694e-05
-3.74845e-05
-3.81628e-05
0.000104457
-1.36907e-05
-3.79361e-05
0.00013019
-3.89961e-06
0.00128894
0.00076122
0.000545878
0.000600461
0.00085237
0.00101941
0.00107004
0.00055242
0.000677484
0.000104237
0.00104942
0.000734966
0.000589551
0.000670131
0.000665406
0.000710893
0.00101183
0.000857411
0.000869055
0.000776783
0.00125313
0.000516965
0.000683791
0.000764422
0.000657485
0.00198276
0.00171207
0.00120258
0.00102503
0.00128311
0.00161396
0.00157422
0.00113715
0.0014605
0.00153463
0.00213953
0.00156855
0.00122851
0.00118635
0.00185118
0.00133857
0.00165941
0.0014944
0.00163056
0.00161432
0.00113767
0.00120319
0.00141098
0.00105711
0.00170871
0.0024252
0.00248655
0.00251476
0.00232475
0.00274597
0.00238231
0.00203525
0.00205494
0.00208216
0.00205879
0.00220765
0.00224434
0.00192237
0.00241135
0.00224587
0.00218222
0.00193049
0.00191806
0.00183836
0.00189378
0.00155039
0.00212966
0.00209502
0.00200499
0.00191162
0.00250045
0.00287341
0.00235053
0.00287196
0.00292653
0.00260171
0.00246241
0.00279463
0.00239799
0.00276088
0.00252209
0.0029647
0.00237261
0.00242132
0.00249456
0.00283862
0.00251156
0.00277674
0.00201821
0.00258285
0.00278971
0.00270533
0.00336736
0.00202733
0.00225224
0.00332046
0.0037614
0.00298017
0.00353164
0.00284288
0.00296725
0.00300498
0.00338725
0.00330056
0.00338284
0.00322594
0.00332025
0.00319335
0.0030354
0.00279449
0.00329366
0.00330535
0.00325093
0.00318207
0.00307195
0.00314239
0.00312187
0.00331632
0.00313145
0.00272286
0.00347668
0.003734
0.00379414
0.00409312
0.00412103
0.00302025
0.00369656
0.00374732
0.0041727
0.00419343
0.00367684
0.00390882
0.0039667
0.00377081
0.00334993
0.00366067
0.00352644
0.00364094
0.00351392
0.00364669
0.00378838
0.00376399
0.00374487
0.00366149
0.00318048
0.00362175
0.00308878
0.00391228
0.00422296
0.00421042
0.00388998
0.00377816
0.00399092
0.00392671
0.00410905
0.00417975
0.00379967
0.00406036
0.00388424
0.00381481
0.00269663
0.00365289
0.00386413
0.00351134
0.0042355
0.00426512
0.00345107
0.003956
0.0036475
0.00432983
0.00402477
0.00395782
0.00370637
0.00411259
0.00354418
0.00424299
0.0043296
0.00384483
0.00365289
0.00315212
0.00418162
0.0036284
0.00416732
0.00391675
0.00393032
0.00514378
0.00451448
0.0040785
0.00417763
0.00435936
0.00488899
0.00485095
0.00398391
0.00410744
0.00437848
0.00436721
0.0046733
0.00439157
0.0041389
0.00439323
0.00443255
0.0046638
0.00430556
0.00457233
0.00417709
0.0046107
0.00497085
0.00479778
0.00489416
0.00533372
0.00469952
0.00479529
0.00480683
0.00475216
0.00454659
0.00491072
0.00490408
0.00523544
0.00539296
0.00471266
0.00480612
0.00510931
0.00496513
0.00514098
0.00533956
0.00504396
0.00504059
0.00495056
0.0051265
0.00499841
0.00515667
0.00512602
0.00512487
0.00516345
0.00509957
0.00494227
0.00508465
0.00531083
0.00526047
0.00519992
0.00512932
0.00529284
0.00544001
0.00535497
0.00538956
0.00526484
0.00528708
0.00526088
0.00528378
0.00526181
0.00526704
0.00530973
0.00531458
0.0052453
0.00525037
0.0052912
0.00529916
0.00530008
0.00532025
0.00528287
0.00530916
0.00534015
0.00533823
0.00535725
0.0053893
0.00528462
0.0053381
0.00534142
0.00537613
0.0053846
0.00527108
0.00526599
0.00528021
0.00524074
0.00527925
0.00529092
0.0052917
0.00528849
0.00528337
0.00528374
0.00528313
0.00530112
0.00530685
0.00529769
0.00529479
0.00530504
0.00531269
0.00532057
0.00532362
0.00532274
0.00531839
0.00532326
0.00533375
0.00533877
0.00533683
0.00528298
0.0052833
0.00528666
0.00528797
0.00528956
0.00529229
0.00529443
0.00529406
0.00528661
0.00529511
0.00529628
0.00529628
0.00529614
0.00529729
0.00529856
0.0053062
0.0053089
0.00531011
0.00531245
0.00531389
0.00530245
0.00531097
0.00530983
0.0053174
0.00531847
0.00528811
0.00528641
0.00529033
0.00528488
0.00529194
0.00529439
0.00529434
0.00529531
0.0052929
0.00529594
0.00529555
0.00529695
0.00529851
0.00529815
0.00529977
0.00530164
0.00530327
0.00530451
0.00530525
0.00530571
0.00530345
0.00530543
0.00530661
0.0053086
0.00530867
0.00529096
0.00529025
0.00529236
0.00529102
0.00529326
0.00529502
0.00529484
0.00529566
0.00529425
0.00529597
0.00529591
0.0052962
0.00529696
0.00529709
0.00529817
0.00529987
0.00530035
0.00530092
0.00530127
0.00530164
0.00530008
0.00530133
0.0053016
0.00530287
0.00530313
0.00529256
0.00529222
0.00529343
0.00529258
0.00529396
0.00529523
0.00529508
0.00529564
0.00529487
0.00529578
0.00529584
0.00529593
0.00529645
0.00529652
0.00529716
0.00529829
0.00529847
0.0052988
0.00529892
0.00529917
0.00529847
0.005299
0.00529921
0.0052998
0.00529996
0.00529347
0.00529331
0.00529396
0.00529351
0.00529431
0.00529525
0.00529513
0.00529547
0.00529503
0.00529552
0.00529563
0.00529569
0.005296
0.00529602
0.00529638
0.00529717
0.00529722
0.0052974
0.00529744
0.00529758
0.0052973
0.00529753
0.00529767
0.00529796
0.00529806
0.00529403
0.00529393
0.00529427
0.00529403
0.00529447
0.00529516
0.00529508
0.00529525
0.00529502
0.00529527
0.00529542
0.00529545
0.00529563
0.00529565
0.00529584
0.00529637
0.00529639
0.00529648
0.0052965
0.00529656
0.0052965
0.0052966
0.00529669
0.00529681
0.00529686
0.00529429
0.00529425
0.00529443
0.00529432
0.00529453
0.00529503
0.00529498
0.00529507
0.00529495
0.00529505
0.00529524
0.00529526
0.00529535
0.00529537
0.00529546
0.00529582
0.00529583
0.00529588
0.00529588
0.00529591
0.00529593
0.00529597
0.00529602
0.00529608
0.00529611
0.00529443
0.00529442
0.0052945
0.00529446
0.00529455
0.0052949
0.00529488
0.00529491
0.00529486
0.0052949
0.00529508
0.00529509
0.00529514
0.00529516
0.0052952
0.00529544
0.00529544
0.00529546
0.00529547
0.00529548
0.00529552
0.00529554
0.00529557
0.0052956
0.00529561
0.0052945
0.0052945
0.00529454
0.00529453
0.00529456
0.0052948
0.00529479
0.0052948
0.00529478
0.00529479
0.00529495
0.00529496
0.00529498
0.00529499
0.00529501
0.00529517
0.00529517
0.00529518
0.00529518
0.00529519
0.00529524
0.00529525
0.00529526
0.00529528
0.00529528
0.00529454
0.00529454
0.00529455
0.00529455
0.00529455
0.00529472
0.00529472
0.00529472
0.00529472
0.00529472
0.00529485
0.00529486
0.00529486
0.00529487
0.00529487
0.00529498
0.00529498
0.00529499
0.00529499
0.00529499
0.00529504
0.00529504
0.00529505
0.00529505
0.00529506
0.00529455
0.00529455
0.00529455
0.00529455
0.00529455
0.00529467
0.00529467
0.00529467
0.00529467
0.00529467
0.00529477
0.00529477
0.00529477
0.00529477
0.00529477
0.00529485
0.00529485
0.00529485
0.00529486
0.00529486
0.00529489
0.0052949
0.0052949
0.0052949
0.0052949
0.00529454
0.00529454
0.00529455
0.00529454
0.00529454
0.00529463
0.00529463
0.00529463
0.00529463
0.00529463
0.0052947
0.0052947
0.0052947
0.0052947
0.0052947
0.00529476
0.00529476
0.00529476
0.00529476
0.00529476
0.00529479
0.00529479
0.00529479
0.00529479
0.00529479
0.00529454
0.00529454
0.00529454
0.00529454
0.00529454
0.0052946
0.0052946
0.0052946
0.0052946
0.0052946
0.00529465
0.00529465
0.00529465
0.00529465
0.00529465
0.00529469
0.00529469
0.00529469
0.00529469
0.00529469
0.00529471
0.00529471
0.00529471
0.00529471
0.00529471
0.00529453
0.00529453
0.00529453
0.00529453
0.00529453
0.00529458
0.00529458
0.00529458
0.00529458
0.00529458
0.00529461
0.00529461
0.00529461
0.00529461
0.00529461
0.00529464
0.00529464
0.00529464
0.00529464
0.00529464
0.00529466
0.00529466
0.00529466
0.00529466
0.00529466
0.00529453
0.00529453
0.00529453
0.00529453
0.00529453
0.00529456
0.00529456
0.00529456
0.00529456
0.00529456
0.00529459
0.00529459
0.00529459
0.00529459
0.00529459
0.00529461
0.00529461
0.00529461
0.00529461
0.00529461
0.00529462
0.00529462
0.00529462
0.00529462
0.00529462
0.00529452
0.00529452
0.00529452
0.00529452
0.00529452
0.00529455
0.00529455
0.00529455
0.00529455
0.00529455
0.00529457
0.00529457
0.00529457
0.00529457
0.00529457
0.00529458
0.00529458
0.00529458
0.00529458
0.00529458
0.00529459
0.00529459
0.00529459
0.00529459
0.00529459
0.00529452
0.00529452
0.00529452
0.00529452
0.00529452
0.00529454
0.00529454
0.00529454
0.00529454
0.00529454
0.00529455
0.00529455
0.00529455
0.00529455
0.00529455
0.00529456
0.00529456
0.00529456
0.00529456
0.00529456
0.00529457
0.00529457
0.00529457
0.00529457
0.00529457
0.00529452
0.00529452
0.00529452
0.00529452
0.00529452
0.00529453
0.00529453
0.00529453
0.00529453
0.00529453
0.00529454
0.00529454
0.00529454
0.00529454
0.00529454
0.00529455
0.00529455
0.00529455
0.00529455
0.00529455
0.00529455
0.00529455
0.00529455
0.00529455
0.00529455
0.00529452
0.00529452
0.00529452
0.00529452
0.00529452
0.00529453
0.00529453
0.00529452
0.00529452
0.00529452
0.00529453
0.00529453
0.00529453
0.00529453
0.00529453
0.00529454
0.00529454
0.00529454
0.00529454
0.00529454
0.00529454
0.00529454
0.00529454
0.00529454
0.00529454
0.00529452
0.00529451
0.00529451
0.00529451
0.00529451
0.00529452
0.00529452
0.00529452
0.00529452
0.00529452
0.00529453
0.00529453
0.00529453
0.00529453
0.00529453
0.00529453
0.00529453
0.00529453
0.00529453
0.00529453
0.00529453
0.00529453
0.00529453
0.00529453
0.00529453
0.00529451
0.00529451
0.00529451
0.00529451
0.00529451
0.00529452
0.00529452
0.00529452
0.00529452
0.00529452
0.00529452
0.00529452
0.00529452
0.00529452
0.00529452
0.00529452
0.00529452
0.00529452
0.00529452
0.00529452
0.00529453
0.00529453
0.00529453
0.00529453
0.00529453
0.00529451
0.00529451
0.00529451
0.00529451
0.00529451
0.00529452
0.00529452
0.00529452
0.00529452
0.00529451
0.00529452
0.00529452
0.00529452
0.00529452
0.00529452
0.00529452
0.00529452
0.00529452
0.00529452
0.00529452
0.00529452
0.00529452
0.00529452
0.00529452
0.00529452
0.00529451
0.00529451
0.00529451
0.00529451
0.00529451
0.00529451
0.00529451
0.00529451
0.00529451
0.00529451
0.00529452
0.00529452
0.00529452
0.00529452
0.00529452
0.00529452
0.00529452
0.00529452
0.00529452
0.00529452
0.00529452
0.00529452
0.00529452
0.00529452
0.00529452
0.00529451
0.00529451
0.00529451
0.00529451
0.00529451
0.00529451
0.00529451
0.00529451
0.00529451
0.00529451
0.00529451
0.00529451
0.00529451
0.00529451
0.00529451
0.00529452
0.00529452
0.00529452
0.00529452
0.00529452
0.00529452
0.00529452
0.00529452
0.00529452
0.00529452
0.00529451
0.00529451
0.00529451
0.00529451
0.00529451
0.00529451
0.00529451
0.00529451
0.00529451
0.00529451
0.00529451
0.00529451
0.00529451
0.00529451
0.00529451
0.00529451
0.00529451
0.00529451
0.00529451
0.00529451
0.00529451
0.00529451
0.00529451
0.00529451
0.00529451
0.00529451
0.00529451
0.00529451
0.00529451
0.00529451
0.00529451
0.00529451
0.00529451
0.00529451
0.00529451
0.00529451
0.00529451
0.00529451
0.00529451
0.00529451
0.00529451
0.00529451
0.00529451
0.00529451
0.00529451
0.00529451
0.00529451
0.00529451
0.00529451
0.00529451
0.00529451
0.00529451
0.00529451
0.00529451
0.00529451
0.00529451
0.00529451
0.00529451
0.00529451
0.00529451
0.00529451
0.00529451
0.00529451
0.00529451
0.00529451
0.00529451
0.00529451
0.00529451
0.00529451
0.00529451
0.00529451
0.00529451
0.00529451
0.00529451
0.00529451
0.00529451
0.00529451
0.00529451
0.00529451
0.00529451
0.00529451
0.00529451
0.00529451
0.00529451
0.00529451
0.00529451
0.00529451
0.00529451
0.00529451
0.00529451
0.00529451
0.00529451
0.00529451
0.00529451
0.00529451
0.00529451
0.00529451
0.00529451
0.00529451
0.00529451
0.00529451
0.00529451
0.00529451
0.00529451
0.00529451
0.00529451
0.00529451
0.00529451
0.00529451
0.00529451
0.00529451
0.00529451
0.00529451
0.00529451
0.00529451
0.00529451
0.00529451
0.00529451
0.00529451
0.00529451
0.00529451
0.00529451
0.00529451
0.00529451
0.00529451
0.00529451
0.00529451
0.00529451
0.00529451
0.00529451
0.00529451
0.00529451
0.00529451
0.00529451
0.00529451
0.00529451
0.00529451
0.00529451
0.00529451
0.00529451
0.00529451
0.00529451
0.00529451
0.00529451
0.00529451
0.00529451
0.00529451
0.00529451
0.00529451
0.00529451
0.00529451
0.00529451
0.00529451
0.00529451
0.00529451
0.00529451
0.00529451
0.00529451
0.00529451
0.00529451
0.00529451
0.00529451
0.00529451
0.00529451
0.00529451
0.00529451
0.00529451
0.00529451
0.00529451
0.00529451
0.00529451
0.00529451
0.00529451
0.00529451
0.00529451
0.00529451
0.00529451
0.00529451
0.00529451
0.00529451
0.00529451
0.00529451
0.00529451
0.00529451
0.00529451
0.00529451
0.00529451
0.00529451
0.00529451
0.00529451
0.00529451
0.00529451
0.00529451
0.00529451
0.00529451
0.00529451
0.00529451
0.00529451
0.00529451
0.00529451
0.00529451
0.00529451
0.00529451
0.00529451
0.00529451
0.00529451
0.00529451
0.00529451
0.00529451
0.00529451
0.00529451
0.00529451
0.00529451
0.00529451
0.00529451
0.00529451
0.00529451
0.00529451
0.00529451
0.00529451
0.00529451
0.00529451
0.00529451
0.00529451
0.00529451
0.00529452
0.00529452
0.00529452
0.00529452
0.00529452
0.00529452
0.00529452
0.00529452
0.00529452
0.00529452
0.00529452
0.00529452
0.00529452
0.00529452
0.00529452
0.00529452
0.00529452
0.00529452
0.00529452
0.00529452
0.00529452
0.00529452
0.00529452
0.00529452
0.00529452
0.00529452
0.00529452
0.00529452
0.00529452
0.00529452
0.00529452
0.00529452
0.00529452
0.00529452
0.00529452
0.00529452
0.00529452
0.00529452
0.00529452
0.00529452
0.00529452
0.00529452
0.00529452
0.00529452
0.00529452
0.00529452
0.00529452
0.00529452
0.00529452
0.00529452
0.00529452
0.00529452
0.00529452
0.00529452
0.00529452
0.00529452
0.00529452
0.00529452
0.00529452
0.00529452
0.00529452
0.00529452
0.00529452
0.00529452
0.00529452
0.00529452
0.00529452
0.00529452
0.00529452
0.00529452
0.00529452
0.00529452
0.00529452
0.00529452
0.00529452
0.00529452
0.00529452
0.00529452
0.00529452
0.00529452
0.00529452
0.00529452
0.00529452
0.00529452
0.00529452
0.00529452
0.00529452
0.00529452
0.00529452
0.00529452
0.00529452
0.00529452
0.00529452
0.00529452
0.00529452
0.00529452
0.00529452
0.00529452
0.00529452
0.00529452
)
;

boundaryField
{
    inlet
    {
        type            zeroGradient;
    }
    outlet
    {
        type            fixedValue;
        value           uniform 0;
    }
    repeat_boundary
    {
        type            zeroGradient;
    }
    procBoundary2to0
    {
        type            processor;
        value           nonuniform List<scalar> 
450
(
4.45318e-10
4.72739e-10
5.29265e-10
5.962e-10
6.55972e-10
1.39492e-09
1.468e-09
1.58902e-09
1.73566e-09
1.87617e-09
2.43218e-09
2.50138e-09
2.5954e-09
2.71461e-09
2.84731e-09
3.50568e-09
3.52183e-09
3.5194e-09
3.5275e-09
3.56167e-09
4.56995e-09
4.52959e-09
4.4272e-09
4.3082e-09
4.20794e-09
5.62474e-09
5.55141e-09
5.38131e-09
5.17384e-09
4.98674e-09
6.64394e-09
6.54801e-09
6.33647e-09
6.08321e-09
5.90232e-09
7.56082e-09
7.43862e-09
7.19852e-09
6.92077e-09
6.79946e-09
8.3624e-09
8.21487e-09
7.9571e-09
7.66094e-09
7.56519e-09
9.14652e-09
8.98248e-09
8.71941e-09
8.41489e-09
8.27184e-09
1.00784e-08
9.90468e-09
9.63487e-09
9.31982e-09
9.07145e-09
1.13163e-08
1.11267e-08
1.08113e-08
1.04247e-08
1.00147e-08
1.29518e-08
1.27202e-08
1.22835e-08
1.17089e-08
1.10643e-08
1.49799e-08
1.46608e-08
1.40179e-08
1.31361e-08
1.2151e-08
1.7342e-08
1.68814e-08
1.59618e-08
1.46796e-08
1.32059e-08
2.00557e-08
1.94098e-08
1.81609e-08
1.64108e-08
1.43301e-08
2.33357e-08
2.2477e-08
2.08406e-08
1.85468e-08
1.57985e-08
2.75816e-08
2.6463e-08
2.43151e-08
2.13063e-08
1.77262e-08
3.32481e-08
3.17525e-08
2.88598e-08
2.4825e-08
2.00457e-08
4.07836e-08
3.87255e-08
3.47707e-08
2.93091e-08
2.28652e-08
5.07477e-08
4.79082e-08
4.24997e-08
3.51043e-08
2.64285e-08
6.3964e-08
6.00696e-08
5.26724e-08
4.26006e-08
3.08306e-08
8.15789e-08
7.62473e-08
6.61279e-08
5.2331e-08
3.62112e-08
1.05173e-07
9.78948e-08
8.40903e-08
6.51967e-08
4.31022e-08
1.37008e-07
1.27098e-07
1.08297e-07
8.24836e-08
5.23172e-08
1.8023e-07
1.66713e-07
1.41086e-07
1.05841e-07
6.47062e-08
2.39072e-07
2.20568e-07
1.85633e-07
1.37493e-07
8.14204e-08
3.19345e-07
2.93901e-07
2.46358e-07
1.80485e-07
1.04254e-07
4.29216e-07
3.93807e-07
3.29423e-07
2.38627e-07
1.35334e-07
5.79838e-07
5.29251e-07
4.43334e-07
3.1612e-07
1.77194e-07
7.84675e-07
7.10557e-07
5.9803e-07
4.16958e-07
2.3264e-07
1.06015e-06
9.50734e-07
8.03206e-07
5.44656e-07
3.02166e-07
1.43569e-06
1.27377e-06
1.07645e-06
7.05997e-07
3.86434e-07
1.96611e-06
1.72731e-06
1.45031e-06
9.17245e-07
4.94059e-07
2.69691e-06
2.34095e-06
1.94318e-06
1.16228e-06
6.40561e-07
3.06837e-06
2.56878e-06
2.31365e-06
1.33902e-06
8.77888e-07
9.20203e-06
8.26385e-06
6.49585e-06
5.01501e-06
2.99956e-06
2.01412e-06
6.94703e-07
4.12163e-07
-2.29334e-06
-5.18087e-08
2.39888e-05
2.40354e-05
1.45442e-05
1.20863e-05
9.55287e-06
9.92389e-06
1.29088e-05
2.96414e-06
-3.73252e-06
9.21627e-06
4.1425e-05
0.000114284
-1.43458e-05
4.70743e-05
-9.39191e-06
0.000996591
0.000852107
0.00115373
0.000307648
0.00048617
0.00140224
0.00120101
0.00118317
0.00143239
0.00154081
0.00317702
0.00215844
0.00172144
0.00264696
0.00182195
0.00235452
0.00235636
0.00324964
0.0028444
0.00256016
0.00281493
0.00336284
0.00313315
0.00281856
0.00445371
0.00300886
0.0039999
0.00327045
0.00380209
0.00379616
0.00272656
0.00308627
0.00385257
0.00409688
0.00392922
0.00402154
0.00398675
0.00409043
0.00420492
0.00456741
0.00432765
0.00457881
0.00439515
0.00479554
0.00479505
0.00556552
0.00504092
0.00484617
0.0048998
0.00497745
0.0052897