/*--------------------------------*- C++ -*----------------------------------*\
  =========                 |
  \\      /  F ield         | OpenFOAM: The Open Source CFD Toolbox
   \\    /   O peration     | Website:  https://openfoam.org
    \\  /    A nd           | Version:  9
     \\/     M anipulation  |
\*---------------------------------------------------------------------------*/
FoamFile
{
    format      ascii;
    class       volScalarField;
    location    "800";
    object      p;
}
// * * * * * * * * * * * * * * * * * * * * * * * * * * * * * * * * * * * * * //

dimensions      [0 2 -2 0 0 0 0];

internalField   nonuniform List<scalar> 
360
(
-0.0179076
0.00237891
-0.0529549
0.0167947
-0.0468174
-0.01425
-0.0716762
0.0151708
-0.0628683
-0.0250353
-0.0693926
0.00545736
-0.0632104
-0.0389009
-0.0655554
-0.00639464
-0.070122
-0.0512722
-0.0631541
-0.018615
-0.0683042
-0.0633993
-0.0622647
-0.0313599
-0.0443338
-0.0750637
-0.0623391
-0.044766
-0.0268902
-0.0877783
-0.0645977
-0.0591077
-0.0271149
-0.1024
-0.0701114
-0.0747002
-0.0565464
-0.119343
-0.0799209
-0.0917646
-0.098719
-0.138262
-0.0938534
-0.11041
-0.14135
-0.158439
-0.110903
-0.130612
-0.176107
-0.179064
-0.129898
-0.152279
-0.194058
-0.199862
-0.149861
-0.175315
-0.220985
-0.221779
-0.171182
-0.19956
-0.265008
-0.244368
-0.194031
-0.224743
-0.279148
-0.266839
-0.21685
-0.250709
-0.280671
-0.290411
-0.239983
-0.277487
-0.323544
-0.315751
-0.265206
-0.305082
-0.372854
-0.341463
-0.291751
-0.33339
-0.397465
-0.36659
-0.317485
-0.362272
-0.403608
-0.392011
-0.342406
-0.391662
-0.41527
-0.417841
-0.367075
-0.421526
-0.42858
-0.444218
-0.39177
-0.451863
-0.445074
-0.47126
-0.416836
-0.48269
-0.464149
-0.49907
-0.442514
-0.51404
-0.485546
-0.527717
-0.468971
-0.545953
-0.508912
-0.557237
-0.496304
-0.578464
-0.534074
-0.587657
-0.524586
-0.611609
-0.560844
-0.618995
-0.55386
-0.645416
-0.58909
-0.651258
-0.584151
-0.679916
-0.618703
-0.684454
-0.615469
-0.715139
-0.649596
-0.718587
-0.647818
-0.751114
-0.681701
-0.753661
-0.681198
-0.787867
-0.714965
-0.789682
-0.715604
-0.825425
-0.749344
-0.826655
-0.751034
-0.863814
-0.784807
-0.864587
-0.787481
-0.903056
-0.82133
-0.903483
-0.824942
-0.943177
-0.858892
-0.943353
-0.863413
-0.984198
-0.897482
-0.984205
-0.90289
-1.02614
-0.937091
-1.02605
-0.943371
-1.06904
-0.977714
-1.06889
-0.984855
-1.11289
-1.01935
-1.11274
-1.02734
-1.15774
-1.062
-1.15761
-1.07083
-1.2036
-1.10566
-1.20351
-1.11533
-1.25048
-1.15034
-1.25045
-1.16084
-1.2984
-1.19604
-1.29843
-1.20737
-1.34738
-1.24277
-1.34748
-1.25492
-1.39744
-1.29054
-1.3976
-1.3035
-1.44858
-1.33934
-1.44879
-1.35311
-1.50082
-1.38919
-1.50107
-1.40377
-1.55417
-1.44009
-1.55445
-1.45547
-1.60864
-1.49204
-1.60893
-1.50823
-1.66423
-1.54506
-1.66452
-1.56205
-1.72096
-1.59915
-1.72123
-1.61694
-1.77882
-1.65431
-1.77906
-1.67291
-1.83782
-1.71055
-1.83803
-1.72995
-1.89796
-1.76787
-1.89813
-1.78809
-1.95925
-1.82629
-1.95937
-1.84731
-2.02167
-1.8858
-2.02175
-1.90764
-2.08524
-1.94642
-2.08529
-1.96906
-2.14994
-2.00815
-2.14999
-2.0316
-2.21577
-2.071
-2.21585
-2.09524
-2.28273
-2.13498
-2.28287
-2.16
-2.35081
-2.20011
-2.35107
-2.22588
-2.41999
-2.26638
-2.42045
-2.29288
-2.49027
-2.33381
-2.49102
-2.36102
-2.56164
-2.40243
-2.56278
-2.43029
-2.63406
-2.47223
-2.63574
-2.5007
-2.70753
-2.54325
-2.70992
-2.57226
-2.78202
-2.6155
-2.78533
-2.64495
-2.85751
-2.689
-2.86198
-2.71879
-2.93396
-2.76378
-2.93988
-2.79382
-3.01129
-2.83987
-3.01907
-2.87018
-3.08938
-2.9173
-3.09956
-2.94783
-3.16822
-2.9961
-3.18141
-3.02633
-3.24823
-3.07631
-3.26467
-3.10526
-3.32988
-3.15796
-3.34939
-3.18455
-3.41326
-3.24111
-3.4356
-3.26422
-3.49831
-3.32581
-3.52334
-3.34422
-3.58497
-3.41215
-3.61268
-3.4243
-3.67324
-3.50025
-3.70366
-3.50404
-3.76315
-3.59015
-3.79619
-3.58322
-3.85471
-3.6816
-3.88993
-3.66233
-3.94772
-3.7743
-3.98492
-3.74125
-4.04192
-3.86992
-4.08318
-3.81335
-4.13827
-3.9726
-4.18798
-3.86747
-4.24
-4.08085
-4.29555
-3.92128
-4.34823
-4.17052
-4.38126
-4.05394
-4.44776
-4.19224
-4.3971
-4.28736
-4.48979
)
;

boundaryField
{
    inlet
    {
        type            zeroGradient;
    }
    outlet
    {
        type            fixedValue;
        value           uniform 0;
    }
    repeat_boundary
    {
        type            zeroGradient;
    }
}


// ************************************************************************* //
