/*--------------------------------*- C++ -*----------------------------------*\
  =========                 |
  \\      /  F ield         | OpenFOAM: The Open Source CFD Toolbox
   \\    /   O peration     | Website:  https://openfoam.org
    \\  /    A nd           | Version:  9
     \\/     M anipulation  |
\*---------------------------------------------------------------------------*/
FoamFile
{
    format      ascii;
    class       surfaceScalarField;
    location    "800";
    object      phi;
}
// * * * * * * * * * * * * * * * * * * * * * * * * * * * * * * * * * * * * * //

dimensions      [0 3 -1 0 0 0 0];

internalField   nonuniform List<scalar> 
716
(
0.331185
-0.285996
-135.428
-0.129266
-108.369
0.538125
-169.302
-130.532
0.339133
-0.296513
-135.47
-0.128869
-107.901
0.562162
-170.16
-130.099
0.34271
-0.310255
-135.503
-0.11614
-107.442
0.566591
-171.037
-129.648
0.35195
-0.319732
-135.535
-0.107913
-106.983
0.577788
-171.935
-129.178
0.355273
-0.326344
-135.564
-0.0968248
-106.53
0.582331
-172.843
-128.693
0.364585
-0.334179
-135.594
-0.0862902
-106.08
0.586728
-173.764
-128.192
0.372132
-0.338094
-135.628
-0.0750019
-105.632
0.588166
-174.691
-127.679
0.378052
-0.341987
-135.664
-0.0638644
-105.191
0.58811
-175.621
-127.155
0.380242
-0.346137
-135.698
-0.0527512
-104.758
0.585927
-176.553
-126.622
0.379837
-0.353033
-135.725
-0.0418611
-104.336
0.582001
-177.488
-126.082
0.378346
-0.362295
-135.741
-0.0311427
-103.926
0.576319
-178.426
-125.536
0.378236
-0.370657
-135.749
-0.0206222
-103.528
0.569151
-179.366
-124.988
0.380649
-0.377514
-135.752
-0.0101679
-103.137
0.560837
-180.304
-124.437
0.387698
-0.379923
-135.76
0.000223471
-102.749
0.551635
-181.236
-123.885
0.388489
-0.382855
-135.765
0.0101632
-102.371
0.541454
-182.16
-123.334
0.389952
-0.38965
-135.766
0.0195205
-102
0.530349
-183.08
-122.784
0.400897
-0.389741
-135.777
0.0286109
-101.628
0.518714
-183.989
-122.236
0.409236
-0.385005
-135.801
0.0372884
-101.256
0.50663
-184.88
-121.693
0.410417
-0.387148
-135.824
0.0453222
-100.891
0.493885
-185.761
-121.153
0.413881
-0.392327
-135.846
0.0528671
-100.53
0.4806
-186.634
-120.62
0.424157
-0.391094
-135.879
0.0600651
-100.166
0.467157
-187.493
-120.093
0.428806
-0.389184
-135.919
0.0667773
-99.804
0.453571
-188.335
-119.572
0.433372
-0.388796
-135.963
0.0729962
-99.4436
0.439854
-189.164
-119.059
0.436428
-0.389053
-136.011
0.0786876
-99.0859
0.426001
-189.979
-118.555
0.438726
-0.389942
-136.059
0.0838715
-98.731
0.412077
-190.781
-118.059
0.440327
-0.391241
-136.108
0.0885696
-98.3793
0.398132
-191.57
-117.572
0.441421
-0.39291
-136.157
0.0928076
-98.0307
0.384232
-192.348
-117.095
0.442173
-0.394844
-136.204
0.0966208
-97.6851
0.370444
-193.113
-116.628
0.442689
-0.397013
-136.25
0.100045
-97.3425
0.356834
-193.867
-116.171
0.443064
-0.399386
-136.294
0.103117
-97.0025
0.343462
-194.61
-115.725
0.443371
-0.401953
-136.335
0.105876
-96.665
0.330387
-195.342
-115.288
0.443665
-0.40471
-136.374
0.108362
-96.3297
0.317657
-196.064
-114.862
0.443992
-0.407661
-136.41
0.110613
-95.9963
0.305315
-196.777
-114.446
0.444385
-0.410809
-136.444
0.112667
-95.6646
0.293394
-197.482
-114.04
0.444868
-0.41416
-136.475
0.11456
-95.3343
0.281916
-198.178
-113.644
0.44546
-0.417718
-136.502
0.116325
-95.0052
0.270896
-198.866
-113.257
0.446173
-0.421486
-136.527
0.117994
-94.677
0.26034
-199.548
-112.878
0.447015
-0.425464
-136.549
0.119595
-94.3496
0.250245
-200.224
-112.508
0.44799
-0.429651
-136.567
0.121154
-94.0227
0.240604
-200.894
-112.147
0.4491
-0.434043
-136.582
0.122693
-93.6963
0.2314
-201.559
-111.793
0.450345
-0.438632
-136.594
0.124232
-93.3702
0.222614
-202.221
-111.446
0.451722
-0.443411
-136.602
0.125788
-93.0443
0.214222
-202.878
-111.106
0.453229
-0.448369
-136.607
0.127373
-92.7184
0.206198
-203.533
-110.772
0.454861
-0.453497
-136.608
0.128999
-92.3926
0.198512
-204.185
-110.445
0.456615
-0.458784
-136.606
0.130674
-92.0666
0.191135
-204.835
-110.123
0.458485
-0.464218
-136.6
0.132401
-91.7405
0.184037
-205.483
-109.806
0.460467
-0.469788
-136.591
0.134186
-91.4143
0.177187
-206.13
-109.495
0.462554
-0.475486
-136.578
0.136028
-91.0877
0.170556
-206.776
-109.188
0.464742
-0.481301
-136.562
0.137927
-90.7609
0.164115
-207.421
-108.886
0.467025
-0.487226
-136.541
0.139882
-90.4338
0.157839
-208.067
-108.589
0.469399
-0.493255
-136.517
0.141889
-90.1063
0.151701
-208.712
-108.295
0.471856
-0.499381
-136.49
0.143943
-89.7784
0.145678
-209.357
-108.005
0.474393
-0.505601
-136.459
0.146041
-89.45
0.139746
-210.002
-107.72
0.477003
-0.511911
-136.424
0.148176
-89.1212
0.133887
-210.648
-107.438
0.479681
-0.518309
-136.385
0.150344
-88.7918
0.128081
-211.294
-107.159
0.482422
-0.524794
-136.343
0.152538
-88.462
0.12231
-211.941
-106.884
0.485219
-0.531366
-136.297
0.154753
-88.1315
0.116559
-212.589
-106.613
0.488069
-0.538025
-136.247
0.156983
-87.8004
0.110813
-213.238
-106.345
0.490966
-0.544773
-136.193
0.159223
-87.4687
0.10506
-213.888
-106.081
0.493905
-0.55161
-136.135
0.161469
-87.1362
0.0992882
-214.539
-105.82
0.49688
-0.558539
-136.074
0.163717
-86.8031
0.0934871
-215.191
-105.563
0.499889
-0.56556
-136.008
0.165962
-86.4691
0.0876479
-215.844
-105.309
0.502925
-0.572677
-135.938
0.168204
-86.1344
0.0817628
-216.498
-105.059
0.505986
-0.579891
-135.864
0.17044
-85.7989
0.0758253
-217.154
-104.813
0.509067
-0.587203
-135.786
0.17267
-85.4625
0.0698299
-217.811
-104.571
0.512166
-0.594614
-135.704
0.174897
-85.1252
0.0637721
-218.47
-104.332
0.51528
-0.602125
-135.617
0.177123
-84.787
0.0576484
-219.129
-104.097
0.518407
-0.609736
-135.525
0.179353
-84.448
0.0514562
-219.79
-103.866
0.521544
-0.617444
-135.43
0.181596
-84.108
0.0451941
-220.453
-103.64
0.524693
-0.625248
-135.329
0.183862
-83.7672
0.0388614
-221.117
-103.417
0.527852
-0.633146
-135.224
0.186168
-83.4255
0.0324577
-221.783
-103.198
0.531023
-0.641132
-135.114
0.18853
-83.083
0.0259754
-222.45
-102.984
0.534207
-0.649193
-134.999
0.190966
-82.7398
0.0194393
-223.119
-102.773
0.537407
-0.657316
-134.879
0.1935
-82.3959
0.0128998
-223.789
-102.567
0.540628
-0.665503
-134.754
0.196192
-82.0515
0.00634427
-224.461
-102.364
0.54388
-0.67378
-134.624
0.19916
-81.7067
-0.00011974
-225.134
-102.165
0.547167
-0.682142
-134.489
0.202497
-81.3621
-0.0064444
-225.81
-101.969
0.550494
-0.690527
-134.349
0.206187
-81.0178
-0.0127067
-226.488
-101.776
0.553861
-0.698864
-134.204
0.210193
-80.6741
-0.0189912
-227.168
-101.585
0.557273
-0.707079
-134.054
0.214489
-80.3313
-0.0253767
-227.849
-101.396
0.560734
-0.715104
-133.9
0.219061
-79.9896
-0.0320211
-228.532
-101.208
0.564242
-0.722854
-133.741
0.22391
-79.6493
-0.0390207
-229.216
-101.024
0.567809
-0.730172
-133.579
0.229052
-79.3105
-0.0465509
-229.9
-100.841
0.571469
-0.736828
-133.413
0.234486
-78.9736
-0.0548673
-230.582
-100.661
0.575314
-0.742676
-133.246
0.240129
-78.6384
-0.0641671
-231.26
-100.486
0.579503
-0.748291
-133.077
0.245804
-78.3047
-0.0737673
-231.935
-100.313
0.583718
-0.753799
-132.907
0.251831
-77.9728
-0.0836782
-232.605
-100.145
0.587647
-0.755145
-132.74
0.259081
-77.6442
-0.0981959
-233.262
-99.9844
0.583074
-0.742737
-132.58
0.264951
-77.3261
-0.136415
-233.868
-99.8559
0.579852
-0.733952
0.266933
-0.161663
)
;

boundaryField
{
    inlet
    {
        type            calculated;
        value           nonuniform List<scalar> 4(-132.426 -234.441 -77.0132 -99.7506);
    }
    outlet
    {
        type            calculated;
        value           nonuniform List<scalar> 4(135.382 168.478 108.83 130.941);
    }
    repeat_boundary
    {
        type            calculated;
        value           uniform 0;
    }
}


// ************************************************************************* //
