FoamFile
{version 2.0; format ascii;class Cloud<passiveParticle>; location 0;object  positions;}
356
(
( -1685.59 4046.76 499.027 ) 0 
( -3954.88 2494.45 498.555 ) 0 
( -3881.8 4223.55 498.768 ) 0 
( -4880.01 4266.96 498.817 ) 0 
( -2189.98 4909.84 499.53 ) 0 
( -3490.64 1609.38 498.737 ) 0 
( -2876.62 820.921 496.632 ) 0 
( -976.9 2179.89 499.026 ) 0 
( -2363.36 3286.96 497.769 ) 0 
( -4866.48 725.653 498.917 ) 0 
( -291.054 2917.65 498.315 ) 0 
( -551.885 141.936 498.781 ) 0 
( -4953.37 2535.61 497.706 ) 0 
( -1006.24 4782.12 497.215 ) 0 
( -3419.56 3338.38 498.333 ) 0 
( -1958.63 2373.93 496.978 ) 0 
( -4417.84 3380.08 498.554 ) 0 
( -605.822 3866.47 498.801 ) 0 
( -2518.78 1656.68 906.928 ) 0 
( -1110.1 4200.2 1300.97 ) 0 
( -4489.28 1650.39 497.775 ) 0 
( -1283.68 3131.39 499.662 ) 0 
( -1862.53 2959.58 1296.74 ) 0 
( -1509.25 438.502 496.889 ) 0 
( -3866.67 683.991 499.099 ) 0 
( -1636.42 1428.96 497.93 ) 0 
( -2850.09 4159.49 498.153 ) 0 
( -2956.46 2453.62 497.244 ) 0 
( -2794.4 4750.5 1300.47 ) 0 
( -437.912 4943.09 1303.75 ) 0 
( -3089.4 295.055 1316.38 ) 0 
( -4006.72 1282.75 1290.42 ) 0 
( -4469.49 2224.39 1314.65 ) 0 
( -562.562 1140.98 498.819 ) 0 
( -3857.36 4797.32 1315.58 ) 0 
( -715.175 3283.73 1324.78 ) 0 
( -2904.06 3042.9 1300.83 ) 0 
( -1181.52 983.287 1266.53 ) 0 
( -12.0704 1401.95 1323.42 ) 0 
( -437.048 2308.83 1329.48 ) 0 
( -1678.15 1951.97 1357.68 ) 0 
( -4204.07 305.338 1360.04 ) 0 
( -4960.05 2531.82 2128.06 ) 0 
( -3471.12 2183.08 1315.81 ) 0 
( -4369.12 4531.92 2131.09 ) 0 
( -2280.3 3893.08 1288.1 ) 0 
( -30.3827 4030.42 1298.27 ) 0 
( -1524.63 3599.34 1981.26 ) 0 
( -4931.07 3110.78 1312.91 ) 0 
( -2566.53 2208.29 1737.58 ) 0 
( -1034.59 4803.08 2093.01 ) 0 
( -4855.69 4848.35 1310.71 ) 0 
( -3068.99 1243.94 1628.86 ) 0 
( -2153.98 768.875 1183.21 ) 0 
( -3930.64 3070.29 1313.93 ) 0 
( -342.578 464.455 1420.74 ) 0 
( -1798.41 1153.19 2032.7 ) 0 
( -4395.14 3955.09 1315.47 ) 0 
( -3381.21 3920 1309.48 ) 0 
( -4463.62 1622.17 2112.29 ) 0 
( -2783.56 510.831 2242.79 ) 0 
( -1056 490.782 2126.02 ) 0 
( -939.384 1657.87 1960.98 ) 0 
( -2372.93 3100.09 2142.91 ) 0 
( -4785.32 640.172 2100.2 ) 0 
( -3410.15 2929.75 2154.19 ) 0 
( -2060.1 4598.18 1961.7 ) 0 
( -1897.81 175.76 2563.69 ) 0 
( -26.5384 1470 2319.03 ) 0 
( -248.523 2970.63 2173 ) 0 
( -3507.35 1876.52 2266.5 ) 0 
( -3800.32 802.027 2146.69 ) 0 
( -2625.46 1464.53 2495.03 ) 0 
( -1841.02 2077.2 2410.59 ) 0 
( -4420.9 3372.74 2129.91 ) 0 
( -1159.83 2633.61 1938.09 ) 0 
( -586.757 3909.97 2117.46 ) 0 
( -1533.49 4205.24 2772.57 ) 0 
( -599.797 2196.49 2728.64 ) 0 
( -4140.07 2518.41 2698.31 ) 0 
( -2965.82 4884.47 2274.97 ) 0 
( -2490.07 740.501 3169.25 ) 0 
( -238.858 542.051 2697.19 ) 0 
( -3413.2 1134.41 3010.54 ) 0 
( -2981.19 3887.23 2223.88 ) 0 
( -1600.97 2982.92 2763.38 ) 0 
( -1510.37 403.32 3455.3 ) 0 
( -3721.65 4869.63 2988.5 ) 0 
( -3838.92 3912.08 2734.29 ) 0 
( -4921.69 3998.06 2768.95 ) 0 
( -1413.5 2167.11 3307.82 ) 0 
( -2784.98 2417.98 2741.5 ) 0 
( -1183.85 1200.09 2819.02 ) 0 
( -4285.7 1612.67 3095.25 ) 0 
( -1170.16 4167.12 3702.64 ) 0 
( -468.192 4568.86 2879.2 ) 0 
( -2417.97 4578.58 3052.2 ) 0 
( -2386.77 3580.83 3017.1 ) 0 
( -3366.02 137.783 2963.38 ) 0 
( -198.116 3951.53 3613.95 ) 0 
( -2308.5 1734.29 3402.28 ) 0 
( -3375.99 3121.8 3133.48 ) 0 
( -713.727 3394.75 2963.61 ) 0 
( -3504.75 2163.52 3382.61 ) 0 
( -3162.89 448.226 3888.88 ) 0 
( -510.239 2221.15 3727.42 ) 0 
( -1303.43 3090.35 3709.75 ) 0 
( -2218.94 2724.84 3505.41 ) 0 
( -4623.66 4720.85 3390.09 ) 0 
( -306.548 1356.77 3270.89 ) 0 
( -503.768 211.491 3600.14 ) 0 
( -1384.54 1318.12 3832.95 ) 0 
( -4203.35 662.802 3397.22 ) 0 
( -4916.02 3040.69 3049.4 ) 0 
( -2912.3 3237.56 4010.73 ) 0 
( -2837.68 2175.4 4124.79 ) 0 
( -1653.82 137.059 4406.86 ) 0 
( -1637.33 1067.17 4771.27 ) 0 
( -4206.58 2795.59 3706.84 ) 0 
( -2390.9 1039.97 4116.56 ) 0 
( -2273.43 4000.59 3915.82 ) 0 
( -1843.95 2121.16 4208.1 ) 0 
( -83.2443 3062.4 4053.64 ) 0 
( -3853.44 4515.79 3990.72 ) 0 
( -4551.52 1356.68 4024.14 ) 0 
( -501.12 1018.25 4190.62 ) 0 
( -4025.19 581.745 4376.06 ) 0 
( -2741.56 4881.6 3977.42 ) 0 
( -3551.55 1363.43 3975.62 ) 0 
( -3158.28 4042.18 3453.82 ) 0 
( -4368.43 3771.49 3568.95 ) 0 
( -673.766 3762.76 4470.31 ) 0 
( -3612.98 2725.71 4506.29 ) 0 
( -315.378 4715.98 4549.19 ) 0 
( -984.436 1804.88 4608.01 ) 0 
( -4816.06 4313.18 4281.79 ) 0 
( -3412.15 1812.27 4856.23 ) 0 
( -1762.82 4820.65 4172.42 ) 0 
( -3093.89 4097.01 4486.93 ) 0 
( -2424.81 1670.13 4890.42 ) 0 
( -1628.61 3969.12 4677.29 ) 0 
( -89.8555 2248.25 4632.54 ) 0 
( -2011.11 3084.31 4414.32 ) 0 
( -4993.42 3332.68 4211.97 ) 0 
( -3162.33 847.227 4803.96 ) 0 
( -920.98 2801.13 4584.75 ) 0 
( -1093.89 393.893 5269.25 ) 0 
( -1364.56 4839.87 5088.61 ) 0 
( -4807.57 173.978 4844.33 ) 0 
( -1298.6 1527.94 5590.95 ) 0 
( -2464.76 3636.11 5112.04 ) 0 
( -4515.75 2990.29 5017.97 ) 0 
( -4751.37 2275 4362.11 ) 0 
( -2732.79 2683.22 4977.27 ) 0 
( -2391.44 269.499 5067.35 ) 0 
( -4875.6 4595.8 5300.01 ) 0 
( -2368.78 4614.81 4939.17 ) 0 
( -3928.14 4544.51 4985.8 ) 0 
( -3989.17 3652.62 4485.9 ) 0 
( -459.035 1173.58 5176.99 ) 0 
( -4286.3 1348.41 4986.44 ) 0 
( -2180.07 1059.07 5642.8 ) 0 
( -2960.51 2094.18 5751.54 ) 0 
( -3414.5 3359.31 5252.69 ) 0 
( -367.383 3260.93 5277.01 ) 0 
( -3643.49 1364.76 5751.06 ) 0 
( -627.807 4221.64 5358.08 ) 0 
( -3881.29 2399.7 5511.18 ) 0 
( -246.717 434.582 5815.05 ) 0 
( -3970.9 411.707 5357.67 ) 0 
( -1795.47 2393.58 5167.87 ) 0 
( -4563.44 1926.38 6166.23 ) 0 
( -4261.46 3793.89 5553.99 ) 0 
( -2016.07 2032.48 6072.69 ) 0 
( -1286.25 719.69 6193.89 ) 0 
( -4672.19 953.338 5818.05 ) 0 
( -641.9 163.029 6716.2 ) 0 
( -3118.56 4278.94 5507.98 ) 0 
( -1782.18 4128.27 5651.64 ) 0 
( -165.298 2785.18 6132.05 ) 0 
( -2288.41 2961.54 5826.81 ) 0 
( -501.003 1335.73 6162.19 ) 0 
( -4220.64 204.377 6301.54 ) 0 
( -3063.69 550.851 5752.19 ) 0 
( -1362.93 3275.65 5344.56 ) 0 
( -856.057 2420.24 5506.35 ) 0 
( -754.8 3602.98 6131.49 ) 0 
( -4211.07 3037.2 6204.86 ) 0 
( -4852.95 2607.68 6838.27 ) 0 
( -3660.38 2230.03 6468.65 ) 0 
( -4103.86 1159.65 6613.87 ) 0 
( -200.208 2042.91 6800.3 ) 0 
( -3118.6 3368.43 6207.12 ) 0 
( -2855.2 1312.26 6365.29 ) 0 
( -1227.44 4910.71 6075.36 ) 0 
( -2389.87 431.216 6478.59 ) 0 
( -3921.61 4626.41 5989.99 ) 0 
( -235.354 4922.86 5952.1 ) 0 
( -4691.95 4628.96 6626.03 ) 0 
( -1173.32 1931.02 6600.77 ) 0 
( -1388.46 2838.15 6241.16 ) 0 
( -2449.68 4274.92 7246.61 ) 0 
( -700.387 3021.5 6941.41 ) 0 
( -4229.87 1934.2 7232.91 ) 0 
( -1423.43 4123.91 6659.8 ) 0 
( -2205.69 3501.82 6662.77 ) 0 
( -185.677 4226 6666.5 ) 0 
( -2720.13 2530.9 6618.12 ) 0 
( -1921.86 1279.96 6722.1 ) 0 
( -2199.93 4681.2 6369.79 ) 0 
( -3121.91 4322.21 6506.86 ) 0 
( -2424.42 769.734 7417.68 ) 0 
( -4012.11 3898.64 6668.55 ) 0 
( -3371.21 692.199 7107.69 ) 0 
( -3603.6 3058.8 7024.33 ) 0 
( -1594.21 163.517 7020.19 ) 0 
( -530.379 3820.42 7516.76 ) 0 
( -3806.16 4800.63 7056.64 ) 0 
( -4907.46 3755.88 7088.19 ) 0 
( -3263.05 1680.78 7201.39 ) 0 
( -864.366 4876.44 7005.4 ) 0 
( -1503.65 3429.85 7373.85 ) 0 
( -1496.98 1704.13 7520.34 ) 0 
( -1834.64 2534.12 7080.21 ) 0 
( -4996.29 1324.14 7424.29 ) 0 
( -3986.78 1124.23 7765.2 ) 0 
( -4512.39 475.337 7216.78 ) 0 
( -887.296 1073.12 7044.94 ) 0 
( -2694.45 3102.28 7437.97 ) 0 
( -984.309 2527.2 7760.86 ) 0 
( -3974.71 108.107 7974.59 ) 0 
( -4421.79 3060.04 7616.82 ) 0 
( -3374.15 3947.2 7435.78 ) 0 
( -2989.42 253.391 8059.35 ) 0 
( -12.0327 2656.02 7566.05 ) 0 
( -3631.79 2152.72 8001.69 ) 0 
( -4017.43 4996.14 8080.48 ) 0 
( -4808.63 4596.75 7618.19 ) 0 
( -2190.79 3723.62 8037.8 ) 0 
( -2439.78 1999.76 7668.74 ) 0 
( -3080.71 4844.13 7770.63 ) 0 
( -72.8841 1379.23 7536.79 ) 0 
( -902.505 295.552 7728.87 ) 0 
( -4872.83 3762.9 8165.24 ) 0 
( -1530.59 4434.09 7604.06 ) 0 
( -299.928 2013.27 8275.56 ) 0 
( -2395.19 4555.23 8553.06 ) 0 
( -1220.31 3760.2 8273.44 ) 0 
( -4404.87 2893.47 8602.4 ) 0 
( -1439.85 4916.64 8474.59 ) 0 
( -2992.06 1270.17 8070.67 ) 0 
( -2813.97 2550.16 8413.86 ) 0 
( -607.776 4713.03 7959.48 ) 0 
( -779.709 4341.42 8956.71 ) 0 
( -4816.43 2219.45 7990.05 ) 0 
( -3913.38 4021.63 8273.87 ) 0 
( -876.971 1210.81 8129.31 ) 0 
( -3510.3 3144.62 8015.56 ) 0 
( -429.521 3152.25 8326.03 ) 0 
( -1910.24 2764.93 8048.73 ) 0 
( -1860.13 173.897 7987.94 ) 0 
( -3610.57 754.052 8661 ) 0 
( -398.744 2542.9 9117.66 ) 0 
( -3007.55 3768.18 8612.66 ) 0 
( -3270.23 4997.99 8743.75 ) 0 
( -2006.16 1200.44 8216.38 ) 0 
( -1154.7 443.407 8706.12 ) 0 
( -1273.39 2911.92 8804.38 ) 0 
( -3493.13 2986.12 9002.47 ) 0 
( -2382.6 91.0581 8836.02 ) 0 
( -1415.41 1978.7 8477.12 ) 0 
( -4183.08 1597.21 8622.72 ) 0 
( -2225.64 3202.34 8889.54 ) 0 
( -180.615 789.73 8710.18 ) 0 
( -331.947 51.4563 9375.14 ) 0 
( -2635.55 1047.52 8977.36 ) 0 
( -3148.42 322.648 9434.98 ) 0 
( -4187.28 3684.06 9173.73 ) 0 
( -3263.48 1827.83 8937.2 ) 0 
( -4063.05 1271.09 9559.57 ) 0 
( -704.233 3453.15 9421.62 ) 0 
( -4078.77 2260.79 9362.45 ) 0 
( -1648.3 1191.61 9148.85 ) 0 
( -721.424 1554.72 9057.43 ) 0 
( -4189.56 4669.15 9008.36 ) 0 
( -2260.24 1972.51 9011.02 ) 0 
( -4579.28 722.403 8901.03 ) 0 
( -1724.79 4043.83 9087.93 ) 0 
( -1393.22 2171.7 9465.1 ) 0 
( -2739.9 3713.89 9575.93 ) 0 
( -1649.81 4972.57 9450.04 ) 0 
( -2169.12 542.741 9703.11 ) 0 
( -3559.64 3285.83 9953.55 ) 0 
( -2730.45 2661.57 9561.42 ) 0 
( -3115.47 1423.67 9838.44 ) 0 
( -2675.77 4707.7 9500.65 ) 0 
( -178.071 4237.14 9748 ) 0 
( -4774.96 1899.66 9984.06 ) 0 
( -905.76 804.628 9694.1 ) 0 
( -135.2 2138.51 9992.84 ) 0 
( -4667.21 4417.73 9849.6 ) 0 
( -3460.68 2309.97 10146.3 ) 0 
( -3637.72 668.167 10234.8 ) 0 
( -3559.76 4276.32 9677.49 ) 0 
( -981.233 1654.44 10214.2 ) 0 
( -4439.14 2834.22 10097.5 ) 0 
( -4002.05 1555.3 10516.1 ) 0 
( -1292.65 90.0088 10275.9 ) 0 
( -300.468 30.9208 10377.1 ) 0 
( -922.284 2735.68 10142.2 ) 0 
( -1165.62 4220.75 9896.62 ) 0 
( -1651.06 3261.53 9705.05 ) 0 
( -4623.53 622.47 10073.7 ) 0 
( -2133.9 1590.61 9925.98 ) 0 
( -175.872 1021.67 10341.5 ) 0 
( -2124.28 4221.54 10178 ) 0 
( -1338.51 3543.71 10611.5 ) 0 
( -2268.01 3833.73 11088 ) 0 
( -2666.38 1998.36 10667.2 ) 0 
( -1504.33 1912.16 11025.6 ) 0 
( -358.835 3514.65 10414.6 ) 0 
( -2081.76 126.154 10887.9 ) 0 
( -2689.97 826.362 10516.5 ) 0 
( -1878.07 2484.86 10291.7 ) 0 
( -2589.39 3177.69 10405.6 ) 0 
( -558.28 4560.04 10614.2 ) 0 
( -3937.42 4737.27 10479.8 ) 0 
( -4273.73 3747.97 10478.7 ) 0 
( -1652.4 980.179 10553.9 ) 0 
( -3052.74 4060.44 10511.2 ) 0 
( -3429.36 3241.63 10943.6 ) 0 
( -3256.58 1352.34 11150.3 ) 0 
( -2499.26 2750.74 11304.8 ) 0 
( -2826.93 515.935 11489.8 ) 0 
( -825.923 622.659 10987.9 ) 0 
( -2265.25 1315.28 11277.7 ) 0 
( -4796.38 1805.37 11069 ) 0 
( -540.381 2777.41 11064.9 ) 0 
( -1428.24 4370.81 11165.7 ) 0 
( -4051.79 2459.58 10939.3 ) 0 
( -343.523 1777.51 10973.9 ) 0 
( -1506.2 2865.38 11326.2 ) 0 
( -4867.63 3103.14 10959.4 ) 0 
( -4938.86 503.234 11041.5 ) 0 
( -3318.11 2250.48 11585.3 ) 0 
( -857.405 2128.6 11756.4 ) 0 
( -4000.97 707.499 11321 ) 0 
( -1655.21 3693.88 11865.5 ) 0 
( -253.756 1070.14 11674.7 ) 0 
( -3190.63 4761.88 11209.9 ) 0 
( -2863.34 1495.99 12058.2 ) 0 
( -2014.61 2082.11 11868.3 ) 0 
( -4169.9 3466.12 11576.5 ) 0 
( -3095.76 3868.08 11647.7 ) 0 
( -584.851 3858.15 11325.7 ) 0 
( -4461.23 4363.02 11244.5 ) 0 
)
