/*--------------------------------*- C++ -*----------------------------------*\
| =========                 |                                                 |
| \\      /  F ield         | OpenFOAM: The Open Source CFD Toolbox           |
|  \\    /   O peration     | Version:  5.x                                   |
|   \\  /    A nd           | Web:      www.OpenFOAM.org                      |
|    \\/     M anipulation  |                                                 |
\*---------------------------------------------------------------------------*/
FoamFile
{
    version     2.0;
    format      ascii;
    class       surfaceScalarField;
    location    "500";
    object      phi;
}
// * * * * * * * * * * * * * * * * * * * * * * * * * * * * * * * * * * * * * //

dimensions      [0 3 -1 0 0 0 0];

internalField   nonuniform List<scalar> 
89
(
-114.763
-114.1
-113.395
-112.654
-111.877
-111.069
-110.231
-109.368
-108.481
-107.572
-106.645
-105.699
-104.734
-103.753
-102.756
-101.743
-100.716
-99.6744
-98.6188
-97.5493
-96.4659
-95.3686
-94.2576
-93.1336
-91.9974
-90.8501
-89.6936
-88.53
-87.362
-86.1928
-85.026
-83.8654
-82.7154
-81.5801
-80.4641
-79.3715
-78.3062
-77.2716
-76.2705
-75.3049
-74.3761
-73.484
-72.6261
-71.7994
-71.0006
-70.2268
-69.476
-68.7465
-68.0372
-67.347
-66.6753
-66.0212
-65.384
-64.7626
-64.156
-63.5626
-62.9808
-62.4088
-61.8445
-61.2859
-60.7307
-60.1766
-59.6218
-59.0643
-58.5026
-57.9356
-57.3626
-56.7841
-56.2011
-55.6158
-55.0314
-54.4515
-53.8787
-53.3153
-52.763
-52.2234
-51.698
-51.1878
-50.6941
-50.2179
-49.7602
-49.3219
-48.904
-48.5072
-48.1321
-47.7781
-47.447
-47.1388
-46.8736
)
;

boundaryField
{
    inlet
    {
        type            calculated;
        value           uniform -46.6393;
    }
    outlet
    {
        type            calculated;
        value           uniform 115.396;
    }
    repeat_boundary
    {
        type            calculated;
        value           uniform 0;
    }
    procBoundary1to0
    {
        type            processor;
        value           nonuniform List<scalar> 
90
(
-0.156118
-0.161225
-0.17445
-0.184085
-0.194533
-0.203835
-0.212858
-0.221319
-0.229466
-0.237318
-0.245036
-0.252785
-0.260853
-0.269447
-0.278813
-0.289218
-0.300927
-0.314122
-0.329009
-0.345729
-0.364389
-0.385041
-0.407685
-0.432263
-0.458665
-0.486723
-0.516225
-0.546916
-0.578509
-0.610695
-0.64315
-0.675551
-0.707578
-0.73893
-0.769328
-0.798521
-0.826293
-0.852465
-0.876898
-0.899475
-0.920139
-0.938982
-0.956323
-0.972189
-0.986288
-0.998245
-1.00775
-1.01458
-1.01861
-1.0198
-1.0182
-1.01395
-1.00724
-0.998322
-0.987473
-0.975009
-0.961255
-0.946532
-0.931152
-0.915408
-0.899566
-0.88386
-0.86848
-0.853583
-0.839317
-0.825756
-0.812922
-0.800345
-0.788145
-0.776397
-0.765099
-0.754161
-0.74347
-0.732959
-0.722555
-0.712192
-0.701817
-0.691386
-0.68087
-0.670251
-0.659518
-0.648682
-0.63782
-0.627057
-0.616482
-0.605916
-0.594455
-0.584823
-0.565796
-0.550274
)
;
    }
    procBoundary1to3
    {
        type            processor;
        value           nonuniform List<scalar> 
90
(
-0.477059
-0.501023
-0.53113
-0.557054
-0.582171
-0.604356
-0.624479
-0.642187
-0.657646
-0.671043
-0.682786
-0.693211
-0.703279
-0.711551
-0.718733
-0.723585
-0.726309
-0.727383
-0.726498
-0.723774
-0.719069
-0.712282
-0.703241
-0.691751
-0.677588
-0.660515
-0.640287
-0.616675
-0.589474
-0.55852
-0.523708
-0.485009
-0.442481
-0.396284
-0.346693
-0.294102
-0.239031
-0.182137
-0.124197
-0.0660703
-0.00870259
0.0468433
0.0984918
0.145493
0.187438
0.224481
0.256932
0.285099
0.309258
0.329648
0.346472
0.359889
0.370025
0.376969
0.380796
0.381596
0.379469
0.374527
0.366905
0.356771
0.344334
0.329852
0.313648
0.296088
0.277605
0.258704
0.23995
0.221832
0.20521
0.191093
0.1807
0.174223
0.17068
0.169517
0.170284
0.172646
0.17636
0.181243
0.187164
0.19403
0.201781
0.210399
0.219886
0.230263
0.241397
0.251922
0.263409
0.2766
0.300596
0.31592
)
;
    }
}


// ************************************************************************* //
