FoamFile
{version 2.0; format ascii;class Cloud<passiveParticle>; location 0;object  positions;}
345
(
( 0.00101791 -0.00132763 0.000497897 ) 0 
( 0.00441609 -0.00109753 0.000498794 ) 0 
( 0.00348376 -0.00280865 0.000498678 ) 0 
( 0.00248772 -0.00289069 0.000498172 ) 0 
( 0.00185205 -0.00187712 0.000497975 ) 0 
( 0.00194788 -0.00373144 0.000497671 ) 0 
( 0.00418356 -0.00209485 0.000498459 ) 0 
( 0.00240408 -0.0046202 0.000496868 ) 0 
( 0.00494756 -0.000251134 0.000498288 ) 0 
( 0.003717 -0.00441715 0.000496852 ) 0 
( 0.00294615 -0.00378023 0.000497868 ) 0 
( 2.02646e-05 -0.00138249 0.000498651 ) 0 
( 0.000360054 -0.000442697 0.000498439 ) 0 
( 0.00284854 -0.00195938 0.000498986 ) 0 
( 0.003418 -0.00113833 0.000497937 ) 0 
( 0.000287964 -0.00436992 0.000498285 ) 0 
( 0.000954378 -0.00362515 0.000499292 ) 0 
( 0.00232275 -0.000370611 0.00121635 ) 0 
( 0.000153175 -0.00198875 0.00130228 ) 0 
( 0.00299905 -0.000231686 0.000497386 ) 0 
( 0.00266636 -0.0013774 0.00141022 ) 0 
( 0.00466416 -0.00409664 0.000498766 ) 0 
( 0.00153598 -0.000472919 0.000498061 ) 0 
( 0.00150511 -0.0028057 0.000655489 ) 0 
( 0.00477874 -0.00194002 0.00128533 ) 0 
( 0.00443324 -0.00312464 0.000498493 ) 0 
( 0.00242184 -0.00105592 0.000497563 ) 0 
( 0.000654838 -0.00230597 0.00049789 ) 0 
( 3.06562e-05 -0.00324389 0.000498609 ) 0 
( 0.00139333 -0.00456889 0.0004979 ) 0 
( 0.000442909 -0.00395328 0.00139168 ) 0 
( 0.00198435 -0.00483144 0.00137628 ) 0 
( 0.00353709 -0.00182639 0.00121091 ) 0 
( 0.00433436 -0.00468923 0.00123261 ) 0 
( 0.00229706 -0.00229723 0.00128686 ) 0 
( 0.000673696 -0.0029945 0.00122246 ) 0 
( 0.00339187 -0.000599914 0.00133857 ) 0 
( 0.00243776 -0.0039419 0.00134161 ) 0 
( 0.00299541 -0.00300852 0.00134884 ) 0 
( 0.00422777 -0.00112986 0.00147874 ) 0 
( 0.00428413 -0.000161889 0.00123926 ) 0 
( 0.00143771 -0.0039966 0.0013135 ) 0 
( 0.00308799 -0.00469673 0.00121913 ) 0 
( 0.00441169 -0.00365657 0.00180228 ) 0 
( 0.000955948 -0.000163836 0.00124962 ) 0 
( 0.00123284 -0.00203583 0.00126467 ) 0 
( 0.0018844 -0.00315071 0.0016007 ) 0 
( 0.000532242 -0.00106457 0.0013288 ) 0 
( 0.00375088 -0.00359258 0.00105761 ) 0 
( 0.00224349 -0.000803981 0.0021113 ) 0 
( 0.00171489 -0.00116462 0.00119478 ) 0 
( 4.57807e-05 -0.00486994 0.00132866 ) 0 
( 0.00302463 -0.0022258 0.00196993 ) 0 
( 0.00405594 -0.00267414 0.00130622 ) 0 
( 6.16359e-05 -0.0019124 0.0027753 ) 0 
( 0.00476683 -0.00041059 0.00207803 ) 0 
( 0.00129999 -0.00252907 0.00212884 ) 0 
( 0.00495272 -0.00243014 0.00213775 ) 0 
( 0.00188541 -0.0017304 0.00199963 ) 0 
( 0.000748408 -0.00169759 0.00206947 ) 0 
( 0.000989847 -0.00448385 0.00207728 ) 0 
( 0.00123356 -0.000788691 0.0019846 ) 0 
( 0.0034272 -0.00129833 0.00205034 ) 0 
( 0.00400545 -0.00210963 0.00212877 ) 0 
( 0.00363845 -0.00310104 0.00210659 ) 0 
( 0.00101778 -0.00348491 0.00206072 ) 0 
( 0.000304279 -0.00259154 0.00208427 ) 0 
( 0.0034599 -0.00405949 0.00189146 ) 0 
( 0.00412685 -0.00413643 0.00263146 ) 0 
( 0.000677934 -0.000174938 0.00254337 ) 0 
( 3.02784e-05 -0.00354358 0.00220322 ) 0 
( 0.00268287 -0.00478231 0.00212723 ) 0 
( 0.00270455 -0.00347403 0.00218254 ) 0 
( 0.00258604 -0.00417538 0.00291831 ) 0 
( 0.00394271 -0.000643159 0.00259873 ) 0 
( 0.000250825 -0.00497497 0.00253782 ) 0 
( 0.00166873 -0.000204537 0.00266761 ) 0 
( 0.00460942 -0.00135228 0.00237488 ) 0 
( 0.00263879 -0.00267304 0.00277589 ) 0 
( 0.00103546 -0.00204453 0.0029607 ) 0 
( 0.00164749 -0.00119487 0.00280896 ) 0 
( 0.00265126 -0.00156238 0.00261863 ) 0 
( 0.0044735 -0.00313896 0.00265323 ) 0 
( 0.000757251 -0.00300228 0.00289476 ) 0 
( 0.00182695 -0.00323624 0.00259465 ) 0 
( 0.00485975 -0.00451177 0.00206195 ) 0 
( 0.00192237 -0.00413656 0.00217371 ) 0 
( 0.000655015 -0.00111629 0.00287539 ) 0 
( 0.000540387 -0.00407992 0.00287252 ) 0 
( 0.00297984 -0.000651497 0.00286727 ) 0 
( 0.000352184 -0.00241085 0.00359099 ) 0 
( 0.00371991 -0.0015637 0.00296547 ) 0 
( 0.00332388 -0.00350449 0.0029643 ) 0 
( 0.00454122 -0.00213221 0.00299612 ) 0 
( 0.00442255 -0.00100399 0.00339825 ) 0 
( 0.00338448 -0.004772 0.00284197 ) 0 
( 0.00200256 -0.00203643 0.0032098 ) 0 
( 0.00158708 -0.00464908 0.00296086 ) 0 
( 0.00123923 -0.000584484 0.00348586 ) 0 
( 0.00136704 -0.00374398 0.00331952 ) 0 
( 0.00379628 -0.000231636 0.00349605 ) 0 
( 0.00237013 -0.00113312 0.00349594 ) 0 
( 0.000376032 -8.11187e-05 0.00348967 ) 0 
( 0.00392749 -0.00209859 0.00378324 ) 0 
( 0.00459664 -0.00469924 0.00352097 ) 0 
( 0.00145292 -0.00278315 0.0035767 ) 0 
( 0.00206967 -0.00429453 0.00376484 ) 0 
( 0.00297196 -0.00201441 0.00344979 ) 0 
( 0.000664447 -0.00331404 0.00388224 ) 0 
( 0.00363984 -0.00255797 0.00294344 ) 0 
( 0.00410394 -0.00324119 0.0035742 ) 0 
( 0.00295875 -0.00474989 0.00377447 ) 0 
( 0.00374829 -0.00417523 0.00356742 ) 0 
( 0.00230862 -0.00333481 0.00346422 ) 0 
( 0.00172675 -0.0016367 0.00408317 ) 0 
( 0.000204502 -0.00415172 0.00426218 ) 0 
( 0.000781751 -0.00152832 0.00377641 ) 0 
( 0.00101315 -0.00231789 0.0043431 ) 0 
( 0.00333533 -0.00108054 0.00374984 ) 0 
( 0.000221633 -0.000799568 0.00416667 ) 0 
( 0.00167116 -0.00349911 0.00423795 ) 0 
( 0.00317249 -0.00293843 0.00377378 ) 0 
( 0.00494209 -0.00375378 0.00385866 ) 0 
( 0.00201781 -0.000406812 0.00408565 ) 0 
( 0.000891405 -0.00456703 0.00367028 ) 0 
( 0.00459441 -0.000323318 0.00410703 ) 0 
( 0.00485418 -0.00262429 0.00380709 ) 0 
( 0.00094699 -0.000100181 0.00430847 ) 0 
( 0.00269797 -0.00160104 0.00431576 ) 0 
( 0.00371637 -0.00341956 0.00447603 ) 0 
( 0.00110007 -0.00104559 0.0045899 ) 0 
( 0.00283703 -0.00300923 0.00471247 ) 0 
( 0.00286915 -0.00382191 0.00413269 ) 0 
( 0.00290483 -0.000592179 0.00450741 ) 0 
( 0.00427277 -0.00424732 0.00441253 ) 0 
( 0.0023812 -0.00476241 0.00458937 ) 0 
( 0.00229867 -0.00251299 0.00403487 ) 0 
( 0.00413553 -0.00127047 0.00431738 ) 0 
( 0.00143586 -0.00442703 0.00452589 ) 0 
( 0.000832838 -0.00360559 0.00482226 ) 0 
( 0.00448578 -0.00215962 0.00461002 ) 0 
( 0.000464249 -0.00271252 0.00507795 ) 0 
( 0.00148653 -0.00182905 0.00507488 ) 0 
( 0.00342428 -0.00220492 0.00463876 ) 0 
( 0.00377043 -0.000105763 0.00462733 ) 0 
( 0.00221295 -7.19888e-05 0.00500606 ) 0 
( 0.000243268 -0.000506605 0.00512114 ) 0 
( 0.00334968 -0.00453115 0.00466699 ) 0 
( 0.00467248 -0.00317342 0.00462409 ) 0 
( 0.0014312 -0.0040793 0.00546646 ) 0 
( 0.00165461 -0.00280657 0.00495709 ) 0 
( 0.00206457 -0.00104649 0.00485111 ) 0 
( 0.00226253 -0.00383796 0.004967 ) 0 
( 0.00217247 -0.00147483 0.00574736 ) 0 
( 0.000177274 -0.00349363 0.00562985 ) 0 
( 0.00299913 -0.00128998 0.00521674 ) 0 
( 0.00312958 -0.000177521 0.00538981 ) 0 
( 0.00051313 -0.00162309 0.00515602 ) 0 
( 0.00408663 -0.00475591 0.0053036 ) 0 
( 0.00394791 -0.00160327 0.00524058 ) 0 
( 0.00242196 -0.00217871 0.00508201 ) 0 
( 0.00320991 -0.00374808 0.00527049 ) 0 
( 0.00268119 -0.00455729 0.00551868 ) 0 
( 0.00495624 -0.00157504 0.00530774 ) 0 
( 0.00421128 -0.00376491 0.005285 ) 0 
( 0.00135797 -0.000928308 0.00554734 ) 0 
( 0.000353756 -0.00438703 0.00522005 ) 0 
( 0.000288599 -0.0010612 0.0059508 ) 0 
( 0.00397166 -0.00279678 0.00522782 ) 0 
( 0.00445301 -0.000688862 0.00506622 ) 0 
( 0.00483043 -0.00110827 0.00618047 ) 0 
( 0.00183761 -0.000139123 0.00592891 ) 0 
( 0.00265708 -0.000680201 0.00611157 ) 0 
( 0.00325977 -0.00221797 0.00562385 ) 0 
( 0.00111646 -0.00316429 0.00571881 ) 0 
( 0.00369256 -0.00405578 0.00608783 ) 0 
( 0.00333734 -0.00312343 0.00603855 ) 0 
( 0.00442968 -0.00219779 0.00588303 ) 0 
( 0.000737345 -0.00223855 0.00591232 ) 0 
( 0.00453537 -0.000186158 0.00592595 ) 0 
( 0.000695977 -0.0041827 0.00613477 ) 0 
( 0.00243321 -0.00301737 0.00562507 ) 0 
( 0.00376488 -0.000814191 0.00582343 ) 0 
( 0.00172859 -0.0023592 0.00588617 ) 0 
( 0.00433365 -0.0031724 0.0060802 ) 0 
( 0.0011147 -0.00143689 0.00637167 ) 0 
( 0.00267324 -0.00249776 0.00644328 ) 0 
( 0.00296388 -0.00376655 0.00670602 ) 0 
( 0.00157645 -0.00462144 0.00631009 ) 0 
( 0.00303621 -0.00157187 0.00635172 ) 0 
( 0.000974741 -0.000443008 0.00633188 ) 0 
( 0.00183874 -0.000815487 0.00666837 ) 0 
( 0.00171306 -0.00313113 0.00651984 ) 0 
( 0.00431605 -0.00477691 0.00638228 ) 0 
( 0.00220041 -0.00387924 0.00607161 ) 0 
( 0.00116471 -0.00234687 0.00680943 ) 0 
( 0.003676 -0.00232011 0.00652638 ) 0 
( 0.000407313 -0.00483995 0.00683066 ) 0 
( 0.00327378 -0.000715969 0.00689734 ) 0 
( 0.000717897 -0.00328746 0.00662716 ) 0 
( 0.000203929 -0.00179062 0.00662824 ) 0 
( 0.00348601 -0.00459454 0.00690793 ) 0 
( 0.00424258 -0.000409958 0.00685387 ) 0 
( 0.00256011 -0.00482696 0.00647197 ) 0 
( 0.0047259 -0.00244647 0.00680377 ) 0 
( 0.000363638 -4.71195e-06 0.00698983 ) 0 
( 0.0010964 -0.0041483 0.00704807 ) 0 
( 0.00397635 -0.00137201 0.00662401 ) 0 
( 0.00209539 -0.0041381 0.00703101 ) 0 
( 0.00140089 -0.00159607 0.0074518 ) 0 
( 0.00236838 -0.000225798 0.00727754 ) 0 
( 0.00429471 -0.00381201 0.00684626 ) 0 
( 0.000664708 -0.000994422 0.00714513 ) 0 
( 0.00199317 -0.00180373 0.00667413 ) 0 
( 0.00333868 -0.00176427 0.00728407 ) 0 
( 0.00159546 -0.00339604 0.00747546 ) 0 
( 0.00250507 -0.00121444 0.00729748 ) 0 
( 0.00360621 -0.00312174 0.00711762 ) 0 
( 0.00459848 -0.00162779 0.00736232 ) 0 
( 0.00214545 -0.00258347 0.00728631 ) 0 
( 0.00258935 -0.00343304 0.00756961 ) 0 
( 0.00302375 -0.00256243 0.00779526 ) 0 
( 0.0030313 -0.000610445 0.00791849 ) 0 
( 0.00132357 -0.0025103 0.00784894 ) 0 
( 0.000430029 -0.00225579 0.007483 ) 0 
( 0.00393487 -0.000936577 0.00764483 ) 0 
( 0.000541561 -0.0043051 0.00786371 ) 0 
( 0.00348439 -0.00394604 0.00766799 ) 0 
( 0.00144418 -0.000506649 0.00753327 ) 0 
( 0.000663716 -0.00331441 0.00782605 ) 0 
( 0.0046813 -0.00316197 0.00749985 ) 0 
( 0.00451841 -2.70012e-05 0.00774204 ) 0 
( 0.00161145 -0.00442893 0.00785628 ) 0 
( 0.000206154 -0.000636964 0.00795777 ) 0 
( 0.0021075 -0.000894237 0.00817165 ) 0 
( 0.00371165 -5.96069e-06 0.00833099 ) 0 
( 0.0034293 -0.00154681 0.00825349 ) 0 
( 0.002178 -0.00283283 0.00825455 ) 0 
( 0.00450792 -0.00410679 0.00777597 ) 0 
( 0.00442071 -0.00177454 0.00833506 ) 0 
( 0.00159932 -0.00362362 0.00844788 ) 0 
( 0.00260967 -0.00438646 0.00786575 ) 0 
( 0.00486106 -0.000923604 0.00802043 ) 0 
( 0.00219985 -0.00187143 0.00798493 ) 0 
( 0.00381707 -0.00480186 0.00806126 ) 0 
( 0.00106754 -0.00107335 0.00826444 ) 0 
( 0.00252774 -3.48434e-05 0.00881349 ) 0 
( 0.000319282 -0.00173255 0.00832719 ) 0 
( 0.00402607 -0.00239231 0.00765567 ) 0 
( 0.00064446 -0.00264729 0.00856877 ) 0 
( 0.00411257 -0.00408642 0.00869282 ) 0 
( 0.00407413 -0.000886245 0.00863557 ) 0 
( 0.0039594 -0.00323641 0.00818723 ) 0 
( 0.00301391 -0.00484792 0.00865448 ) 0 
( 0.00150398 -0.00282888 0.00904637 ) 0 
( 0.00153878 -0.000383033 0.00881504 ) 0 
( 0.00490378 -0.0049038 0.00824089 ) 0 
( 0.00210535 -0.0044384 0.00872631 ) 0 
( 0.00353387 -0.00245848 0.00864838 ) 0 
( 0.00144833 -0.00191626 0.00864265 ) 0 
( 0.00295542 -0.00366837 0.00846964 ) 0 
( 0.00438888 -6.06463e-05 0.0091022 ) 0 
( 0.000677516 -0.00366502 0.00882935 ) 0 
( 0.00118801 -0.00119347 0.00928175 ) 0 
( 0.00481634 -0.00132911 0.00913771 ) 0 
( 0.00363126 -0.00164605 0.00922663 ) 0 
( 0.00273761 -0.00289175 0.00907947 ) 0 
( 0.00155602 -0.00483923 0.00953132 ) 0 
( 0.00271337 -0.00192202 0.00884029 ) 0 
( 0.00436892 -0.00231909 0.00917888 ) 0 
( 0.00196393 -0.00205335 0.00948784 ) 0 
( 0.00217522 -0.0011354 0.00913887 ) 0 
( 0.000606278 -0.00473376 0.00918507 ) 0 
( 0.00480648 -0.00462082 0.00919833 ) 0 
( 0.00363533 -0.00332653 0.00913193 ) 0 
( 0.00384872 -0.00490579 0.0092009 ) 0 
( 0.00461445 -0.00325998 0.00894693 ) 0 
( 0.00310283 -0.000848641 0.00888894 ) 0 
( 0.000490264 -0.000579978 0.00891429 ) 0 
( 0.00304507 -0.000428703 0.00979384 ) 0 
( 0.00206387 -0.000290976 0.00966092 ) 0 
( 0.00397312 -0.00079906 0.00963156 ) 0 
( 0.00112004 -0.0039522 0.00967765 ) 0 
( 0.000564982 -0.00197361 0.00930131 ) 0 
( 0.00308976 -0.00413426 0.00934892 ) 0 
( 8.43416e-05 -0.00397278 0.00957247 ) 0 
( 0.0021055 -0.00362986 0.00931315 ) 0 
( 0.00179909 -0.00125714 0.0100695 ) 0 
( 0.00406524 -0.00403617 0.0096894 ) 0 
( 0.00106514 -0.000289357 0.00968978 ) 0 
( 0.000579852 -0.00294885 0.0095196 ) 0 
( 0.00426345 -0.00305389 0.00985973 ) 0 
( 0.000218315 -0.000329841 0.0102179 ) 0 
( 0.00178679 -0.000418141 0.0106126 ) 0 
( 0.00284278 -0.00337358 0.00994862 ) 0 
( 0.00240632 -0.00453369 0.009958 ) 0 
( 2.50654e-05 -0.00327446 0.0102846 ) 0 
( 0.00432356 -0.0016807 0.00994676 ) 0 
( 0.00344048 -0.00251491 0.00968175 ) 0 
( 0.00279891 -0.00158509 0.00977725 ) 0 
( 0.000498193 -0.00126456 0.0100019 ) 0 
( 0.00336878 -0.00450017 0.0102359 ) 0 
( 0.000518209 -0.00412994 0.010459 ) 0 
( 0.00195574 -0.00291469 0.0099948 ) 0 
( 0.00395084 -0.00259609 0.0106912 ) 0 
( 0.00209226 -0.0020885 0.0105405 ) 0 
( 0.00360723 -0.000745623 0.01056 ) 0 
( 0.00116284 -0.00230728 0.0100289 ) 0 
( 0.00366853 -0.00356725 0.0104779 ) 0 
( 0.00440693 -0.00469954 0.0103544 ) 0 
( 0.00488536 -0.000925491 0.0102833 ) 0 
( 0.00182855 -0.00383147 0.0103721 ) 0 
( 0.000458576 -0.00248419 0.0107158 ) 0 
( 0.00296066 -0.00258335 0.0105556 ) 0 
( 0.00263034 -0.0009556 0.0105353 ) 0 
( 0.00348512 -0.00173522 0.0104879 ) 0 
( 0.00431957 -0.000101475 0.0102577 ) 0 
( 0.00102468 -0.0032368 0.010369 ) 0 
( 0.00486017 -0.00218138 0.0106676 ) 0 
( 0.000884157 -0.000803812 0.0108004 ) 0 
( 0.00131451 -0.000607794 0.0116812 ) 0 
( 0.00134085 -0.00461685 0.0107514 ) 0 
( 0.00191943 -0.00122838 0.0111829 ) 0 
( 0.00274591 -0.00393143 0.0107724 ) 0 
( 0.00320837 -0.00321295 0.0112916 ) 0 
( 0.00107014 -0.00377192 0.0112121 ) 0 
( 0.00277292 -0.00174876 0.011189 ) 0 
( 0.00430611 -0.00139742 0.010947 ) 0 
( 0.00113846 -0.00176786 0.0108699 ) 0 
( 0.00462474 -0.00340703 0.0107224 ) 0 
( 0.00220414 -0.00310573 0.0109472 ) 0 
( 0.00425965 -0.000371283 0.0112183 ) 0 
( 0.000197219 -0.000228184 0.0112424 ) 0 
( 0.0019805 -0.00416391 0.0113717 ) 0 
( 0.00370045 -0.0020065 0.0114587 ) 0 
( 0.00178017 -0.00329915 0.0118318 ) 0 
( 0.00131863 -0.00270241 0.0111757 ) 0 
( 0.000464805 -0.00480602 0.0111937 ) 0 
( 0.00391926 -0.00428786 0.0111239 ) 0 
( 0.00273278 -0.000849566 0.0116241 ) 0 
( 0.00457847 -0.00273082 0.0114574 ) 0 
( 8.63572e-05 -0.00362836 0.0113174 ) 0 
( 0.00214644 -0.00238539 0.0116381 ) 0 
( 0.00307582 -0.00482468 0.011135 ) 0 
( 0.00295043 -0.000118417 0.0109781 ) 0 
)
