FoamFile
{version 2.0; format ascii;class vectorField; location 0;object  v;}
43
(
( 1.05171e-05 -3.01616e-05 8.76872e-05 )  
( 3.92738e-06 -1.19868e-05 -1.96392e-07 )  
( 2.94484e-05 -3.6912e-05 7.68196e-05 )  
( 1.13339e-05 -5.2649e-06 4.14187e-05 )  
( -2.35666e-05 4.11035e-06 5.71398e-05 )  
( 1.0889e-05 -3.08776e-05 6.15551e-05 )  
( 1.93619e-05 -4.05686e-05 4.65559e-05 )  
( 1.27078e-05 -1.97067e-05 9.78685e-05 )  
( -7.66638e-05 -1.46182e-05 0.000105805 )  
( -2.14439e-05 -1.71724e-05 7.17891e-05 )  
( 8.619e-06 -5.2432e-05 9.03074e-05 )  
( 2.75176e-05 -6.01997e-05 0.000111074 )  
( 2.00863e-05 -1.04967e-05 9.16059e-05 )  
( -0.000148885 -3.87019e-05 0.000208461 )  
( 1.86985e-05 3.9701e-05 0.000186053 )  
( -2.31607e-05 -7.73209e-05 0.000157774 )  
( -1.13101e-05 -7.49941e-05 0.00011405 )  
( 7.77865e-05 1.90248e-05 0.000262277 )  
( 0.000169291 2.85315e-05 -2.94672e-05 )  
( 5.53593e-05 7.31236e-05 0.000145056 )  
( 5.55786e-05 -8.60697e-05 6.86898e-05 )  
( 0.000171626 -5.64695e-05 -2.9823e-05 )  
( 3.59002e-05 -9.46608e-05 0.000118033 )  
( 0.000124053 3.97457e-05 0.000219822 )  
( 0.000147489 -5.89535e-05 1.66006e-05 )  
( 1.0204e-05 7.17068e-05 0.000114493 )  
( 7.02264e-05 9.2588e-05 -1.11253e-05 )  
( 1.18219e-05 0.000290516 -7.42915e-05 )  
( -1.94451e-05 0.000148499 -3.18248e-05 )  
( 1.34235e-05 0.000154025 -8.70128e-05 )  
( -5.57003e-05 9.60064e-05 -0.000352993 )  
( -5.37137e-05 0.000244149 -0.00012452 )  
( 0.000168829 4.72126e-05 -9.47165e-05 )  
( 4.15154e-05 0.000162651 -9.67771e-05 )  
( -0.000215179 -0.000138271 -0.000433969 )  
( 0.000136549 0.000104349 -0.000345619 )  
( 0.0001492 -8.16117e-05 -0.000296569 )  
( 8.59232e-05 3.6637e-06 -0.00013276 )  
( 9.59726e-06 6.15561e-05 -0.000391291 )  
( -2.40318e-05 6.27014e-05 -0.000292398 )  
( -0.000377689 -0.000271061 -0.000847598 )  
( 0.000118151 -0.000134331 -0.000620409 )  
( -0.000183206 -6.35688e-05 -0.00074577 )  
)
