/*--------------------------------*- C++ -*----------------------------------*\
  =========                 |
  \\      /  F ield         | OpenFOAM: The Open Source CFD Toolbox
   \\    /   O peration     | Website:  https://openfoam.org
    \\  /    A nd           | Version:  9
     \\/     M anipulation  |
\*---------------------------------------------------------------------------*/
FoamFile
{
    format      ascii;
    class       volScalarField;
    location    "30000";
    object      p;
}
// * * * * * * * * * * * * * * * * * * * * * * * * * * * * * * * * * * * * * //

dimensions      [0 2 -2 0 0 0 0];

internalField   nonuniform List<scalar> 
9000
(
2.02938e-09
2.01059e-09
1.972e-09
1.90937e-09
1.80972e-09
1.81653e-09
1.88474e-09
1.94529e-09
1.99404e-09
2.02151e-09
2.04298e-09
2.0248e-09
1.97299e-09
1.89351e-09
1.78612e-09
1.78765e-09
1.86225e-09
1.93206e-09
1.98609e-09
2.01424e-09
2.08744e-09
2.06986e-09
2.0011e-09
1.89937e-09
1.77175e-09
1.76523e-09
1.8328e-09
1.90442e-09
1.95932e-09
1.98684e-09
2.15943e-09
2.13615e-09
2.03931e-09
1.90116e-09
1.73769e-09
1.71681e-09
1.7827e-09
1.86269e-09
1.92382e-09
1.95354e-09
2.27509e-09
2.22615e-09
2.07963e-09
1.88311e-09
1.67152e-09
1.62472e-09
1.71719e-09
1.82492e-09
1.90283e-09
1.93726e-09
2.29139e-09
2.25587e-09
2.12148e-09
1.9323e-09
1.7151e-09
1.66305e-09
1.74388e-09
1.81524e-09
1.87232e-09
1.89938e-09
2.26027e-09
2.23284e-09
2.13617e-09
2.00318e-09
1.86061e-09
1.81412e-09
1.81501e-09
1.82573e-09
1.83523e-09
1.83559e-09
2.24943e-09
2.23453e-09
2.17197e-09
2.08683e-09
2.00563e-09
1.93701e-09
1.88383e-09
1.84401e-09
1.81448e-09
1.79684e-09
2.24697e-09
2.24293e-09
2.20451e-09
2.15197e-09
2.11162e-09
2.03296e-09
1.93702e-09
1.85994e-09
1.80505e-09
1.77807e-09
2.24662e-09
2.2477e-09
2.22056e-09
2.18343e-09
2.16079e-09
2.08217e-09
1.96096e-09
1.86657e-09
1.80269e-09
1.77443e-09
6.08839e-09
6.03752e-09
5.94087e-09
5.79278e-09
5.57627e-09
5.58615e-09
5.76647e-09
5.91332e-09
6.02224e-09
6.07722e-09
6.12556e-09
6.07688e-09
5.94977e-09
5.76675e-09
5.54112e-09
5.53807e-09
5.72214e-09
5.88067e-09
5.99317e-09
6.04357e-09
6.24503e-09
6.19322e-09
6.02009e-09
5.77731e-09
5.49012e-09
5.47526e-09
5.63e-09
5.78737e-09
5.89881e-09
5.94642e-09
6.43123e-09
6.35709e-09
6.10806e-09
5.76601e-09
5.36754e-09
5.34462e-09
5.47784e-09
5.64913e-09
5.77221e-09
5.82348e-09
6.72125e-09
6.57081e-09
6.19655e-09
5.70009e-09
5.1559e-09
5.1333e-09
5.299e-09
5.50705e-09
5.65638e-09
5.71257e-09
6.77598e-09
6.66133e-09
6.31956e-09
5.86508e-09
5.36021e-09
5.08252e-09
5.32655e-09
5.47802e-09
5.57595e-09
5.61167e-09
6.68399e-09
6.601e-09
6.35595e-09
6.02849e-09
5.68567e-09
5.53332e-09
5.51855e-09
5.49929e-09
5.48405e-09
5.46665e-09
6.66237e-09
6.61724e-09
6.45744e-09
6.24261e-09
6.02844e-09
5.8513e-09
5.67637e-09
5.53543e-09
5.43604e-09
5.38608e-09
6.66367e-09
6.64848e-09
6.54477e-09
6.40437e-09
6.27755e-09
6.07519e-09
5.79056e-09
5.56796e-09
5.41862e-09
5.35434e-09
6.6642e-09
6.65852e-09
6.57833e-09
6.46956e-09
6.37828e-09
6.17675e-09
5.83477e-09
5.58156e-09
5.42086e-09
5.35937e-09
1.01453e-08
1.00771e-08
9.97348e-09
9.83497e-09
9.67375e-09
9.67275e-09
9.86384e-09
1.00078e-08
1.0101e-08
1.01349e-08
1.01943e-08
1.01311e-08
9.99772e-09
9.82808e-09
9.65641e-09
9.63953e-09
9.81333e-09
9.95175e-09
1.00357e-08
1.00571e-08
1.03519e-08
1.02774e-08
1.00829e-08
9.83169e-09
9.56059e-09
9.52988e-09
9.65346e-09
9.77948e-09
9.85718e-09
9.8765e-09
1.05821e-08
1.04711e-08
1.01789e-08
9.79135e-09
9.34503e-09
9.339e-09
9.41241e-09
9.53341e-09
9.61639e-09
9.64075e-09
1.09199e-08
1.07155e-08
1.02768e-08
9.68325e-09
9.00012e-09
9.13258e-09
9.18993e-09
9.27867e-09
9.35514e-09
9.37631e-09
1.1001e-08
1.08352e-08
1.04324e-08
9.94032e-09
9.44985e-09
8.79381e-09
9.05345e-09
9.17856e-09
9.22425e-09
9.22598e-09
1.08909e-08
1.07759e-08
1.04809e-08
1.00982e-08
9.73703e-09
9.37905e-09
9.31345e-09
9.21468e-09
9.13519e-09
9.09445e-09
1.08781e-08
1.08156e-08
1.06128e-08
1.03393e-08
1.00642e-08
9.77832e-09
9.49253e-09
9.25078e-09
9.08721e-09
9.02109e-09
1.08929e-08
1.08652e-08
1.07194e-08
1.05179e-08
1.0307e-08
1.00223e-08
9.6051e-09
9.28121e-09
9.07613e-09
9.00329e-09
1.08929e-08
1.08675e-08
1.07423e-08
1.05685e-08
1.03809e-08
1.01083e-08
9.6391e-09
9.29783e-09
9.09408e-09
9.03223e-09
1.41963e-08
1.41378e-08
1.40955e-08
1.40669e-08
1.40884e-08
1.40705e-08
1.41433e-08
1.41815e-08
1.41863e-08
1.41637e-08
1.42328e-08
1.41856e-08
1.4129e-08
1.40844e-08
1.40853e-08
1.40412e-08
1.40802e-08
1.40921e-08
1.40769e-08
1.404e-08
1.43718e-08
1.4309e-08
1.41958e-08
1.40707e-08
1.39606e-08
1.38682e-08
1.38653e-08
1.3854e-08
1.38283e-08
1.37939e-08
1.4556e-08
1.44569e-08
1.42619e-08
1.40148e-08
1.37231e-08
1.36228e-08
1.35659e-08
1.35265e-08
1.34942e-08
1.3469e-08
1.4802e-08
1.46375e-08
1.43444e-08
1.39274e-08
1.33704e-08
1.34667e-08
1.33367e-08
1.31955e-08
1.31161e-08
1.30846e-08
1.48803e-08
1.47259e-08
1.44223e-08
1.40659e-08
1.37482e-08
1.30222e-08
1.30452e-08
1.29979e-08
1.29321e-08
1.28957e-08
1.48208e-08
1.47192e-08
1.44851e-08
1.41724e-08
1.38979e-08
1.34085e-08
1.32334e-08
1.30383e-08
1.28935e-08
1.28411e-08
1.48389e-08
1.47769e-08
1.45917e-08
1.4327e-08
1.40531e-08
1.36869e-08
1.33477e-08
1.30542e-08
1.28626e-08
1.2803e-08
1.487e-08
1.48276e-08
1.46666e-08
1.44304e-08
1.41526e-08
1.38292e-08
1.34006e-08
1.30647e-08
1.28625e-08
1.28098e-08
1.48664e-08
1.48128e-08
1.4656e-08
1.44289e-08
1.41461e-08
1.38507e-08
1.34078e-08
1.30823e-08
1.28991e-08
1.28651e-08
1.82429e-08
1.82195e-08
1.82703e-08
1.8373e-08
1.85556e-08
1.85279e-08
1.84246e-08
1.83241e-08
1.82282e-08
1.81537e-08
1.82533e-08
1.82474e-08
1.83007e-08
1.83966e-08
1.854e-08
1.84793e-08
1.83447e-08
1.82103e-08
1.80929e-08
1.80092e-08
1.833e-08
1.83085e-08
1.83233e-08
1.8359e-08
1.84186e-08
1.82717e-08
1.81261e-08
1.79643e-08
1.78328e-08
1.77543e-08
1.84019e-08
1.83559e-08
1.83314e-08
1.83057e-08
1.82675e-08
1.79971e-08
1.78377e-08
1.7639e-08
1.74883e-08
1.74181e-08
1.84523e-08
1.83975e-08
1.83667e-08
1.83001e-08
1.80949e-08
1.783e-08
1.7591e-08
1.72993e-08
1.70917e-08
1.70147e-08
1.85073e-08
1.84276e-08
1.83247e-08
1.81594e-08
1.79938e-08
1.77169e-08
1.73486e-08
1.7073e-08
1.68859e-08
1.6812e-08
1.85386e-08
1.84831e-08
1.83808e-08
1.82073e-08
1.8014e-08
1.76395e-08
1.73362e-08
1.70681e-08
1.68829e-08
1.68275e-08
1.85885e-08
1.85384e-08
1.84144e-08
1.82099e-08
1.79567e-08
1.76234e-08
1.73078e-08
1.70337e-08
1.68596e-08
1.68231e-08
1.86257e-08
1.85676e-08
1.84189e-08
1.81829e-08
1.78675e-08
1.7576e-08
1.72635e-08
1.70089e-08
1.68638e-08
1.68504e-08
1.86168e-08
1.85349e-08
1.83704e-08
1.81204e-08
1.77785e-08
1.75148e-08
1.72411e-08
1.70255e-08
1.69144e-08
1.69258e-08
2.22992e-08
2.23257e-08
2.24425e-08
2.2603e-08
2.27988e-08
2.2765e-08
2.25494e-08
2.23699e-08
2.22234e-08
2.21322e-08
2.22951e-08
2.23373e-08
2.24623e-08
2.2614e-08
2.27611e-08
2.27057e-08
2.2472e-08
2.22648e-08
2.21012e-08
2.20073e-08
2.22997e-08
2.23282e-08
2.24387e-08
2.25652e-08
2.26838e-08
2.2559e-08
2.23255e-08
2.20887e-08
2.19047e-08
2.1811e-08
2.22497e-08
2.22696e-08
2.23885e-08
2.25263e-08
2.26695e-08
2.23711e-08
2.21475e-08
2.1869e-08
2.16501e-08
2.15515e-08
2.20958e-08
2.21573e-08
2.23455e-08
2.25739e-08
2.27742e-08
2.21765e-08
2.19226e-08
2.16041e-08
2.13404e-08
2.12291e-08
2.21093e-08
2.21328e-08
2.2248e-08
2.22983e-08
2.22359e-08
2.24274e-08
2.18744e-08
2.1448e-08
2.11703e-08
2.10555e-08
2.22116e-08
2.2208e-08
2.22426e-08
2.22247e-08
2.2087e-08
2.19938e-08
2.1641e-08
2.13555e-08
2.11611e-08
2.11044e-08
2.22638e-08
2.22275e-08
2.21812e-08
2.20707e-08
2.18563e-08
2.16745e-08
2.14541e-08
2.12566e-08
2.11326e-08
2.11227e-08
2.22835e-08
2.22141e-08
2.21054e-08
2.19181e-08
2.16234e-08
2.14406e-08
2.13166e-08
2.11958e-08
2.11344e-08
2.11608e-08
2.22671e-08
2.21719e-08
2.20344e-08
2.18168e-08
2.14942e-08
2.1318e-08
2.12743e-08
2.12093e-08
2.11883e-08
2.12407e-08
2.63763e-08
2.64512e-08
2.65669e-08
2.66785e-08
2.67508e-08
2.67073e-08
2.6506e-08
2.63445e-08
2.62169e-08
2.61477e-08
2.63878e-08
2.64637e-08
2.65824e-08
2.66828e-08
2.67223e-08
2.66778e-08
2.64662e-08
2.62864e-08
2.61456e-08
2.60771e-08
2.63454e-08
2.64117e-08
2.65419e-08
2.66601e-08
2.67297e-08
2.66813e-08
2.64473e-08
2.62327e-08
2.60623e-08
2.59826e-08
2.62262e-08
2.62989e-08
2.64735e-08
2.66555e-08
2.68308e-08
2.67123e-08
2.64512e-08
2.61802e-08
2.5957e-08
2.58518e-08
2.59714e-08
2.61048e-08
2.637e-08
2.66944e-08
2.70842e-08
2.6664e-08
2.63675e-08
2.60677e-08
2.58005e-08
2.56706e-08
2.59273e-08
2.60319e-08
2.62839e-08
2.65202e-08
2.66192e-08
2.68609e-08
2.64204e-08
2.60089e-08
2.57084e-08
2.55678e-08
2.60254e-08
2.60582e-08
2.61805e-08
2.62927e-08
2.6264e-08
2.63555e-08
2.60865e-08
2.58517e-08
2.56818e-08
2.56279e-08
2.60301e-08
2.6008e-08
2.60321e-08
2.60293e-08
2.59129e-08
2.59016e-08
2.58141e-08
2.5717e-08
2.56548e-08
2.56643e-08
2.60054e-08
2.59406e-08
2.58947e-08
2.58058e-08
2.5622e-08
2.55821e-08
2.56325e-08
2.56393e-08
2.56547e-08
2.57048e-08
2.59798e-08
2.58994e-08
2.58241e-08
2.57028e-08
2.55032e-08
2.54476e-08
2.55841e-08
2.5645e-08
2.56978e-08
2.5771e-08
3.04469e-08
3.05515e-08
3.06094e-08
3.06161e-08
3.05454e-08
3.05006e-08
3.0402e-08
3.03269e-08
3.02669e-08
3.02429e-08
3.05003e-08
3.05845e-08
3.06374e-08
3.06377e-08
3.05659e-08
3.05298e-08
3.04233e-08
3.0336e-08
3.02647e-08
3.02415e-08
3.04579e-08
3.05397e-08
3.06246e-08
3.06779e-08
3.06745e-08
3.06851e-08
3.05304e-08
3.04047e-08
3.02976e-08
3.02529e-08
3.03576e-08
3.04557e-08
3.05993e-08
3.07365e-08
3.08448e-08
3.09407e-08
3.0699e-08
3.0505e-08
3.03364e-08
3.02528e-08
3.01643e-08
3.03062e-08
3.05143e-08
3.07562e-08
3.10642e-08
3.11597e-08
3.08242e-08
3.05698e-08
3.0345e-08
3.02286e-08
3.00711e-08
3.01998e-08
3.04514e-08
3.07654e-08
3.10566e-08
3.10032e-08
3.08368e-08
3.05752e-08
3.03402e-08
3.02186e-08
3.00745e-08
3.01217e-08
3.02626e-08
3.04414e-08
3.05679e-08
3.06651e-08
3.05614e-08
3.04321e-08
3.03245e-08
3.02879e-08
2.99952e-08
2.99902e-08
3.00621e-08
3.01516e-08
3.01897e-08
3.02847e-08
3.03201e-08
3.0321e-08
3.03222e-08
3.03453e-08
2.99146e-08
2.98758e-08
2.99001e-08
2.9932e-08
2.99271e-08
3.00102e-08
3.01608e-08
3.02556e-08
3.03287e-08
3.03881e-08
2.98807e-08
2.98424e-08
2.98476e-08
2.98575e-08
2.98432e-08
2.99058e-08
3.01149e-08
3.02514e-08
3.03548e-08
3.04314e-08
3.442e-08
3.45284e-08
3.45238e-08
3.44569e-08
3.43322e-08
3.43211e-08
3.43471e-08
3.43814e-08
3.44072e-08
3.44337e-08
3.45204e-08
3.45924e-08
3.4578e-08
3.45115e-08
3.44095e-08
3.44027e-08
3.44265e-08
3.44531e-08
3.44699e-08
3.44951e-08
3.45281e-08
3.46048e-08
3.46264e-08
3.46213e-08
3.45937e-08
3.46306e-08
3.46078e-08
3.46017e-08
3.45862e-08
3.45881e-08
3.45275e-08
3.462e-08
3.46883e-08
3.47542e-08
3.47954e-08
3.49723e-08
3.48503e-08
3.4787e-08
3.47211e-08
3.46884e-08
3.45242e-08
3.46196e-08
3.47053e-08
3.48053e-08
3.48822e-08
3.53681e-08
3.51202e-08
3.49804e-08
3.48599e-08
3.48022e-08
3.44317e-08
3.45284e-08
3.46674e-08
3.49032e-08
3.52791e-08
3.49744e-08
3.50799e-08
3.50225e-08
3.49324e-08
3.48853e-08
3.43016e-08
3.43456e-08
3.44524e-08
3.46197e-08
3.48587e-08
3.48985e-08
3.49651e-08
3.49724e-08
3.49668e-08
3.49716e-08
3.41512e-08
3.41667e-08
3.42592e-08
3.44003e-08
3.45753e-08
3.47145e-08
3.48434e-08
3.4939e-08
3.50135e-08
3.50577e-08
3.40366e-08
3.4039e-08
3.41201e-08
3.42482e-08
3.43995e-08
3.45616e-08
3.47556e-08
3.49158e-08
3.50437e-08
3.51135e-08
3.40034e-08
3.40198e-08
3.40959e-08
3.42143e-08
3.43469e-08
3.44993e-08
3.47233e-08
3.49134e-08
3.50621e-08
3.51374e-08
3.81574e-08
3.82529e-08
3.82388e-08
3.8195e-08
3.81497e-08
3.82284e-08
3.83733e-08
3.85161e-08
3.86265e-08
3.86969e-08
3.82897e-08
3.8347e-08
3.83215e-08
3.82802e-08
3.82637e-08
3.83404e-08
3.84901e-08
3.86301e-08
3.87358e-08
3.88024e-08
3.83831e-08
3.84463e-08
3.84414e-08
3.84395e-08
3.84731e-08
3.8559e-08
3.86848e-08
3.88085e-08
3.88956e-08
3.89469e-08
3.85234e-08
3.85902e-08
3.86008e-08
3.86325e-08
3.86824e-08
3.88434e-08
3.89121e-08
3.90134e-08
3.90791e-08
3.91151e-08
3.87395e-08
3.8767e-08
3.87523e-08
3.8761e-08
3.87144e-08
3.92067e-08
3.91972e-08
3.92549e-08
3.92986e-08
3.93334e-08
3.87288e-08
3.87713e-08
3.87825e-08
3.88676e-08
3.9152e-08
3.89611e-08
3.92217e-08
3.93498e-08
3.94427e-08
3.95013e-08
3.85328e-08
3.85702e-08
3.86334e-08
3.87496e-08
3.8996e-08
3.90794e-08
3.92745e-08
3.94273e-08
3.95525e-08
3.96201e-08
3.83896e-08
3.84296e-08
3.85263e-08
3.8678e-08
3.89005e-08
3.90826e-08
3.92973e-08
3.94996e-08
3.96664e-08
3.9748e-08
3.8301e-08
3.83494e-08
3.84628e-08
3.86328e-08
3.8843e-08
3.90541e-08
3.93055e-08
3.95459e-08
3.97422e-08
3.98325e-08
3.82898e-08
3.83576e-08
3.84749e-08
3.86406e-08
3.88241e-08
3.90377e-08
3.93114e-08
3.95701e-08
3.97707e-08
3.98505e-08
4.15256e-08
4.16154e-08
4.16759e-08
4.17726e-08
4.19362e-08
4.21662e-08
4.24285e-08
4.26763e-08
4.28645e-08
4.29691e-08
4.16716e-08
4.17349e-08
4.17856e-08
4.18823e-08
4.2063e-08
4.22956e-08
4.25611e-08
4.28122e-08
4.30014e-08
4.30998e-08
4.18644e-08
4.19272e-08
4.1973e-08
4.2069e-08
4.22538e-08
4.2479e-08
4.27376e-08
4.29947e-08
4.31845e-08
4.32793e-08
4.21467e-08
4.21961e-08
4.22217e-08
4.23031e-08
4.24554e-08
4.2679e-08
4.29232e-08
4.31986e-08
4.34012e-08
4.35036e-08
4.25308e-08
4.25207e-08
4.24948e-08
4.25214e-08
4.25485e-08
4.29354e-08
4.31505e-08
4.34401e-08
4.36716e-08
4.38025e-08
4.26869e-08
4.27044e-08
4.26792e-08
4.27027e-08
4.2893e-08
4.29897e-08
4.33652e-08
4.36468e-08
4.39097e-08
4.40629e-08
4.25895e-08
4.2637e-08
4.26935e-08
4.2787e-08
4.29851e-08
4.32502e-08
4.35563e-08
4.38527e-08
4.41125e-08
4.42485e-08
4.25738e-08
4.26479e-08
4.27562e-08
4.29092e-08
4.3109e-08
4.33896e-08
4.37149e-08
4.40409e-08
4.43104e-08
4.44394e-08
4.25922e-08
4.26872e-08
4.28191e-08
4.29967e-08
4.32015e-08
4.34726e-08
4.38329e-08
4.41781e-08
4.44505e-08
4.45697e-08
4.2633e-08
4.27418e-08
4.28771e-08
4.30521e-08
4.32465e-08
4.35223e-08
4.39031e-08
4.425e-08
4.45064e-08
4.46052e-08
4.44404e-08
4.45598e-08
4.47778e-08
4.51136e-08
4.55762e-08
4.6012e-08
4.64059e-08
4.67648e-08
4.70286e-08
4.71611e-08
4.4599e-08
4.47094e-08
4.49207e-08
4.52498e-08
4.57026e-08
4.61572e-08
4.65446e-08
4.69139e-08
4.71836e-08
4.73065e-08
4.48929e-08
4.49928e-08
4.5175e-08
4.54619e-08
4.58622e-08
4.63376e-08
4.67162e-08
4.71128e-08
4.74e-08
4.75296e-08
4.53076e-08
4.53806e-08
4.55127e-08
4.57347e-08
4.604e-08
4.65465e-08
4.6906e-08
4.73489e-08
4.76773e-08
4.7834e-08
4.58139e-08
4.58315e-08
4.58933e-08
4.602e-08
4.61666e-08
4.68341e-08
4.71452e-08
4.76267e-08
4.80186e-08
4.82278e-08
4.61999e-08
4.62543e-08
4.63219e-08
4.64696e-08
4.67693e-08
4.68926e-08
4.75347e-08
4.8002e-08
4.84044e-08
4.86217e-08
4.63781e-08
4.64673e-08
4.65797e-08
4.6734e-08
4.6971e-08
4.74234e-08
4.79052e-08
4.83564e-08
4.8737e-08
4.89331e-08
4.66022e-08
4.67268e-08
4.68814e-08
4.70786e-08
4.73039e-08
4.77379e-08
4.82168e-08
4.8678e-08
4.90438e-08
4.92202e-08
4.67976e-08
4.69424e-08
4.71096e-08
4.73228e-08
4.75728e-08
4.7957e-08
4.84581e-08
4.89198e-08
4.92652e-08
4.94224e-08
4.6915e-08
4.70579e-08
4.72236e-08
4.74397e-08
4.77092e-08
4.80952e-08
4.86022e-08
4.90477e-08
4.9366e-08
4.95069e-08
4.68658e-08
4.70684e-08
4.75024e-08
4.81348e-08
4.89335e-08
4.96211e-08
5.01869e-08
5.06794e-08
5.10278e-08
5.11904e-08
4.70622e-08
4.72678e-08
4.76951e-08
4.83113e-08
4.90726e-08
4.97907e-08
5.03432e-08
5.08501e-08
5.12043e-08
5.13552e-08
4.74652e-08
4.76511e-08
4.80342e-08
4.85826e-08
4.92461e-08
5.00273e-08
5.05648e-08
5.11135e-08
5.14968e-08
5.16636e-08
4.80233e-08
4.8176e-08
4.84923e-08
4.89388e-08
4.94363e-08
5.03736e-08
5.08559e-08
5.1462e-08
5.19062e-08
5.21157e-08
4.86749e-08
4.87844e-08
4.90172e-08
4.93106e-08
4.95178e-08
5.09476e-08
5.13033e-08
5.1907e-08
5.24101e-08
5.26792e-08
4.93285e-08
4.94718e-08
4.97266e-08
5.01604e-08
5.08451e-08
5.06638e-08
5.17508e-08
5.24745e-08
5.30046e-08
5.32722e-08
4.98867e-08
5.00529e-08
5.02947e-08
5.06221e-08
5.111e-08
5.16454e-08
5.23996e-08
5.30381e-08
5.35318e-08
5.37809e-08
5.04144e-08
5.06108e-08
5.08732e-08
5.12091e-08
5.16295e-08
5.22347e-08
5.29168e-08
5.35307e-08
5.39895e-08
5.42155e-08
5.08208e-08
5.10247e-08
5.12837e-08
5.16262e-08
5.20673e-08
5.26377e-08
5.33013e-08
5.38938e-08
5.43205e-08
5.45321e-08
5.10235e-08
5.12087e-08
5.14644e-08
5.18186e-08
5.22928e-08
5.28734e-08
5.35173e-08
5.40823e-08
5.4488e-08
5.46951e-08
4.8763e-08
4.90992e-08
4.97797e-08
5.07349e-08
5.18806e-08
5.28764e-08
5.36816e-08
5.43523e-08
5.48137e-08
5.50264e-08
4.90383e-08
4.93767e-08
5.00463e-08
5.0979e-08
5.20766e-08
5.30946e-08
5.3888e-08
5.45695e-08
5.5033e-08
5.52402e-08
4.95787e-08
4.9892e-08
5.05171e-08
5.13837e-08
5.23755e-08
5.34565e-08
5.42455e-08
5.49748e-08
5.5475e-08
5.57076e-08
5.03255e-08
5.06079e-08
5.11716e-08
5.1936e-08
5.27392e-08
5.40416e-08
5.47583e-08
5.55483e-08
5.61215e-08
5.64028e-08
5.12038e-08
5.14586e-08
5.19525e-08
5.25392e-08
5.29208e-08
5.50895e-08
5.56024e-08
5.63212e-08
5.69231e-08
5.72458e-08
5.2163e-08
5.24303e-08
5.29329e-08
5.3731e-08
5.49577e-08
5.46546e-08
5.61302e-08
5.71275e-08
5.77898e-08
5.81138e-08
5.31229e-08
5.34036e-08
5.38578e-08
5.44745e-08
5.54016e-08
5.60461e-08
5.71078e-08
5.7968e-08
5.85889e-08
5.88978e-08
5.3967e-08
5.42614e-08
5.47151e-08
5.53155e-08
5.61216e-08
5.69434e-08
5.78815e-08
5.86854e-08
5.92617e-08
5.95549e-08
5.45827e-08
5.48676e-08
5.53073e-08
5.59116e-08
5.67152e-08
5.75632e-08
5.84371e-08
5.92015e-08
5.97499e-08
6.00401e-08
5.48706e-08
5.5129e-08
5.55682e-08
5.61923e-08
5.70221e-08
5.78998e-08
5.87274e-08
5.94642e-08
6.00074e-08
6.03005e-08
5.00195e-08
5.05215e-08
5.14737e-08
5.27819e-08
5.43039e-08
5.56979e-08
5.68429e-08
5.77748e-08
5.84161e-08
5.87299e-08
5.04154e-08
5.09095e-08
5.18475e-08
5.31342e-08
5.46133e-08
5.6009e-08
5.71474e-08
5.80814e-08
5.87243e-08
5.9049e-08
5.1151e-08
5.16224e-08
5.25287e-08
5.37713e-08
5.51742e-08
5.65855e-08
5.77424e-08
5.87241e-08
5.94077e-08
5.97612e-08
5.21717e-08
5.26236e-08
5.3492e-08
5.46676e-08
5.59298e-08
5.74954e-08
5.85991e-08
5.96431e-08
6.04001e-08
6.07907e-08
5.33879e-08
5.38356e-08
5.46729e-08
5.57031e-08
5.65308e-08
5.90262e-08
5.99155e-08
6.08551e-08
6.1613e-08
6.20103e-08
5.47186e-08
5.51502e-08
5.59586e-08
5.71469e-08
5.88788e-08
5.90541e-08
6.0764e-08
6.20192e-08
6.28355e-08
6.32398e-08
5.60694e-08
5.65023e-08
5.72529e-08
5.82657e-08
5.9705e-08
6.06971e-08
6.20788e-08
6.32017e-08
6.39936e-08
6.43928e-08
5.72193e-08
5.76444e-08
5.83813e-08
5.93784e-08
6.07038e-08
6.18797e-08
6.3146e-08
6.42077e-08
6.49662e-08
6.53621e-08
5.80351e-08
5.84389e-08
5.91611e-08
6.01683e-08
6.14785e-08
6.27302e-08
6.39056e-08
6.49255e-08
6.56705e-08
6.60685e-08
5.84165e-08
5.87972e-08
5.95232e-08
6.0555e-08
6.18759e-08
6.31685e-08
6.42837e-08
6.52872e-08
6.60376e-08
6.64372e-08
5.04018e-08
5.10935e-08
5.23714e-08
5.41071e-08
5.60924e-08
5.80208e-08
5.96663e-08
6.10064e-08
6.19506e-08
6.24477e-08
5.09595e-08
5.16366e-08
5.29012e-08
5.46196e-08
5.65735e-08
5.84872e-08
6.01297e-08
6.14658e-08
6.2417e-08
6.29405e-08
5.1985e-08
5.26481e-08
5.38958e-08
5.55932e-08
5.75143e-08
5.93914e-08
6.10665e-08
6.24443e-08
6.34313e-08
6.39738e-08
5.34078e-08
5.40657e-08
5.52977e-08
5.69695e-08
5.88233e-08
6.07356e-08
6.23882e-08
6.38207e-08
6.4862e-08
6.5415e-08
5.51028e-08
5.57755e-08
5.70032e-08
5.85828e-08
6.01017e-08
6.27001e-08
6.42064e-08
6.55419e-08
6.65687e-08
6.71016e-08
5.69049e-08
5.7542e-08
5.87182e-08
6.03469e-08
6.25247e-08
6.36593e-08
6.5639e-08
6.72063e-08
6.8252e-08
6.87923e-08
5.86648e-08
5.9284e-08
6.04097e-08
6.19305e-08
6.39312e-08
6.55426e-08
6.73402e-08
6.88163e-08
6.98677e-08
7.04123e-08
6.01361e-08
6.0732e-08
6.18417e-08
6.33634e-08
6.53047e-08
6.7027e-08
6.87463e-08
7.01847e-08
7.12286e-08
7.1775e-08
6.11737e-08
6.17463e-08
6.28486e-08
6.43885e-08
6.63104e-08
6.81202e-08
6.97505e-08
7.11628e-08
7.22042e-08
7.27474e-08
6.16769e-08
6.22369e-08
6.33469e-08
6.4907e-08
6.68182e-08
6.86653e-08
7.02441e-08
7.16532e-08
7.26975e-08
7.32348e-08
4.9544e-08
5.04697e-08
5.21812e-08
5.44928e-08
5.71287e-08
5.97944e-08
6.21796e-08
6.41507e-08
6.55731e-08
6.63481e-08
5.03199e-08
5.12334e-08
5.29337e-08
5.52317e-08
5.78496e-08
6.04905e-08
6.28746e-08
6.48404e-08
6.62725e-08
6.70739e-08
5.17636e-08
5.26707e-08
5.43593e-08
5.66481e-08
5.92714e-08
6.18469e-08
6.4256e-08
6.62469e-08
6.76948e-08
6.84956e-08
5.37546e-08
5.46631e-08
5.63426e-08
5.86326e-08
6.12542e-08
6.37714e-08
6.61708e-08
6.81886e-08
6.96546e-08
7.04405e-08
5.61074e-08
5.70297e-08
5.87042e-08
6.09575e-08
6.34196e-08
6.62496e-08
6.85694e-08
7.05109e-08
7.19562e-08
7.27138e-08
5.85284e-08
5.9408e-08
6.10329e-08
6.32354e-08
6.59858e-08
6.83325e-08
7.07746e-08
7.28039e-08
7.4224e-08
7.49813e-08
6.08008e-08
6.16465e-08
6.32364e-08
6.54056e-08
6.80935e-08
7.05517e-08
7.29487e-08
7.49484e-08
7.63968e-08
7.71561e-08
6.2689e-08
6.35061e-08
6.50829e-08
6.72594e-08
6.99247e-08
7.24093e-08
7.47696e-08
7.67661e-08
7.82248e-08
7.89789e-08
6.40301e-08
6.48306e-08
6.6409e-08
6.85983e-08
7.12293e-08
7.37789e-08
7.60798e-08
7.80683e-08
7.95228e-08
8.02648e-08
6.47105e-08
6.55114e-08
6.70958e-08
6.92871e-08
7.18843e-08
7.44583e-08
7.67317e-08
7.87182e-08
8.01659e-08
8.08924e-08
4.69412e-08
4.81884e-08
5.05069e-08
5.36411e-08
5.72484e-08
6.09588e-08
6.43957e-08
6.72864e-08
6.93947e-08
7.05397e-08
4.80197e-08
4.92603e-08
5.15674e-08
5.46877e-08
5.82857e-08
6.19665e-08
6.53983e-08
6.82807e-08
7.03898e-08
7.15445e-08
5.00383e-08
5.12719e-08
5.35596e-08
5.66651e-08
6.02836e-08
6.39032e-08
6.73259e-08
7.02033e-08
7.22987e-08
7.34353e-08
5.28035e-08
5.40314e-08
5.62979e-08
5.94051e-08
6.30575e-08
6.65752e-08
6.99689e-08
7.28329e-08
7.49068e-08
7.6014e-08
5.60472e-08
5.72676e-08
5.95069e-08
6.26205e-08
6.62838e-08
6.97649e-08
7.30889e-08
7.59033e-08
7.79563e-08
7.90366e-08
5.93247e-08
6.05051e-08
6.27109e-08
6.57042e-08
6.93101e-08
7.3016e-08
7.62317e-08
7.89773e-08
8.09715e-08
8.20395e-08
6.23354e-08
6.34693e-08
6.56449e-08
6.86362e-08
7.22062e-08
7.57623e-08
7.90243e-08
8.17975e-08
8.38169e-08
8.48692e-08
6.4848e-08
6.5956e-08
6.81169e-08
7.10965e-08
7.46335e-08
7.81452e-08
8.13986e-08
8.4183e-08
8.62058e-08
8.72406e-08
6.66529e-08
6.77546e-08
6.99154e-08
7.28812e-08
7.636e-08
7.98857e-08
8.31164e-08
8.58932e-08
8.79023e-08
8.89185e-08
6.76004e-08
6.87098e-08
7.08627e-08
7.38054e-08
7.7235e-08
8.07588e-08
8.39876e-08
8.6751e-08
8.87436e-08
8.97371e-08
4.19125e-08
4.36182e-08
4.6794e-08
5.11125e-08
5.61551e-08
6.13509e-08
6.6232e-08
7.03917e-08
7.34269e-08
7.50468e-08
4.34106e-08
4.5109e-08
4.82675e-08
5.25625e-08
5.75853e-08
6.27519e-08
6.76113e-08
7.17524e-08
7.47711e-08
7.63805e-08
4.62031e-08
4.78829e-08
5.10014e-08
5.52541e-08
6.02638e-08
6.5398e-08
7.01982e-08
7.42979e-08
7.72759e-08
7.88579e-08
5.00176e-08
5.167e-08
5.47354e-08
5.89509e-08
6.39526e-08
6.90043e-08
7.37306e-08
7.77784e-08
8.07011e-08
8.22402e-08
5.44765e-08
5.60854e-08
5.90771e-08
6.32763e-08
6.82989e-08
7.31806e-08
7.78185e-08
8.18289e-08
8.47199e-08
8.6221e-08
5.89806e-08
6.05545e-08
6.35325e-08
6.76018e-08
7.24315e-08
7.7523e-08
8.20506e-08
8.58957e-08
8.8707e-08
9.01997e-08
6.30999e-08
6.46168e-08
6.75459e-08
7.15803e-08
7.63228e-08
8.12451e-08
8.57623e-08
8.96194e-08
9.2413e-08
9.38555e-08
6.65696e-08
6.80656e-08
7.09658e-08
7.49479e-08
7.96037e-08
8.4449e-08
8.89294e-08
9.27674e-08
9.5536e-08
9.6948e-08
6.90862e-08
7.05775e-08
7.34543e-08
7.73835e-08
8.19535e-08
8.676e-08
9.12222e-08
9.50292e-08
9.77704e-08
9.91574e-08
7.04248e-08
7.19156e-08
7.47631e-08
7.86527e-08
8.31764e-08
8.79316e-08
9.2405e-08
9.61813e-08
9.88944e-08
1.00253e-07
3.35352e-08
3.58851e-08
4.02595e-08
4.6249e-08
5.33222e-08
6.06014e-08
6.74537e-08
7.33331e-08
7.76141e-08
7.9869e-08
3.56077e-08
3.79365e-08
4.2277e-08
4.82185e-08
5.52335e-08
6.24791e-08
6.92875e-08
7.51295e-08
7.93768e-08
8.1607e-08
3.9451e-08
4.17378e-08
4.60064e-08
5.18609e-08
5.87881e-08
6.59951e-08
7.27028e-08
7.84653e-08
8.26477e-08
8.48393e-08
4.47069e-08
4.69331e-08
5.11023e-08
5.6851e-08
6.36571e-08
7.0801e-08
7.73735e-08
8.30362e-08
8.71258e-08
8.92516e-08
5.08464e-08
5.29931e-08
5.7027e-08
6.26628e-08
6.93211e-08
7.64094e-08
8.28344e-08
8.8402e-08
9.24115e-08
9.4463e-08
5.71149e-08
5.9214e-08
6.32194e-08
6.8736e-08
7.5305e-08
8.19629e-08
8.83975e-08
9.37887e-08
9.7694e-08
9.9756e-08
6.28886e-08
6.49252e-08
6.88436e-08
7.42402e-08
8.06097e-08
8.72325e-08
9.3476e-08
9.87679e-08
1.02583e-07
1.04552e-07
6.7782e-08
6.97926e-08
7.36475e-08
7.89383e-08
8.51362e-08
9.16643e-08
9.77836e-08
1.02991e-07
1.06739e-07
1.08653e-07
7.13436e-08
7.33307e-08
7.7123e-08
8.23219e-08
8.83932e-08
9.48567e-08
1.00904e-07
1.06037e-07
1.0973e-07
1.11608e-07
7.32304e-08
7.51988e-08
7.89462e-08
8.41021e-08
9.01377e-08
9.64815e-08
1.02526e-07
1.07608e-07
1.11255e-07
1.13093e-07
2.05623e-08
2.37954e-08
2.9827e-08
3.81224e-08
4.79545e-08
5.81264e-08
6.77146e-08
7.59498e-08
8.19423e-08
8.5086e-08
2.34169e-08
2.66017e-08
3.25693e-08
4.0777e-08
5.04967e-08
6.06116e-08
7.01311e-08
7.82984e-08
8.42379e-08
8.73434e-08
2.87137e-08
3.18241e-08
3.76773e-08
4.57439e-08
5.53023e-08
6.52754e-08
7.46556e-08
8.26906e-08
8.85257e-08
9.15685e-08
3.59769e-08
3.89894e-08
4.46874e-08
5.25693e-08
6.18862e-08
7.17066e-08
8.08581e-08
8.87088e-08
9.43949e-08
9.73449e-08
4.44733e-08
4.73795e-08
5.28838e-08
6.05379e-08
6.95116e-08
7.93265e-08
8.81984e-08
9.58114e-08
1.01335e-07
1.04172e-07
5.3258e-08
5.60762e-08
6.14626e-08
6.89205e-08
7.78535e-08
8.68137e-08
9.5637e-08
1.03049e-07
1.08395e-07
1.11213e-07
6.14343e-08
6.41771e-08
6.94227e-08
7.66533e-08
8.52416e-08
9.41439e-08
1.02624e-07
1.09785e-07
1.14953e-07
1.17633e-07
6.83702e-08
7.10593e-08
7.6187e-08
8.32464e-08
9.15717e-08
1.00278e-07
1.0853e-07
1.1552e-07
1.20554e-07
1.23144e-07
7.34089e-08
7.60437e-08
8.10669e-08
8.79918e-08
9.61217e-08
1.04731e-07
1.12821e-07
1.19668e-07
1.24598e-07
1.27126e-07
7.6058e-08
7.86621e-08
8.36301e-08
9.05027e-08
9.85801e-08
1.06997e-07
1.15047e-07
1.21816e-07
1.26674e-07
1.29149e-07
1.3089e-09
5.74498e-09
1.40637e-08
2.55243e-08
3.90757e-08
5.32525e-08
6.6677e-08
7.81798e-08
8.65561e-08
9.09549e-08
5.23901e-09
9.59416e-09
1.78079e-08
2.9129e-08
4.25154e-08
5.65815e-08
6.98891e-08
8.12746e-08
8.95636e-08
9.39002e-08
1.25784e-08
1.68216e-08
2.48626e-08
3.59677e-08
4.91172e-08
6.28645e-08
7.59454e-08
8.71078e-08
9.52181e-08
9.9451e-08
2.2663e-08
2.6767e-08
3.45779e-08
4.53891e-08
5.81659e-08
7.15671e-08
8.42603e-08
9.50966e-08
1.02966e-07
1.07069e-07
3.4482e-08
3.84411e-08
4.59871e-08
5.64495e-08
6.8731e-08
8.18565e-08
9.40854e-08
1.04497e-07
1.12091e-07
1.16053e-07
4.68119e-08
5.06295e-08
5.79111e-08
6.79959e-08
8.00052e-08
9.23827e-08
1.04253e-07
1.14312e-07
1.21599e-07
1.25411e-07
5.83834e-08
6.20865e-08
6.9147e-08
7.88802e-08
9.04073e-08
1.02454e-07
1.1385e-07
1.23494e-07
1.30474e-07
1.34105e-07
6.81893e-08
7.17917e-08
7.86564e-08
8.81201e-08
9.9279e-08
1.10921e-07
1.21959e-07
1.31298e-07
1.38039e-07
1.41538e-07
7.52951e-08
7.88145e-08
8.55248e-08
9.4786e-08
1.05656e-07
1.1708e-07
1.27852e-07
1.36948e-07
1.43508e-07
1.46905e-07
7.90196e-08
8.25017e-08
8.91339e-08
9.83013e-08
1.09065e-07
1.20242e-07
1.30908e-07
1.39878e-07
1.46333e-07
1.49668e-07
-2.65247e-08
-2.04288e-08
-8.93326e-09
6.91098e-09
2.55899e-08
4.5312e-08
6.40833e-08
8.01285e-08
9.18214e-08
9.79685e-08
-2.10851e-08
-1.5101e-08
-3.76112e-09
1.1879e-08
3.03262e-08
4.98376e-08
6.84003e-08
8.42528e-08
9.57932e-08
1.01835e-07
-1.08526e-08
-5.02463e-09
6.05802e-09
2.13565e-08
3.94246e-08
5.84312e-08
7.6576e-08
9.20471e-08
1.03287e-07
1.09163e-07
3.21517e-09
8.84855e-09
1.95875e-08
3.44148e-08
5.19008e-08
7.03255e-08
8.78232e-08
1.02744e-07
1.13584e-07
1.19262e-07
1.97105e-08
2.51252e-08
3.54752e-08
4.97745e-08
6.6578e-08
8.42913e-08
1.01037e-07
1.15296e-07
1.25673e-07
1.31141e-07
3.69899e-08
4.2203e-08
5.21226e-08
6.58251e-08
8.20012e-08
9.88998e-08
1.14921e-07
1.28541e-07
1.38457e-07
1.43603e-07
5.33017e-08
5.83261e-08
6.78841e-08
8.10427e-08
9.65266e-08
1.12755e-07
1.28066e-07
1.41055e-07
1.5047e-07
1.55382e-07
6.71134e-08
7.19733e-08
8.12098e-08
9.39212e-08
1.08845e-07
1.24446e-07
1.39173e-07
1.51641e-07
1.60662e-07
1.65369e-07
7.71105e-08
8.18495e-08
9.0848e-08
1.03237e-07
1.17751e-07
1.3289e-07
1.47215e-07
1.59296e-07
1.68024e-07
1.72574e-07
8.2347e-08
8.70277e-08
9.58977e-08
1.08112e-07
1.22426e-07
1.3729e-07
1.51393e-07
1.63278e-07
1.71854e-07
1.76326e-07
-6.61262e-08
-5.7708e-08
-4.17727e-08
-1.97996e-08
6.08617e-09
3.35044e-08
5.96836e-08
8.20419e-08
9.83303e-08
1.0689e-07
-5.85369e-08
-5.02636e-08
-3.45516e-08
-1.28802e-08
1.26545e-08
3.96938e-08
6.55179e-08
8.7561e-08
1.03592e-07
1.11992e-07
-4.41982e-08
-3.6141e-08
-2.08188e-08
3.02532e-10
2.51864e-08
5.15071e-08
7.66015e-08
9.80105e-08
1.13563e-07
1.21714e-07
-2.44958e-08
-1.67192e-08
-1.91953e-09
1.84669e-08
4.24395e-08
6.77949e-08
9.18757e-08
1.12405e-07
1.27316e-07
1.35147e-07
-1.41047e-09
6.03435e-09
2.02392e-08
3.98024e-08
6.27544e-08
8.69396e-08
1.09808e-07
1.2933e-07
1.43477e-07
1.50934e-07
2.27724e-08
2.99143e-08
4.34709e-08
6.21287e-08
8.40704e-08
1.06928e-07
1.28641e-07
1.47097e-07
1.60542e-07
1.67544e-07
4.56743e-08
5.25154e-08
6.54765e-08
8.32758e-08
1.04148e-07
1.25917e-07
1.4652e-07
1.64007e-07
1.76689e-07
1.83322e-07
6.5051e-08
7.1629e-08
8.40668e-08
1.01137e-07
1.21112e-07
1.41981e-07
1.61636e-07
1.78284e-07
1.90335e-07
1.96634e-07
7.90594e-08
8.54443e-08
9.75037e-08
1.14058e-07
1.33434e-07
1.53495e-07
1.72532e-07
1.8859e-07
2.00184e-07
2.06246e-07
8.63845e-08
9.26656e-08
1.04521e-07
1.20782e-07
1.39807e-07
1.59564e-07
1.78212e-07
1.93961e-07
2.05324e-07
2.11273e-07
-1.21978e-07
-1.10299e-07
-8.81475e-08
-5.75868e-08
-2.15457e-08
1.66103e-08
5.30875e-08
8.42487e-08
1.06933e-07
1.18855e-07
-1.11318e-07
-9.98327e-08
-7.80153e-08
-4.79256e-08
-1.24482e-08
2.50808e-08
6.09793e-08
9.16249e-08
1.13908e-07
1.25615e-07
-9.11477e-08
-7.99786e-08
-5.87712e-08
-2.95511e-08
4.83888e-09
4.12897e-08
7.60263e-08
1.05663e-07
1.27212e-07
1.3855e-07
-6.34691e-08
-5.27249e-08
-3.2323e-08
-4.23693e-09
2.87466e-08
6.3557e-08
9.67587e-08
1.25046e-07
1.45601e-07
1.56417e-07
-3.10764e-08
-2.0821e-08
-1.34153e-09
2.54284e-08
5.67965e-08
8.97886e-08
1.21133e-07
1.47868e-07
1.67226e-07
1.77398e-07
2.7824e-09
1.25501e-08
3.1038e-08
5.63823e-08
8.61137e-08
1.17178e-07
1.46686e-07
1.71721e-07
1.89895e-07
1.99434e-07
3.48267e-08
4.41229e-08
6.16618e-08