/*--------------------------------*- C++ -*----------------------------------*\
  =========                 |
  \\      /  F ield         | OpenFOAM: The Open Source CFD Toolbox
   \\    /   O peration     | Website:  https://openfoam.org
    \\  /    A nd           | Version:  9
     \\/     M anipulation  |
\*---------------------------------------------------------------------------*/
FoamFile
{
    format      ascii;
    class       surfaceScalarField;
    location    "30000";
    object      phi;
}
// * * * * * * * * * * * * * * * * * * * * * * * * * * * * * * * * * * * * * //

dimensions      [0 3 -1 0 0 0 0];

internalField   nonuniform List<scalar> 
25100
(
-4.91771e-06
3.74651e-05
-1000
-1.20735e-06
4.10267e-05
-1000
5.31444e-06
5.51046e-05
-1000
2.19879e-05
7.53456e-05
-1000
-9.39935e-05
8.23518e-05
-1000
-0.000161063
9.08577e-05
-1000
-0.000141758
7.72331e-05
-1000
-0.000113235
6.43453e-05
-1000
-6.17971e-05
5.53923e-05
-1000
5.4316e-05
-1000
1.49284e-07
6.105e-05
-1000
1.5125e-05
6.61579e-05
-1000
2.34093e-05
8.45961e-05
-1000
3.29397e-05
0.000107507
-1000
-9.23124e-05
0.00013087
-1000
-0.000174271
0.000136711
-1000
-0.000156328
0.000132696
-1000
-0.000121647
0.000127875
-1000
-6.4108e-05
0.000125087
-1000
0.000125255
-1000
4.77376e-07
7.3673e-05
-999.999
2.96234e-05
8.25259e-05
-999.999
4.31211e-05
0.000109874
-999.999
5.68005e-05
0.000146631
-999.999
-8.12556e-05
0.000179415
-999.999
-0.000171192
0.00019792
-1000
-0.000161255
0.000187304
-1000
-0.000123266
0.000176774
-1000
-6.40476e-05
0.000168623
-1000
0.000165823
-1000
8.96128e-06
6.0115e-05
-999.999
5.841e-05
8.40736e-05
-999.999
8.29025e-05
0.000129746
-999.999
9.89673e-05
0.000181735
-999.999
-7.85929e-05
0.000247163
-999.999
-0.000183652
0.000256205
-999.999
-0.000173322
0.000217366
-999.999
-0.000129757
0.000189858
-1000
-6.5859e-05
0.000174993
-1000
0.000171199
-1000
2.80318e-05
0.000143084
-999.999
0.000100849
0.000131684
-999.999
0.000136551
0.000117605
-999.999
0.000148017
0.000105548
-999.999
-8.06113e-05
9.24075e-05
-999.999
-0.000220327
0.000146491
-999.999
-0.000207457
0.00014188
-999.999
-0.000146144
0.000167199
-999.999
-7.05528e-05
0.000190944
-999.999
0.000196827
-1000
1.97616e-05
0.000169438
-999.999
8.63231e-05
0.000160349
-999.999
0.000123231
0.000115712
-999.999
0.000118821
5.26863e-05
-999.998
-3.68632e-05
-1.57687e-05
-999.998
-0.000195367
-3.21903e-05
-999.998
-0.000164414
5.0182e-05
-999.999
-0.000124621
0.000128948
-999.999
-6.07063e-05
0.00018492
-999.999
0.000209975
-999.999
-3.71213e-07
0.000129724
-999.998
4.42841e-05
0.000113884
-999.998
5.80264e-05
7.4008e-05
-999.998
4.31436e-05
2.09467e-05
-999.998
-2.50167e-05
-4.55675e-05
-999.998
-9.95617e-05
-2.62046e-05
-999.998
-9.43668e-05
3.98559e-05
-999.999
-6.8326e-05
0.000101866
-999.999
-2.96151e-05
0.000143629
-999.999
0.000161668
-999.999
-1.70117e-05
8.65595e-05
-999.998
7.79378e-06
7.36041e-05
-999.998
7.78181e-06
4.63367e-05
-999.998
-2.20845e-05
1.13615e-05
-999.998
-2.01507e-05
-2.88232e-05
-999.998
-3.26216e-05
-2.48938e-05
-999.998
-3.23541e-05
2.87983e-05
-999.998
-2.35874e-05
7.24698e-05
-999.998
-9.17996e-06
9.8871e-05
-999.998
0.000109735
-999.999
-2.93149e-05
4.50446e-05
-999.998
-1.79192e-05
3.95709e-05
-999.998
-2.80413e-05
2.77917e-05
-999.998
-6.5811e-05
1.08654e-05
-999.998
-1.01512e-05
-7.67201e-06
-999.998
1.89695e-05
-7.11688e-06
-999.998
1.01931e-05
2.26175e-05
-999.998
5.19278e-06
4.15118e-05
-999.998
1.86374e-06
5.1238e-05
-999.998
5.39647e-05
-999.998
-3.44589e-05
-999.998
-2.95747e-05
-999.998
-4.26806e-05
-999.998
-8.31294e-05
-999.998
-1.08517e-05
-999.998
4.54369e-05
-999.998
2.92693e-05
-999.998
1.48692e-05
-999.998
3.66088e-06
-999.998
-999.998
-1.29394e-05
0.000112952
-1000
-1.64599e-05
0.0001255
-1000
-1.75218e-05
0.000157633
-1000
-2.00118e-06
0.000195943
-1000
-0.0002653
0.000206502
-1000
-0.000451539
0.000224867
-1000
-0.000385724
0.000200628
-1000
-0.000294374
0.000178929
-1000
-0.000154312
0.000168162
-1000
0.000172734
-1000
-7.83833e-06
0.000191637
-1000
1.68897e-05
0.000205954
-1000
1.5116e-05
0.000251167
-1000
7.46798e-06
0.00031019
-1000
-0.000259505
0.000373835
-1000
-0.000475937
0.000387941
-1000
-0.000408992
0.000387298
-1000
-0.000306654
0.000383791
-1000
-0.000152708
0.000377953
-1000
0.000376992
-1000
-4.4071e-06
0.000238443
-999.999
5.54728e-05
0.000263326
-999.999
6.75075e-05
0.000335191
-999.999
6.75464e-05
0.000424818
-1000
-0.000228737
0.000522602
-1000
-0.000465637
0.000567195
-1000
-0.000416261
0.000552945
-1000
-0.0003069
0.00052606
-1000
-0.000149827
0.000512596
-1000
0.000508044
-1000
2.31959e-05
0.000210814
-999.999
0.000130206
0.000277231
-999.999
0.000168385
0.000387378
-999.999
0.000177806
0.000521528
-999.999
-0.000220957
0.000687275
-999.999
-0.000479955
0.000700575
-1000
-0.000436162
0.000612458
-1000
-0.000315154
0.000569566
-1000
-0.000151835
0.000555138
-1000
0.00055428
-1000
7.83069e-05
0.000419048
-999.999
0.000235498
0.000391134
-999.999
0.000297016
0.000363272
-999.999
0.000308484
0.000327298
-999.999
-0.000214025
0.000311169
-999.999
-0.000551331
0.000473086
-999.999
-0.000497784
0.000463174
-999.999
-0.000340779
0.000515826
-999.999
-0.000156466
0.000564146
-1000
0.000574456
-1000
5.31276e-05
0.000503851
-999.998
0.000210166
0.000465308
-999.998
0.00027497
0.000348125
-999.999
0.000243533
0.000192702
-999.999
-8.37368e-05
1.87001e-05
-999.999
-0.000504897
-5.05526e-05
-999.999
-0.000408853
0.000202123
-999.999
-0.000293107
0.00039826
-999.999
-0.000135846
0.000531537
-999.999
0.000585037
-999.999
3.11026e-07
0.000379673
-999.998
9.39126e-05
0.000333913
-999.998
0.000112292
0.000237304
-999.998
5.84988e-05
0.000111339
-999.998
-7.72147e-05
-3.03195e-05
-999.998
-0.000262429
-7.28282e-06
-999.999
-0.000225877
0.000173696
-999.999
-0.000161106
0.000321436
-999.999
-6.82682e-05
0.000414824
-999.999
0.000451229
-999.999
-4.1681e-05
0.000254687
-999.998
1.66688e-06
0.000222776
-999.998
-6.74026e-06
0.000156999
-999.998
-8.07058e-05
7.86848e-05
-999.998
-6.28153e-05
-6.52979e-06
-999.998
-8.11345e-05
4.68291e-07
-999.998
-7.78857e-05
0.000132695
-999.998
-6.11772e-05
0.000230637
-999.998
-2.91997e-05
0.000285073
-999.998
0.000305504
-999.998
-7.63937e-05
0.000136317
-999.998
-5.54742e-05
0.000128466
-999.998
-8.95961e-05
0.000101699
-999.998
-0.00017154
6.72243e-05
-999.998
-5.04e-05
3.12087e-05
-999.998
5.14109e-05
2.46039e-05
-999.998
1.81839e-05
9.52279e-05
-999.998
-1.18529e-06
0.00013088
-999.998
-1.07977e-05
0.000144434
-999.998
0.000147188
-999.998
-8.62752e-05
-999.997
-8.06988e-05
-999.998
-0.000122202
-999.998
-0.000205142
-999.998
-5.72311e-05
-999.998
0.000112093
-999.998
5.37166e-05
-999.998
1.29069e-05
-999.998
-1.42661e-05
-999.998
-999.998
-4.01041e-05
0.000225076
-1000
-9.79525e-05
0.000237168
-1000
-0.000160872
0.000267032
-1000
-0.000211894
0.000303311
-1000
-0.000453294
0.000314544
-1000
-0.00065397
0.000329179
-1000
-0.000562423
0.000321343
-1000
-0.000408351
0.000310855
-1000
-0.000201494
0.000311821
-1000
0.000326087
-1000
-4.1856e-05
0.000386689
-1000
-7.1753e-05
0.000402428
-1000
-0.000138506
0.000459712
-1000
-0.00020665
0.000530609
-1000
-0.000443198
0.000637104
-1000
-0.000667314
0.000653166
-1000
-0.000574118
0.000670383
-1000
-0.000408303
0.000666376
-1000
-0.000190712
0.000668696
-1000
0.00067175
-1000
-2.68925e-05
0.000502842
-999.999
-1.81643e-05
0.000537135
-999.999
-6.50127e-05
0.00062913
-1000
-0.00011976
0.000730935
-1000
-0.000396214
0.000898933
-1000
-0.000644486
0.000938985
-1000
-0.000569492
0.000940309
-1000
-0.000402438
0.000918168
-1000
-0.000189059
0.00091708
-1000
0.000908101
-1000
1.04564e-05
0.000509987
-999.999
7.71691e-05
0.000589834
-999.999
6.14049e-05
0.000716325
-999.999
1.7282e-06
0.000872689
-1000
-0.000369033
0.00105198
-1000
-0.000659853
0.00108922
-1000
-0.000572514
0.00102863
-1000
-0.000401593
0.00102755
-1000
-0.000185468
0.00103735
-1000
0.00103491
-1000
8.2903e-05
0.000758748
-999.998
0.00020451
0.000726954
-999.999
0.000219394
0.000712089
-999.999
0.000179015
0.000706625
-999.999
-0.000508071
0.000607149
-999.999
-0.000705623
0.000917115
-1000
-0.000604734
0.000879307
-1000
-0.000411466
0.000938435
-1000
-0.000179195
0.000989577
-1000
0.000997653
-1000
4.50328e-05
0.000868766
-999.998
0.000174071
0.000805489
-999.998
0.000184755
0.000669098
-999.998
0.000125171
0.000497865
-999.999
-0.000126394
0.000328555
-999.999
-0.000673962
0.000229168
-999.999
-0.000524162
0.000536554
-999.999
-0.000360786
0.000751751
-999.999
-0.000159821
0.000888722
-999.999
0.00093679
-999.999
-1.60997e-05
0.000664051
-999.998
3.66818e-05
0.000610107
-999.998
3.03755e-05
0.000495153
-999.998
-6.40821e-05
0.000367028
-999.998
-0.000158101
0.000231812
-999.998
-0.000368738
0.000238056
-999.999
-0.00030256
0.000460268
-999.999
-0.000219767
0.00062235
-999.999
-0.000107394
0.000715983
-999.999
0.000748817
-999.999
-8.07015e-05
0.000458602
-999.997
-5.35946e-05
0.000421631
-999.997
-9.73224e-05
0.000352757
-999.997
-0.000189535
0.000274583
-999.998
-0.000162111
0.000196326
-999.998
-0.00015195
0.000205163
-999.998
-0.000146681
0.000347666
-999.998
-0.000118285
0.000447843
-999.998
-7.38629e-05
0.000498541
-999.998
0.000514124
-999.998
-0.000120924
0.000257149
-999.997
-0.000119086
0.000250937
-999.997
-0.000181397
0.000226863
-999.997
-0.000273987
0.000196285
-999.997
-0.000158896
0.000168771
-999.997
-2.78248e-07
0.000153425
-999.998
-4.6394e-05
0.000219712
-999.998
-6.44643e-05
0.000244615
-999.998
-6.05516e-05
0.000249314
-999.998
0.000247215
-999.998
-0.000112106
-999.997
-0.000142099
-999.997
-0.0002109
-999.997
-0.000295589
-999.997
-0.000176098
-999.997
6.24964e-05
-999.997
-1.99378e-05
-999.998
-6.10476e-05
-999.998
-6.89445e-05
-999.998
-999.998
-0.000105612
0.000394474
-1000
-0.000280493
0.000392917
-1000
-0.000429201
0.000405444
-1000
-0.000582292
0.000419083
-1000
-0.000663267
0.000444557
-1000
-0.000759738
0.000449387
-1000
-0.000655335
0.000467608
-1000
-0.000459915
0.000478543
-1000
-0.000211279
0.000493156
-1000
0.00051183
-1000
-0.000112773
0.000677155
-1000
-0.000263014
0.000692168
-1000
-0.000417965
0.000744911
-1000
-0.000574937
0.000810611
-1000
-0.000659669
0.000924952
-1000
-0.000750352
0.000944198
-1000
-0.000647846
0.00098325
-1000
-0.000447616
0.00099049
-1000
-0.000194778
0.0010056
-1000
0.00100451
-1000
-9.54408e-05
0.000914071
-999.999
-0.000208455
0.000945096
-1000
-0.000344299
0.00103011
-1000
-0.000478571
0.00111481
-1000
-0.00061698
0.00129866
-1000
-0.000720489
0.00130773
-1000
-0.000630302
0.00135929
-1000
-0.000437826
0.00136114
-1000
-0.000196234
0.00137054
-1000
0.00135884
-1000
-6.01541e-05
0.00102231
-999.999
-0.000140461
0.00108721
-999.999
-0.000242902
0.00118081
-999.999
-0.000372291
0.00128751
-1000
-0.000543442
0.00144209
-1000
-0.000726105
0.00152617
-1000
-0.000622348
0.00152671
-1000
-0.0004314
0.00155719
-1000
-0.00019971
0.00157958
-1000
0.0015717
-1000
-2.4994e-06
0.00121365
-999.998
-3.63402e-05
0.00119512
-999.998
-9.48347e-05
0.0012023
-999.999
-0.000233981
0.00123506
-999.999
-0.00074329
0.00117505
-1000
-0.000777484
0.00146665
-1000
-0.000592386
0.00136397
-1000
-0.000410366
0.00144802
-1000
-0.000201952
0.00148658
-1000
0.001491
-1000
-2.64489e-05
0.00127515
-999.997
-6.13909e-05
0.00122704
-999.998
-0.00013152
0.00112445
-999.998
-0.00021664
0.00102515
-999.998
-0.000295537
0.000947813
-999.999
-0.000648586
0.000867736
-999.999
-0.000548613
0.00109063
-999.999
-0.000376999
0.00121586
-999.999
-0.00019287
0.00130111
-999.999
0.00132081
-1000
-8.88021e-05
0.00101655
-999.997
-0.000121166
0.000970726
-999.997
-0.000200849
0.000898839
-999.997
-0.000314988
0.000826039
-999.998
-0.000376757
0.000785955
-999.998
-0.000466874
0.00074153
-999.998
-0.000384239
0.000926451
-999.999
-0.000286881
0.00102936
-999.999
-0.000164301
0.00108414
-999.999
0.00109632
-999.999
-0.000130825
0.000723143
-999.996
-0.000185054
0.000697663
-999.997
-0.000274476
0.000659675
-999.997
-0.00036885
0.000620423
-999.997
-0.000360883
0.000594014
-999.997
-0.000320668
0.000590373
-999.998
-0.000292331
0.000689383
-999.998
-0.000234108
0.000744514
-999.998
-0.000149737
0.000766934
-999.998
0.000768439
-999.999
-0.00015277
0.00040578
-999.996
-0.000220752
0.000413763
-999.996
-0.000316598
0.00040263
-999.996
-0.000400093
0.000389624
-999.997
-0.000368539
0.000386614
-999.997
-0.000221469
0.000364642
-999.997
-0.000234535
0.000392662
-999.997
-0.000210873
0.00039226
-999.998
-0.000147568
0.00038357
-999.998
0.000374967
-999.998
-0.000142549
-999.996
-0.000230691
-999.996
-0.000328296
-999.996
-0.000402556
-999.996
-0.000388506
-999.997
-0.000192156
-999.997
-0.000233573
-999.997
-0.000222459
-999.998
-0.000156978
-999.998
-999.998
-0.000203774
0.000617631
-1000
-0.000508724
0.000601124
-1000
-0.000764658
0.000598625
-1000
-0.000994239
0.0005988
-1000
-0.000925866
0.000633237
-1000
-0.000862495
0.000633083
-1000
-0.000747562
0.000665124
-1000
-0.000522526
0.000687543
-1000
-0.000241185
0.00070565
-1000
0.000719402
-1000
-0.000222446
0.00108531
-1000
-0.000515472
0.00109814
-1000
-0.000765651
0.00113524
-1000
-0.000970273
0.00118404
-1000
-0.000926753
0.00127903
-1000
-0.000841276
0.00128865
-1000
-0.000730762
0.001333
-1000
-0.000507828
0.00135546
-1000
-0.000229064
0.00136888
-1000
0.00136256
-1000
-0.000207371
0.00150094
-1000
-0.000479903
0.00152426
-1000
-0.000710127
0.00157154
-1000
-0.000883722
0.0016229
-1000
-0.000892499
0.00176158
-1000
-0.000803558
0.0017369
-1000
-0.00070766
0.00181499
-1000
-0.000494827
0.00184195
-1000
-0.000234571
0.00185939
-1000
0.00184678
-1000
-0.000184397
0.00177775
-999.999
-0.000438258
0.00179919
-999.999
-0.000646731
0.00183082
-999.999
-0.000777919
0.00185251
-1000
-0.000845982
0.0019982
-1000
-0.000762857
0.00195855
-1000
-0.000682089
0.00207865
-1000
-0.000481415
0.00213285
-1000
-0.000241732
0.00216094
-1000
0.00214762
-1000
-0.000172594
0.00184114
-999.998
-0.000408177
0.00184089
-999.998
-0.000569033
0.00185521
-999.999
-0.00075494
0.00191787
-999.999
-0.000889675
0.00172002
-1000
-0.000760714
0.00224586
-1000
-0.000608904
0.00200708
-1000
-0.000449594
0.00207031
-1000
-0.000245245
0.00209054
-1000
0.00208894
-1000
-0.000170377
0.00177552
-999.997
-0.000397511
0.00175831
-999.997
-0.000600932
0.00175277
-999.998
-0.000694684
0.00176631
-999.998
-0.000636688
0.0018547
-999.999
-0.000738133
0.00167686
-999.999
-0.000615717
0.00182743
-999.999
-0.000440871
0.00184308
-1000
-0.000246953
0.00185264
-1000
0.00183618
-1000
-0.000191539
0.00148079
-999.996
-0.000386005
0.00146628
-999.997
-0.000545088
0.00146255
-999.997
-0.000671958
0.00147062
-999.997
-0.000683309
0.00155545
-999.998
-0.000675706
0.00146437
-999.998
-0.000557907
0.00155436
-999.999
-0.00041831
0.00157181
-999.999
-0.000247767
0.00156958
-999.999
0.00155573
-999.999
-0.000209184
0.00107539
-999.996
-0.000388338
0.0010757
-999.996
-0.000536538
0.00108274
-999.996
-0.000638172
0.00109901
-999.996
-0.000678419
0.00114775
-999.997
-0.000626306
0.00112482
-999.997
-0.000550099
0.00114391
-999.998
-0.000423584
0.0011379
-999.998
-0.000257753
0.00112299
-999.998
0.00110815
-999.999
-0.000211829
0.000595878
-999.995
-0.000380873
0.00061408
-999.995
-0.000522511
0.000621396
-999.996
-0.000603823
0.000630302
-999.996
-0.000688687
0.000648341
-999.996
-0.000612057
0.000630665
-999.997
-0.000553583
0.000609514
-999.997
-0.000437981
0.000584413
-999.998
-0.000268835
0.000564346
-999.998
0.000552127
-999.998
-0.000191703
-999.995
-0.000372282
-999.995
-0.000511447
-999.995
-0.00058723
-999.996
-0.000701996
-999.996
-0.000633911
-999.996
-0.000577086
-999.997
-0.000457897
-999.997
-0.000279765
-999.998
-999.998
-0.000341199
0.000890715
-1000
-0.000771715
0.00087042
-1000
-0.00109062
0.000860205
-1000
-0.00131543
0.000858835
-1000
-0.0012412
0.000892415
-1000
-0.0010908
0.000894078
-1000
-0.000939982
0.000908845
-1000
-0.000666306
0.000928722
-1000
-0.000326342
0.000942227
-1000
0.000946406
-1000
-0.000363775
0.00162273
-1000
-0.000784805
0.00163377
-1000
-0.00109304
0.00164555
-1000
-0.00128447
0.00166137
-1000
-0.00124364
0.00170143
-1000
-0.00107755
0.0017053
-1000
-0.000927228
0.00173829
-1000
-0.000655742
0.00176175
-1000
-0.000321481
0.00177677
-1000
0.00177114
-1000
-0.000354181
0.00226601
-1000
-0.000773732
0.00227634
-1000
-0.00107389
0.00227559
-1000
-0.00124909
0.00227007
-1000
-0.00123098
0.00231795
-1000
-0.00104132
0.00226958
-1000
-0.00090372
0.00235426
-1000
-0.00064049
0.00239399
-1000
-0.000323926
0.00241828
-1000
0.00241333
-1000
-0.000348683
0.00274243
-999.999
-0.000775406
0.00271977
-999.999
-0.00107084
0.00268773
-1000
-0.00122747
0.00264453
-1000
-0.00123133
0.00269161
-1000
-0.000970531
0.00253786
-1000
-0.000861884
0.00270175
-1000
-0.00061606
0.00278446
-1000
-0.000322701
0.00282543
-1000
0.00282137
-1000
-0.000381956
0.00270176
-999.998
-0.000812119
0.00272988
-999.998
-0.00108184
0.00273868
-999.999
-0.00121236
0.0027369
-999.999
-0.00133502
0.00254019
-1000
-0.000903144
0.00314437
-1000
-0.000784949
0.00285688
-1000
-0.000573381
0.00285732
-1000
-0.000318688
0.00285942
-1000
0.0028489
-1000
-0.000352239
0.00247083
-999.997
-0.000785015
0.00250021
-999.997
-0.00110961
0.00258422
-999.997
-0.00132104
0.00271432
-999.998
-0.00105587
0.00291305
-999.998
-0.00101971
0.00265565
-999.999
-0.000817022
0.00271827
-1000
-0.000586866
0.00266891
-1000
-0.000326861
0.00261769
-1000
0.00257081
-1000
-0.000341087
0.00212939
-999.996
-0.000713399
0.0021502
-999.996
-0.000967632
0.00220144
-999.996
-0.00113142
0.00227293
-999.997
-0.00106488
0.002434
-999.997
-0.00102753
0.00235806
-999.998
-0.000860702
0.00233045
-999.998
-0.000627666
0.00227342
-999.999
-0.000355687
0.00222268
-999.999
0.0021856
-999.999
-0.000321839
0.00156121
-999.995
-0.000653793
0.0015844
-999.995
-0.000885452
0.00162867
-999.995
-0.00102535
0.00168691
-999.996
-0.00111654
0.0017711
-999.996
-0.00108199
0.00174996
-999.997
-0.000917482
0.00169764
-999.997
-0.000680946
0.00164377
-999.998
-0.000387163
0.00160039
-999.998
0.0015736
-999.998
-0.000300702
0.000844424
-999.994
-0.00061163
0.000862639
-999.994
-0.000829181
0.000885613
-999.995
-0.000937235
0.000908975
-999.995
-0.00112212
0.000931643
-999.996
-0.00114083
0.00092764
-999.996
-0.000970994
0.000871719
-999.997
-0.000724707
0.000836994
-999.997
-0.000409519
0.000814259
-999.998
0.000802814
-999.998
-0.000280585
-999.994
-0.000590629
-999.994
-0.000804486
-999.994
-0.000908541
-999.995
-0.00112261
-999.995
-0.00119243
-999.996
-0.00100352
-999.996
-0.000745577
-999.997
-0.000417
-999.997
-999.997
-0.000516291
0.00121658
-1000
-0.00103095
0.00120634
-1000
-0.00139668
0.00119896
-1000
-0.00160261
0.00119929
-1000
-0.00164806
0.0012111
-1000
-0.0015155
0.00121468
-1000
-0.00129052
0.0012134
-1000
-0.000926214
0.00122462
-1000
-0.000477045
0.00123239
-1000.01
0.00123005
-1000.01
-0.000531363
0.0023045
-1000
-0.00104074
0.00231288
-1000
-0.00139871
0.00229925
-1000
-0.00159316
0.00227409
-1000
-0.00165118
0.00224055
-1000
-0.00151786
0.0022321
-1000
-0.00128527
0.00225725
-1000
-0.000921043
0.00228253
-1000
-0.000477931
0.00230082
-1000
0.00230168
-1000.01
-0.000527989
0.00321669
-1000
-0.00105494
0.00321415
-1000
-0.00142413
0.003174
-1000
-0.00162595
0.00311272
-1000
-0.00165818
0.00304025
-1000
-0.00148593
0.00299357
-1000
-0.00126267
0.00306687
-1000
-0.000902507
0.00311725
-1000
-0.000472813
0.00314914
-1000
0.00315656
-1000
-0.000537214
0.00388577
-999.999
-0.00109347
0.00384059
-1000
-0.00147711
0.0037706
-1000
-0.00167432
0.00367781
-1000
-0.00174591
0.00368608
-1000
-0.00138787
0.00335206
-1000
-0.00120741
0.00353331
-1000
-0.000865934
0.00364179
-1000
-0.000456403
0.00369434
-1000
0.00370648
-1000
-0.000594914
0.00385251
-999.998
-0.00117114
0.00389313
-999.998
-0.00157732
0.00389917
-999.999
-0.00172598
0.00380755
-999.999
-0.00189544
0.00355579
-1000
-0.00126221
0.00423842
-1000
-0.00115641
0.00397905
-1000
-0.00082579
0.00389523
-1000
-0.000441179
0.00387697
-1000
0.00385903
-1000
-0.000553207
0.00348417
-999.997
-0.00114429
0.00354584
-999.997
-0.00156794
0.00367483
-999.997
-0.00194383
0.00385611
-999.998
-0.00151575
0.00412103
-999.998
-0.00154042
0.00373894
-999.999
-0.00118648
0.00379686
-1000
-0.000840111
0.00373514
-1000
-0.000450443
0.00365271
-1000
0.00358802
-1000
-0.000515851
0.00304508
-999.995
-0.00106292
0.00308942
-999.995
-0.00143952
0.00315853
-999.996
-0.00168258
0.00324301
-999.996
-0.00157019
0.00339839
-999.997
-0.00154016
0.00335787
-999.997
-0.00128915
0.00326442
-999.998
-0.000923594
0.00317095
-999.999
-0.000498184
0.00309494
-999.999
0.00304603
-999.999
-0.000471889
0.00223137
-999.994
-0.00097808
0.00226674
-999.994
-0.00132985
0.00232121
-999.994
-0.00154529
0.00238515
-999.995
-0.00166435
0.00246502
-999.996
-0.0016446
0.002448
-999.996
-0.00137377
0.00236503
-999.997
-0.000998875
0.00229243
-999.997
-0.000538906
0.00223894
-999.998
0.00220931
-999.998
-0.000442166
0.00118237
-999.993
-0.000928716
0.00119463
-999.993
-0.00126987
0.00121641
-999.993
-0.00146283
0.00123861
-999.994
-0.00166926
0.00125303
-999.995
-0.0017335
0.0012616
-999.995
-0.00144644
0.00120735
-999.996
-0.00105237
0.00117746
-999.997
-0.000563104
0.00116033
-999.997
0.00115333
-999.997
-0.000431623
-999.992
-0.000905374
-999.993
-0.00124458
-999.993
-0.00143948
-999.994
-0.00165989
-999.994
-0.00178281
-999.995
-0.00147262
-999.996
-0.00106644
-999.996
-0.000565053
-999.997
-999.997
-0.000727232
0.00163073
-1000
-0.00132122
0.00163976
-1000
-0.0017641
0.0016404
-1000
-0.00201143
0.00163883
-1000
-0.00220272
0.0016237
-1000
-0.00212765
0.00162291
-1000.01
-0.00180585
0.00161729
-1000.01
-0.00130664
0.00162119
-1000.01
-0.000690488
0.00162386
-1000.01
0.00161697
-1000.01
-0.000725589
0.00317293
-1000
-0.00132379
0.00317845
-1000
-0.00176938
0.00314874
-1000
-0.00203165
0.00309276
-1000
-0.00220963
0.00301244
-1000
-0.00213743
0.00298501
-1000.01
-0.00180683
0.00300903
-1000.01
-0.00130604
0.00303004
-1000.01
-0.000694983
0.00304872
-1000.01
0.00305399
-1000.01
-0.000727199
0.00440353
-1000
-0.00135442
0.0043953
-1000
-0.0018267
0.00433958
-1000
-0.00211311
0.00424999
-1000
-0.00223459
0.00412095
-1000
-0.00210864
0.00405395
-1000
-0.0017871
0.00411905
-1000
-0.00128767
0.0041633
-1000.01
-0.000683296
0.00419612
-1000.01
0.0042092
-1000.01
-0.000745007
0.00524821
-1000
-0.00140992
0.00521544
-1000
-0.00191224
0.00514972
-1000
-0.00220728
0.00505787
-1000
-0.00234344
0.00501106
-1000
-0.00202695
0.00463744
-1000
-0.00173572
0.00477801
-1000
-0.00125019
0.00488144
-1000
-0.000657179
0.0049311
-1000
0.00494487
-1000
-0.000788635
0.00537056
-999.998
-0.00147662
0.00540526
-999.998
-0.00201596
0.00539256
-999.998
-0.00224087
0.00529382
-999.999
-0.00260408
0.00498165
-1000
-0.00187433
0.00562988
-1000
-0.00170282
0.00541837
-1000
-0.00121751
0.00529602
-1000
-0.000638207
0.00526596
-1000
0.00524104
-1000
-0.000762845
0.00497384
-999.996
-0.00148335
0.00504012
-999.996
-0.00204025
0.0051091
-999.996
-0.00255588
0.00524925
-999.997
-0.00204114
0.00548307
-999.998
-0.0022134
0.00512058
-999.998
-0.0017445
0.00517353
-999.999
-0.00122997
0.00511524
-1000
-0.000646787
0.00503377
-1000
0.00497168
-1000
-0.000712636
0.00430751
-999.994
-0.00142363
0.00435485
-999.994
-0.00195881
0.00440086
-999.994
-0.00234979
0.00446989
-999.995
-0.00221892
0.00455116
-999.996
-0.00220075
0.00449963
-999.997
-0.00183651
0.00442371
-999.998
-0.00131924
0.00433473
-999.998
-0.000694023
0.00426123
-999.999
0.00421683
-999.999
-0.000673622
0.00314343
-999.992
-0.00137212
0.00317458
-999.992
-0.00188922
0.00320715
-999.993
-0.00223626
0.00324665
-999.994
-0.00233111
0.00328658
-999.994
-0.00229252
0.00327479
-999.995
-0.00192119
0.00320412
-999.996
-0.00139168
0.00314058
-999.997
-0.000728874
0.00309533
-999.997
0.0030718
-999.998
-0.000649905
0.00164215
-999.991
-0.00134036
0.00164086
-999.991
-0.00185563
0.00165289
-999.992
-0.00219249
0.00166645
-999.992
-0.00234764
0.00166871
-999.993
-0.00236309
0.00168677
-999.994
-0.00198378
0.00165819
-999.995
-0.00143611
0.00163901
-999.996
-0.000746473
0.00162958
-999.996
0.00162654
-999.996
-0.000653304
-999.99
-0.00132568
-999.991
-0.00183823
-999.991
-0.00217132
-999.992
-0.00233516
-999.993
-0.00238727
-999.994
-0.00199682
-999.994
-0.00144019
-999.995
-0.000742599
-999.995
-999.996
-0.000978098
0.00220289
-1000
-0.00172184
0.00222923
-1000
-0.00232014
0.00223653
-1000.01
-0.00269588
0.00223143
-1000.01
-0.00298309
0.00220534
-1000.01
-0.00292109
0.0021925
-1000.01
-0.00249191
0.00218837
-1000.01
-0.00181296
0.0021848
-1000.01
-0.000966504
0.00218249
-1000.01
0.00217342
-1000.01
-0.00095977
0.00431117
-1000
-0.00171957
0.00431612
-1000
-0.00233055
0.00428558
-1000
-0.00273214
0.00422462
-1000.01
-0.00299851
0.0041495
-1000.01
-0.00293393
0.00410009
-1000.01
-0.00249987
0.00412336
-1000.01
-0.00181862
0.00412973
-1000.01
-0.000972539
0.00414036
-1000.01
0.00414222
-1000.01
-0.000964559
0.00594628
-1000
-0.00175109
0.00594377
-1000
-0.00239038
0.00590063
-1000
-0.00281327
0.00581915
-1000
-0.00303492
0.00572802
-1000
-0.00291514
0.00562301
-1000.01
-0.00249052
0.00567975
-1000.01
-0.00180852
0.00569834
-1000.01
-0.000960913
0.00571698
-1000.01
0.00572119
-1000.01
-0.000981379
0.00699309
-1000
-0.0017973
0.00700175
-1000
-0.00247154
0.00697623
-1000
-0.00291287
0.00691257
-1000
-0.00310472
0.00684007
-1000
-0.00286397
0.00660148
-1000
-0.00246521
0.00665558
-1000
-0.00178821
0.00669669
-1000.01
-0.000939997
0.00672032
-1000.01
0.00671262
-1000.01
-0.000985729
0.00737085
-999.997
-0.00181282
0.00738723
-999.998
-0.00251049
0.00735118
-999.998
-0.00292689
0.00728623
-999.999
-0.00342644
0.00697128
-1000
-0.00279043
0.00748635
-1000
-0.00243196
0.00725525
-1000
-0.00177123
0.00721425
-1000
-0.000933398
0.00718269
-1000
0.00715168
-1000
-0.00099001
0.00701195
-999.995
-0.00186036
0.00706158
-999.995
-0.00261276
0.0070644
-999.995
-0.00316755
0.00708142
-999.996
-0.00282487
0.00714424
-999.997
-0.00304051
0.00695782
-999.998
-0.00251216
0.00698799
-999.999
-0.00179626
0.00694266
-1000
-0.000944996
0.00688744
-1000
0.00684964
-1000
-0.000954358
0.00599337
-999.992
-0.00185311
0.00602322
-999.992
-0.00257207
0.00602029
-999.993
-0.00310237
0.00601869
-999.994
-0.00312467
0.00605494
-999.995
-0.00302212
0.0059724
-999.996
-0.00254523
0.00594865
-999.997
-0.00185061
0.00588454
-999.998
-0.000967371
0.00583515
-999.999
0.00580732
-999.999
-0.000938045
0.0043524
-999.99
-0.00185781
0.00436734
-999.99
-0.00257715
0.00436606
-999.991
-0.00307869
0.00436257
-999.992
-0.00317537
0.00436899
-999.993
-0.00308156
0.00435007
-999.994
-0.00261159
0.00431617
-999.995
-0.00190041
0.00427473
-999.996
-0.000984145
0.00424875
-999.996
0.00423447
-999.997
-0.000932909
0.00226092
-999.988
-0.00185863
0.0022487
-999.988
-0.00258125
0.00224712
-999.989
-0.00307164
0.00225054
-999.99
-0.00320188
0.00226302
-999.991
-0.00311501
0.0022701
-999.992
-0.00265048
0.0022636
-999.993
-0.00192551
0.00225416
-999.994
-0.000990721
0.00225217
-999.995
0.00225377
-999.995
-0.000949106
-999.987
-0.00185549
-999.988
-0.00257274
-999.988
-0.00304939
-999.989
-0.00318838
-999.99
-0.00311411
-999.991
-0.00265106
-999.992
-0.00192009
-999.993
-0.000980105
-999.994
-999.994
-0.00129075
0.00301798
-1000.01
-0.00232724
0.00305108
-1000.01
-0.00318612
0.00305955
-1000.01
-0.00376351
0.00305227
-1000.01
-0.00408201
0.00302892
-1000.01
-0.00396285
0.0030055
-1000.01
-0.00339247
0.00300194
-1000.01
-0.00247532
0.00299038
-1000.01
-0.00131803
0.00298195
-1000.02
0.00297112
-1000.02
-0.00126933
0.00584646
-1000
-0.00232655
0.00585539
-1000.01
-0.00320144
0.00583801
-1000.01
-0.00380034
0.005798
-1000.01
-0.00410884
0.0057622
-1000.01
-0.00398051
0.00570125
-1000.01
-0.00340987
0.00571815
-1000.01
-0.00248882
0.00570374
-1000.01
-0.00132386
0.00569826
-1000.01
0.00568887
-1000.01
-0.00127371
0.00803626
-1000
-0.00234506
0.00804873
-1000
-0.00323788
0.00803641
-1000
-0.00384382
0.00799165
-1000.01
-0.00415435
0.00798425
-1000.01
-0.00397437
0.00783828
-1000.01
-0.00341894
0.00789787
-1000.01
-0.00249434
0.00788186
-1000.01
-0.00131969
0.00787322
-1000.01
0.00785627
-1000.01
-0.00128174
0.00939878
-1000
-0.00236285
0.00944911
-1000
-0.00327832
0.00947446
-1000
-0.00389496
0.00945694
-1000
-0.00417363
0.00942798
-1000
-0.003963
0.00929826
-1000.01
-0.00342833
0.00927182
-1000.01
-0.00250414
0.00926583
-1000.01
-0.00131707
0.00924874
-1000.01
0.00920863
-1000.01
-0.00124864
0.0100263
-999.996
-0.00232734
0.0100278
-999.997
-0.0032191
0.00997503
-999.997
-0.00386184
0.00994111
-999.999
-0.00455912
0.00964213
-1000
-0.00397551
0.0101607
-1000
-0.00339727
0.00986238
-1000
-0.0025192
0.00985635
-1000
-0.00133551
0.00982334
-1000.01
0.00978473
-1000.01
-0.00127614
0.00967059
-999.993
-0.0023926
0.00969022
-999.993
-0.00337433
0.00963382
-999.994
-0.00402831
0.00956984
-999.995
-0.00387508
0.00950695
-999.996
-0.00414229
0.00939173
-999.998
-0.00351242
0.00942478
-999.999
-0.00255551
0.00941408
-1000
-0.00135371
0.00940022
-1000
0.00939266
-1000
-0.00127485
0.00819668
-999.989
-0.00243719
0.00820096
-999.99
-0.00338525
0.00815403
-999.99
-0.00406919
0.00809486
-999.992
-0.00426919
0.00810533
-999.993
-0.00410047
0.00797961
-999.994
-0.00349448
0.00802272
-999.996
-0.0025617
0.00798893
-999.997
-0.00133756
0.00797289
-999.998
0.0079611
-999.999
-0.00128939
0.00593386
-999.986
-0.00248812
0.00593128
-999.987
-0.00344785
0.00590298
-999.988
-0.00410589
0.00586858
-999.989
-0.00428086
0.00586242
-999.99
-0.00413532
0.0058302
-999.992
-0.00353309
0.00582787
-999.993
-0.00258061
0.00580958
-999.994
-0.0013341
0.00580494
-999.995
0.00579776
-999.996
-0.00130528
0.00308436
-999.984
-0.00251548
0.00306876
-999.985
-0.00347927
0.00305901
-999.985
-0.00411926
0.00305518
-999.987
-0.00431171
0.00306886
-999.988
-0.00414092
0.00306787
-999.99
-0.00354729
0.00306984
-999.991
-0.00258499
0.00306888
-999.992
-0.00132982
0.00307612
-999.993
0.00308486
-999.994
-0.00132521
-999.983
-0.00251929
-999.983
-0.00347596
-999.984
-0.00409739
-999.986
-0.00429986
-999.987
-0.00412981
-999.988
-0.00353706
-999.99
-0.0025693
-999.991
-0.00130984
-999.992
-999.992
-0.00171462
0.00416299
-1000.01