/*--------------------------------*- C++ -*----------------------------------*\
  =========                 |
  \\      /  F ield         | OpenFOAM: The Open Source CFD Toolbox
   \\    /   O peration     | Website:  https://openfoam.org
    \\  /    A nd           | Version:  9
     \\/     M anipulation  |
\*---------------------------------------------------------------------------*/
FoamFile
{
    format      ascii;
    class       volVectorField;
    location    "30000";
    object      stored_U;
}
// * * * * * * * * * * * * * * * * * * * * * * * * * * * * * * * * * * * * * //

dimensions      [0 1 -1 0 0 0 0];

internalField   nonuniform List<vector> 
9000
(
(-1.61747e-11 2.46404e-11 -0.000999996)
(-3.47329e-11 2.86402e-11 -0.000999996)
(-4.92012e-11 3.00321e-11 -0.000999996)
(-6.2495e-11 3.16687e-11 -0.000999996)
(-8.0346e-11 3.05659e-11 -0.000999996)
(-8.97715e-11 2.97881e-11 -0.000999996)
(-8.50139e-11 2.59473e-11 -0.000999996)
(-7.45989e-11 2.42364e-11 -0.000999996)
(-4.6124e-11 2.30315e-11 -0.000999997)
(-1.52548e-11 2.30378e-11 -0.000999997)
(-1.22541e-11 7.74007e-11 -0.000999995)
(-2.94468e-11 8.3177e-11 -0.000999995)
(-4.62467e-11 8.27384e-11 -0.000999996)
(-6.21526e-11 8.52004e-11 -0.000999996)
(-8.25246e-11 8.15855e-11 -0.000999996)
(-9.46708e-11 8.6526e-11 -0.000999996)
(-9.07992e-11 7.77402e-11 -0.000999996)
(-7.76702e-11 7.50486e-11 -0.000999996)
(-4.73662e-11 7.24237e-11 -0.000999996)
(-1.52308e-11 7.23941e-11 -0.000999997)
(-1.05878e-11 1.25255e-10 -0.000999995)
(-2.96205e-11 1.2922e-10 -0.000999995)
(-4.72748e-11 1.28769e-10 -0.000999995)
(-6.38376e-11 1.2812e-10 -0.000999995)
(-7.9268e-11 1.36337e-10 -0.000999996)
(-9.38856e-11 1.28373e-10 -0.000999996)
(-9.66859e-11 1.21213e-10 -0.000999996)
(-8.00559e-11 1.17465e-10 -0.000999996)
(-4.87235e-11 1.16751e-10 -0.000999996)
(-1.51692e-11 1.173e-10 -0.000999996)
(-8.55512e-12 1.62407e-10 -0.000999995)
(-2.62014e-11 1.63303e-10 -0.000999995)
(-4.73559e-11 1.59444e-10 -0.000999995)
(-5.45895e-11 1.6091e-10 -0.000999995)
(-8.234e-11 1.71254e-10 -0.000999995)
(-1.09801e-10 1.54133e-10 -0.000999995)
(-1.01654e-10 1.43159e-10 -0.000999996)
(-8.21287e-11 1.42599e-10 -0.000999996)
(-4.73027e-11 1.44728e-10 -0.000999996)
(-1.44608e-11 1.46426e-10 -0.000999996)
(-1.00472e-11 1.69428e-10 -0.000999995)
(-3.29361e-11 1.69853e-10 -0.000999995)
(-4.96778e-11 1.69693e-10 -0.000999995)
(-5.20325e-11 1.56417e-10 -0.000999995)
(-8.61031e-11 1.42228e-10 -0.000999995)
(-1.2195e-10 1.66248e-10 -0.000999995)
(-1.08263e-10 1.6176e-10 -0.000999995)
(-7.84765e-11 1.54673e-10 -0.000999996)
(-4.46107e-11 1.60149e-10 -0.000999996)
(-1.32079e-11 1.60416e-10 -0.000999996)
(-8.4627e-12 1.49256e-10 -0.000999994)
(-2.62996e-11 1.49286e-10 -0.000999994)
(-6.08052e-11 1.47002e-10 -0.000999994)
(-8.21673e-11 1.34691e-10 -0.000999995)
(-7.25525e-11 1.11578e-10 -0.000999995)
(-9.03562e-11 1.39245e-10 -0.000999995)
(-1.13235e-10 1.49441e-10 -0.000999995)
(-8.36831e-11 1.52408e-10 -0.000999995)
(-4.12121e-11 1.57637e-10 -0.000999995)
(-1.38492e-11 1.55133e-10 -0.000999995)
(-1.02732e-11 1.30939e-10 -0.000999994)
(-3.54799e-11 1.28264e-10 -0.000999994)
(-6.42797e-11 1.19211e-10 -0.000999994)
(-8.75656e-11 1.20159e-10 -0.000999994)
(-8.16214e-11 1.16344e-10 -0.000999995)
(-8.4007e-11 9.74253e-11 -0.000999995)
(-9.49378e-11 1.15419e-10 -0.000999995)
(-7.02302e-11 1.33963e-10 -0.000999995)
(-4.15364e-11 1.37049e-10 -0.000999995)
(-1.53489e-11 1.35633e-10 -0.000999995)
(-1.13778e-11 1.04211e-10 -0.000999994)
(-3.82702e-11 1.01676e-10 -0.000999994)
(-6.89157e-11 9.82046e-11 -0.000999994)
(-8.50357e-11 9.33844e-11 -0.000999994)
(-9.52531e-11 9.5647e-11 -0.000999994)
(-9.114e-11 8.03533e-11 -0.000999994)
(-7.66818e-11 9.56397e-11 -0.000999995)
(-6.2035e-11 1.04991e-10 -0.000999995)
(-3.92446e-11 1.07456e-10 -0.000999995)
(-1.49699e-11 1.08678e-10 -0.000999995)
(-1.30061e-11 6.52429e-11 -0.000999994)
(-4.16912e-11 6.37567e-11 -0.000999994)
(-7.25735e-11 6.15457e-11 -0.000999994)
(-9.01196e-11 5.88108e-11 -0.000999994)
(-9.46466e-11 5.66768e-11 -0.000999994)
(-8.40022e-11 5.83668e-11 -0.000999994)
(-7.02908e-11 6.5594e-11 -0.000999994)
(-5.84052e-11 6.8663e-11 -0.000999995)
(-3.7621e-11 6.9567e-11 -0.000999995)
(-1.39046e-11 7.15336e-11 -0.000999995)
(-1.29552e-11 2.22648e-11 -0.000999994)
(-4.20154e-11 2.23345e-11 -0.000999994)
(-7.37325e-11 2.19135e-11 -0.000999994)
(-8.97006e-11 2.10541e-11 -0.000999994)
(-9.55452e-11 2.21104e-11 -0.000999994)
(-8.20985e-11 2.00304e-11 -0.000999994)
(-6.62368e-11 2.3906e-11 -0.000999994)
(-5.79354e-11 2.39072e-11 -0.000999995)
(-3.61473e-11 2.42572e-11 -0.000999995)
(-1.28413e-11 2.5247e-11 -0.000999995)
(-4.11188e-11 7.7238e-11 -0.000999996)
(-9.49704e-11 8.71237e-11 -0.000999996)
(-1.40847e-10 8.77796e-11 -0.000999996)
(-1.87635e-10 8.9882e-11 -0.000999996)
(-2.38658e-10 8.75808e-11 -0.000999996)
(-2.62135e-10 8.63271e-11 -0.000999996)
(-2.50035e-10 7.61564e-11 -0.000999996)
(-2.16611e-10 7.10355e-11 -0.000999997)
(-1.3467e-10 6.78317e-11 -0.000999997)
(-4.39313e-11 6.75377e-11 -0.000999997)
(-3.14497e-11 2.32442e-10 -0.000999995)
(-8.47236e-11 2.46041e-10 -0.000999996)
(-1.38341e-10 2.43126e-10 -0.000999996)
(-1.88411e-10 2.43529e-10 -0.000999996)
(-2.43009e-10 2.37274e-10 -0.000999996)
(-2.7423e-10 2.50375e-10 -0.000999996)
(-2.65879e-10 2.2715e-10 -0.000999996)
(-2.25352e-10 2.18215e-10 -0.000999996)
(-1.38272e-10 2.13615e-10 -0.000999997)
(-4.41724e-11 2.13115e-10 -0.000999997)
(-2.80328e-11 3.66708e-10 -0.000999995)
(-8.49032e-11 3.73034e-10 -0.000999995)
(-1.43653e-10 3.70556e-10 -0.000999995)
(-1.94019e-10 3.62592e-10 -0.000999996)
(-2.32475e-10 3.76556e-10 -0.000999996)
(-2.7275e-10 3.72886e-10 -0.000999996)
(-2.82677e-10 3.46054e-10 -0.000999996)
(-2.30539e-10 3.39731e-10 -0.000999996)
(-1.3959e-10 3.41379e-10 -0.000999996)
(-4.40948e-11 3.42347e-10 -0.000999996)
(-2.58388e-11 4.69522e-10 -0.000999995)
(-8.16138e-11 4.66414e-10 -0.000999995)
(-1.48807e-10 4.54898e-10 -0.000999995)
(-1.82426e-10 4.47084e-10 -0.000999995)
(-2.32669e-10 4.57484e-10 -0.000999995)
(-3.04742e-10 4.62499e-10 -0.000999996)
(-2.99101e-10 4.17591e-10 -0.000999996)
(-2.3002e-10 4.13476e-10 -0.000999996)
(-1.34996e-10 4.18766e-10 -0.000999996)
(-4.25535e-11 4.20967e-10 -0.000999996)
(-3.2069e-11 4.93319e-10 -0.000999995)
(-1.00477e-10 4.939e-10 -0.000999995)
(-1.63004e-10 4.9479e-10 -0.000999995)
(-1.91429e-10 4.79457e-10 -0.000999995)
(-2.17076e-10 4.54033e-10 -0.000999995)
(-3.12781e-10 4.45802e-10 -0.000999995)
(-3.31737e-10 4.71324e-10 -0.000999995)
(-2.29349e-10 4.62872e-10 -0.000999996)
(-1.31263e-10 4.7105e-10 -0.000999996)
(-4.10937e-11 4.66753e-10 -0.000999996)
(-2.62016e-11 4.45095e-10 -0.000999994)
(-8.11429e-11 4.45865e-10 -0.000999994)
(-1.6327e-10 4.43118e-10 -0.000999994)
(-2.23087e-10 4.2472e-10 -0.000999995)
(-2.66438e-10 3.83525e-10 -0.000999995)
(-2.87464e-10 3.96467e-10 -0.000999995)
(-2.8188e-10 4.51697e-10 -0.000999995)
(-2.30244e-10 4.62155e-10 -0.000999995)
(-1.30164e-10 4.71768e-10 -0.000999995)
(-4.58525e-11 4.64991e-10 -0.000999996)
(-3.20664e-11 3.92983e-10 -0.000999994)
(-1.033e-10 3.84574e-10 -0.000999994)
(-1.84178e-10 3.6389e-10 -0.000999994)
(-2.51274e-10 3.53874e-10 -0.000999994)
(-2.45331e-10 3.36196e-10 -0.000999994)
(-2.44298e-10 3.50067e-10 -0.000999995)
(-2.65994e-10 3.68437e-10 -0.000999995)
(-2.09292e-10 3.99945e-10 -0.000999995)
(-1.27484e-10 4.09183e-10 -0.000999995)
(-4.68818e-11 4.10234e-10 -0.000999995)
(-3.52994e-11 3.13338e-10 -0.000999994)
(-1.10949e-10 3.09232e-10 -0.000999994)
(-1.93987e-10 2.99527e-10 -0.000999994)
(-2.50807e-10 2.91226e-10 -0.000999994)
(-2.70235e-10 2.90693e-10 -0.000999994)
(-2.55327e-10 2.62567e-10 -0.000999994)
(-2.32032e-10 2.89977e-10 -0.000999995)
(-1.89492e-10 3.13188e-10 -0.000999995)
(-1.19057e-10 3.21387e-10 -0.000999995)
(-4.40207e-11 3.27405e-10 -0.000999995)
(-3.67728e-11 1.99623e-10 -0.000999994)
(-1.177e-10 1.98487e-10 -0.000999994)
(-2.02186e-10 1.91627e-10 -0.000999994)
(-2.60098e-10 1.87262e-10 -0.000999994)
(-2.73962e-10 1.84709e-10 -0.000999994)
(-2.44959e-10 1.79469e-10 -0.000999994)
(-2.15366e-10 1.96675e-10 -0.000999994)
(-1.77858e-10 2.06701e-10 -0.000999995)
(-1.12638e-10 2.10508e-10 -0.000999995)
(-4.0273e-11 2.17014e-10 -0.000999995)
(-3.67036e-11 6.95329e-11 -0.000999993)
(-1.19085e-10 6.96598e-11 -0.000999993)
(-2.04844e-10 6.8093e-11 -0.000999994)
(-2.57173e-10 6.66465e-11 -0.000999994)
(-2.77422e-10 7.03958e-11 -0.000999994)
(-2.42729e-10 6.2593e-11 -0.000999994)
(-2.04281e-10 7.20568e-11 -0.000999994)
(-1.75292e-10 7.31375e-11 -0.000999994)
(-1.08105e-10 7.42929e-11 -0.000999995)
(-3.70529e-11 7.72922e-11 -0.000999995)
(-5.91774e-11 1.4442e-10 -0.000999996)
(-1.57111e-10 1.52177e-10 -0.000999996)
(-2.47323e-10 1.50734e-10 -0.000999996)
(-3.36613e-10 1.49119e-10 -0.000999996)
(-4.22375e-10 1.48251e-10 -0.000999996)
(-4.59685e-10 1.43777e-10 -0.000999996)
(-4.37751e-10 1.32061e-10 -0.000999997)
(-3.70154e-10 1.23825e-10 -0.000999997)
(-2.33772e-10 1.1967e-10 -0.000999997)
(-7.66926e-11 1.20909e-10 -0.000999997)
(-5.18246e-11 4.1647e-10 -0.000999996)
(-1.51495e-10 4.26054e-10 -0.000999996)
(-2.5102e-10 4.2213e-10 -0.000999996)
(-3.39963e-10 4.15074e-10 -0.000999996)
(-4.28833e-10 4.09915e-10 -0.000999996)
(-4.76923e-10 4.18572e-10 -0.000999996)
(-4.58577e-10 3.9306e-10 -0.000999997)
(-3.83305e-10 3.81692e-10 -0.000999997)
(-2.36894e-10 3.76981e-10 -0.000999997)
(-7.53544e-11 3.76249e-10 -0.000999997)
(-5.04934e-11 6.37859e-10 -0.000999995)
(-1.52631e-10 6.39745e-10 -0.000999995)
(-2.58891e-10 6.36617e-10 -0.000999995)
(-3.49627e-10 6.14651e-10 -0.000999996)
(-4.19888e-10 6.20149e-10 -0.000999996)
(-4.77487e-10 6.3477e-10 -0.000999996)
(-4.7545e-10 6.069e-10 -0.000999996)
(-3.8695e-10 5.95086e-10 -0.000999996)
(-2.38893e-10 5.99776e-10 -0.000999997)
(-7.6785e-11 5.98336e-10 -0.000999997)
(-5.11376e-11 8.04084e-10 -0.000999995)
(-1.54006e-10 7.97333e-10 -0.000999995)
(-2.76164e-10 7.8406e-10 -0.000999995)
(-3.56512e-10 7.51222e-10 -0.000999995)
(-4.0877e-10 7.16071e-10 -0.000999995)
(-4.90109e-10 8.41032e-10 -0.000999996)
(-4.98256e-10 7.69908e-10 -0.000999996)
(-3.90415e-10 7.3359e-10 -0.000999996)
(-2.32443e-10 7.34473e-10 -0.000999996)
(-7.55845e-11 7.30377e-10 -0.000999996)
(-5.87188e-11 8.55332e-10 -0.000999995)
(-1.7423e-10 8.56434e-10 -0.000999995)
(-3.05112e-10 8.59619e-10 -0.000999995)
(-4.1766e-10 8.72161e-10 -0.000999995)
(-3.29986e-10 8.79998e-10 -0.000999995)
(-4.23371e-10 7.38147e-10 -0.000999995)
(-5.82803e-10 7.89743e-10 -0.000999995)
(-4.22352e-10 8.15535e-10 -0.000999996)
(-2.4062e-10 8.27092e-10 -0.000999996)
(-7.94164e-11 8.16955e-10 -0.000999996)
(-5.16481e-11 8.05427e-10 -0.000999994)
(-1.51468e-10 8.05358e-10 -0.000999994)
(-2.60558e-10 8.03967e-10 -0.000999994)
(-3.36118e-10 8.07895e-10 -0.000999994)
(-5.42561e-10 8.29297e-10 -0.000999995)
(-5.80234e-10 6.56718e-10 -0.000999995)
(-4.21008e-10 7.74553e-10 -0.000999995)
(-3.53105e-10 8.26608e-10 -0.000999995)
(-2.29354e-10 8.44643e-10 -0.000999995)
(-8.40093e-11 8.42542e-10 -0.000999996)
(-6.03074e-11 7.19741e-10 -0.000999994)
(-1.77327e-10 7.11635e-10 -0.000999994)
(-3.02664e-10 6.82803e-10 -0.000999994)
(-3.92159e-10 6.49744e-10 -0.000999994)
(-4.80944e-10 6.02488e-10 -0.000999994)
(-4.78406e-10 7.25742e-10 -0.000999995)
(-4.13132e-10 7.30419e-10 -0.000999995)
(-3.52228e-10 7.38947e-10 -0.000999995)
(-2.23058e-10 7.46172e-10 -0.000999995)
(-7.98967e-11 7.53721e-10 -0.000999995)
(-6.10893e-11 5.71475e-10 -0.000999993)
(-1.89769e-10 5.7005e-10 -0.000999993)
(-3.22443e-10 5.52149e-10 -0.000999994)
(-4.16348e-10 5.40013e-10 -0.000999994)
(-4.66558e-10 5.117e-10 -0.000999994)
(-4.52339e-10 5.51878e-10 -0.000999994)
(-4.07769e-10 5.54564e-10 -0.000999994)
(-3.37316e-10 5.74012e-10 -0.000999995)
(-2.13148e-10 5.84315e-10 -0.000999995)
(-7.51114e-11 5.93245e-10 -0.000999995)
(-6.27699e-11 3.70435e-10 -0.000999993)
(-1.97684e-10 3.66046e-10 -0.000999993)
(-3.32687e-10 3.58516e-10 -0.000999993)
(-4.32586e-10 3.53604e-10 -0.000999994)
(-4.69074e-10 3.42639e-10 -0.000999994)
(-4.35526e-10 3.47532e-10 -0.000999994)
(-3.90978e-10 3.63949e-10 -0.000999994)
(-3.22435e-10 3.76447e-10 -0.000999994)
(-2.02685e-10 3.84292e-10 -0.000999994)
(-6.98822e-11 3.92442e-10 -0.000999995)
(-6.60265e-11 1.30529e-10 -0.000999993)
(-2.02034e-10 1.27403e-10 -0.000999993)
(-3.34248e-10 1.26089e-10 -0.000999993)
(-4.31333e-10 1.25197e-10 -0.000999993)
(-4.71661e-10 1.26402e-10 -0.000999994)
(-4.30113e-10 1.21665e-10 -0.000999994)
(-3.78023e-10 1.30908e-10 -0.000999994)
(-3.16325e-10 1.33774e-10 -0.000999994)
(-1.96001e-10 1.36412e-10 -0.000999994)
(-6.60979e-11 1.39813e-10 -0.000999994)
(-8.04794e-11 2.2505e-10 -0.000999996)
(-2.35256e-10 2.27777e-10 -0.000999996)
(-3.87728e-10 2.2519e-10 -0.000999996)
(-5.16011e-10 2.22251e-10 -0.000999996)
(-6.35629e-10 2.20924e-10 -0.000999997)
(-6.94661e-10 2.092e-10 -0.000999997)
(-6.54101e-10 2.01631e-10 -0.000999997)
(-5.41985e-10 1.91933e-10 -0.000999997)
(-3.47102e-10 1.88389e-10 -0.000999997)
(-1.16919e-10 1.90642e-10 -0.000999998)
(-7.83341e-11 6.35104e-10 -0.000999996)
(-2.36088e-10 6.37907e-10 -0.000999996)
(-3.94131e-10 6.34066e-10 -0.000999996)
(-5.21407e-10 6.24865e-10 -0.000999996)
(-6.50069e-10 6.2526e-10 -0.000999996)
(-7.15401e-10 6.034e-10 -0.000999997)
(-6.72742e-10 5.96588e-10 -0.000999997)
(-5.56403e-10 5.8382e-10 -0.000999997)
(-3.48702e-10 5.79352e-10 -0.000999997)
(-1.14518e-10 5.79594e-10 -0.000999997)
(-7.89758e-11 9.61218e-10 -0.000999995)
(-2.38007e-10 9.5936e-10 -0.000999996)
(-4.01616e-10 9.60528e-10 -0.000999996)
(-5.25867e-10 9.35771e-10 -0.000999996)
(-6.58365e-10 9.47866e-10 -0.000999996)
(-7.2472e-10 9.29826e-10 -0.000999996)
(-6.7499e-10 9.31575e-10 -0.000999997)
(-5.60323e-10 9.13932e-10 -0.000999997)
(-3.50852e-10 9.15702e-10 -0.000999997)
(-1.15749e-10 9.13827e-10 -0.000999997)
(-8.19674e-11 1.20442e-09 -0.000999995)
(-2.3867e-10 1.19938e-09 -0.000999995)
(-4.17788e-10 1.20182e-09 -0.000999995)
(-5.34047e-10 1.16048e-09 -0.000999995)
(-6.55993e-10 1.15377e-09 -0.000999996)
(-7.31807e-10 1.20148e-09 -0.000999996)
(-6.88677e-10 1.19858e-09 -0.000999996)
(-5.72258e-10 1.14226e-09 -0.000999996)
(-3.47001e-10 1.13093e-09 -0.000999997)
(-1.14594e-10 1.12438e-09 -0.000999997)
(-8.62056e-11 1.30295e-09 -0.000999995)
(-2.42973e-10 1.2992e-09 -0.000999995)
(-4.4056e-10 1.2952e-09 -0.000999995)
(-5.73824e-10 1.30853e-09 -0.000999995)
(-6.17372e-10 1.25239e-09 -0.000999995)
(-6.80179e-10 1.25759e-09 -0.000999996)
(-7.34206e-10 1.20501e-09 -0.000999996)
(-6.27947e-10 1.25099e-09 -0.000999996)
(-3.66531e-10 1.26311e-09 -0.000999996)
(-1.20114e-10 1.25643e-09 -0.000999996)
(-8.82351e-11 1.26447e-09 -0.000999994)
(-2.4897e-10 1.26461e-09 -0.000999994)
(-4.08406e-10 1.24657e-09 -0.000999994)
(-5.76869e-10 1.26713e-09 -0.000999994)
(-7.07147e-10 1.26045e-09 -0.000999995)
(-7.79186e-10 1.14649e-09 -0.000999995)
(-6.95201e-10 1.18925e-09 -0.000999995)
(-5.1412e-10 1.27426e-09 -0.000999995)
(-3.39116e-10 1.3041e-09 -0.000999995)
(-1.1884e-10 1.30715e-09 -0.000999996)
(-8.85442e-11 1.14086e-09 -0.000999993)
(-2.63328e-10 1.13785e-09 -0.000999994)
(-4.38061e-10 1.11116e-09 -0.000999994)
(-5.59777e-10 1.08237e-09 -0.000999994)
(-7.38164e-10 1.09386e-09 -0.000999994)
(-7.51444e-10 1.09445e-09 -0.000999994)
(-6.06371e-10 1.17405e-09 -0.000999995)
(-5.12965e-10 1.17063e-09 -0.000999995)
(-3.31151e-10 1.17773e-09 -0.000999995)
(-1.1464e-10 1.18333e-09 -0.000999995)
(-9.33383e-11 9.07435e-10 -0.000999993)
(-2.80857e-10 9.00557e-10 -0.000999993)
(-4.63982e-10 8.8091e-10 -0.000999993)
(-5.94222e-10 8.62101e-10 -0.000999993)
(-6.95119e-10 8.24218e-10 -0.000999994)
(-6.98963e-10 9.08818e-10 -0.000999994)
(-6.18958e-10 9.03436e-10 -0.000999994)
(-5.10379e-10 9.09608e-10 -0.000999994)
(-3.24175e-10 9.19368e-10 -0.000999995)
(-1.11061e-10 9.26365e-10 -0.000999995)
(-9.70926e-11 5.84943e-10 -0.000999993)
(-2.91614e-10 5.79768e-10 -0.000999993)
(-4.76568e-10 5.69555e-10 -0.000999993)
(-6.16446e-10 5.62868e-10 -0.000999993)
(-6.91418e-10 5.42794e-10 -0.000999993)
(-6.72229e-10 5.66277e-10 -0.000999994)
(-6.05551e-10 5.80423e-10 -0.000999994)
(-4.96971e-10 5.9131e-10 -0.000999994)
(-3.12574e-10 6.02274e-10 -0.000999994)
(-1.05869e-10 6.10598e-10 -0.000999994)
(-9.93784e-11 2.03756e-10 -0.000999993)
(-2.96797e-10 2.01661e-10 -0.000999993)
(-4.7995e-10 1.98421e-10 -0.000999993)
(-6.19734e-10 1.97334e-10 -0.000999993)
(-6.90318e-10 1.93893e-10 -0.000999993)
(-6.59943e-10 1.9706e-10 -0.000999993)
(-5.92692e-10 2.04786e-10 -0.000999994)
(-4.87545e-10 2.08702e-10 -0.000999994)
(-3.03095e-10 2.13287e-10 -0.000999994)
(-1.01366e-10 2.17216e-10 -0.000999994)
(-1.11648e-10 3.23629e-10 -0.000999996)
(-3.46516e-10 3.21752e-10 -0.000999996)
(-5.72247e-10 3.21317e-10 -0.000999997)
(-7.3901e-10 3.17794e-10 -0.000999997)
(-8.87415e-10 3.14501e-10 -0.000999997)
(-9.73804e-10 2.97742e-10 -0.000999997)
(-9.1532e-10 2.93943e-10 -0.000999998)
(-7.40823e-10 2.85804e-10 -0.000999998)
(-4.75119e-10 2.82445e-10 -0.000999998)
(-1.61353e-10 2.85465e-10 -0.000999998)
(-1.14346e-10 9.09486e-10 -0.000999996)
(-3.5016e-10 9.06653e-10 -0.000999996)
(-5.77308e-10 9.05965e-10 -0.000999996)
(-7.47231e-10 8.98012e-10 -0.000999997)
(-9.09217e-10 9.00915e-10 -0.000999997)
(-9.96386e-10 8.51078e-10 -0.000999997)
(-9.29243e-10 8.62643e-10 -0.000999997)
(-7.53965e-10 8.51417e-10 -0.000999998)
(-4.75888e-10 8.47432e-10 -0.000999998)
(-1.5811e-10 8.49134e-10 -0.000999998)
(-1.1636e-10 1.37767e-09 -0.000999996)
(-3.52481e-10 1.37645e-09 -0.000999996)
(-5.82018e-10 1.38029e-09 -0.000999996)
(-7.45448e-10 1.36992e-09 -0.000999996)
(-9.36058e-10 1.39659e-09 -0.000999996)
(-1.01405e-09 1.29897e-09 -0.000999997)
(-9.16915e-10 1.34734e-09 -0.000999997)
(-7.57617e-10 1.33485e-09 -0.000999997)
(-4.76729e-10 1.33174e-09 -0.000999997)
(-1.58362e-10 1.3289e-09 -0.000999998)
(-1.18173e-10 1.72489e-09 -0.000999995)
(-3.50277e-10 1.72656e-09 -0.000999995)
(-5.83908e-10 1.74571e-09 -0.000999995)
(-7.30942e-10 1.73977e-09 -0.000999996)
(-9.80223e-10 1.81624e-09 -0.000999996)
(-1.04568e-09 1.59974e-09 -0.000999996)
(-8.93409e-10 1.69458e-09 -0.000999996)
(-7.69545e-10 1.66974e-09 -0.000999997)
(-4.79243e-10 1.65843e-09 -0.000999997)
(-1.58404e-10 1.64894e-09 -0.000999997)
(-1.17916e-10 1.89502e-09 -0.000999994)
(-3.34993e-10 1.8929e-09 -0.000999994)
(-5.68797e-10 1.87811e-09 -0.000999995)
(-6.74956e-10 1.84949e-09 -0.000999995)
(-1.0761e-09 1.66901e-09 -0.000999995)
(-1.13574e-09 2.05267e-09 -0.000999996)
(-8.46922e-10 1.83297e-09 -0.000999996)
(-7.93671e-10 1.83811e-09 -0.000999996)
(-4.94211e-10 1.84304e-09 -0.000999996)
(-1.64609e-10 1.83457e-09 -0.000999996)
(-1.23972e-10 1.86743e-09 -0.000999994)
(-3.70922e-10 1.86241e-09 -0.000999994)
(-6.27437e-10 1.83295e-09 -0.000999994)
(-9.40172e-10 1.82143e-09 -0.000999994)
(-7.77364e-10 1.69325e-09 -0.000999995)
(-8.81745e-10 1.93242e-09 -0.000999994)
(-1.10776e-09 1.82257e-09 -0.000999995)
(-7.59364e-10 1.86911e-09 -0.000999995)
(-4.79074e-10 1.89382e-09 -0.000999996)
(-1.6324e-10 1.89875e-09 -0.000999996)
(-1.26532e-10 1.68326e-09 -0.000999993)
(-3.73142e-10 1.67811e-09 -0.000999993)
(-6.09862e-10 1.6651e-09 -0.000999993)
(-8.14856e-10 1.66955e-09 -0.000999993)
(-9.65192e-10 1.78639e-09 -0.000999994)
(-1.00614e-09 1.49081e-09 -0.000999994)
(-9.1024e-10 1.68022e-09 -0.000999994)
(-7.22407e-10 1.70789e-09 -0.000999995)
(-4.60901e-10 1.72187e-09 -0.000999995)
(-1.56089e-10 1.72932e-09 -0.000999995)
(-1.3217e-10 1.33957e-09 -0.000999992)
(-3.92271e-10 1.33116e-09 -0.000999992)
(-6.36097e-10 1.3086e-09 -0.000999993)
(-8.18938e-10 1.28761e-09 -0.000999993)
(-9.55899e-10 1.28537e-09 -0.000999993)
(-9.87819e-10 1.30085e-09 -0.000999993)
(-8.90746e-10 1.33083e-09 -0.000999994)
(-7.17601e-10 1.33981e-09 -0.000999994)
(-4.5435e-10 1.35004e-09 -0.000999994)
(-1.52561e-10 1.35638e-09 -0.000999994)
(-1.37401e-10 8.58872e-10 -0.000999992)
(-4.06662e-10 8.52001e-10 -0.000999992)
(-6.53446e-10 8.39095e-10 -0.000999992)
(-8.38022e-10 8.28557e-10 -0.000999992)
(-9.51886e-10 8.14117e-10 -0.000999993)
(-9.60641e-10 8.33999e-10 -0.000999993)
(-8.71228e-10 8.54587e-10 -0.000999993)
(-7.03112e-10 8.6804e-10 -0.000999994)
(-4.4162e-10 8.81575e-10 -0.000999994)
(-1.47082e-10 8.92248e-10 -0.000999994)
(-1.40339e-10 2.97226e-10 -0.000999992)
(-4.12886e-10 2.94574e-10 -0.000999992)
(-6.58272e-10 2.90786e-10 -0.000999992)
(-8.42226e-10 2.88469e-10 -0.000999992)
(-9.48581e-10 2.84921e-10 -0.000999993)
(-9.45449e-10 2.89925e-10 -0.000999993)
(-8.54976e-10 2.98238e-10 -0.000999993)
(-6.89243e-10 3.04498e-10 -0.000999993)
(-4.27545e-10 3.10814e-10 -0.000999994)
(-1.39854e-10 3.17133e-10 -0.000999994)
(-1.59632e-10 4.51247e-10 -0.000999997)
(-4.93303e-10 4.47176e-10 -0.000999997)
(-8.05444e-10 4.46362e-10 -0.000999997)
(-1.03506e-09 4.42034e-10 -0.000999997)
(-1.20858e-09 4.34361e-10 -0.000999998)
(-1.31062e-09 4.25005e-10 -0.000999998)
(-1.22949e-09 4.21473e-10 -0.000999999)
(-9.76484e-10 4.15191e-10 -0.000999999)
(-6.25249e-10 4.12204e-10 -0.000999999)
(-2.1278e-10 4.1443e-10 -0.000999999)
(-1.64858e-10 1.27311e-09 -0.000999996)
(-5.00004e-10 1.26799e-09 -0.000999997)
(-8.12063e-10 1.26595e-09 -0.000999997)
(-1.04897e-09 1.25765e-09 -0.000999997)
(-1.22788e-09 1.25594e-09 -0.000999997)
(-1.32612e-09 1.2164e-09 -0.000999998)
(-1.2419e-09 1.22769e-09 -0.000999998)
(-9.87785e-10 1.21844e-09 -0.000999999)
(-6.26463e-10 1.21295e-09 -0.000999999)
(-2.10176e-10 1.21247e-09 -0.000999999)
(-1.67464e-10 1.93915e-09 -0.000999996)
(-5.03903e-10 1.93901e-09 -0.000999996)
(-8.17343e-10 1.94207e-09 -0.000999996)
(-1.04701e-09 1.94138e-09 -0.000999997)
(-1.25212e-09 1.98413e-09 -0.000999997)
(-1.34149e-09 1.84154e-09 -0.000999997)
(-1.23002e-09 1.90753e-09 -0.000999998)
(-9.93192e-10 1.90361e-09 -0.000999998)
(-6.30067e-10 1.89548e-09 -0.000999998)
(-2.11327e-10 1.88843e-09 -0.000999998)
(-1.68748e-10 2.43323e-09 -0.000999995)
(-5.00955e-10 2.43896e-09 -0.000999995)
(-8.09816e-10 2.46034e-09 -0.000999995)
(-1.00696e-09 2.49012e-09 -0.000999996)
(-1.32778e-09 2.63859e-09 -0.000999996)
(-1.40277e-09 2.21851e-09 -0.000999996)
(-1.17988e-09 2.35451e-09 -0.000999997)
(-9.99784e-10 2.37268e-09 -0.000999997)
(-6.37872e-10 2.36577e-09 -0.000999997)
(-2.13542e-10 2.35492e-09 -0.000999998)
(-1.66366e-10 2.69283e-09 -0.000999994)
(-4.81551e-10 2.69749e-09 -0.000999994)
(-7.66289e-10 2.69208e-09 -0.000999995)
(-8.68777e-10 2.64005e-09 -0.000999995)
(-1.52369e-09 2.36757e-09 -0.000999995)
(-1.62541e-09 2.98039e-09 -0.000999996)
(-1.07587e-09 2.69605e-09 -0.000999996)
(-9.81824e-10 2.64344e-09 -0.000999996)
(-6.43207e-10 2.62989e-09 -0.000999997)
(-2.17673e-10 2.61483e-09 -0.000999997)
(-1.69318e-10 2.6631e-09 -0.000999993)
(-5.07058e-10 2.65787e-09 -0.000999993)
(-8.67384e-10 2.62892e-09 -0.000999994)
(-1.3316e-09 2.58173e-09 -0.000999994)
(-9.8696e-10 2.33749e-09 -0.000999994)
(-1.07422e-09 2.89287e-09 -0.000999995)
(-1.51712e-09 2.6928e-09 -0.000999995)
(-1.06582e-09 2.67206e-09 -0.000999995)
(-6.61307e-10 2.68135e-09 -0.000999996)
(-2.23532e-10 2.68369e-09 -0.000999996)
(-1.76676e-10 2.39329e-09 -0.000999992)
(-5.20935e-10 2.38372e-09 -0.000999992)
(-8.42603e-10 2.3663e-09 -0.000999993)
(-1.16003e-09 2.39325e-09 -0.000999993)
(-1.21259e-09 2.57558e-09 -0.000999993)
(-1.27041e-09 2.10603e-09 -0.000999994)
(-1.29667e-09 2.33309e-09 -0.000999994)
(-9.93166e-10 2.39869e-09 -0.000999994)
(-6.26339e-10 2.42903e-09 -0.000999995)
(-2.10207e-10 2.44415e-09 -0.000999995)
(-1.83302e-10 1.90528e-09 -0.000999992)
(-5.38616e-10 1.89464e-09 -0.000999992)
(-8.57958e-10 1.87384e-09 -0.000999992)
(-1.12237e-09 1.85928e-09 -0.000999992)
(-1.27436e-09 1.90349e-09 -0.000999993)
(-1.31657e-09 1.79533e-09 -0.000999993)
(-1.22446e-09 1.87244e-09 -0.000999993)
(-9.69823e-10 1.89848e-09 -0.000999994)
(-6.11102e-10 1.91658e-09 -0.000999994)
(-2.0376e-10 1.92574e-09 -0.000999994)
(-1.90851e-10 1.21758e-09 -0.000999991)
(-5.56037e-10 1.20952e-09 -0.000999991)
(-8.78008e-10 1.19551e-09 -0.000999991)
(-1.13035e-09 1.18142e-09 -0.000999992)
(-1.2764e-09 1.18114e-09 -0.000999992)
(-1.30138e-09 1.17776e-09 -0.000999992)
(-1.19347e-09 1.21002e-09 -0.000999993)
(-9.48908e-10 1.23119e-09 -0.000999993)
(-5.95222e-10 1.24931e-09 -0.000999993)
(-1.97259e-10 1.26229e-09 -0.000999993)
(-1.93236e-10 4.19499e-10 -0.000999991)
(-5.61936e-10 4.17534e-10 -0.000999991)
(-8.84393e-10 4.13342e-10 -0.000999991)
(-1.13453e-09 4.09495e-10 -0.000999991)
(-1.27555e-09 4.0702e-10 -0.000999992)
(-1.28515e-09 4.07944e-10 -0.000999992)
(-1.1687e-09 4.20754e-10 -0.000999993)
(-9.28665e-10 4.30418e-10 -0.000999993)
(-5.76378e-10 4.39206e-10 -0.000999993)
(-1.87981e-10 4.47271e-10 -0.000999993)
(-2.26217e-10 6.21768e-10 -0.000999997)
(-6.90868e-10 6.16109e-10 -0.000999998)
(-1.11467e-09 6.14317e-10 -0.000999998)
(-1.42514e-09 6.09411e-10 -0.000999998)
(-1.62986e-09 5.9943e-10 -0.000999999)
(-1.72944e-09 6.00947e-10 -0.000999999)
(-1.6078e-09 5.93788e-10 -0.001)
(-1.26744e-09 5.89095e-10 -0.001)
(-8.11683e-10 5.85985e-10 -0.001)
(-2.77239e-10 5.8576e-10 -0.001)
(-2.3348e-10 1.76554e-09 -0.000999997)
(-7.00817e-10 1.75912e-09 -0.000999997)
(-1.12343e-09 1.75618e-09 -0.000999998)
(-1.44268e-09 1.74766e-09 -0.000999998)
(-1.64138e-09 1.73518e-09 -0.000999998)
(-1.73848e-09 1.73314e-09 -0.000999999)
(-1.62293e-09 1.72656e-09 -0.000999999)
(-1.27778e-09 1.71675e-09 -0.001)
(-8.15472e-10 1.70794e-09 -0.001)
(-2.76884e-10 1.70275e-09 -0.001)
(-2.36455e-10 2.70686e-09 -0.000999996)
(-7.05029e-10 2.70767e-09 -0.000999996)
(-1.12832e-09 2.70943e-09 -0.000999997)
(-1.44885e-09 2.70944e-09 -0.000999997)
(-1.64749e-09 2.74079e-09 -0.000999998)
(-1.74151e-09 2.64915e-09 -0.000999998)
(-1.62749e-09 2.67852e-09 -0.000999999)
(-1.28854e-09 2.67456e-09 -0.000999999)
(-8.23961e-10 2.66012e-09 -0.000999999)
(-2.79726e-10 2.64775e-09 -0.000999999)
(-2.37913e-10 3.4034e-09 -0.000999995)
(-7.03637e-10 3.40933e-09 -0.000999995)
(-1.12183e-09 3.4194e-09 -0.000999996)
(-1.4114e-09 3.4458e-09 -0.000999996)
(-1.70176e-09 3.56909e-09 -0.000999997)
(-1.80085e-09 3.25458e-09 -0.000999997)
(-1.59759e-09 3.31864e-09 -0.000999998)
(-1.29612e-09 3.33626e-09 -0.000999998)
(-8.37122e-10 3.32664e-09 -0.000999998)
(-2.84188e-10 3.31127e-09 -0.000999998)
(-2.37035e-10 3.76594e-09 -0.000999994)
(-6.957e-10 3.77885e-09 -0.000999994)
(-1.09199e-09 3.79482e-09 -0.000999994)
(-1.29917e-09 3.76183e-09 -0.000999995)
(-1.83878e-09 3.56391e-09 -0.000999996)
(-1.99196e-09 3.96102e-09 -0.000999996)
(-1.54575e-09 3.79531e-09 -0.000999996)
(-1.28039e-09 3.72591e-09 -0.000999997)
(-8.42419e-10 3.69975e-09 -0.000999997)
(-2.88705e-10 3.67769e-09 -0.000999997)
(-2.32236e-10 3.7342e-09 -0.000999993)
(-6.82191e-10 3.73168e-09 -0.000999993)
(-1.13901e-09 3.71421e-09 -0.000999993)
(-1.64205e-09 3.67344e-09 -0.000999994)
(-1.50261e-09 3.4481e-09 -0.000999994)
(-1.56947e-09 3.91719e-09 -0.000999995)
(-1.83271e-09 3.78868e-09 -0.000999995)
(-1.39153e-09 3.74671e-09 -0.000999995)
(-8.78053e-10 3.74699e-09 -0.000999996)
(-2.99083e-10 3.74776e-09 -0.000999996)
(-2.46662e-10 3.35045e-09 -0.000999991)
(-7.22959e-10 3.33531e-09 -0.000999992)
(-1.15033e-09 3.30229e-09 -0.000999992)
(-1.56539e-09 3.31972e-09 -0.000999992)
(-1.59491e-09 3.42788e-09 -0.000999993)
(-1.65125e-09 3.13175e-09 -0.000999993)
(-1.7163e-09 3.27186e-09 -0.000999994)
(-1.32193e-09 3.34138e-09 -0.000999994)
(-8.34006e-10 3.38284e-09 -0.000999995)
(-2.80717e-10 3.40479e-09 -0.000999995)
(-2.53663e-10 2.65726e-09 -0.00099999)
(-7.3681e-10 2.64818e-09 -0.000999991)
(-1.15472e-09 2.63171e-09 -0.000999991)
(-1.51638e-09 2.62133e-09 -0.000999991)
(-1.69055e-09 2.67452e-09 -0.000999992)
(-1.72576e-09 2.51674e-09 -0.000999992)
(-1.62309e-09 2.60944e-09 -0.000999993)
(-1.2804e-09 2.65056e-09 -0.000999993)
(-8.07945e-10 2.6781e-09 -0.000999993)
(-2.70604e-10 2.69103e-09 -0.000999994)
(-2.60722e-10 1.69995e-09 -0.00099999)
(-7.53653e-10 1.69409e-09 -0.00099999)
(-1.17725e-09 1.68055e-09 -0.00099999)
(-1.52252e-09 1.66243e-09 -0.000999991)
(-1.69952e-09 1.67103e-09 -0.000999991)
(-1.71626e-09 1.64927e-09 -0.000999992)
(-1.58241e-09 1.69147e-09 -0.000999992)
(-1.25309e-09 1.71854e-09 -0.000999992)
(-7.88183e-10 1.74049e-09 -0.000999993)
(-2.62586e-10 1.7553e-09 -0.000999993)
(-2.62215e-10 5.84635e-10 -0.000999989)
(-7.58028e-10 5.83751e-10 -0.000999989)
(-1.18416e-09 5.79949e-10 -0.00099999)
(-1.52299e-09 5.74646e-10 -0.00099999)
(-1.70047e-09 5.76628e-10 -0.000999991)
(-1.70198e-09 5.70552e-10 -0.000999991)
(-1.55071e-09 5.87659e-10 -0.000999992)
(-1.22886e-09 5.9918e-10 -0.000999992)
(-7.66232e-10 6.09447e-10 -0.000999992)
(-2.51977e-10 6.18399e-10 -0.000999992)
(-3.18129e-10 8.51406e-10 -0.000999998)
(-9.58675e-10 8.44797e-10 -0.000999999)
(-1.52872e-09 8.43106e-10 -0.000999999)
(-1.94199e-09 8.39454e-10 -0.001)
(-2.19059e-09 8.31746e-10 -0.001)
(-2.26884e-09 8.35501e-10 -0.001)
(-2.08347e-09 8.27524e-10 -0.001)
(-1.64405e-09 8.23205e-10 -0.001)
(-1.0546e-09 8.19256e-10 -0.001)
(-3.61892e-10 8.16794e-10 -0.001)
(-3.26953e-10 2.43486e-09 -0.000999998)
(-9.70431e-10 2.4292e-09 -0.000999998)
(-1.53695e-09 2.42836e-09 -0.000999999)
(-1.95701e-09 2.42295e-09 -0.000999999)
(-2.19872e-09 2.40878e-09 -0.001)
(-2.2775e-09 2.42336e-09 -0.001)
(-2.09989e-09 2.40373e-09 -0.001)
(-1.6555e-09 2.39044e-09 -0.001)
(-1.06145e-09 2.3778e-09 -0.001)
(-3.63484e-10 2.36752e-09 -0.001)
(-3.29068e-10 3.75569e-09 -0.000999997)
(-9.71814e-10 3.75971e-09 -0.000999997)
(-1.53801e-09 3.76223e-09 -0.000999997)
(-1.96532e-09 3.75921e-09 -0.000999998)
(-2.19446e-09 3.762e-09 -0.000999999)
(-2.27842e-09 3.75103e-09 -0.000999999)
(-2.12057e-09 3.73307e-09 -0.001)
(-1.67314e-09 3.71689e-09 -0.001)
(-1.07495e-09 3.69596e-09 -0.001)
(-3.68325e-10 3.67746e-09 -0.001)
(-3.30185e-10 4.729e-09 -0.000999995)
(-9.71353e-10 4.73619e-09 -0.000999996)
(-1.53769e-09 4.73785e-09 -0.000999996)
(-1.95734e-09 4.74337e-09 -0.000999997)
(-2.20702e-09 4.76803e-09 -0.000999997)
(-2.3067e-09 4.72186e-09 -0.000999998)
(-2.13413e-09 4.6795e-09 -0.000999999)
(-1.69253e-09 4.65984e-09 -0.000999999)
(-1.09369e-09 4.63794e-09 -0.000999999)
(-3.74901e-10 4.61431e-09 -0.001)