/*--------------------------------*- C++ -*----------------------------------*\
  =========                 |
  \\      /  F ield         | OpenFOAM: The Open Source CFD Toolbox
   \\    /   O peration     | Website:  https://openfoam.org
    \\  /    A nd           | Version:  9
     \\/     M anipulation  |
\*---------------------------------------------------------------------------*/
FoamFile
{
    format      ascii;
    class       volVectorField;
    location    "30000";
    object      U;
}
// * * * * * * * * * * * * * * * * * * * * * * * * * * * * * * * * * * * * * //

dimensions      [0 1 -1 0 0 0 0];

internalField   nonuniform List<vector> 
9000
(
(-6.8115e-12 1.79302e-11 -0.001)
(-6.10863e-12 2.16108e-11 -0.001)
(1.2964e-12 2.95996e-11 -0.001)
(1.83799e-11 3.96408e-11 -0.001)
(-3.42092e-11 4.2406e-11 -0.001)
(-1.27481e-10 4.4267e-11 -0.001)
(-1.49622e-10 3.72557e-11 -0.001)
(-1.29432e-10 3.09302e-11 -0.001)
(-8.43454e-11 2.70924e-11 -0.001)
(-2.89991e-11 2.67575e-11 -0.001)
(-3.17826e-12 4.85829e-11 -0.001)
(5.54035e-12 5.37161e-11 -0.001)
(1.9385e-11 6.8387e-11 -0.001)
(3.11808e-11 9.04106e-11 -0.001)
(-2.97783e-11 1.00838e-10 -0.000999999)
(-1.32992e-10 1.12424e-10 -0.001)
(-1.63339e-10 1.03986e-10 -0.001)
(-1.39877e-10 9.57532e-11 -0.001)
(-8.8637e-11 9.00574e-11 -0.001)
(-2.93363e-11 8.99734e-11 -0.001)
(-1.79355e-12 6.73601e-11 -0.000999999)
(1.3584e-11 7.3795e-11 -0.000999999)
(3.79955e-11 9.59057e-11 -0.000999999)
(5.08019e-11 1.24663e-10 -0.000999999)
(-1.23526e-11 1.60958e-10 -0.000999999)
(-1.24679e-10 1.64243e-10 -0.000999999)
(-1.66619e-10 1.61421e-10 -0.001)
(-1.43612e-10 1.52578e-10 -0.001)
(-9.01118e-11 1.4831e-10 -0.001)
(-2.89605e-11 1.48005e-10 -0.001)
(3.0979e-12 6.90704e-11 -0.000999999)
(3.39309e-11 8.54845e-11 -0.000999999)
(7.0244e-11 1.20549e-10 -0.000999999)
(9.62274e-11 1.69442e-10 -0.000999999)
(9.7328e-12 2.21774e-10 -0.000999999)
(-1.32536e-10 2.24879e-10 -0.000999999)
(-1.74951e-10 2.01481e-10 -0.000999999)
(-1.52984e-10 1.82879e-10 -0.001)
(-9.29207e-11 1.73515e-10 -0.001)
(-2.93585e-11 1.71706e-10 -0.001)
(1.44179e-11 1.03936e-10 -0.000999999)
(6.48946e-11 1.10371e-10 -0.000999999)
(1.21943e-10 1.2898e-10 -0.000999999)
(1.52022e-10 1.41256e-10 -0.000999999)
(4.30272e-11 1.53958e-10 -0.000999998)
(-1.44943e-10 1.93526e-10 -0.000999999)
(-2.08662e-10 1.81658e-10 -0.000999999)
(-1.71567e-10 1.78942e-10 -0.000999999)
(-1.00949e-10 1.86457e-10 -0.000999999)
(-3.04501e-11 1.88016e-10 -0.001)
(9.31738e-12 1.57049e-10 -0.000999999)
(5.87408e-11 1.46318e-10 -0.000999999)
(1.01116e-10 1.19078e-10 -0.000999999)
(1.21094e-10 7.49778e-11 -0.000999998)
(6.19586e-11 1.74088e-11 -0.000999998)
(-1.04923e-10 4.48728e-11 -0.000999998)
(-1.8954e-10 1.00919e-10 -0.000999999)
(-1.48128e-10 1.52463e-10 -0.000999999)
(-8.3444e-11 1.91932e-10 -0.000999999)
(-2.74015e-11 2.0638e-10 -0.000999999)
(3.43627e-12 1.52281e-10 -0.000999999)
(2.66189e-11 1.39278e-10 -0.000999999)
(5.05953e-11 9.42695e-11 -0.000999998)
(5.02433e-11 4.30825e-11 -0.000999998)
(1.28503e-11 -2.87461e-11 -0.000999998)
(-6.13518e-11 -3.93135e-11 -0.000999998)
(-1.00911e-10 4.57277e-11 -0.000999999)
(-8.05042e-11 1.19931e-10 -0.000999999)
(-4.65785e-11 1.66395e-10 -0.000999999)
(-1.55673e-11 1.87252e-10 -0.000999999)
(-3.94718e-12 1.11156e-10 -0.000999998)
(4.4556e-13 9.69067e-11 -0.000999998)
(4.91472e-12 6.42527e-11 -0.000999998)
(-1.92337e-12 1.9145e-11 -0.000999998)
(-2.04043e-11 -2.97477e-11 -0.000999998)
(-3.03079e-11 -2.89357e-11 -0.000999998)
(-3.02799e-11 3.48246e-11 -0.000999998)
(-2.74424e-11 8.81578e-11 -0.000999998)
(-1.57218e-11 1.22871e-10 -0.000999998)
(-6.18928e-12 1.37733e-10 -0.000999999)
(-1.10007e-11 6.68412e-11 -0.000999998)
(-2.05026e-11 5.73527e-11 -0.000999998)
(-2.71684e-11 3.73967e-11 -0.000999998)
(-4.37532e-11 1.06162e-11 -0.000999998)
(-3.52243e-11 -2.07965e-11 -0.000999998)
(3.23289e-12 -1.41227e-11 -0.000999998)
(1.61927e-11 2.71509e-11 -0.000999998)
(7.55174e-12 5.7556e-11 -0.000999998)
(3.28185e-12 7.56632e-11 -0.000999998)
(-4.53968e-13 8.29322e-11 -0.000999998)
(-1.35125e-11 2.25094e-11 -0.000999998)
(-2.90756e-11 2.00156e-11 -0.000999998)
(-4.17568e-11 1.39518e-11 -0.000999998)
(-5.99716e-11 5.39632e-12 -0.000999998)
(-4.50917e-11 -2.39748e-12 -0.000999998)
(1.75673e-11 -4.47786e-12 -0.000999998)
(4.13361e-11 1.2001e-11 -0.000999998)
(2.10403e-11 2.06577e-11 -0.000999998)
(9.8124e-12 2.55017e-11 -0.000999998)
(1.22488e-12 2.71313e-11 -0.000999998)
(-1.57587e-11 5.87841e-11 -0.001)
(-2.14035e-11 6.75189e-11 -0.001)
(-1.88432e-11 8.33479e-11 -0.001)
(-6.09103e-12 1.02834e-10 -0.001)
(-1.35891e-10 1.05128e-10 -0.001)
(-3.57059e-10 1.10314e-10 -0.001)
(-4.13327e-10 9.83366e-11 -0.001)
(-3.44287e-10 8.7421e-11 -0.001)
(-2.16488e-10 8.24522e-11 -0.001)
(-7.13225e-11 8.44076e-11 -0.001)
(-7.15365e-12 1.54447e-10 -0.001)
(3.08007e-12 1.68359e-10 -0.001)
(1.65294e-11 2.03679e-10 -0.001)
(1.55186e-11 2.51375e-10 -0.001)
(-1.28984e-10 2.80538e-10 -0.001)
(-3.64709e-10 3.05918e-10 -0.001)
(-4.37121e-10 2.95559e-10 -0.001)
(-3.60862e-10 2.81403e-10 -0.001)
(-2.19735e-10 2.75566e-10 -0.001)
(-6.93357e-11 2.78604e-10 -0.001)
(-2.16038e-12 2.14435e-10 -0.000999999)
(2.75119e-11 2.33232e-10 -0.000999999)
(6.4121e-11 2.91699e-10 -0.000999999)
(7.05975e-11 3.63284e-10 -0.000999999)
(-8.18081e-11 4.63526e-10 -0.001)
(-3.42724e-10 4.69898e-10 -0.001)
(-4.38656e-10 4.68483e-10 -0.001)
(-3.6493e-10 4.558e-10 -0.001)
(-2.19141e-10 4.52154e-10 -0.001)
(-6.78807e-11 4.5245e-10 -0.001)
(1.12018e-11 2.32363e-10 -0.000999999)
(7.9907e-11 2.78041e-10 -0.000999999)
(1.46556e-10 3.6701e-10 -0.000999999)
(1.8733e-10 4.85885e-10 -0.000999999)
(-2.23246e-11 6.24469e-10 -0.000999999)
(-3.59763e-10 6.3358e-10 -0.000999999)
(-4.51287e-10 5.83402e-10 -0.001)
(-3.77184e-10 5.54011e-10 -0.001)
(-2.22207e-10 5.40411e-10 -0.001)
(-6.81703e-11 5.38082e-10 -0.001)
(4.29666e-11 3.21752e-10 -0.000999999)
(1.61683e-10 3.42224e-10 -0.000999999)
(2.71943e-10 3.89378e-10 -0.000999999)
(3.2806e-10 4.30212e-10 -0.000999999)
(6.58718e-11 4.58039e-10 -0.000999999)
(-3.83928e-10 5.76856e-10 -0.000999999)
(-5.18261e-10 5.47273e-10 -0.000999999)
(-4.07905e-10 5.4885e-10 -0.000999999)
(-2.34003e-10 5.69602e-10 -0.001)
(-6.9171e-11 5.72899e-10 -0.001)
(3.1033e-11 4.63903e-10 -0.000999999)
(1.46874e-10 4.3102e-10 -0.000999999)
(2.34523e-10 3.63743e-10 -0.000999999)
(2.56086e-10 2.6101e-10 -0.000999999)
(1.24207e-10 1.1961e-10 -0.000999999)
(-2.7054e-10 1.97148e-10 -0.000999999)
(-4.79142e-10 3.42398e-10 -0.000999999)
(-3.54805e-10 4.6642e-10 -0.000999999)
(-1.96994e-10 5.58209e-10 -0.000999999)
(-6.36766e-11 5.87996e-10 -0.000999999)
(9.34627e-12 4.49887e-10 -0.000999998)
(6.0639e-11 4.06817e-10 -0.000999998)
(1.01902e-10 2.95291e-10 -0.000999998)
(8.36775e-11 1.65522e-10 -0.000999998)
(2.00691e-12 2.80054e-12 -0.000999998)
(-1.60831e-10 -3.33539e-11 -0.000999998)
(-2.48934e-10 1.94031e-10 -0.000999999)
(-1.92106e-10 3.71556e-10 -0.000999999)
(-1.11237e-10 4.79378e-10 -0.000999999)
(-3.82189e-11 5.23027e-10 -0.000999999)
(-1.27668e-11 3.23717e-10 -0.000999998)
(-8.54501e-12 2.85745e-10 -0.000999998)
(-6.78882e-12 2.0541e-10 -0.000999998)
(-3.643e-11 1.03636e-10 -0.000999998)
(-7.46598e-11 -4.75489e-12 -0.000999998)
(-7.94131e-11 -7.80172e-12 -0.000999998)
(-7.42621e-11 1.54291e-10 -0.000999998)
(-6.94489e-11 2.79111e-10 -0.000999998)
(-4.4482e-11 3.54327e-10 -0.000999998)
(-1.91095e-11 3.8367e-10 -0.000999998)
(-2.91766e-11 1.98873e-10 -0.000999998)
(-5.82751e-11 1.78006e-10 -0.000999998)
(-8.02079e-11 1.31377e-10 -0.000999998)
(-1.26476e-10 7.40034e-11 -0.000999998)
(-1.09402e-10 1.01218e-11 -0.000999998)
(-1.72911e-12 1.70669e-11 -0.000999998)
(3.79857e-11 1.17636e-10 -0.000999998)
(7.95451e-12 1.83778e-10 -0.000999998)
(-5.94001e-12 2.18247e-10 -0.000999998)
(-8.22414e-12 2.3049e-10 -0.000999998)
(-3.3867e-11 6.93231e-11 -0.000999998)
(-7.6266e-11 6.46958e-11 -0.000999998)
(-1.10613e-10 5.13951e-11 -0.000999998)
(-1.5733e-10 3.41786e-11 -0.000999998)
(-1.31284e-10 2.01826e-11 -0.000999998)
(2.81945e-11 1.20342e-11 -0.000999998)
(9.23843e-11 5.00214e-11 -0.000999998)
(3.11201e-11 6.63896e-11 -0.000999998)
(2.67452e-12 7.32255e-11 -0.000999998)
(-6.45368e-12 7.48415e-11 -0.000999998)
(-2.52467e-11 1.20055e-10 -0.001)
(-7.15156e-11 1.25286e-10 -0.001)
(-1.26767e-10 1.38662e-10 -0.001)
(-1.87534e-10 1.52565e-10 -0.001)
(-3.41816e-10 1.56962e-10 -0.001)
(-5.5451e-10 1.60418e-10 -0.001)
(-6.0484e-10 1.57369e-10 -0.001)
(-4.8844e-10 1.51958e-10 -0.001)
(-2.97153e-10 1.52382e-10 -0.001)
(-9.35853e-11 1.59759e-10 -0.001)
(-2.03043e-11 3.13583e-10 -0.001)
(-5.33626e-11 3.26163e-10 -0.001)
(-9.98276e-11 3.67636e-10 -0.001)
(-1.69763e-10 4.1689e-10 -0.001)
(-3.34895e-10 4.667e-10 -0.001)
(-5.55317e-10 4.90176e-10 -0.001)
(-6.14496e-10 4.98456e-10 -0.001)
(-4.94415e-10 4.9611e-10 -0.001)
(-2.89588e-10 4.99122e-10 -0.001)
(-8.6066e-11 5.054e-10 -0.001)
(-1.33038e-11 4.44771e-10 -0.000999999)
(-1.82696e-11 4.70193e-10 -0.000999999)
(-3.63897e-11 5.46404e-10 -0.001)
(-8.89728e-11 6.3343e-10 -0.001)
(-2.69382e-10 7.75994e-10 -0.001)
(-5.23897e-10 7.85352e-10 -0.001)
(-6.00068e-10 8.07609e-10 -0.001)
(-4.8873e-10 8.04545e-10 -0.001)
(-2.87412e-10 8.09717e-10 -0.001)
(-8.64607e-11 8.06378e-10 -0.001)
(4.25587e-12 5.21378e-10 -0.000999999)
(4.7386e-11 5.78873e-10 -0.000999999)
(6.33579e-11 6.87541e-10 -0.000999999)
(5.97473e-11 8.25724e-10 -0.000999999)
(-1.8303e-10 9.96327e-10 -0.001)
(-5.23641e-10 1.03959e-09 -0.001)
(-5.95299e-10 1.00193e-09 -0.001)
(-4.92291e-10 9.84361e-10 -0.001)
(-2.8614e-10 9.85879e-10 -0.001)
(-8.77798e-11 9.80365e-10 -0.001)
(4.31569e-11 6.46954e-10 -0.000999999)
(1.46885e-10 6.75015e-10 -0.000999999)
(2.1035e-10 7.33379e-10 -0.000999999)
(2.19769e-10 7.98e-10 -0.000999999)
(-5.54221e-11 8.27941e-10 -0.000999999)
(-5.18021e-10 1.01075e-09 -0.000999999)
(-6.5521e-10 9.69622e-10 -0.001)
(-5.0474e-10 9.93378e-10 -0.001)
(-2.89424e-10 1.02357e-09 -0.001)
(-9.00109e-11 1.02439e-09 -0.001)
(3.10673e-11 8.20135e-10 -0.000999998)
(1.32478e-10 7.75492e-10 -0.000999998)
(1.86221e-10 7.02394e-10 -0.000999998)
(1.54324e-10 6.01064e-10 -0.000999999)
(2.99402e-11 4.61882e-10 -0.000999999)
(-3.8183e-10 5.34679e-10 -0.000999999)
(-6.12808e-10 7.1346e-10 -0.000999999)
(-4.38377e-10 8.59073e-10 -0.000999999)
(-2.53048e-10 9.54963e-10 -0.000999999)
(-8.48587e-11 9.83541e-10 -0.000999999)
(-2.94472e-12 7.81297e-10 -0.000999998)
(2.74785e-11 7.21643e-10 -0.000999998)
(3.58316e-11 5.93043e-10 -0.000999998)
(-2.05726e-11 4.50959e-10 -0.000999998)
(-1.2159e-10 2.96415e-10 -0.000999998)
(-2.66732e-10 2.34786e-10 -0.000999999)
(-3.31034e-10 5.11519e-10 -0.000999999)
(-2.63202e-10 7.03257e-10 -0.000999999)
(-1.63047e-10 8.14994e-10 -0.000999999)
(-5.95917e-11 8.5623e-10 -0.000999999)
(-2.99378e-11 5.7077e-10 -0.000999998)
(-5.72579e-11 5.25729e-10 -0.000999998)
(-8.44585e-11 4.33335e-10 -0.000999998)
(-1.4222e-10 3.30752e-10 -0.000999998)
(-1.86227e-10 2.27499e-10 -0.000999998)
(-1.66762e-10 2.30998e-10 -0.000999998)
(-1.44304e-10 4.0919e-10 -0.000999998)
(-1.34864e-10 5.41081e-10 -0.000999998)
(-9.84436e-11 6.14124e-10 -0.000999998)
(-4.21447e-11 6.39009e-10 -0.000999998)
(-4.89353e-11 3.6322e-10 -0.000999997)
(-1.10985e-10 3.40312e-10 -0.000999997)
(-1.59133e-10 2.9401e-10 -0.000999997)
(-2.26386e-10 2.39285e-10 -0.000999998)
(-2.21338e-10 1.84693e-10 -0.000999998)
(-8.50246e-11 1.82995e-10 -0.000999998)
(-2.09302e-11 2.90879e-10 -0.000999998)
(-5.82257e-11 3.53112e-10 -0.000999998)
(-6.38925e-11 3.81045e-10 -0.000999998)
(-3.35694e-11 3.87081e-10 -0.000999998)
(-5.33671e-11 1.30579e-10 -0.000999997)
(-1.2695e-10 1.26302e-10 -0.000999997)
(-1.85148e-10 1.14696e-10 -0.000999997)
(-2.51004e-10 9.99885e-11 -0.000999997)
(-2.42008e-10 8.95483e-11 -0.000999997)
(-6.03945e-11 7.88692e-11 -0.000999998)
(2.58466e-11 1.13967e-10 -0.000999998)
(-4.45875e-11 1.25527e-10 -0.000999998)
(-6.35969e-11 1.27521e-10 -0.000999998)
(-3.53168e-11 1.25481e-10 -0.000999998)
(-5.14555e-11 2.06902e-10 -0.001)
(-1.85205e-10 2.03975e-10 -0.001)
(-3.52686e-10 2.08548e-10 -0.001)
(-5.12801e-10 2.13641e-10 -0.001)
(-6.37707e-10 2.22578e-10 -0.001)
(-7.22154e-10 2.23968e-10 -0.001)
(-7.0939e-10 2.33291e-10 -0.001)
(-5.63401e-10 2.3669e-10 -0.001)
(-3.38245e-10 2.43103e-10 -0.001)
(-1.05682e-10 2.52331e-10 -0.001)
(-5.48708e-11 5.4778e-10 -0.001)
(-1.84393e-10 5.52617e-10 -0.001)
(-3.43799e-10 5.84184e-10 -0.001)
(-4.99859e-10 6.23282e-10 -0.001)
(-6.28732e-10 6.89346e-10 -0.001)
(-7.12894e-10 7.04819e-10 -0.001)
(-6.98104e-10 7.35838e-10 -0.001)
(-5.54768e-10 7.47772e-10 -0.001)
(-3.22739e-10 7.58594e-10 -0.001)
(-9.61621e-11 7.64337e-10 -0.001)
(-4.76907e-11 8.00503e-10 -0.000999999)
(-1.5024e-10 8.24309e-10 -0.001)
(-2.828e-10 8.94516e-10 -0.001)
(-4.08685e-10 9.71081e-10 -0.001)
(-5.57451e-10 1.12912e-09 -0.001)
(-6.77112e-10 1.13932e-09 -0.001)
(-6.67863e-10 1.18888e-09 -0.001)
(-5.41793e-10 1.19697e-09 -0.001)
(-3.2082e-10 1.20733e-09 -0.001)
(-9.8635e-11 1.19905e-09 -0.001)
(-3.25671e-11 9.9059e-10 -0.000999999)
(-9.19514e-11 1.03583e-09 -0.000999999)
(-1.971e-10 1.12807e-09 -0.000999999)
(-2.65229e-10 1.23267e-09 -0.001)
(-4.60475e-10 1.44871e-09 -0.001)
(-6.53253e-10 1.40263e-09 -0.001)
(-6.40495e-10 1.46305e-09 -0.001)
(-5.36306e-10 1.47185e-09 -0.001)
(-3.18288e-10 1.48734e-09 -0.001)
(-1.02065e-10 1.47866e-09 -0.001)
(-4.30803e-12 1.14192e-09 -0.000999998)
(-1.46971e-11 1.16548e-09 -0.000999998)
(-8.60137e-11 1.21566e-09 -0.000999999)
(-8.79544e-11 1.28339e-09 -0.000999999)
(-3.87486e-10 1.24079e-09 -0.000999999)
(-6.63047e-10 1.55766e-09 -0.001)
(-5.98646e-10 1.46599e-09 -0.001)
(-5.17468e-10 1.51573e-09 -0.001)
(-3.1111e-10 1.54459e-09 -0.001)
(-1.04431e-10 1.54297e-09 -0.001)
(-1.12559e-11 1.25549e-09 -0.000999998)
(-2.04362e-11 1.22428e-09 -0.000999998)
(-7.91381e-11 1.17691e-09 -0.000999998)
(-2.40121e-10 1.14525e-09 -0.000999999)
(-1.86418e-10 9.98017e-10 -0.000999999)
(-4.28055e-10 1.17654e-09 -0.000999999)
(-6.82356e-10 1.24181e-09 -0.000999999)
(-4.57659e-10 1.35347e-09 -0.000999999)
(-2.88025e-10 1.41589e-09 -0.000999999)
(-1.00686e-10 1.42918e-09 -0.000999999)
(-3.79152e-11 1.16185e-09 -0.000999997)
(-9.57111e-11 1.11272e-09 -0.000999997)
(-1.65066e-10 1.02709e-09 -0.000999998)
(-2.66678e-10 9.52678e-10 -0.000999998)
(-3.56345e-10 9.42072e-10 -0.000999998)
(-4.19318e-10 7.63797e-10 -0.000999998)
(-4.21643e-10 1.02347e-09 -0.000999999)
(-3.43256e-10 1.14306e-09 -0.000999999)
(-2.32669e-10 1.21291e-09 -0.000999999)
(-8.84898e-11 1.23002e-09 -0.000999999)
(-6.24235e-11 8.83318e-10 -0.000999997)
(-1.57414e-10 8.4686e-10 -0.000999997)
(-2.3928e-10 7.90727e-10 -0.000999997)
(-3.25195e-10 7.33796e-10 -0.000999997)
(-3.7535e-10 6.97765e-10 -0.000999998)
(-3.46629e-10 6.99153e-10 -0.000999998)
(-3.0303e-10 8.20346e-10 -0.000999998)
(-2.68149e-10 8.96827e-10 -0.000999998)
(-1.98735e-10 9.35238e-10 -0.000999998)
(-8.13384e-11 9.42367e-10 -0.000999999)
(-7.59316e-11 5.71454e-10 -0.000999997)
(-1.9001e-10 5.6206e-10 -0.000999997)
(-2.78182e-10 5.37728e-10 -0.000999997)
(-3.59617e-10 5.12262e-10 -0.000999997)
(-3.90958e-10 4.96676e-10 -0.000999997)
(-2.96738e-10 4.84851e-10 -0.000999997)
(-2.2394e-10 5.506e-10 -0.000999998)
(-2.28298e-10 5.77502e-10 -0.000999998)
(-1.85281e-10 5.84293e-10 -0.000999998)
(-7.9564e-11 5.79884e-10 -0.000999998)
(-7.26972e-11 2.05583e-10 -0.000999996)
(-1.91873e-10 2.09065e-10 -0.000999996)
(-2.88531e-10 2.03776e-10 -0.000999997)
(-3.65509e-10 1.98167e-10 -0.000999997)
(-4.01944e-10 1.97157e-10 -0.000999997)
(-2.9204e-10 1.86407e-10 -0.000999997)
(-2.09901e-10 2.01205e-10 -0.000999997)
(-2.33971e-10 1.9998e-10 -0.000999998)
(-1.94838e-10 1.95136e-10 -0.000999998)
(-8.44515e-11 1.89762e-10 -0.000999998)
(-1.00162e-10 3.18504e-10 -0.001)
(-3.60449e-10 3.07909e-10 -0.001)
(-6.49107e-10 3.06235e-10 -0.001)
(-8.81533e-10 3.06171e-10 -0.001)
(-9.6487e-10 3.22404e-10 -0.001)
(-9.08679e-10 3.22183e-10 -0.001)
(-8.13767e-10 3.33963e-10 -0.001)
(-6.4292e-10 3.42722e-10 -0.001)
(-3.90186e-10 3.50072e-10 -0.001)
(-1.24315e-10 3.57508e-10 -0.001)
(-1.11544e-10 8.66361e-10 -0.001)
(-3.74087e-10 8.6253e-10 -0.001)
(-6.52099e-10 8.79837e-10 -0.001)
(-8.67011e-10 9.05387e-10 -0.001)
(-9.50699e-10 9.69655e-10 -0.001)
(-8.98961e-10 9.79484e-10 -0.001)
(-7.94953e-10 1.01216e-09 -0.001)
(-6.28209e-10 1.03158e-09 -0.001)
(-3.75486e-10 1.04537e-09 -0.001)
(-1.16441e-10 1.04867e-09 -0.001)
(-1.05757e-10 1.30419e-09 -0.001)
(-3.49357e-10 1.32289e-09 -0.001)
(-6.07536e-10 1.3655e-09 -0.001)
(-7.9339e-10 1.41593e-09 -0.001)
(-8.92645e-10 1.53315e-09 -0.001)
(-8.68026e-10 1.54037e-09 -0.001)
(-7.63406e-10 1.60104e-09 -0.001)
(-6.11096e-10 1.6208e-09 -0.001)
(-3.71859e-10 1.63434e-09 -0.001)
(-1.19264e-10 1.62422e-09 -0.001)
(-9.5331e-11 1.66468e-09 -0.000999999)
(-3.15354e-10 1.68285e-09 -0.000999999)
(-5.59141e-10 1.72466e-09 -0.000999999)
(-6.99381e-10 1.76997e-09 -0.001)
(-8.2631e-10 1.97771e-09 -0.001)
(-8.31115e-10 1.82175e-09 -0.001)
(-7.14571e-10 1.9624e-09 -0.001)
(-5.94885e-10 2.00262e-09 -0.001)
(-3.68884e-10 2.02929e-09 -0.001)
(-1.23418e-10 2.01841e-09 -0.001)
(-9.07151e-11 1.84331e-09 -0.000999998)
(-2.92586e-10 1.85787e-09 -0.000999998)
(-5.20411e-10 1.88227e-09 -0.000999999)
(-5.40384e-10 1.92323e-09 -0.000999999)
(-8.40888e-10 1.80743e-09 -0.001)
(-8.83368e-10 2.1925e-09 -0.001)
(-5.82528e-10 2.0783e-09 -0.001)
(-5.44106e-10 2.12168e-09 -0.001)
(-3.5202e-10 2.14473e-09 -0.001)
(-1.26165e-10 2.13753e-09 -0.001)
(-8.43654e-11 1.82511e-09 -0.000999997)
(-2.80017e-10 1.82045e-09 -0.000999997)
(-4.93897e-10 1.82678e-09 -0.000999998)
(-7.74346e-10 1.86851e-09 -0.000999998)
(-5.57371e-10 1.7354e-09 -0.000999999)
(-5.60278e-10 2.02795e-09 -0.000999999)
(-7.85171e-10 1.95096e-09 -0.000999999)
(-5.28341e-10 1.98548e-09 -0.001)
(-3.48715e-10 1.99897e-09 -0.001)
(-1.26373e-10 1.99289e-09 -0.001)
(-9.88834e-11 1.64333e-09 -0.000999997)
(-2.94495e-10 1.6234e-09 -0.000999997)
(-4.72436e-10 1.62105e-09 -0.000999997)
(-6.31963e-10 1.64526e-09 -0.000999998)
(-6.81529e-10 1.80497e-09 -0.000999998)
(-6.67531e-10 1.5394e-09 -0.000999998)
(-6.25002e-10 1.70135e-09 -0.000999999)
(-4.96077e-10 1.72827e-09 -0.000999999)
(-3.40757e-10 1.73571e-09 -0.000999999)
(-1.28452e-10 1.72448e-09 -0.000999999)
(-1.07216e-10 1.29667e-09 -0.000999996)
(-3.05403e-10 1.28948e-09 -0.000999996)
(-4.72154e-10 1.29022e-09 -0.000999996)
(-5.90477e-10 1.30062e-09 -0.000999997)
(-6.63013e-10 1.35937e-09 -0.000999997)
(-6.63797e-10 1.33319e-09 -0.000999997)
(-5.96384e-10 1.36774e-09 -0.000999998)
(-4.93867e-10 1.36995e-09 -0.000999998)
(-3.49217e-10 1.36013e-09 -0.000999998)
(-1.34357e-10 1.34548e-09 -0.000999999)
(-1.08448e-10 8.4509e-10 -0.000999996)
(-3.03406e-10 8.54091e-10 -0.000999996)
(-4.61327e-10 8.61457e-10 -0.000999996)
(-5.62743e-10 8.73726e-10 -0.000999996)
(-6.48883e-10 9.03544e-10 -0.000999996)
(-6.59126e-10 8.88655e-10 -0.000999997)
(-5.88198e-10 8.88263e-10 -0.000999997)
(-5.03593e-10 8.72473e-10 -0.000999998)
(-3.62539e-10 8.54543e-10 -0.000999998)
(-1.40423e-10 8.41365e-10 -0.000999998)
(-9.95934e-11 3.01723e-10 -0.000999995)
(-2.9009e-10 3.10953e-10 -0.000999996)
(-4.51666e-10 3.1504e-10 -0.000999996)
(-5.47293e-10 3.19721e-10 -0.000999996)
(-6.46809e-10 3.29381e-10 -0.000999996)
(-6.77705e-10 3.2055e-10 -0.000999997)
(-6.11317e-10 3.09523e-10 -0.000999997)
(-5.26532e-10 2.96307e-10 -0.000999997)
(-3.77929e-10 2.85678e-10 -0.000999998)
(-1.45552e-10 2.79705e-10 -0.000999998)
(-1.73006e-10 4.53373e-10 -0.001)
(-5.65042e-10 4.41543e-10 -0.001)
(-9.43975e-10 4.36617e-10 -0.001)
(-1.21296e-09 4.36698e-10 -0.001)
(-1.28958e-09 4.53308e-10 -0.001)
(-1.18658e-09 4.54679e-10 -0.001)
(-1.03274e-09 4.60256e-10 -0.001)
(-8.14056e-10 4.67746e-10 -0.001)
(-5.06814e-10 4.73273e-10 -0.001)
(-1.67435e-10 4.76708e-10 -0.001)
(-1.86018e-10 1.27331e-09 -0.001)
(-5.83784e-10 1.26721e-09 -0.001)
(-9.50573e-10 1.2683e-09 -0.001)
(-1.19848e-09 1.27697e-09 -0.001)
(-1.27396e-09 1.3138e-09 -0.001)
(-1.18196e-09 1.3197e-09 -0.001)
(-1.02183e-09 1.33997e-09 -0.001)
(-8.02705e-10 1.35935e-09 -0.001)
(-4.97925e-10 1.37259e-09 -0.001)
(-1.63409e-10 1.37303e-09 -0.001)
(-1.81834e-10 1.96258e-09 -0.001)
(-5.73634e-10 1.97361e-09 -0.001)
(-9.3605e-10 1.97967e-09 -0.001)
(-1.16976e-09 1.98589e-09 -0.001)
(-1.2493e-09 2.0304e-09 -0.001)
(-1.16278e-09 2.00944e-09 -0.001)
(-9.95272e-10 2.07022e-09 -0.001)
(-7.83083e-10 2.10198e-09 -0.001)
(-4.91427e-10 2.1215e-09 -0.001)
(-1.64652e-10 2.11637e-09 -0.001)
(-1.78808e-10 2.53578e-09 -0.000999999)
(-5.70614e-10 2.52523e-09 -0.000999999)
(-9.38425e-10 2.5078e-09 -0.001)
(-1.14781e-09 2.48672e-09 -0.001)
(-1.25047e-09 2.59328e-09 -0.001)
(-1.1422e-09 2.41133e-09 -0.001)
(-9.2935e-10 2.55663e-09 -0.001)
(-7.51375e-10 2.6156e-09 -0.001)
(-4.7931e-10 2.64853e-09 -0.001)
(-1.64404e-10 2.64592e-09 -0.001)
(-1.97185e-10 2.76382e-09 -0.000999998)
(-6.06583e-10 2.76675e-09 -0.000999998)
(-9.74672e-10 2.76324e-09 -0.000999999)
(-1.08429e-09 2.75491e-09 -0.000999999)
(-1.32466e-09 2.58644e-09 -0.001)
(-1.19928e-09 2.95209e-09 -0.001)
(-7.91009e-10 2.8335e-09 -0.001)
(-6.91076e-10 2.85475e-09 -0.001)
(-4.55914e-10 2.87054e-09 -0.001)
(-1.62203e-10 2.86309e-09 -0.001)
(-1.8124e-10 2.60647e-09 -0.000999997)
(-5.76689e-10 2.63368e-09 -0.000999997)
(-9.504e-10 2.68149e-09 -0.000999998)
(-1.32474e-09 2.75721e-09 -0.000999998)
(-1.05282e-09 2.68292e-09 -0.000999999)
(-8.95057e-10 2.98427e-09 -0.000999999)
(-1.02698e-09 2.83459e-09 -0.000999999)
(-7.14212e-10 2.79731e-09 -0.001)
(-4.65299e-10 2.77192e-09 -0.001)
(-1.66302e-10 2.74689e-09 -0.001)
(-1.74991e-10 2.31722e-09 -0.000999996)
(-5.3665e-10 2.33749e-09 -0.000999996)
(-8.51328e-10 2.40077e-09 -0.000999997)
(-1.08269e-09 2.50805e-09 -0.000999997)
(-1.09764e-09 2.76507e-09 -0.000999998)
(-1.04791e-09 2.48428e-09 -0.000999998)
(-9.77948e-10 2.54408e-09 -0.000999998)
(-7.53622e-10 2.49529e-09 -0.000999999)
(-5.00981e-10 2.4488e-09 -0.000999999)
(-1.81944e-10 2.41157e-09 -0.000999999)
(-1.65281e-10 1.87015e-09 -0.000999995)
(-4.97551e-10 1.89236e-09 -0.000999995)
(-7.79941e-10 1.94319e-09 -0.000999996)
(-9.60491e-10 2.01337e-09 -0.000999996)
(-1.07678e-09 2.13582e-09 -0.000999997)
(-1.11591e-09 2.07258e-09 -0.000999997)
(-1.01596e-09 2.0353e-09 -0.000999998)
(-8.09428e-10 1.97902e-09 -0.000999998)
(-5.44359e-10 1.93061e-09 -0.000999998)
(-1.98866e-10 1.89831e-09 -0.000999998)
(-1.563e-10 1.21637e-09 -0.000999995)
(-4.672e-10 1.23775e-09 -0.000999995)
(-7.30359e-10 1.26934e-09 -0.000999995)
(-8.90013e-10 1.30882e-09 -0.000999995)
(-1.0383e-09 1.36256e-09 -0.000999996)
(-1.14836e-09 1.35636e-09 -0.000999996)
(-1.07147e-09 1.30036e-09 -0.000999997)
(-8.58187e-10 1.2553e-09 -0.000999997)
(-5.77887e-10 1.22195e-09 -0.000999998)
(-2.10441e-10 1.2039e-09 -0.000999998)
(-1.45925e-10 4.27778e-10 -0.000999994)
(-4.46065e-10 4.38681e-10 -0.000999995)
(-7.0756e-10 4.4885e-10 -0.000999995)
(-8.65601e-10 4.60126e-10 -0.000999995)
(-1.02727e-09 4.71605e-10 -0.000999996)
(-1.17577e-09 4.69234e-10 -0.000999996)
(-1.11477e-09 4.41995e-10 -0.000999997)
(-8.86048e-10 4.23863e-10 -0.000999997)
(-5.92227e-10 4.12513e-10 -0.000999997)
(-2.14129e-10 4.0764e-10 -0.000999998)
(-2.6362e-10 6.16187e-10 -0.001)
(-7.86174e-10 6.10008e-10 -0.001)
(-1.22831e-09 6.06747e-10 -0.001)
(-1.5172e-09 6.07455e-10 -0.001)
(-1.64463e-09 6.13803e-10 -0.001)
(-1.60779e-09 6.15794e-10 -0.001)
(-1.42725e-09 6.13806e-10 -0.001)
(-1.12359e-09 6.18218e-10 -0.001)
(-7.13755e-10 6.2172e-10 -0.001)
(-2.42844e-10 6.21052e-10 -0.001)
(-2.71464e-10 1.78154e-09 -0.001)
(-7.98295e-10 1.77941e-09 -0.001)
(-1.23315e-09 1.76922e-09 -0.001)
(-1.51294e-09 1.75737e-09 -0.001)
(-1.63935e-09 1.74626e-09 -0.001)
(-1.61093e-09 1.74656e-09 -0.001)
(-1.42772e-09 1.75638e-09 -0.001)
(-1.1179e-09 1.77311e-09 -0.001)
(-7.11096e-10 1.78574e-09 -0.001)
(-2.42794e-10 1.7856e-09 -0.001)
(-2.69686e-10 2.78845e-09 -0.001)
(-8.03521e-10 2.79097e-09 -0.001)
(-1.25277e-09 2.76479e-09 -0.001)
(-1.54307e-09 2.72393e-09 -0.001)
(-1.6586e-09 2.68732e-09 -0.001)
(-1.60087e-09 2.63288e-09 -0.001)
(-1.40364e-09 2.68685e-09 -0.001)
(-1.09643e-09 2.72846e-09 -0.001)
(-6.99181e-10 2.7552e-09 -0.001)
(-2.40059e-10 2.76094e-09 -0.001)
(-2.74346e-10 3.59093e-09 -0.000999999)
(-8.27513e-10 3.56378e-09 -0.000999999)
(-1.30037e-09 3.50644e-09 -0.001)
(-1.59049e-09 3.42983e-09 -0.001)
(-1.73049e-09 3.39263e-09 -0.001)
(-1.61151e-09 3.26496e-09 -0.001)
(-1.33222e-09 3.35972e-09 -0.001)
(-1.04948e-09 3.41977e-09 -0.001)
(-6.73232e-10 3.45849e-09 -0.001)
(-2.3181e-10 3.46792e-09 -0.001)
(-3.03638e-10 3.91614e-09 -0.000999998)
(-8.95054e-10 3.91348e-09 -0.000999998)
(-1.38688e-09 3.8907e-09 -0.000999999)
(-1.65688e-09 3.83067e-09 -0.000999999)
(-1.82352e-09 3.67174e-09 -0.001)
(-1.63378e-09 3.88741e-09 -0.001)
(-1.24877e-09 3.81192e-09 -0.001)
(-9.97508e-10 3.81277e-09 -0.001)
(-6.44185e-10 3.82518e-09 -0.001)
(-2.23981e-10 3.82054e-09 -0.001)
(-2.84502e-10 3.70885e-09 -0.000999997)
(-8.60685e-10 3.75644e-09 -0.000999997)
(-1.38334e-09 3.81038e-09 -0.000999997)
(-1.8092e-09 3.87555e-09 -0.000999998)
(-1.67379e-09 3.85994e-09 -0.000999998)
(-1.47135e-09 4.07183e-09 -0.000999999)
(-1.40687e-09 3.93025e-09 -0.001)
(-1.03606e-09 3.85593e-09 -0.001)
(-6.57889e-10 3.80758e-09 -0.001)
(-2.29046e-10 3.77035e-09 -0.001)
(-2.63184e-10 3.3006e-09 -0.000999995)
(-8.00733e-10 3.34867e-09 -0.000999996)
(-1.26788e-09 3.42956e-09 -0.000999996)
(-1.60744e-09 3.5663e-09 -0.000999996)
(-1.62713e-09 3.78122e-09 -0.000999997)
(-1.56333e-09 3.61278e-09 -0.000999998)
(-1.46474e-09 3.57604e-09 -0.000999998)
(-1.12001e-09 3.4884e-09 -0.000999999)
(-7.22365e-10 3.41079e-09 -0.000999999)
(-2.5389e-10 3.35788e-09 -0.000999999)
(-2.42724e-10 2.6682e-09 -0.000999994)
(-7.38077e-10 2.70797e-09 -0.000999994)
(-1.16584e-09 2.77551e-09 -0.000999995)
(-1.45746e-09 2.86558e-09 -0.000999995)
(-1.62728e-09 2.99597e-09 -0.000999996)
(-1.67679e-09 2.90435e-09 -0.000999997)
(-1.53126e-09 2.83727e-09 -0.000999997)
(-1.20116e-09 2.75763e-09 -0.000999998)
(-7.81817e-10 2.69258e-09 -0.000999998)
(-2.75391e-10 2.65364e-09 -0.000999998)
(-2.28499e-10 1.72569e-09 -0.000999994)
(-6.98581e-10 1.74896e-09 -0.000999994)
(-1.11033e-09 1.78515e-09 -0.000999994)
(-1.38691e-09 1.82628e-09 -0.000999995)
(-1.58838e-09 1.87643e-09 -0.000999995)
(-1.72197e-09 1.87666e-09 -0.000999996)
(-1.61138e-09 1.80703e-09 -0.000999996)
(-1.26452e-09 1.75513e-09 -0.000999997)
(-8.21085e-10 1.71964e-09 -0.000999997)
(-2.87609e-10 1.70268e-09 -0.000999997)
(-2.22336e-10 5.97598e-10 -0.000999993)
(-6.80652e-10 6.04472e-10 -0.000999993)
(-1.08651e-09 6.15353e-10 -0.000999994)
(-1.36358e-09 6.26238e-10 -0.000999994)
(-1.5739e-09 6.36106e-10 -0.000999995)
(-1.74277e-09 6.378e-10 -0.000999995)
(-1.64948e-09 6.12042e-10 -0.000999996)
(-1.28592e-09 5.96551e-10 -0.000999997)
(-8.29292e-10 5.88172e-10 -0.000999997)
(-2.88513e-10 5.85608e-10 -0.000999997)
(-3.70336e-10 8.25032e-10 -0.001)
(-1.03999e-09 8.28617e-10 -0.001)
(-1.56131e-09 8.29353e-10 -0.001)
(-1.91072e-09 8.28885e-10 -0.001)
(-2.1337e-09 8.21739e-10 -0.001)
(-2.19792e-09 8.21128e-10 -0.001)
(-1.99737e-09 8.17113e-10 -0.00100001)
(-1.57712e-09 8.18853e-10 -0.00100001)
(-1.01302e-09 8.20543e-10 -0.00100001)
(-3.50043e-10 8.17709e-10 -0.00100001)
(-3.69012e-10 2.43013e-09 -0.001)
(-1.03921e-09 2.43589e-09 -0.001)
(-1.56399e-09 2.42147e-09 -0.001)
(-1.92193e-09 2.39276e-09 -0.001)
(-2.14553e-09 2.34507e-09 -0.001)
(-2.20684e-09 2.33185e-09 -0.001)
(-2.00358e-09 2.34027e-09 -0.001)
(-1.57671e-09 2.35227e-09 -0.00100001)
(-1.0145e-09 2.36314e-09 -0.00100001)
(-3.51984e-10 2.36324e-09 -0.00100001)
(-3.6996e-10 3.82808e-09 -0.001)
(-1.05543e-09 3.82523e-09 -0.001)
(-1.60756e-09 3.78249e-09 -0.001)
(-1.99082e-09 3.71105e-09 -0.001)
(-2.19878e-09 3.62386e-09 -0.001)
(-2.20711e-09 3.54703e-09 -0.001)
(-1.98097e-09 3.5965e-09 -0.001)
(-1.55727e-09 3.63364e-09 -0.001)
(-9.99397e-10 3.66129e-09 -0.00100001)
(-3.46111e-10 3.67296e-09 -0.00100001)
(-3.79231e-10 4.87677e-09 -0.001)
(-1.09241e-09 4.85426e-09 -0.001)
(-1.67841e-09 4.79446e-09 -0.001)
(-2.08066e-09 4.70574e-09 -0.001)
(-2.30968e-09 4.57498e-09 -0.001)
(-2.23448e-09 4.4864e-09 -0.001)
(-1.91707e-09 4.53431e-09 -0.001)
(-1.51183e-09 4.5789e-09 -0.001)
(-9.67994e-10 4.61577e-09 -0.001)
(-3.33302e-10 4.62791e-09 -0.001)
(-4.01748e-10 5.36691e-09 -0.000999998)
(-1.14733e-09 5.36595e-09 -0.000999998)
(-1.7563e-09 5.33093e-09 -0.000999999)
(-2.21031e-09 5.24367e-09 -0.000999999)
(-2.4183e-09 5.11765e-09 -0.001)
(-2.24778e-09 5.21803e-09 -0.001)
(-1.88828e-09 5.15125e-09 -0.001)
(-1.4756e-09 5.14678e-09 -0.001)
(-9.41176e-10 5.15427e-09 -0.001)
(-3.25004e-10 5.14792e-09 -0.001)
(-3.90421e-10 5.2313e-09 -0.000999996)
(-1.13891e-09 5.27946e-09 -0.000999996)
(-1.80092e-09 5.30667e-09 -0.000999997)
(-2.29395e-09 5.3237e-09 -0.000999997)
(-2.33528e-09 5.33059e-09 -0.000999998)
(-2.20071e-09 5.42497e-09 -0.000999999)
(-1.98831e-09 5.32889e-09 -0.000999999)
(-1.50858e-09 5.25825e-09 -0.001)
(-9.56632e-10 5.20498e-09 -0.001)
(-3.29631e-10 5.1665e-09 -0.001)
(-3.6363e-10 4.69303e-09 -0.000999994)
(-1.08216e-09 4.74774e-09 -0.000999995)
(-1.7123e-09 4.80299e-09 -0.000999995)
(-2.18644e-09 4.90133e-09 -0.000999996)
(-2.31703e-09 5.00904e-09 -0.000999996)
(-2.24942e-09 4.92286e-09 -0.000999997)
(-2.05499e-09 4.86642e-09 -0.000999998)
(-1.59927e-09 4.77601e-09 -0.000999999)
(-1.02276e-09 4.69732e-09 -0.000999999)
(-3.53478e-10 4.64713e-09 -0.000999999)
(-3.44731e-10 3.76403e-09 -0.000999993)
(-1.03807e-09 3.8016e-09 -0.000999993)
(-1.64755e-09 3.84292e-09 -0.000999994)
(-2.0879e-09 3.90074e-09 -0.000999994)
(-2.31378e-09 3.97807e-09 -0.000999995)
(-2.34334e-09 3.91799e-09 -0.000999996)
(-2.13516e-09 3.84617e-09 -0.000999997)
(-1.67747e-09 3.77262e-09 -0.000999997)
(-1.07636e-09 3.71357e-09 -0.000999998)
(-3.70804e-10 3.68102e-09 -0.000999998)
(-3.33254e-10 2.41909e-09 -0.000999992)
(-1.01055e-09 2.43372e-09 -0.000999992)
(-1.61325e-09 2.45529e-09 -0.000999993)
(-2.0512e-09 2.48026e-09 -0.000999993)
(-2.29967e-09 2.50666e-09 -0.000999994)
(-2.3812e-09 2.50478e-09 -0.000999995)
(-2.20025e-09 2.45749e-09 -0.000999996)
(-1.73162e-09 2.41656e-09 -0.000999996)