/*--------------------------------*- C++ -*----------------------------------*\
| =========                 |                                                 |
| \\      /  F ield         | OpenFOAM: The Open Source CFD Toolbox           |
|  \\    /   O peration     | Version:  5.x                                   |
|   \\  /    A nd           | Web:      www.OpenFOAM.org                      |
|    \\/     M anipulation  |                                                 |
\*---------------------------------------------------------------------------*/
FoamFile
{
    version     2.0;
    format      ascii;
    class       volVectorField;
    location    "300";
    object      stored_U;
}
// * * * * * * * * * * * * * * * * * * * * * * * * * * * * * * * * * * * * * //

dimensions      [0 1 -1 0 0 0 0];

internalField   nonuniform List<vector> 
90
(
(1.40681e-09 -1.47151e-09 -0.00100002)
(3.03781e-09 -3.29614e-09 -0.00100002)
(5.01844e-09 -5.48346e-09 -0.00100002)
(7.35278e-09 -8.05652e-09 -0.00100002)
(1.01778e-08 -1.11714e-08 -0.00100003)
(1.36623e-08 -1.50193e-08 -0.00100004)
(1.80045e-08 -1.98256e-08 -0.00100005)
(2.34418e-08 -2.58613e-08 -0.00100006)
(3.02647e-08 -3.34593e-08 -0.00100007)
(3.88339e-08 -4.30362e-08 -0.00100009)
(4.9603e-08 -5.51182e-08 -0.00100011)
(6.31495e-08 -7.03757e-08 -0.00100014)
(8.02158e-08 -8.96663e-08 -0.00100017)
(1.01763e-07 -1.14093e-07 -0.00100021)
(1.2904e-07 -1.45081e-07 -0.00100027)
(1.63674e-07 -1.84472e-07 -0.00100033)
(2.07793e-07 -2.34653e-07 -0.00100042)
(2.64177e-07 -2.98718e-07 -0.00100053)
(3.36472e-07 -3.80676e-07 -0.00100067)
(4.29472e-07 -4.85712e-07 -0.00100085)
(5.4945e-07 -6.20502e-07 -0.00100107)
(7.04557e-07 -7.9379e-07 -0.00100137)
(9.05432e-07 -1.01705e-06 -0.00100174)
(1.16599e-06 -1.30555e-06 -0.00100222)
(1.50445e-06 -1.67915e-06 -0.00100285)
(1.94487e-06 -2.16388e-06 -0.00100365)
(2.51914e-06 -2.79389e-06 -0.00100468)
(3.26934e-06 -3.61409e-06 -0.00100602)
(4.2511e-06 -4.68361e-06 -0.00100776)
(5.53805e-06 -6.08045e-06 -0.00101001)
(7.22777e-06 -7.90758e-06 -0.00101295)
(9.44989e-06 -1.03012e-05 -0.00101678)
(1.23775e-05 -1.34429e-05 -0.00102182)
(1.62432e-05 -1.75775e-05 -0.00102827)
(2.13502e-05 -2.30232e-05 -0.0010351)
(2.81161e-05 -3.01611e-05 -0.00104126)
(3.69155e-05 -3.91634e-05 -0.00107981)
(4.60074e-05 -4.824e-05 -0.00129362)
(6.09894e-05 -6.91122e-05 -0.000351143)
(-2.91705e-05 5.24212e-05 -0.00275334)
(2.77668e-06 -5.61649e-06 -0.00131971)
(6.38532e-05 -0.000106318 -0.00294385)
(5.14129e-05 -5.35878e-05 -0.00233361)
(1.01409e-05 -7.03221e-05 -0.00316584)
(-6.02602e-05 -6.30628e-05 -0.00218148)
(-7.9904e-05 -3.66938e-05 -0.00320768)
(-5.40282e-05 4.95755e-05 -0.00226493)
(-6.89468e-05 0.000164508 -0.00333415)
(-4.26222e-05 5.71617e-05 -0.00183313)
(-8.43017e-05 -5.66501e-06 -0.00328195)
(-8.24121e-05 5.90762e-06 -0.00206371)
(-6.04908e-05 1.4701e-05 -0.00204775)
(2.16476e-05 5.10242e-05 -0.00204966)
(-1.76849e-05 4.018e-05 -0.00146167)
(-2.65962e-05 4.0161e-05 -0.000960164)
(-1.72444e-05 3.14149e-05 -0.00101454)
(-1.10441e-05 2.28052e-05 -0.00101815)
(-7.12622e-06 1.66115e-05 -0.00101253)
(-4.46887e-06 1.21102e-05 -0.00100797)
(-2.6534e-06 8.8151e-06 -0.00100495)
(-1.43129e-06 6.40516e-06 -0.00100293)
(-6.27243e-07 4.64573e-06 -0.00100157)
(-1.15126e-07 3.36367e-06 -0.00100067)
(1.95405e-07 2.43134e-06 -0.0010001)
(3.71655e-07 1.75344e-06 -0.000999768)
(4.59554e-07 1.26082e-06 -0.000999579)
(4.88583e-07 9.04124e-07 -0.000999485)
(4.81177e-07 6.46206e-07 -0.000999456)
(4.52522e-07 4.60005e-07 -0.000999468)
(4.12662e-07 3.25861e-07 -0.000999502)
(3.68146e-07 2.29459e-07 -0.000999548)
(3.23107e-07 1.60384e-07 -0.000999599)
(2.80036e-07 1.1106e-07 -0.000999649)
(2.40322e-07 7.5979e-08 -0.000999698)
(2.04623e-07 5.11464e-08 -0.000999742)
(1.73129e-07 3.36699e-08 -0.000999781)
(1.4574e-07 2.14626e-08 -0.000999816)
(1.22187e-07 1.3025e-08 -0.000999846)
(1.02114e-07 7.28059e-09 -0.000999872)
(8.51478e-08 3.43566e-09 -0.000999894)
(7.09002e-08 9.45964e-10 -0.000999912)
(5.90207e-08 -6.02056e-10 -0.000999928)
(4.91961e-08 -1.51773e-09 -0.000999941)
(4.11516e-08 -2.02745e-09 -0.000999953)
(3.46473e-08 -2.28656e-09 -0.000999963)
(2.94758e-08 -2.40761e-09 -0.000999971)
(2.54657e-08 -2.46607e-09 -0.000999978)
(2.24569e-08 -2.52654e-09 -0.000999985)
(2.02674e-08 -2.62989e-09 -0.000999991)
(1.90893e-08 -2.52576e-09 -0.000999996)
)
;

boundaryField
{
    inlet
    {
        type            calculated;
        value           uniform (1.90893e-08 -2.52576e-09 -0.000999996);
    }
    outlet
    {
        type            calculated;
        value           uniform (1.40681e-09 -1.47151e-09 -0.00100002);
    }
    repeat_boundary
    {
        type            calculated;
        value           nonuniform List<vector> 
180
(
(1.40681e-09 0 -0.00100002)
(3.03781e-09 0 -0.00100002)
(5.01844e-09 0 -0.00100002)
(7.35278e-09 0 -0.00100002)
(1.01778e-08 0 -0.00100003)
(1.36623e-08 0 -0.00100004)
(1.80045e-08 0 -0.00100005)
(2.34418e-08 0 -0.00100006)
(3.02647e-08 0 -0.00100007)
(3.88339e-08 0 -0.00100009)
(4.9603e-08 0 -0.00100011)
(6.31495e-08 0 -0.00100014)
(8.02158e-08 0 -0.00100017)
(1.01763e-07 0 -0.00100021)
(1.2904e-07 0 -0.00100027)
(1.63674e-07 0 -0.00100033)
(2.07793e-07 0 -0.00100042)
(2.64177e-07 0 -0.00100053)
(3.36472e-07 0 -0.00100067)
(4.29472e-07 0 -0.00100085)
(5.4945e-07 0 -0.00100107)
(7.04557e-07 0 -0.00100137)
(9.05432e-07 0 -0.00100174)
(1.16599e-06 0 -0.00100222)
(1.50445e-06 0 -0.00100285)
(1.94487e-06 0 -0.00100365)
(2.51914e-06 0 -0.00100468)
(3.26934e-06 0 -0.00100602)
(4.2511e-06 0 -0.00100776)
(5.53805e-06 0 -0.00101001)
(7.22777e-06 0 -0.00101295)
(9.44989e-06 0 -0.00101678)
(1.23775e-05 0 -0.00102182)
(1.62432e-05 0 -0.00102827)
(2.13502e-05 0 -0.0010351)
(2.81161e-05 0 -0.00104126)
(3.69155e-05 0 -0.00107981)
(4.60074e-05 0 -0.00129362)
(6.09894e-05 0 -0.000351143)
(-2.91705e-05 0 -0.00275334)
(2.77668e-06 0 -0.00131971)
(6.38532e-05 0 -0.00294385)
(5.14129e-05 0 -0.00233361)
(1.01409e-05 0 -0.00316584)
(-6.02602e-05 0 -0.00218148)
(-7.9904e-05 0 -0.00320768)
(-5.40282e-05 0 -0.00226493)
(-6.89468e-05 0 -0.00333415)
(-4.26222e-05 0 -0.00183313)
(-8.43017e-05 0 -0.00328195)
(-8.24121e-05 0 -0.00206371)
(-6.04908e-05 0 -0.00204775)
(2.16476e-05 0 -0.00204966)
(-1.76849e-05 0 -0.00146167)
(-2.65962e-05 0 -0.000960164)
(-1.72444e-05 0 -0.00101454)
(-1.10441e-05 0 -0.00101815)
(-7.12622e-06 0 -0.00101253)
(-4.46887e-06 0 -0.00100797)
(-2.6534e-06 0 -0.00100495)
(-1.43129e-06 0 -0.00100293)
(-6.27243e-07 0 -0.00100157)
(-1.15126e-07 0 -0.00100067)
(1.95405e-07 0 -0.0010001)
(3.71655e-07 0 -0.000999768)
(4.59554e-07 0 -0.000999579)
(4.88583e-07 0 -0.000999485)
(4.81177e-07 0 -0.000999456)
(4.52522e-07 0 -0.000999468)
(4.12662e-07 0 -0.000999502)
(3.68146e-07 0 -0.000999548)
(3.23107e-07 0 -0.000999599)
(2.80036e-07 0 -0.000999649)
(2.40322e-07 0 -0.000999698)
(2.04623e-07 0 -0.000999742)
(1.73129e-07 0 -0.000999781)
(1.4574e-07 0 -0.000999816)
(1.22187e-07 0 -0.000999846)
(1.02114e-07 0 -0.000999872)
(8.51478e-08 0 -0.000999894)
(7.09002e-08 0 -0.000999912)
(5.90207e-08 0 -0.000999928)
(4.91961e-08 0 -0.000999941)
(4.11516e-08 0 -0.000999953)
(3.46473e-08 0 -0.000999963)
(2.94758e-08 0 -0.000999971)
(2.54657e-08 0 -0.000999978)
(2.24569e-08 0 -0.000999985)
(2.02674e-08 0 -0.000999991)
(1.90893e-08 0 -0.000999996)
(0 -1.47151e-09 -0.00100002)
(0 -3.29614e-09 -0.00100002)
(0 -5.48346e-09 -0.00100002)
(0 -8.05652e-09 -0.00100002)
(0 -1.11714e-08 -0.00100003)
(0 -1.50193e-08 -0.00100004)
(0 -1.98256e-08 -0.00100005)
(0 -2.58613e-08 -0.00100006)
(0 -3.34593e-08 -0.00100007)
(0 -4.30362e-08 -0.00100009)
(0 -5.51182e-08 -0.00100011)
(0 -7.03757e-08 -0.00100014)
(0 -8.96663e-08 -0.00100017)
(0 -1.14093e-07 -0.00100021)
(0 -1.45081e-07 -0.00100027)
(0 -1.84472e-07 -0.00100033)
(0 -2.34653e-07 -0.00100042)
(0 -2.98718e-07 -0.00100053)
(0 -3.80676e-07 -0.00100067)
(0 -4.85712e-07 -0.00100085)
(0 -6.20502e-07 -0.00100107)
(0 -7.9379e-07 -0.00100137)
(0 -1.01705e-06 -0.00100174)
(0 -1.30555e-06 -0.00100222)
(0 -1.67915e-06 -0.00100285)
(0 -2.16388e-06 -0.00100365)
(0 -2.79389e-06 -0.00100468)
(0 -3.61409e-06 -0.00100602)
(0 -4.68361e-06 -0.00100776)
(0 -6.08045e-06 -0.00101001)
(0 -7.90758e-06 -0.00101295)
(0 -1.03012e-05 -0.00101678)
(0 -1.34429e-05 -0.00102182)
(0 -1.75775e-05 -0.00102827)
(0 -2.30232e-05 -0.0010351)
(0 -3.01611e-05 -0.00104126)
(0 -3.91634e-05 -0.00107981)
(0 -4.824e-05 -0.00129362)
(0 -6.91122e-05 -0.000351143)
(0 5.24212e-05 -0.00275334)
(0 -5.61649e-06 -0.00131971)
(0 -0.000106318 -0.00294385)
(0 -5.35878e-05 -0.00233361)
(0 -7.03221e-05 -0.00316584)
(0 -6.30628e-05 -0.00218148)
(0 -3.66938e-05 -0.00320768)
(0 4.95755e-05 -0.00226493)
(0 0.000164508 -0.00333415)
(0 5.71617e-05 -0.00183313)
(0 -5.66501e-06 -0.00328195)
(0 5.90762e-06 -0.00206371)
(0 1.4701e-05 -0.00204775)
(0 5.10242e-05 -0.00204966)
(0 4.018e-05 -0.00146167)
(0 4.0161e-05 -0.000960164)
(0 3.14149e-05 -0.00101454)
(0 2.28052e-05 -0.00101815)
(0 1.66115e-05 -0.00101253)
(0 1.21102e-05 -0.00100797)
(0 8.8151e-06 -0.00100495)
(0 6.40516e-06 -0.00100293)
(0 4.64573e-06 -0.00100157)
(0 3.36367e-06 -0.00100067)
(0 2.43134e-06 -0.0010001)
(0 1.75344e-06 -0.000999768)
(0 1.26082e-06 -0.000999579)
(0 9.04124e-07 -0.000999485)
(0 6.46206e-07 -0.000999456)
(0 4.60005e-07 -0.000999468)
(0 3.25861e-07 -0.000999502)
(0 2.29459e-07 -0.000999548)
(0 1.60384e-07 -0.000999599)
(0 1.1106e-07 -0.000999649)
(0 7.5979e-08 -0.000999698)
(0 5.11464e-08 -0.000999742)
(0 3.36699e-08 -0.000999781)
(0 2.14626e-08 -0.000999816)
(0 1.3025e-08 -0.000999846)
(0 7.28059e-09 -0.000999872)
(0 3.43566e-09 -0.000999894)
(0 9.45964e-10 -0.000999912)
(0 -6.02056e-10 -0.000999928)
(0 -1.51773e-09 -0.000999941)
(0 -2.02745e-09 -0.000999953)
(0 -2.28656e-09 -0.000999963)
(0 -2.40761e-09 -0.000999971)
(0 -2.46607e-09 -0.000999978)
(0 -2.52654e-09 -0.000999985)
(0 -2.62989e-09 -0.000999991)
(0 -2.52576e-09 -0.000999996)
)
;
    }
    procBoundary2to0
    {
        type            processor;
        value           nonuniform List<vector> 
90
(
(1.49902e-09 -1.47111e-09 -0.000999997)
(3.29273e-09 -3.29565e-09 -0.000999997)
(5.28028e-09 -5.48444e-09 -0.000999996)
(7.35114e-09 -8.05693e-09 -0.000999996)
(9.52799e-09 -1.11723e-08 -0.000999995)
(1.18446e-08 -1.50198e-08 -0.000999994)
(1.43408e-08 -1.98239e-08 -0.000999993)
(1.70592e-08 -2.5861e-08 -0.00099999)
(2.004e-08 -3.34592e-08 -0.000999986)
(2.33151e-08 -4.3036e-08 -0.000999981)
(2.68973e-08 -5.5118e-08 -0.000999974)
(3.07712e-08 -7.03753e-08 -0.000999965)
(3.48798e-08 -8.96657e-08 -0.000999952)
(3.91013e-08 -1.14092e-07 -0.000999935)
(4.32166e-08 -1.45079e-07 -0.000999912)
(4.68655e-08 -1.84469e-07 -0.000999882)
(4.94865e-08 -2.34649e-07 -0.000999843)
(5.02346e-08 -2.9871e-07 -0.000999791)
(4.78706e-08 -3.80662e-07 -0.000999724)
(4.06167e-08 -4.8569e-07 -0.000999635)
(2.60738e-08 -6.20465e-07 -0.000999518)
(7.72409e-10 -7.93728e-07 -0.000999364)
(-4.02945e-08 -1.01695e-06 -0.000999157)
(-1.04675e-07 -1.30537e-06 -0.00099888)
(-2.02577e-07 -1.67885e-06 -0.00099851)
(-3.48158e-07 -2.16336e-06 -0.000998017)
(-5.61147e-07 -2.79299e-06 -0.000997357)
(-8.68658e-07 -3.61252e-06 -0.000996478)
(-1.3079e-06 -4.68087e-06 -0.000995304)
(-1.9298e-06 -6.07564e-06 -0.000993737)
(-2.80387e-06 -7.89912e-06 -0.000991647)
(-4.02484e-06 -1.02863e-05 -0.00098886)
(-5.7226e-06 -1.34172e-05 -0.000985157)
(-8.08323e-06 -1.75468e-05 -0.000980137)
(-1.1448e-05 -2.31655e-05 -0.000972202)
(-1.55005e-05 -2.96554e-05 -0.000963018)
(-2.13921e-05 -3.87894e-05 -0.000973413)
(-2.79205e-05 -4.82403e-05 -0.00105638)
(-4.65995e-05 -7.16604e-05 -0.000430737)
(4.41651e-05 5.48783e-05 -0.00194758)
(-7.47312e-06 -8.37732e-06 -0.00168669)
(-3.86056e-05 -6.33449e-05 -0.00155134)
(-3.08706e-05 -5.2079e-05 -0.00239652)
(-6.88275e-05 -5.10995e-05 -0.00215961)
(-9.11358e-05 -6.59383e-05 -0.00241806)
(-5.75677e-05 -1.95339e-05 -0.00182825)
(-7.04507e-05 4.22861e-05 -0.00258628)
(-2.77304e-05 7.87576e-05 -0.00176654)
(7.75931e-06 0.000101748 -0.00232098)
(-6.09467e-05 -2.55778e-06 -0.002316)
(-4.41405e-05 -4.20911e-06 -0.00160945)
(-2.02795e-05 4.7686e-05 -0.00165513)
(2.91559e-05 2.25263e-05 -0.00181753)
(3.97918e-05 3.14129e-06 -0.000992878)
(7.27466e-05 3.53409e-05 -0.00087977)
(5.79027e-05 3.09471e-05 -0.000918009)
(4.42023e-05 2.2863e-05 -0.000944365)
(3.3803e-05 1.66722e-05 -0.000958454)
(2.58962e-05 1.21437e-05 -0.000968437)
(1.98728e-05 8.83313e-06 -0.00097604)
(1.52776e-05 6.41486e-06 -0.000981803)
(1.1766e-05 4.65096e-06 -0.000986158)
(9.07773e-06 3.36649e-06 -0.000989451)
(7.01606e-06 2.43287e-06 -0.000991945)
(5.43212e-06 1.75427e-06 -0.000993837)
(4.21303e-06 1.26128e-06 -0.000995274)
(3.27303e-06 9.04382e-07 -0.000996368)
(2.54694e-06 6.46352e-07 -0.000997203)
(1.9851e-06 4.60088e-07 -0.000997841)
(1.54962e-06 3.25908e-07 -0.000998331)
(1.21151e-06 2.29486e-07 -0.000998707)
(9.48586e-07 1.604e-07 -0.000998996)
(7.43795e-07 1.11069e-07 -0.000999219)
(5.84036e-07 7.59843e-08 -0.000999392)
(4.59221e-07 5.11496e-08 -0.000999526)
(3.6157e-07 3.36718e-08 -0.000999629)
(2.85076e-07 2.14637e-08 -0.00099971)
(2.25096e-07 1.30256e-08 -0.000999773)
(1.78036e-07 7.28099e-09 -0.000999822)
(1.41097e-07 3.4359e-09 -0.000999861)
(1.12118e-07 9.46113e-10 -0.000999891)
(8.94079e-08 -6.01917e-10 -0.000999915)
(7.16455e-08 -1.51743e-09 -0.000999934)
(5.78026e-08 -2.02694e-09 -0.000999949)
(4.70858e-08 -2.28725e-09 -0.00099996)
(3.8885e-08 -2.40771e-09 -0.00099997)
(3.27328e-08 -2.46619e-09 -0.000999978)
(2.82542e-08 -2.52687e-09 -0.000999984)
(2.5089e-08 -2.62944e-09 -0.00099999)
(2.34375e-08 -2.52563e-09 -0.000999995)
)
;
    }
    procBoundary2to3
    {
        type            processor;
        value           nonuniform List<vector> 
90
(
(1.40636e-09 -1.56378e-09 -0.000999998)
(3.03724e-09 -3.55113e-09 -0.000999999)
(5.01951e-09 -5.74514e-09 -0.000999999)
(7.35298e-09 -8.05475e-09 -0.000999999)
(1.01781e-08 -1.05213e-08 -0.000999999)
(1.36629e-08 -1.32016e-08 -0.000999998)
(1.80036e-08 -1.61622e-08 -0.000999998)
(2.34416e-08 -1.94787e-08 -0.000999997)
(3.02645e-08 -2.32347e-08 -0.000999995)
(3.88337e-08 -2.75174e-08 -0.000999993)
(4.96027e-08 -3.24126e-08 -0.000999989)
(6.31491e-08 -3.79975e-08 -0.000999984)
(8.02151e-08 -4.43304e-08 -0.000999977)
(1.01762e-07 -5.14318e-08 -0.000999967)
(1.29038e-07 -5.9258e-08 -0.000999954)
(1.63671e-07 -6.76633e-08 -0.000999936)
(2.07788e-07 -7.63467e-08 -0.000999912)
(2.64169e-07 -8.47756e-08 -0.000999878)
(3.36459e-07 -9.20742e-08 -0.000999832)
(4.2945e-07 -9.68561e-08 -0.000999769)
(5.49413e-07 -9.71251e-08 -0.000999683)
(7.04496e-07 -9.00042e-08 -0.000999566)
(9.05329e-07 -7.13206e-08 -0.000999409)
(1.16581e-06 -3.48823e-08 -0.000999196)
(1.50415e-06 2.78814e-08 -0.000998907)
(1.94436e-06 1.29159e-07 -0.000998517)
(2.51826e-06 2.86421e-07 -0.000997986)
(3.26782e-06 5.2396e-07 -0.000997266)
(4.24845e-06 8.75482e-07 -0.000996292)
(5.5334e-06 1.38756e-06 -0.000994974)
(7.2196e-06 2.12434e-06 -0.000993191)
(9.43552e-06 3.17401e-06 -0.000990787)
(1.23535e-05 4.65848e-06 -0.00098757)
(1.6222e-05 6.75449e-06 -0.000983164)
(2.15291e-05 9.7909e-06 -0.000975688)
(2.75819e-05 1.34471e-05 -0.00096597)
(3.6581e-05 1.91729e-05 -0.000976099)
(4.60341e-05 2.57186e-05 -0.001099)
(6.31552e-05 3.81044e-05 -0.00035737)
(-2.86503e-05 -1.83021e-05 -0.00210665)
(4.35317e-06 3.23689e-06 -0.0015729)
(3.82284e-05 1.19016e-05 -0.00165349)
(5.91563e-05 3.43252e-05 -0.00283527)
(-3.76008e-06 1.15983e-05 -0.00162649)
(-6.58313e-05 -3.72358e-05 -0.00268937)
(-6.02479e-05 -8.94769e-06 -0.00205776)
(-5.93261e-05 8.58126e-05 -0.00250454)
(-5.30808e-05 7.37121e-05 -0.0020231)
(-4.83462e-05 3.57598e-05 -0.00265017)
(-6.01387e-05 -1.78081e-05 -0.00167686)
(-8.7137e-05 -4.01832e-05 -0.00269127)
(-2.85276e-05 -2.6155e-05 -0.00118367)
(-9.07898e-06 9.41321e-05 -0.00197832)
(3.97371e-06 -7.37374e-06 -0.0010555)
(-2.54943e-05 -5.11896e-05 -0.00093732)
(-1.69725e-05 -4.30018e-05 -0.000950902)
(-1.10949e-05 -3.23803e-05 -0.00097051)
(-7.1683e-06 -2.42899e-05 -0.000979431)
(-4.49075e-06 -1.8238e-05 -0.0009853)
(-2.66464e-06 -1.37009e-05 -0.000989571)
(-1.43704e-06 -1.02976e-05 -0.000992674)
(-6.30161e-07 -7.74376e-06 -0.00099491)
(-1.1657e-07 -5.82686e-06 -0.000996511)
(1.94569e-07 -4.38803e-06 -0.000997644)
(3.71252e-07 -3.30619e-06 -0.000998435)
(4.59347e-07 -2.49213e-06 -0.000998989)
(4.88473e-07 -1.87999e-06 -0.000999376)
(4.81117e-07 -1.41935e-06 -0.000999639)
(4.52489e-07 -1.07244e-06 -0.000999814)
(4.12642e-07 -8.11015e-07 -0.000999928)
(3.68134e-07 -6.13859e-07 -0.001)
(3.231e-07 -4.65064e-07 -0.00100004)
(2.80031e-07 -3.5268e-07 -0.00100007)
(2.40319e-07 -2.67723e-07 -0.00100008)
(2.04621e-07 -2.03445e-07 -0.00100008)
(1.73127e-07 -1.54767e-07 -0.00100008)
(1.45739e-07 -1.17871e-07 -0.00100007)
(1.22186e-07 -8.9883e-08 -0.00100007)
(1.02114e-07 -6.86405e-08 -0.00100006)
(8.51474e-08 -5.25131e-08 -0.00100005)
(7.09e-08 -4.02716e-08 -0.00100004)
(5.90206e-08 -3.0989e-08 -0.00100004)
(4.91963e-08 -2.39665e-08 -0.00100003)
(4.11519e-08 -1.86775e-08 -0.00100003)
(3.46467e-08 -1.47262e-08 -0.00100002)
(2.94756e-08 -1.18171e-08 -0.00100002)
(2.54656e-08 -9.7331e-09 -0.00100001)
(2.24537e-08 -8.32367e-09 -0.00100001)
(2.02707e-08 -7.45156e-09 -0.00100001)
(1.90894e-08 -6.87386e-09 -0.001)
)
;
    }
}


// ************************************************************************* //
