/*--------------------------------*- C++ -*----------------------------------*\
| =========                 |                                                 |
| \\      /  F ield         | OpenFOAM: The Open Source CFD Toolbox           |
|  \\    /   O peration     | Version:  5.x                                   |
|   \\  /    A nd           | Web:      www.OpenFOAM.org                      |
|    \\/     M anipulation  |                                                 |
\*---------------------------------------------------------------------------*/
FoamFile
{
    version     2.0;
    format      ascii;
    class       volScalarField;
    location    "0.01";
    object      p;
}
// * * * * * * * * * * * * * * * * * * * * * * * * * * * * * * * * * * * * * //

dimensions      [0 2 -2 0 0 0 0];

internalField   nonuniform List<scalar> 
2250
(
3.21441e-10
3.09129e-10
3.31314e-10
4.08376e-10
5.43199e-10
3.0347e-10
2.86872e-10
3.2235e-10
3.96894e-10
5.03441e-10
3.05456e-10
3.01354e-10
3.45466e-10
4.02011e-10
4.56405e-10
3.17683e-10
3.2658e-10
3.87195e-10
4.34856e-10
4.61513e-10
2.83395e-10
3.41434e-10
4.51519e-10
5.14415e-10
5.15654e-10
9.67985e-10
9.48536e-10
1.04439e-09
1.22715e-09
1.49128e-09
9.41308e-10
9.43352e-10
1.04667e-09
1.2085e-09
1.39862e-09
1.00531e-09
1.03046e-09
1.14677e-09
1.2574e-09
1.34003e-09
1.1102e-09
1.18257e-09
1.3173e-09
1.38401e-09
1.38636e-09
1.20015e-09
1.37279e-09
1.5568e-09
1.58346e-09
1.45992e-09
1.68631e-09
1.69014e-09
1.84002e-09
2.04353e-09
2.28938e-09
1.70923e-09
1.75279e-09
1.89181e-09
2.05976e-09
2.2409e-09
1.89739e-09
1.9701e-09
2.10732e-09
2.20658e-09
2.27125e-09
2.18864e-09
2.31163e-09
2.41951e-09
2.43353e-09
2.3839e-09
2.57262e-09
2.71373e-09
2.77289e-09
2.65918e-09
2.41738e-09
2.52579e-09
2.55757e-09
2.71679e-09
2.8869e-09
3.09962e-09
2.62609e-09
2.70476e-09
2.84108e-09
2.98798e-09
3.16158e-09
2.95905e-09
3.05308e-09
3.16607e-09
3.24961e-09
3.33536e-09
3.42305e-09
3.51801e-09
3.55618e-09
3.56453e-09
3.58276e-09
3.97217e-09
3.97457e-09
3.9055e-09
3.81204e-09
3.74436e-09
3.42217e-09
3.4703e-09
3.61441e-09
3.73889e-09
3.90004e-09
3.59658e-09
3.69472e-09
3.81283e-09
3.92414e-09
4.04986e-09
4.03093e-09
4.12083e-09
4.19982e-09
4.2719e-09
4.3742e-09
4.56488e-09
4.61342e-09
4.61458e-09
4.66935e-09
4.81375e-09
5.10943e-09
5.0426e-09
4.95042e-09
5.00221e-09
5.23587e-09
4.24202e-09
4.31221e-09
4.43684e-09
4.50543e-09
4.55215e-09
4.4797e-09
4.59752e-09
4.69136e-09
4.74523e-09
4.78352e-09
4.96335e-09
5.05724e-09
5.11036e-09
5.16672e-09
5.26493e-09
5.51292e-09
5.55849e-09
5.56455e-09
5.6672e-09
5.90574e-09
6.07214e-09
6.02072e-09
5.97601e-09
6.15305e-09
6.63932e-09
4.84784e-09
4.94937e-09
5.05422e-09
5.08212e-09
5.06736e-09
5.13575e-09
5.26745e-09
5.33743e-09
5.3639e-09
5.39615e-09
5.62939e-09
5.73095e-09
5.78368e-09
5.86674e-09
6.02288e-09
6.1782e-09
6.24791e-09
6.31415e-09
6.49617e-09
6.8283e-09
6.76649e-09
6.78251e-09
6.88152e-09
7.1724e-09
7.77e-09
5.1037e-09
5.2241e-09
5.32311e-09
5.38394e-09
5.45655e-09
5.40658e-09
5.52866e-09
5.60898e-09
5.69815e-09
5.84282e-09
5.86995e-09
5.97352e-09
6.08073e-09
6.2624e-09
6.54746e-09
6.39315e-09
6.50305e-09
6.68998e-09
6.99382e-09
7.42447e-09
6.95619e-09
7.10479e-09
7.40345e-09
7.80217e-09
8.36748e-09
4.88217e-09
4.99992e-09
5.13836e-09
5.32114e-09
5.55968e-09
5.155e-09
5.2611e-09
5.41406e-09
5.63724e-09
5.92688e-09
5.57579e-09
5.69439e-09
5.89947e-09
6.20566e-09
6.61372e-09
6.08529e-09
6.24382e-09
6.54048e-09
6.95378e-09
7.44945e-09
6.64631e-09
6.87892e-09
7.28315e-09
7.76385e-09
8.24277e-09
4.12215e-09
4.24512e-09
4.48035e-09
4.83391e-09
5.2456e-09
4.35918e-09
4.47916e-09
4.74732e-09
5.12358e-09
5.562e-09
4.77897e-09
4.93044e-09
5.23173e-09
5.65631e-09
6.18257e-09
5.33594e-09
5.51593e-09
5.87148e-09
6.38092e-09
6.94581e-09
5.95382e-09
6.16164e-09
6.5991e-09
7.1788e-09
7.6285e-09
2.85995e-09
3.02574e-09
3.3943e-09
3.93721e-09
4.55883e-09
3.10303e-09
3.27104e-09
3.66394e-09
4.20736e-09
4.84763e-09
3.58788e-09
3.77733e-09
4.17095e-09
4.7343e-09
5.4265e-09
4.27246e-09
4.46527e-09
4.88306e-09
5.50111e-09
6.18917e-09
5.04465e-09
5.26198e-09
5.75086e-09
6.41731e-09
7.01494e-09
1.15479e-09
1.39302e-09
1.91495e-09
2.67479e-09
3.57078e-09
1.4498e-09
1.68304e-09
2.21481e-09
2.9646e-09
3.86532e-09
2.06715e-09
2.30935e-09
2.8257e-09
3.56207e-09
4.44082e-09
2.98485e-09
3.22982e-09
3.73753e-09
4.45183e-09
5.2569e-09
4.09962e-09
4.36751e-09
4.86773e-09
5.53948e-09
6.3502e-09
-1.01535e-09
-6.90743e-10
1.92613e-11
1.05022e-09
2.28863e-09
-6.36814e-10
-3.19006e-10
3.9526e-10
1.40909e-09
2.6144e-09
1.8704e-10
5.1388e-10
1.20142e-09
2.14985e-09
3.23242e-09
1.43239e-09
1.75423e-09
2.38363e-09
3.23041e-09
4.18331e-09
2.96087e-09
3.23735e-09
3.7774e-09
4.53108e-09
5.55179e-09
-3.77384e-09
-3.33318e-09
-2.37307e-09
-9.88283e-10
6.82416e-10
-3.27044e-09
-2.83023e-09
-1.86662e-09
-5.10652e-10
1.07652e-09
-2.16684e-09
-1.71669e-09
-7.9382e-10
4.55927e-10
1.87841e-09
-5.49707e-10
-1.25253e-10
7.22115e-10
1.86964e-09
3.20224e-09
1.34285e-09
1.70734e-09
2.49377e-09
3.60043e-09
5.0806e-09
-7.32165e-09
-6.70429e-09
-5.4112e-09
-3.5648e-09
-1.37317e-09
-6.62868e-09
-6.01218e-09
-4.71563e-09
-2.90835e-09
-8.06678e-10
-5.17206e-09
-4.54591e-09
-3.29099e-09
-1.58139e-09
4.15284e-10
-3.11514e-09
-2.51479e-09
-1.31142e-09
3.46217e-10
2.32176e-09
-7.52014e-10
-1.68588e-10
1.02501e-09
2.67774e-09
4.85188e-09
-1.19669e-08
-1.10956e-08
-9.35822e-09
-6.90284e-09
-4.05153e-09
-1.10069e-08
-1.01451e-08
-8.39968e-09
-5.96999e-09
-3.12372e-09
-9.09427e-09
-8.21992e-09
-6.48986e-09
-4.10024e-09
-1.27469e-09
-6.43904e-09
-5.57504e-09
-3.86328e-09
-1.50032e-09
1.27529e-09
-3.37911e-09
-2.50132e-09
-7.94432e-10
1.49791e-09
4.33195e-09
-1.8194e-08
-1.69818e-08
-1.46276e-08
-1.13274e-08
-7.49106e-09
-1.68815e-08
-1.56802e-08
-1.3305e-08
-9.9931e-09
-6.07496e-09
-1.43453e-08
-1.31257e-08
-1.07255e-08
-7.40058e-09
-3.48297e-09
-1.0837e-08
-9.60415e-09
-7.20138e-09
-3.91527e-09
-9.41376e-11
-6.76119e-09
-5.45527e-09
-3.08365e-09
4.80355e-11
3.80854e-09
-2.67136e-08
-2.50477e-08
-2.1817e-08
-1.73261e-08
-1.20498e-08
-2.49392e-08
-2.32695e-08
-2.00115e-08
-1.5493e-08
-1.01459e-08
-2.152e-08
-1.98305e-08
-1.6536e-08
-1.2001e-08
-6.67194e-09
-1.6779e-08
-1.50581e-08
-1.17835e-08
-7.30413e-09
-2.02046e-09
-1.11546e-08
-9.3539e-09
-6.17442e-09
-1.84277e-09
3.45323e-09
-3.8498e-08
-3.62165e-08
-3.17684e-08
-2.5638e-08
-1.84137e-08
-3.61028e-08
-3.38009e-08
-2.93433e-08
-2.31984e-08
-1.59295e-08
-3.14476e-08
-2.91421e-08
-2.46755e-08
-1.8527e-08
-1.12857e-08
-2.49788e-08
-2.26567e-08
-1.82486e-08
-1.21545e-08
-4.91668e-09
-1.72323e-08
-1.48975e-08
-1.06134e-08
-4.61264e-09
2.63736e-09
-5.48314e-08
-5.16982e-08
-4.56005e-08
-3.72234e-08
-2.73327e-08
-5.15783e-08
-4.84232e-08
-4.23432e-08
-3.39499e-08
-2.40221e-08
-4.52412e-08
-4.21085e-08
-3.60402e-08
-2.76471e-08
-1.77769e-08
-3.64406e-08
-3.33068e-08
-2.73005e-08
-1.89621e-08
-9.12694e-09
-2.59376e-08
-2.28218e-08
-1.69168e-08
-8.64662e-09
1.14941e-09
-7.74041e-08
-7.30826e-08
-6.4751e-08
-5.32806e-08
-3.97276e-08
-7.2948e-08
-6.86188e-08
-6.03162e-08
-4.88217e-08
-3.52974e-08
-6.43371e-08
-6.00426e-08
-5.17504e-08
-4.02847e-08
-2.68414e-08
-5.23967e-08
-4.81031e-08
-3.98773e-08
-2.8485e-08
-1.51088e-08
-3.82276e-08
-3.40092e-08
-2.58717e-08
-1.45216e-08
-1.16925e-09
-1.08519e-07
-1.02562e-07
-9.11887e-08
-7.54907e-08
-5.6978e-08
-1.02395e-07
-9.64513e-08
-8.51008e-08
-6.94034e-08
-5.10034e-08
-9.06867e-08
-8.47769e-08
-7.34482e-08
-5.78427e-08
-3.95102e-08
-7.44926e-08
-6.86123e-08
-5.7385e-08
-4.18826e-08
-2.36708e-08
-5.54304e-08
-4.96698e-08
-3.85288e-08
-2.30709e-08
-4.95673e-09
-1.51423e-07
-1.43258e-07
-1.27735e-07
-1.06301e-07
-8.1054e-08
-1.43031e-07
-1.34894e-07
-1.19395e-07
-9.80295e-08
-7.29626e-08
-1.27081e-07
-1.18982e-07
-1.03563e-07
-8.2365e-08
-5.73724e-08
-1.05083e-07
-9.70657e-08
-8.17978e-08
-6.07444e-08
-3.59515e-08
-7.92692e-08
-7.13468e-08
-5.62115e-08
-3.52897e-08
-1.07306e-08
-2.10648e-07
-1.99501e-07
-1.78315e-07
-1.4909e-07
-1.14662e-07
-1.99175e-07
-1.88068e-07
-1.66954e-07
-1.37879e-07
-1.03653e-07
-1.77397e-07
-1.66366e-07
-1.45417e-07
-1.16567e-07
-8.24983e-08
-1.47422e-07
-1.36525e-07
-1.15767e-07
-8.71388e-08
-5.34112e-08
-1.12204e-07
-1.01403e-07
-8.08531e-08
-5.25548e-08
-1.93729e-08
-2.92335e-07
-2.77123e-07
-2.482e-07
-2.08294e-07
-1.61201e-07
-2.76635e-07
-2.61502e-07
-2.32723e-07
-1.93002e-07
-1.46117e-07
-2.46832e-07
-2.31835e-07
-2.03286e-07
-1.63864e-07
-1.17334e-07
-2.0585e-07
-1.91018e-07
-1.6271e-07
-1.23679e-07
-7.77376e-08
-1.57704e-07
-1.42977e-07
-1.14993e-07
-7.65616e-08
-3.15559e-08
-4.04741e-07
-3.83963e-07
-3.44406e-07
-2.89784e-07
-2.25301e-07
-3.83214e-07
-3.62558e-07
-3.23199e-07
-2.68814e-07
-2.04628e-07
-3.42311e-07
-3.21839e-07
-2.82822e-07
-2.28921e-07
-1.6533e-07
-2.86064e-07
-2.65829e-07
-2.2724e-07
-1.73995e-07
-1.11276e-07
-2.20018e-07
-2.0006e-07
-1.62012e-07
-1.09595e-07
-4.79751e-08
-5.59098e-07
-5.30653e-07
-4.76454e-07
-4.01667e-07
-3.13517e-07
-5.29508e-07
-5.01207e-07
-4.47313e-07
-3.72928e-07
-2.85183e-07
-4.73225e-07
-4.45228e-07
-3.91925e-07
-3.18321e-07
-2.31492e-07
-3.95858e-07
-3.68311e-07
-3.15785e-07
-2.43254e-07
-1.57766e-07
-3.05056e-07
-2.781e-07
-2.26479e-07
-1.55238e-07
-7.12349e-08
-7.7085e-07
-7.31815e-07
-6.57543e-07
-5.5518e-07
-4.34537e-07
-7.30096e-07
-6.91304e-07
-6.17549e-07
-5.15827e-07
-3.95831e-07
-6.5263e-07
-6.14384e-07
-5.41573e-07
-4.41091e-07
-3.22523e-07
-5.46176e-07
-5.08672e-07
-4.37168e-07
-3.38428e-07
-2.2191e-07
-4.2117e-07
-3.84564e-07
-3.14676e-07
-2.181e-07
-1.03935e-07
-1.06133e-06
-1.00771e-06
-9.05892e-07
-7.65704e-07
-6.00463e-07
-1.0052e-06
-9.52028e-07
-8.51015e-07
-7.1183e-07
-5.47623e-07
-8.98582e-07
-8.46293e-07
-7.46798e-07
-6.09549e-07
-4.47428e-07
-7.52026e-07
-7.00925e-07
-6.0359e-07
-4.69038e-07
-3.09903e-07
-5.79843e-07
-5.30207e-07
-4.3554e-07
-3.04291e-07
-1.48802e-07
-1.46004e-06
-1.38617e-06
-1.24633e-06
-1.05424e-06
-8.28062e-07
-1.38267e-06
-1.30957e-06
-1.17104e-06
-9.80498e-07
-7.55768e-07
-1.23569e-06
-1.16411e-06
-1.02812e-06
-8.40546e-07
-6.18929e-07
-1.03376e-06
-9.64236e-07
-8.31758e-07
-6.4835e-07
-4.31071e-07
-7.96773e-07
-7.29622e-07
-6.01324e-07
-4.22922e-07
-2.11162e-07
-2.00779e-06
-1.90531e-06
-1.71272e-06
-1.44933e-06
-1.14015e-06
-1.90087e-06
-1.79986e-06
-1.60951e-06
-1.34848e-06
-1.04144e-06
-1.69774e-06
-1.59955e-06
-1.41346e-06
-1.15714e-06
-8.54548e-07
-1.41897e-06
-1.3245e-06
-1.14436e-06
-8.94535e-07
-5.97913e-07
-1.0924e-06
-1.00196e-06
-8.2864e-07
-5.86527e-07
-2.97581e-07
-2.76144e-06
-2.61743e-06
-2.35114e-06
-1.98946e-06
-1.56823e-06
-2.61338e-06
-2.47231e-06
-2.20973e-06
-1.85191e-06
-1.43352e-06
-2.33139e-06
-2.19584e-06
-1.94089e-06
-1.59064e-06
-1.17786e-06
-1.94501e-06
-1.81693e-06
-1.57252e-06
-1.23249e-06
-8.27409e-07
-1.49394e-06
-1.37352e-06
-1.14066e-06
-8.12428e-07
-4.17218e-07
-3.80151e-06
-3.5936e-06
-3.22352e-06
-2.72529e-06
-2.15439e-06
-3.59611e-06
-3.39446e-06
-3.03035e-06
-2.53866e-06
-1.97028e-06
-3.20129e-06
-3.0117e-06
-2.66178e-06
-2.18275e-06
-1.62056e-06
-2.66207e-06
-2.48918e-06
-2.15885e-06
-1.69673e-06
-1.14343e-06
-2.03695e-06
-1.87966e-06
-1.56974e-06
-1.12569e-06
-5.8343e-07
-5.24471e-06
-4.92728e-06
-4.41304e-06
-3.72005e-06
-2.95216e-06
-4.96031e-06
-4.65844e-06
-4.15075e-06
-3.4704e-06
-2.7009e-06
-4.3988e-06
-4.1253e-06
-3.64423e-06
-2.98756e-06
-2.22277e-06
-3.63595e-06
-3.40451e-06
-2.96166e-06
-2.33648e-06
-1.57768e-06
-2.7624e-06
-2.56704e-06
-2.16316e-06
-1.56574e-06
-8.1423e-07
-7.26805e-06
-6.72885e-06
-6.03516e-06
-5.04324e-06
-4.01798e-06
-6.88106e-06
-6.38895e-06
-5.68088e-06
-4.72428e-06
-3.67428e-06
-6.05816e-06
-5.63408e-06
-4.97576e-06
-4.07093e-06
-3.02304e-06
-4.94966e-06
-4.6463e-06
-4.06108e-06
-3.22713e-06
-2.16589e-06
-3.69975e-06
-3.49647e-06
-2.9931e-06
-2.20109e-06
-1.13335e-06
-1.0159e-05
-9.06688e-06
-8.27879e-06
-6.74239e-06
-5.36486e-06
-9.66666e-06
-8.75794e-06
-7.78751e-06
-6.40499e-06
-4.87056e-06
-8.39329e-06
-7.63071e-06
-6.76142e-06
-5.49849e-06
-4.01427e-06
-6.7055e-06
-6.32974e-06
-5.56045e-06
-4.51196e-06
-2.9032e-06
-4.77361e-06
-4.7469e-06
-4.1717e-06
-3.17656e-06
-1.57214e-06
-1.44214e-05
-1.16529e-05
-1.162e-05
-8.73131e-06
-6.8935e-06
-1.39334e-05
-1.20674e-05
-1.07611e-05
-8.76275e-06
-5.96337e-06
-1.17931e-05
-1.00511e-05
-9.12467e-06
-7.26685e-06
-5.06956e-06
-9.05852e-06
-8.66892e-06
-7.54483e-06
-6.59658e-06
-3.46531e-06
-5.38139e-06
-6.43113e-06
-5.85284e-06
-4.87126e-06
-2.20934e-06
-2.10552e-05
-1.31593e-05
-1.71751e-05
-1.02792e-05
-8.61617e-06
-2.0827e-05
-1.6865e-05
-1.48175e-05
-1.25532e-05
-5.86128e-06
-1.69819e-05
-1.17773e-05
-1.21642e-05
-8.59654e-06
-6.22572e-06
-1.22906e-05
-1.23412e-05
-9.4209e-06
-1.09682e-05
-2.36027e-06
-3.66311e-06
-8.28664e-06
-7.80773e-06
-8.32551e-06
-3.46447e-06
-2.8761e-05
-2.45721e-06
-1.9791e-05
-5.11667e-06
6.00929e-06
-2.87655e-05
-1.47479e-05
-1.06182e-05
-1.62124e-05
4.04155e-07
-1.71819e-05
4.56568e-07
1.12234e-06
2.36658e-06
1.44213e-06
-9.60168e-06
-1.36752e-05
6.02739e-06
-1.794e-05
3.59034e-06
5.54637e-06
-1.80492e-06
2.43527e-06
-1.32051e-05
-6.17516e-06
-7.57172e-05
-7.02713e-05
-7.6901e-05
-4.69377e-05
-6.92929e-05
-7.10313e-05
-7.03797e-05
-6.26817e-05
-4.7211e-05
-1.86745e-05
-6.52925e-05
-5.15401e-05
-8.05664e-05
-5.62365e-05
-7.28687e-05
-6.05503e-05
-5.87891e-05
-6.26203e-05
-5.31794e-05
-4.3858e-06
-2.96036e-06
-5.13443e-05
-5.67068e-05
-5.63481e-05
-3.73072e-05
-0.000108645
0.000113679
-5.10057e-05
5.44771e-05
0.000144045
-0.00013617
-8.34941e-06
3.35742e-05
-7.78996e-05
-2.94345e-05
-6.67083e-05
0.000107182
8.63007e-05
0.000120259
4.41561e-05
9.10737e-06
-6.63523e-05
0.000147272
-8.72359e-05
2.73989e-06
4.28272e-05
1.45154e-05
4.61559e-05
-4.64126e-05
-9.17221e-05
0.000741609
0.00133193
0.00135664
0.000806092
0.0011983
0.00169028
0.00116142
0.00105307
0.000729571
0.000730422
0.00163359
0.00100345
0.0011572
0.000979599
0.00092391
0.000861077
0.000800193
0.00132616
0.000829004
0.000540891
0.000479826
0.00101377
0.00110169
0.000568012
0.000282006
0.00286264
0.00233808
0.00261683
0.00227156
0.00155077
0.00270601
0.0025219
0.00226465
0.00213266
0.00160088
0.0025969
0.00223146
0.00204488
0.00220239
0.00186205
0.00188664
0.00202811
0.00195708
0.00207986
0.00161214
0.00173564
0.00207693
0.00195133
0.00243511
0.00217366
0.00325434
0.00299796
0.00311018
0.00309481
0.00287992
0.00330477
0.00313246
0.00320294
0.00312387
0.00265991
0.00319537
0.0030802
0.00309322
0.00294269
0.00285664
0.00286931
0.00310354
0.00288112
0.00291307
0.00287309
0.00279462
0.00302033
0.00306164
0.00309773
0.00335925
0.00366272
0.00351872
0.0039054
0.00384429
0.00409899
0.00396617
0.00384642
0.00397536
0.00435684
0.00464064
0.00369232
0.00365142
0.00364603
0.00369591
0.00379256
0.00498713
0.00402542
0.00390898
0.00406008
0.00412491
0.00382451
0.00406481
0.00384281
0.00429738
0.00423221
0.00585615
0.0049469
0.00531264
0.00485011
0.00535935
0.00482199
0.00497443
0.0050336
0.00516757
0.00514706
0.00492966
0.00508434
0.00473463
0.0050758
0.00509398
0.00550557
0.00533512
0.00486445
0.00537756
0.00488942
0.00526962
0.00494933
0.00487386
0.00527274
0.00493779
0.00694283
0.00678317
0.00607037
0.00648083
0.00646417
0.0063541
0.00596628
0.00613568
0.00603413
0.00593674
0.00612413
0.00619837
0.00653872
0.00614424
0.0062708
0.0058319
0.00597341
0.00594614
0.006279
0.00579179
0.00586063
0.00565288
0.00625703
0.00619259
0.00575305
0.0077443
0.0078769
0.00673018
0.00724475
0.00693253
0.00724701
0.00728421
0.00710133
0.007026
0.00711057
0.00708413
0.00703368
0.00715238
0.00719259
0.00729914
0.007304
0.00682528
0.00704029
0.00696512
0.00696358
0.00720222
0.00733624
0.00706277
0.00701679
0.00693401
0.00832172
0.00852199
0.0083014
0.00789073
0.00840542
0.007973
0.00840526
0.00814689
0.00778475
0.00855
0.0078145
0.00796923
0.00772029
0.0079377
0.00778121
0.00813884
0.00809001
0.00786888
0.00779594
0.00787812
0.00798976
0.00794537
0.00753682
0.00739265
0.00771614
0.00863516
0.00893389
0.00906509
0.00866862
0.00890245
0.0090177
0.00896907
0.00918329
0.00881491
0.00923371
0.00883275
0.00885432
0.00876093
0.00867805
0.00882433
0.00847472
0.00889886
0.00877549
0.00873927
0.00853195
0.00859646
0.00861927
0.0086247
0.00832201
0.00858903
0.00958388
0.00957612
0.009646
0.00954578
0.00946379
0.00984015
0.00962075
0.00955025
0.00954565
0.00956844
0.00968104
0.00966447
0.0095909
0.00927943
0.00949508
0.00947965
0.00964069
0.00952018
0.00947623
0.00961682
0.00958365
0.00963601
0.00969472
0.00953699
0.00961799
0.00995859
0.00990376
0.00990228
0.0099237
0.00991836
0.00994962
0.0099478
0.0098324
0.00989139
0.00980986
0.00991634
0.0099536
0.00994973
0.0098442
0.00990019
0.00992121
0.00991536
0.00990188
0.00986374
0.00996142
0.0100002
0.00996574
0.00994666
0.00989081
0.00990573
0.00990728
0.00989628
0.00992286
0.00990608
0.00987687
0.00992563
0.0099162
0.00993395
0.0099316
0.00989328
0.00993976
0.00992649
0.00994629
0.00993303
0.00993483
0.00993844
0.0099149
0.00994409
0.0099304
0.00993175
0.00995058
0.00995127
0.00994426
0.00993726
0.0099321
0.00991671
0.00990732
0.00991191
0.00990698
0.00989729
0.00991963
0.00991411
0.00991052
0.00991074
0.00989893
0.0099223
0.00991889
0.00992355
0.00991099
0.00991169
0.0099125
0.00991035
0.0099171
0.00990954
0.00991824
0.00992941
0.00993103
0.00992874
0.00991884
0.0099173
0.00991539
0.00991158
0.00991281
0.00990978
0.00990526
0.00991717
0.00991438
0.00991395
0.009912
0.00990719
0.00991956
0.00991702
0.00991882
0.00991386
0.00991288
0.00991493
0.00991327
0.00991679
0.00991362
0.00991512
0.00992428
0.0099233
0.00992186
0.0099176
0.00991647
0.00991488
0.00991325
0.00991333
0.0099116
0.00990941
0.00991585
0.00991451
0.0099142
0.00991271
0.00991069
0.00991703
0.0099158
0.00991606
0.00991402
0.00991284
0.00991551
0.00991479
0.00991599
0.00991463
0.00991424
0.00991962
0.00991896
0.00991821
0.0099164
0.00991557
0.00991466
0.009914
0.00991367
0.0099127
0.00991157
0.00991516
0.00991457
0.0099142
0.0099133
0.00991227
0.00991572
0.00991518
0.00991503
0.0099141
0.00991328
0.00991564
0.0099153
0.00991546
0.00991476
0.0099142
0.00991709
0.00991681
0.00991641
0.00991567
0.00991512
0.00991458
0.00991428
0.00991394
0.00991338
0.00991274
0.00991484
0.00991457
0.00991425
0.00991371
0.00991311
0.00991517
0.00991494
0.0099147
0.0099142
0.00991368
0.00991539
0.00991522
0.0099151
0.0099147
0.00991428
0.00991594
0.00991575
0.00991557
0.00991524
0.00991489
0.00991456
0.0099144
0.00991415
0.00991379
0.0099134
0.00991471
0.00991456
0.00991433
0.00991399
0.00991362
0.00991493
0.0099148
0.0099146
0.0099143
0.00991397
0.00991514
0.00991504
0.0099149
0.00991465
0.00991437
0.00991538
0.0099153
0.0099152
0.00991501
0.00991478
0.00991456
0.00991446
0.00991429
0.00991406
0.00991381
0.00991465
0.00991456
0.0099144
0.00991418
0.00991394
0.0099148
0.00991472
0.00991458
0.00991439
0.00991416
0.00991497
0.0099149
0.00991479
0.00991463
0.00991443
0.00991513
0.00991508
0.009915
0.00991488
0.00991472
0.00991457
0.00991451
0.0099144
0.00991424
0.00991407
0.00991463
0.00991457
0.00991447
0.00991432
0.00991416
0.00991474
0.00991468
0.00991459
0.00991445
0.0099143
0.00991486
0.00991482
0.00991474
0.00991462
0.00991449
0.00991499
0.00991495
0.00991489
0.0099148
0.00991469
0.00991459
0.00991454
0.00991447
0.00991436
0.00991425
0.00991463
0.00991459
0.00991452
0.00991442
0.0099143
0.0099147
0.00991467
0.0099146
0.00991451
0.0099144
0.00991479
0.00991476
0.00991471
0.00991463
0.00991453
0.00991489
0.00991487
0.00991482
0.00991475
0.00991467
0.0099146
0.00991457
0.00991452
0.00991445
0.00991437
0.00991463
0.0099146
0.00991455
0.00991449
0.00991441
0.00991468
0.00991466
0.00991461
0.00991455
0.00991448
0.00991475
0.00991473
0.00991469
0.00991463
0.00991457
0.00991483
0.00991481
0.00991477
0.00991473
0.00991467
0.00991462
0.0099146
0.00991456
0.00991451
0.00991446
0.00991464
0.00991462
0.00991458
0.00991454
0.00991448
0.00991468
0.00991466
0.00991463
0.00991458
0.00991453
0.00991473
0.00991471
0.00991468
0.00991464
0.0099146
0.00991478
0.00991477
0.00991474
0.00991471
0.00991467
0.00991463
0.00991462
0.00991459
0.00991456
0.00991452
0.00991464
0.00991463
0.00991461
0.00991457
0.00991454
0.00991467
0.00991466
0.00991464
0.00991461
0.00991457
0.00991471
0.0099147
0.00991468
0.00991465
0.00991462
0.00991475
0.00991474
0.00991472
0.0099147
0.00991467
0.00991464
0.00991463
0.00991461
0.00991459
0.00991456
0.00991465
0.00991464
0.00991462
0.0099146
0.00991457
0.00991467
0.00991466
0.00991465
0.00991463
0.0099146
0.0099147
0.00991469
0.00991468
0.00991466
0.00991463
0.00991473
0.00991472
0.00991471
0.00991469
0.00991467
0.00991465
0.00991464
0.00991463
0.00991461
0.00991459
0.00991466
0.00991465
0.00991464
0.00991462
0.0099146
0.00991467
0.00991467
0.00991465
0.00991464
0.00991462
0.00991469
0.00991469
0.00991468
0.00991466
0.00991465
0.00991472
0.00991471
0.0099147
0.00991469
0.00991467
0.00991466
0.00991465
0.00991464
0.00991463
0.00991462
0.00991466
0.00991466
0.00991465
0.00991464
0.00991462
0.00991467
0.00991467
0.00991466
0.00991465
0.00991464
0.00991469
0.00991468
0.00991468
0.00991467
0.00991466
0.00991471
0.0099147
0.0099147
0.00991469
0.00991468
0.00991466
0.00991466
0.00991465
0.00991464
0.00991464
0.00991467
0.00991466
0.00991466
0.00991465
0.00991464
0.00991467
0.00991467
0.00991467
0.00991466
0.00991465
0.00991469
0.00991468
0.00991468
0.00991467
0.00991466
0.0099147
0.0099147
0.00991469
0.00991469
0.00991468
0.00991467
0.00991466
0.00991466
0.00991465
0.00991465
0.00991467
0.00991467
0.00991466
0.00991466
0.00991465
0.00991468
0.00991467
0.00991467
0.00991466
0.00991466
0.00991468
0.00991468
0.00991468
0.00991467
0.00991467
0.00991469
0.00991469
0.00991469
0.00991468
0.00991468
0.00991467
0.00991467
0.00991467
0.00991466
0.00991466
0.00991467
0.00991467
0.00991467
0.00991466
0.00991466
0.00991468
0.00991468
0.00991467
0.00991467
0.00991466
0.00991468
0.00991468
0.00991468
0.00991468
0.00991467
0.00991469
0.00991469
0.00991469
0.00991468
0.00991468
0.00991467
0.00991467
0.00991467
0.00991467
0.00991466
0.00991467
0.00991467
0.00991467
0.00991467
0.00991467
0.00991468
0.00991468
0.00991468
0.00991467
0.00991467
0.00991468
0.00991468
0.00991468
0.00991468
0.00991467
0.00991469
0.00991469
0.00991469
0.00991468
0.00991468
0.00991467
0.00991467
0.00991467
0.00991467
0.00991467
0.00991468
0.00991468
0.00991467
0.00991467
0.00991467
0.00991468
0.00991468
0.00991468
0.00991467
0.00991467
0.00991468
0.00991468
0.00991468
0.00991468
0.00991468
0.00991469
0.00991469
0.00991468
0.00991468
0.00991468
0.00991468
0.00991468
0.00991467
0.00991467
0.00991467
0.00991468
0.00991468
0.00991468
0.00991467
0.00991467
0.00991468
0.00991468
0.00991468
0.00991468
0.00991467
0.00991468
0.00991468
0.00991468
0.00991468
0.00991468
0.00991468
0.00991468
0.00991468
0.00991468
0.00991468
0.00991468
0.00991468
0.00991468
0.00991467
0.00991467
0.00991468
0.00991468
0.00991468
0.00991468
0.00991467
0.00991468
0.00991468
0.00991468
0.00991468
0.00991467
0.00991468
0.00991468
0.00991468
0.00991468
0.00991468
0.00991468
0.00991468
0.00991468
0.00991468
0.00991468
0.00991468
0.00991468
0.00991468
0.00991468
0.00991467
0.00991468
0.00991468
0.00991468
0.00991468
0.00991467
0.00991468
0.00991468
0.00991468
0.00991468
0.00991468
0.00991468
0.00991468
0.00991468
0.00991468
0.00991468
0.00991468
0.00991468
0.00991468
0.00991468
0.00991468
0.00991468
0.00991468
0.00991468
0.00991468
0.00991468
0.00991468
0.00991468
0.00991468
0.00991468
0.00991468
0.00991468
0.00991468
0.00991468
0.00991468
0.00991468
0.00991468
0.00991468
0.00991468
0.00991468
0.00991468
0.00991468
0.00991468
0.00991468
0.00991468
0.00991468
0.00991468
0.00991468
0.00991468
0.00991468
0.00991468
0.00991468
0.00991468
0.00991468
0.00991468
0.00991468
0.00991468
0.00991468
0.00991468
0.00991468
0.00991468
0.00991468
0.00991468
0.00991468
0.00991468
0.00991468
0.00991468
0.00991468
0.00991468
0.00991468
0.00991468
0.00991468
0.00991468
0.00991468
0.00991468
0.00991468
0.00991468
0.00991468
0.00991468
0.00991468
0.00991468
0.00991468
0.00991468
0.00991468
0.00991468
0.00991468
0.00991468
0.00991468
0.00991468
0.00991468
0.00991468
0.00991468
0.00991468
0.00991468
0.00991468
0.00991468
0.00991468
0.00991468
0.00991468
0.00991468
0.00991468
0.00991468
0.00991468
0.00991468
0.00991468
0.00991468
0.00991468
0.00991468
0.00991468
0.00991468
0.00991468
0.00991468
0.00991468
0.00991468
0.00991468
0.00991468
0.00991468
0.00991468
0.00991468
0.00991468
0.00991468
0.00991468
0.00991468
0.00991468
0.00991468
0.00991468
0.00991468
0.00991468
0.00991468
0.00991468
0.00991468
0.00991468
0.00991468
0.00991468
0.00991468
0.00991468
0.00991468
0.00991468
0.00991468
0.00991468
0.00991468
0.00991468
0.00991468
0.00991468
0.00991468
0.00991468
0.00991468
0.00991468
0.00991468
0.00991468
0.00991468
0.00991468
0.00991468
0.00991468
0.00991468
0.00991468
0.00991468
0.00991468
0.00991468
0.00991468
0.00991468
0.00991468
0.00991468
0.00991468
0.00991468
0.00991468
0.00991468
0.00991468
0.00991468
0.00991468
0.00991468
0.00991468
0.00991468
0.00991468
0.00991468
0.00991468
0.00991468
0.00991468
0.00991468
0.00991468
0.00991468
0.00991468
0.00991468
0.00991468
0.00991468
0.00991468
0.00991468
0.00991468
0.00991468
0.00991468
0.00991468
0.00991468
0.00991468
0.00991468
0.00991468
0.00991468
0.00991468
0.00991468
0.00991468
0.00991468
0.00991468
0.00991468
0.00991468
0.00991468
0.00991468
0.00991468
0.00991468
0.00991468
0.00991468
0.00991468
0.00991468
0.00991468
0.00991468
0.00991468
0.00991468
0.00991468
0.00991468
0.00991468
0.00991468
0.00991468
0.00991468
0.00991468
0.00991468
0.00991468
0.00991468
0.00991468
0.00991468
0.00991468
0.00991468
0.00991468
0.00991468
0.00991468
0.00991468
0.00991468
0.00991468
0.00991468
0.00991468
0.00991468
0.00991468
0.00991468
0.00991468
0.00991468
0.00991468
0.00991468
0.00991468
0.00991468
0.00991468
0.00991468
0.00991468
0.00991468
0.00991468
0.00991468
0.00991468
0.00991468
0.00991468
0.00991468
0.00991468
0.00991468
0.00991468
0.00991468
0.00991468
0.00991468
0.00991468
0.00991468
0.00991468
0.00991468
0.00991468
0.00991468
0.00991468
0.00991468
0.00991468
0.00991468
0.00991468
0.00991468
0.00991468
0.00991468
0.00991468
0.00991468
0.00991468
0.00991468
0.00991468
0.00991468
0.00991468
0.00991468
0.00991468
0.00991468
0.00991468
0.00991468
0.00991468
0.00991468
0.00991468
0.00991468
0.00991468
0.00991468
0.00991468
0.00991468
0.00991468
0.00991468
0.00991468
0.00991468
0.00991468
0.00991468
0.00991468
0.00991468
0.00991468
0.00991468
0.00991468
0.00991468
0.00991468
0.00991468
0.00991468
0.00991468
0.00991468
0.00991468
0.00991468
0.00991468
0.00991468
0.00991468
0.00991468
0.00991468
0.00991468
0.00991468
0.00991468
0.00991468
0.00991468
0.00991468
0.00991468
0.00991468
0.00991468
0.00991468
0.00991468
0.00991468
0.00991468
0.00991468
0.00991468
0.00991468
0.00991468
0.00991468
0.00991468
0.00991468
0.00991468
0.00991468
0.00991468
0.00991468
0.00991468
0.00991468
0.00991468
0.00991468
0.00991468
0.00991468
0.00991468
0.00991468
0.00991468
0.00991468
0.00991468
0.00991468
0.00991468
0.00991468
0.00991468
0.00991468
0.00991468
0.00991468
0.00991468
0.00991468
0.00991468
0.00991468
0.00991468
0.00991468
0.00991468
0.00991468
0.00991468
)
;

boundaryField
{
    inlet
    {
        type            zeroGradient;
    }
    outlet
    {
        type            fixedValue;
        value           uniform 0;
    }
    repeat_boundary
    {
        type            zeroGradient;
    }
    procBoundary0to1
    {
        type            processor;
        value           nonuniform List<scalar> 
450
(
5.90699e-10
5.69817e-10
5.06787e-10
4.7847e-10
4.62326e-10
1.64069e-09
1.57986e-09
1.48463e-09
1.46972e-09
1.45065e-09
2.52542e-09
2.50562e-09
2.49751e-09
2.60187e-09
2.73303e-09
3.36046e-09
3.42169e-09
3.54168e-09
3.79567e-09
4.19295e-09
4.14928e-09
4.27182e-09
4.53374e-09
4.92477e-09
5.41829e-09
4.77591e-09
4.97964e-09
5.42635e-09
5.99469e-09
6.53584e-09
5.27587e-09
5.59339e-09
6.22283e-09
6.99418e-09
7.66319e-09
5.6923e-09
6.07883e-09
6.80452e-09
7.70815e-09
8.5514e-09
5.87832e-09
6.24609e-09
6.95483e-09
7.8614e-09
8.83036e-09
5.7044e-09
6.01437e-09
6.63394e-09
7.42448e-09
8.33718e-09
5.2259e-09
5.50515e-09
6.0497e-09
6.7235e-09
7.48754e-09
4.52022e-09
4.80903e-09
5.34561e-09
6.03845e-09
6.80396e-09
3.59589e-09
3.90705e-09
4.49299e-09
5.36911e-09
6.37824e-09
2.45371e-09
2.80936e-09
3.56779e-09
4.80919e-09
6.27202e-09
1.01394e-09
1.53429e-09
2.73195e-09
4.55994e-09
6.63686e-09
-8.64946e-10
2.72824e-11
1.90436e-09
4.46037e-09
7.29217e-09
-3.24781e-09
-1.86255e-09
7.61526e-10
4.14313e-09
7.99521e-09
-6.34137e-09
-4.46352e-09
-9.94932e-10
3.52366e-09
8.85003e-09
-1.06596e-08
-8.19574e-09
-3.59328e-09
2.59083e-09
9.954e-09
-1.67763e-08
-1.34943e-08
-7.35359e-09
1.12502e-09
1.1232e-08
-2.5386e-08
-2.09881e-08
-1.27049e-08
-1.11936e-09
1.2534e-08
-3.75171e-08
-3.15735e-08
-2.02886e-08
-4.55304e-09
1.37102e-08
-5.45567e-08
-4.65246e-08
-3.11844e-08
-9.86504e-09
1.48703e-08
-7.84144e-08
-6.75355e-08
-4.67024e-08
-1.77898e-08
1.60036e-08
-1.1154e-07
-9.67153e-08
-6.83834e-08
-2.92132e-08
1.68138e-08
-1.57266e-07
-1.37049e-07
-9.84223e-08
-4.5261e-08
1.72101e-08
-2.20322e-07
-1.92637e-07
-1.39919e-07
-6.75406e-08
1.7238e-08
-3.06919e-07
-2.69044e-07
-1.97116e-07
-9.83831e-08
1.72108e-08
-4.25587e-07
-3.73904e-07
-2.7568e-07
-1.41068e-07
1.67076e-08
-5.88273e-07
-5.17708e-07
-3.8369e-07
-2.00251e-07
1.46238e-08
-8.12113e-07
-7.15764e-07
-5.32751e-07
-2.82106e-07
1.11402e-08
-1.1222e-06
-9.90235e-07
-7.39186e-07
-3.95769e-07
5.97631e-09
-1.55506e-06
-1.37352e-06
-1.02688e-06
-5.55642e-07
-8.13311e-10
-2.16916e-06
-1.91842e-06
-1.4321e-06
-7.86728e-07
-5.14402e-09
-3.07484e-06
-2.72639e-06
-2.00978e-06
-1.14615e-06
9.90083e-09
-4.527e-06
-4.05366e-06
-2.83835e-06
-1.82627e-06
1.00255e-07
-7.1442e-06
-6.65445e-06
-3.90752e-06
-3.64544e-06
4.04736e-07
-1.20023e-05
-1.1944e-05
-4.69924e-06
-8.7876e-06
1.25009e-06
-1.85008e-05
-1.37556e-05
4.50525e-06
-1.24408e-05
1.06235e-05
-5.43435e-05
-6.05308e-05
-5.93489e-05
-5.7086e-05
-5.97012e-05
-0.000107817
-4.24312e-05
8.6793e-05
-0.000110667
7.91943e-05
0.000605376
0.000904149
0.000870006