/*--------------------------------*- C++ -*----------------------------------*\
  =========                 |
  \\      /  F ield         | OpenFOAM: The Open Source CFD Toolbox
   \\    /   O peration     | Website:  https://openfoam.org
    \\  /    A nd           | Version:  9
     \\/     M anipulation  |
\*---------------------------------------------------------------------------*/
FoamFile
{
    format      ascii;
    class       volVectorField;
    location    "0.06";
    object      stored_U;
}
// * * * * * * * * * * * * * * * * * * * * * * * * * * * * * * * * * * * * * //

dimensions      [0 1 -1 0 0 0 0];

internalField   nonuniform List<vector> 
9000
(
(-3.05252e-11 -3.2103e-11 -0.000999997)
(-8.86017e-11 -3.3175e-11 -0.000999997)
(-1.3781e-10 -3.35515e-11 -0.000999998)
(-1.78937e-10 -3.38788e-11 -0.000999998)
(-1.92092e-10 -3.37413e-11 -0.000999998)
(-1.82969e-10 -3.38296e-11 -0.000999999)
(-1.69208e-10 -3.39898e-11 -0.000999999)
(-1.37573e-10 -3.35265e-11 -0.000999999)
(-8.89736e-11 -3.313e-11 -0.000999999)
(-3.05355e-11 -3.23266e-11 -0.001)
(-3.15943e-11 -9.28724e-11 -0.000999997)
(-9.01812e-11 -9.41251e-11 -0.000999998)
(-1.38809e-10 -9.41645e-11 -0.000999998)
(-1.795e-10 -9.45346e-11 -0.000999998)
(-1.92436e-10 -9.49249e-11 -0.000999998)
(-1.83598e-10 -9.07427e-11 -0.000999999)
(-1.69271e-10 -9.1609e-11 -0.000999999)
(-1.37e-10 -8.9674e-11 -0.000999999)
(-8.80006e-11 -8.82986e-11 -0.001)
(-2.98385e-11 -8.6872e-11 -0.001)
(-3.16371e-11 -1.43422e-10 -0.000999998)
(-8.98874e-11 -1.43935e-10 -0.000999998)
(-1.38517e-10 -1.43857e-10 -0.000999998)
(-1.80082e-10 -1.44906e-10 -0.000999998)
(-1.88713e-10 -1.48281e-10 -0.000999999)
(-1.80051e-10 -1.29433e-10 -0.000999999)
(-1.68513e-10 -1.3559e-10 -0.000999999)
(-1.34564e-10 -1.33009e-10 -0.001)
(-8.65308e-11 -1.31262e-10 -0.001)
(-2.93314e-11 -1.30359e-10 -0.001)
(-3.18138e-11 -1.81327e-10 -0.000999998)
(-9.03203e-11 -1.8204e-10 -0.000999998)
(-1.39782e-10 -1.82754e-10 -0.000999998)
(-1.83941e-10 -1.86588e-10 -0.000999999)
(-1.77047e-10 -1.9953e-10 -0.000999999)
(-1.70964e-10 -1.4415e-10 -0.000999999)
(-1.72872e-10 -1.68026e-10 -0.001)
(-1.32697e-10 -1.72492e-10 -0.001)
(-8.56266e-11 -1.73951e-10 -0.001)
(-2.91909e-11 -1.74621e-10 -0.001)
(-3.2031e-11 -1.93968e-10 -0.000999998)
(-9.09774e-11 -1.94113e-10 -0.000999998)
(-1.43046e-10 -1.89953e-10 -0.000999999)
(-1.96825e-10 -1.77175e-10 -0.000999999)
(-1.46334e-10 -1.43669e-10 -0.000999999)
(-1.48774e-10 -2.05416e-10 -0.000999999)
(-1.96978e-10 -1.79476e-10 -0.001)
(-1.40512e-10 -1.82972e-10 -0.001)
(-8.90229e-11 -1.87779e-10 -0.001)
(-3.03381e-11 -1.90391e-10 -0.001)
(-3.16081e-11 -1.87125e-10 -0.000999999)
(-8.59279e-11 -1.86847e-10 -0.000999999)
(-1.22743e-10 -1.80892e-10 -0.000999999)
(-1.37534e-10 -1.67888e-10 -0.000999999)
(-2.05291e-10 -1.37423e-10 -0.000999999)
(-2.07075e-10 -1.96069e-10 -0.001)
(-1.50504e-10 -1.72057e-10 -0.001)
(-1.41051e-10 -1.71325e-10 -0.001)
(-9.34433e-11 -1.73297e-10 -0.001)
(-3.2198e-11 -1.73578e-10 -0.001)
(-3.13589e-11 -1.70008e-10 -0.000999999)
(-8.43292e-11 -1.68935e-10 -0.000999999)
(-1.24053e-10 -1.64498e-10 -0.000999999)
(-1.53155e-10 -1.64391e-10 -0.001)
(-1.74177e-10 -1.77863e-10 -0.001)
(-1.83429e-10 -1.31737e-10 -0.001)
(-1.72478e-10 -1.55762e-10 -0.001)
(-1.41767e-10 -1.58745e-10 -0.001)
(-9.16428e-11 -1.59327e-10 -0.001)
(-3.10054e-11 -1.58456e-10 -0.001)
(-3.01557e-11 -1.35356e-10 -0.000999999)
(-8.00251e-11 -1.33499e-10 -0.000999999)
(-1.18179e-10 -1.28617e-10 -0.001)
(-1.50872e-10 -1.24327e-10 -0.001)
(-1.72607e-10 -1.24545e-10 -0.001)
(-1.84748e-10 -1.24554e-10 -0.001)
(-1.77489e-10 -1.28267e-10 -0.001)
(-1.44617e-10 -1.30695e-10 -0.001)
(-9.354e-11 -1.32456e-10 -0.001)
(-3.1711e-11 -1.33177e-10 -0.001)
(-2.91859e-11 -8.69663e-11 -0.000999999)
(-7.72619e-11 -8.51804e-11 -0.001)
(-1.14853e-10 -8.28834e-11 -0.001)
(-1.49059e-10 -8.14685e-11 -0.001)
(-1.74339e-10 -8.23115e-11 -0.001)
(-1.87104e-10 -8.50628e-11 -0.001)
(-1.78591e-10 -8.49488e-11 -0.001)
(-1.45955e-10 -8.56647e-11 -0.001)
(-9.44269e-11 -8.6003e-11 -0.001)
(-3.2015e-11 -8.57533e-11 -0.001)
(-2.81205e-11 -2.97768e-11 -0.001)
(-7.55857e-11 -2.88289e-11 -0.001)
(-1.14214e-10 -2.83176e-11 -0.001)
(-1.49979e-10 -2.84254e-11 -0.001)
(-1.75823e-10 -2.95372e-11 -0.001)
(-1.86946e-10 -3.0263e-11 -0.001)
(-1.77662e-10 -2.97972e-11 -0.001)
(-1.45345e-10 -2.97478e-11 -0.001)
(-9.36129e-11 -2.95054e-11 -0.001)
(-3.15919e-11 -2.90789e-11 -0.001)
(-8.40555e-11 -8.93348e-11 -0.000999997)
(-2.44442e-10 -9.17405e-11 -0.000999997)
(-3.80558e-10 -9.19734e-11 -0.000999997)
(-4.9173e-10 -9.20733e-11 -0.000999998)
(-5.36555e-10 -9.20317e-11 -0.000999998)
(-5.19061e-10 -9.19458e-11 -0.000999998)
(-4.78136e-10 -9.1958e-11 -0.000999999)
(-3.89315e-10 -9.05808e-11 -0.000999999)
(-2.50643e-10 -8.89901e-11 -0.000999999)
(-8.53878e-11 -8.58499e-11 -0.000999999)
(-8.64504e-11 -2.59721e-10 -0.000999997)
(-2.47389e-10 -2.6253e-10 -0.000999997)
(-3.81617e-10 -2.61658e-10 -0.000999998)
(-4.9276e-10 -2.61759e-10 -0.000999998)
(-5.37473e-10 -2.64546e-10 -0.000999998)
(-5.19982e-10 -2.54151e-10 -0.000999999)
(-4.77712e-10 -2.53336e-10 -0.000999999)
(-3.87091e-10 -2.47114e-10 -0.000999999)
(-2.46512e-10 -2.41681e-10 -0.000999999)
(-8.25459e-11 -2.36338e-10 -0.001)
(-8.65158e-11 -4.02899e-10 -0.000999997)
(-2.46351e-10 -4.04355e-10 -0.000999998)
(-3.80529e-10 -4.03676e-10 -0.000999998)
(-4.95617e-10 -4.06183e-10 -0.000999998)
(-5.30029e-10 -4.21783e-10 -0.000999998)
(-5.08882e-10 -3.70494e-10 -0.000999999)
(-4.72056e-10 -3.80182e-10 -0.000999999)
(-3.78444e-10 -3.71509e-10 -0.000999999)
(-2.40805e-10 -3.64116e-10 -0.001)
(-8.06506e-11 -3.60172e-10 -0.001)
(-8.71658e-11 -5.12318e-10 -0.000999998)
(-2.47409e-10 -5.14722e-10 -0.000999998)
(-3.83449e-10 -5.16443e-10 -0.000999998)
(-5.10908e-10 -5.29575e-10 -0.000999998)
(-5.01769e-10 -5.9207e-10 -0.000999999)
(-4.78392e-10 -4.0321e-10 -0.000999999)
(-4.78764e-10 -4.67454e-10 -0.000999999)
(-3.71091e-10 -4.80622e-10 -0.001)
(-2.35905e-10 -4.81452e-10 -0.001)
(-7.92986e-11 -4.79934e-10 -0.001)
(-8.8057e-11 -5.51201e-10 -0.000999998)
(-2.49558e-10 -5.52659e-10 -0.000999998)
(-3.9535e-10 -5.43184e-10 -0.000999998)
(-5.71278e-10 -5.10464e-10 -0.000999999)
(-4.03688e-10 -4.07465e-10 -0.000999999)
(-3.8407e-10 -5.93317e-10 -0.000999999)
(-5.49348e-10 -5.22049e-10 -0.001)
(-3.92474e-10 -5.20265e-10 -0.001)
(-2.41032e-10 -5.29046e-10 -0.001)
(-8.00375e-11 -5.34661e-10 -0.001)
(-8.76674e-11 -5.30536e-10 -0.000999999)
(-2.38376e-10 -5.29023e-10 -0.000999999)
(-3.41294e-10 -5.12809e-10 -0.000999999)
(-3.75261e-10 -4.74979e-10 -0.000999999)
(-5.84628e-10 -3.62342e-10 -0.000999999)
(-5.93047e-10 -5.71666e-10 -0.001)
(-4.05697e-10 -5.00484e-10 -0.001)
(-3.7809e-10 -4.90592e-10 -0.001)
(-2.51311e-10 -4.95528e-10 -0.001)
(-8.58554e-11 -4.97813e-10 -0.001)
(-8.54753e-11 -4.80797e-10 -0.000999999)
(-2.3073e-10 -4.75731e-10 -0.000999999)
(-3.41267e-10 -4.62492e-10 -0.000999999)
(-4.20976e-10 -4.61704e-10 -0.000999999)
(-5.00325e-10 -5.0672e-10 -0.001)
(-5.22235e-10 -3.61916e-10 -0.001)
(-4.68347e-10 -4.3216e-10 -0.001)
(-3.87543e-10 -4.48982e-10 -0.001)
(-2.4934e-10 -4.54005e-10 -0.001)
(-8.33626e-11 -4.53102e-10 -0.001)
(-8.15809e-11 -3.82931e-10 -0.000999999)
(-2.19036e-10 -3.76873e-10 -0.000999999)
(-3.27216e-10 -3.64768e-10 -0.001)
(-4.19501e-10 -3.55017e-10 -0.001)
(-4.84786e-10 -3.59888e-10 -0.001)
(-5.18419e-10 -3.41817e-10 -0.001)
(-4.9281e-10 -3.62252e-10 -0.001)
(-3.99997e-10 -3.7352e-10 -0.001)
(-2.56424e-10 -3.79591e-10 -0.001)
(-8.5902e-11 -3.82085e-10 -0.001)
(-7.8613e-11 -2.44347e-10 -0.000999999)
(-2.11729e-10 -2.39018e-10 -0.001)
(-3.1934e-10 -2.34189e-10 -0.001)
(-4.16049e-10 -2.31764e-10 -0.001)
(-4.87099e-10 -2.34518e-10 -0.001)
(-5.2453e-10 -2.38356e-10 -0.001)
(-5.0004e-10 -2.42379e-10 -0.001)
(-4.04885e-10 -2.45777e-10 -0.001)
(-2.58651e-10 -2.45875e-10 -0.001)
(-8.65543e-11 -2.44315e-10 -0.001)
(-7.56319e-11 -8.30687e-11 -0.001)
(-2.07966e-10 -8.03629e-11 -0.001)
(-3.19302e-10 -7.98506e-11 -0.001)
(-4.18997e-10 -8.09389e-11 -0.001)
(-4.90401e-10 -8.35855e-11 -0.001)
(-5.25146e-10 -8.51719e-11 -0.001)
(-4.99164e-10 -8.52702e-11 -0.001)
(-4.02695e-10 -8.5315e-11 -0.001)
(-2.54937e-10 -8.38475e-11 -0.001)
(-8.45913e-11 -8.18995e-11 -0.001)
(-1.41957e-10 -1.51268e-10 -0.000999997)
(-4.16161e-10 -1.54171e-10 -0.000999997)
(-6.50016e-10 -1.53044e-10 -0.000999997)
(-8.32135e-10 -1.52656e-10 -0.000999997)
(-9.30373e-10 -1.54022e-10 -0.000999998)
(-9.29454e-10 -1.54435e-10 -0.000999998)
(-8.53374e-10 -1.52228e-10 -0.000999999)
(-6.90284e-10 -1.49398e-10 -0.000999999)
(-4.42562e-10 -1.46004e-10 -0.000999999)
(-1.50181e-10 -1.40882e-10 -0.000999999)
(-1.44836e-10 -4.44928e-10 -0.000999997)
(-4.18421e-10 -4.484e-10 -0.000999997)
(-6.49736e-10 -4.45816e-10 -0.000999997)
(-8.3482e-10 -4.45475e-10 -0.000999997)
(-9.3403e-10 -4.51895e-10 -0.000999998)
(-9.29435e-10 -4.43455e-10 -0.000999998)
(-8.49948e-10 -4.31484e-10 -0.000999999)
(-6.85344e-10 -4.18763e-10 -0.000999999)
(-4.35111e-10 -4.07707e-10 -0.000999999)
(-1.45603e-10 -3.98599e-10 -0.001)
(-1.44847e-10 -6.9657e-10 -0.000999997)
(-4.16972e-10 -6.98746e-10 -0.000999997)
(-6.48351e-10 -6.9695e-10 -0.000999997)
(-8.39954e-10 -6.99295e-10 -0.000999998)
(-9.30282e-10 -7.22383e-10 -0.000999998)
(-9.10872e-10 -6.66252e-10 -0.000999999)
(-8.30331e-10 -6.57137e-10 -0.000999999)
(-6.67868e-10 -6.39561e-10 -0.000999999)
(-4.24018e-10 -6.24476e-10 -0.001)
(-1.42124e-10 -6.16473e-10 -0.001)
(-1.4574e-10 -8.89617e-10 -0.000999997)
(-4.17492e-10 -8.92316e-10 -0.000999997)
(-6.50288e-10 -8.9157e-10 -0.000999998)
(-8.60334e-10 -9.05754e-10 -0.000999998)
(-9.01074e-10 -9.8814e-10 -0.000999998)
(-8.64276e-10 -7.81416e-10 -0.000999999)
(-8.23335e-10 -8.102e-10 -0.000999999)
(-6.52798e-10 -8.18374e-10 -0.001)
(-4.13302e-10 -8.12402e-10 -0.001)
(-1.38832e-10 -8.05954e-10 -0.001)
(-1.45898e-10 -9.69317e-10 -0.000999998)
(-4.17198e-10 -9.7365e-10 -0.000999998)
(-6.61709e-10 -9.65098e-10 -0.000999998)
(-9.3652e-10 -9.27756e-10 -0.000999998)
(-8.05932e-10 -8.2774e-10 -0.000999999)
(-7.32925e-10 -9.99732e-10 -0.000999999)
(-8.67291e-10 -9.35658e-10 -0.001)
(-6.70122e-10 -9.1183e-10 -0.001)
(-4.13142e-10 -9.13449e-10 -0.001)
(-1.37192e-10 -9.16642e-10 -0.001)
(-1.48247e-10 -9.39943e-10 -0.000999998)
(-4.11366e-10 -9.38877e-10 -0.000999998)
(-6.04316e-10 -9.18663e-10 -0.000999999)
(-7.22962e-10 -8.69974e-10 -0.000999999)
(-9.73063e-10 -7.21337e-10 -0.000999999)
(-9.71906e-10 -9.57131e-10 -0.001)
(-7.35391e-10 -9.06645e-10 -0.001)
(-6.30639e-10 -8.88647e-10 -0.001)
(-4.19909e-10 -8.95255e-10 -0.001)
(-1.43777e-10 -9.00274e-10 -0.001)
(-1.42935e-10 -8.49695e-10 -0.000999999)
(-3.93989e-10 -8.40854e-10 -0.000999999)
(-5.92727e-10 -8.19024e-10 -0.000999999)
(-7.3918e-10 -8.12619e-10 -0.000999999)
(-8.93373e-10 -8.34128e-10 -0.001)
(-9.18213e-10 -6.96092e-10 -0.001)
(-7.98535e-10 -7.68191e-10 -0.001)
(-6.58836e-10 -8.06783e-10 -0.001)
(-4.26552e-10 -8.20983e-10 -0.001)
(-1.43875e-10 -8.22399e-10 -0.001)
(-1.37648e-10 -6.77831e-10 -0.000999999)
(-3.78934e-10 -6.70302e-10 -0.000999999)
(-5.7601e-10 -6.55681e-10 -0.000999999)
(-7.38067e-10 -6.4516e-10 -0.001)
(-8.56559e-10 -6.52791e-10 -0.001)
(-9.06224e-10 -6.07029e-10 -0.001)
(-8.46072e-10 -6.47035e-10 -0.001)
(-6.83505e-10 -6.69713e-10 -0.001)
(-4.37213e-10 -6.78433e-10 -0.001)
(-1.46765e-10 -6.79342e-10 -0.001)
(-1.34051e-10 -4.32228e-10 -0.000999999)
(-3.70423e-10 -4.2657e-10 -0.001)
(-5.67465e-10 -4.22393e-10 -0.001)
(-7.3622e-10 -4.21579e-10 -0.001)
(-8.55175e-10 -4.27855e-10 -0.001)
(-9.12422e-10 -4.25126e-10 -0.001)
(-8.61136e-10 -4.36003e-10 -0.001)
(-6.90232e-10 -4.40566e-10 -0.001)
(-4.37451e-10 -4.37575e-10 -0.001)
(-1.45986e-10 -4.31826e-10 -0.001)
(-1.30935e-10 -1.46694e-10 -0.001)
(-3.67516e-10 -1.44068e-10 -0.001)
(-5.69822e-10 -1.44763e-10 -0.001)
(-7.41981e-10 -1.47545e-10 -0.001)
(-8.5836e-10 -1.52001e-10 -0.001)
(-9.12575e-10 -1.52412e-10 -0.001)
(-8.59805e-10 -1.53887e-10 -0.001)
(-6.838e-10 -1.52678e-10 -0.001)
(-4.28486e-10 -1.48683e-10 -0.001)
(-1.41528e-10 -1.44218e-10 -0.001)
(-2.07562e-10 -2.21272e-10 -0.000999996)
(-6.15398e-10 -2.24427e-10 -0.000999996)
(-9.67836e-10 -2.21937e-10 -0.000999996)
(-1.23264e-09 -2.21728e-10 -0.000999997)
(-1.40247e-09 -2.25153e-10 -0.000999997)
(-1.44185e-09 -2.25791e-10 -0.000999998)
(-1.32575e-09 -2.19504e-10 -0.000999998)
(-1.06328e-09 -2.15128e-10 -0.000999999)
(-6.8208e-10 -2.10292e-10 -0.000999999)
(-2.32328e-10 -2.04453e-10 -0.000999999)
(-2.10697e-10 -6.59481e-10 -0.000999996)
(-6.16851e-10 -6.63701e-10 -0.000999996)
(-9.67024e-10 -6.59593e-10 -0.000999996)
(-1.23843e-09 -6.59132e-10 -0.000999997)
(-1.40936e-09 -6.65546e-10 -0.000999997)
(-1.43891e-09 -6.6284e-10 -0.000999998)
(-1.3175e-09 -6.33874e-10 -0.000999999)
(-1.05601e-09 -6.14776e-10 -0.000999999)
(-6.73009e-10 -5.99546e-10 -0.000999999)
(-2.27292e-10 -5.88736e-10 -0.001)
(-2.1091e-10 -1.04234e-09 -0.000999996)
(-6.15454e-10 -1.04579e-09 -0.000999996)
(-9.65185e-10 -1.04238e-09 -0.000999997)
(-1.2412e-09 -1.04141e-09 -0.000999997)
(-1.4091e-09 -1.05729e-09 -0.000999998)
(-1.41298e-09 -1.02142e-09 -0.000999998)
(-1.2802e-09 -9.77991e-10 -0.000999999)
(-1.03103e-09 -9.49251e-10 -0.000999999)
(-6.58475e-10 -9.28856e-10 -0.001)
(-2.23075e-10 -9.19161e-10 -0.001)
(-2.12157e-10 -1.33466e-09 -0.000999997)
(-6.14864e-10 -1.3362e-09 -0.000999997)
(-9.62645e-10 -1.32884e-09 -0.000999997)
(-1.25346e-09 -1.33318e-09 -0.000999998)
(-1.38954e-09 -1.38694e-09 -0.000999998)
(-1.35976e-09 -1.26263e-09 -0.000999999)
(-1.24546e-09 -1.21987e-09 -0.000999999)
(-1.00706e-09 -1.20538e-09 -0.001)
(-6.44798e-10 -1.19287e-09 -0.001)
(-2.19355e-10 -1.18601e-09 -0.001)
(-2.09818e-10 -1.47311e-09 -0.000999997)
(-6.0692e-10 -1.47993e-09 -0.000999997)
(-9.62017e-10 -1.47422e-09 -0.000999998)
(-1.29925e-09 -1.4482e-09 -0.000999998)
(-1.33848e-09 -1.39621e-09 -0.000999998)
(-1.24593e-09 -1.43616e-09 -0.000999999)
(-1.22298e-09 -1.41482e-09 -0.001)
(-1.00418e-09 -1.3778e-09 -0.001)
(-6.41669e-10 -1.36818e-09 -0.001)
(-2.18678e-10 -1.36691e-09 -0.001)
(-2.16123e-10 -1.44843e-09 -0.000999998)
(-6.13021e-10 -1.45138e-09 -0.000999998)
(-9.30782e-10 -1.43487e-09 -0.000999998)
(-1.17546e-09 -1.3926e-09 -0.000999999)
(-1.37741e-09 -1.27564e-09 -0.000999999)
(-1.37835e-09 -1.40624e-09 -0.001)
(-1.18708e-09 -1.41365e-09 -0.001)
(-9.60572e-10 -1.4001e-09 -0.001)
(-6.36656e-10 -1.40317e-09 -0.001)
(-2.20702e-10 -1.40495e-09 -0.001)
(-2.09969e-10 -1.31224e-09 -0.000999998)
(-5.90515e-10 -1.30543e-09 -0.000999999)
(-9.0311e-10 -1.28129e-09 -0.000999999)
(-1.14005e-09 -1.26456e-09 -0.000999999)
(-1.35212e-09 -1.24157e-09 -0.001)
(-1.38391e-09 -1.20062e-09 -0.001)
(-1.21686e-09 -1.23657e-09 -0.001)
(-9.93805e-10 -1.27832e-09 -0.001)
(-6.49269e-10 -1.29403e-09 -0.001)
(-2.23051e-10 -1.29294e-09 -0.001)
(-2.06746e-10 -1.04959e-09 -0.000999999)
(-5.79482e-10 -1.04685e-09 -0.000999999)
(-8.89799e-10 -1.0364e-09 -0.000999999)
(-1.13573e-09 -1.03016e-09 -0.001)
(-1.31351e-09 -1.03809e-09 -0.001)
(-1.37328e-09 -9.8889e-10 -0.001)
(-1.26477e-09 -1.02721e-09 -0.001)
(-1.01814e-09 -1.04934e-09 -0.001)
(-6.53831e-10 -1.05186e-09 -0.001)
(-2.22033e-10 -1.0442e-09 -0.001)
(-2.0521e-10 -6.73105e-10 -0.000999999)
(-5.75218e-10 -6.71498e-10 -0.000999999)
(-8.86242e-10 -6.71271e-10 -0.001)
(-1.14161e-09 -6.75083e-10 -0.001)
(-1.31073e-09 -6.90058e-10 -0.001)
(-1.3729e-09 -6.78664e-10 -0.001)
(-1.2772e-09 -6.87046e-10 -0.001)
(-1.01845e-09 -6.85699e-10 -0.001)
(-6.46085e-10 -6.75651e-10 -0.001)
(-2.17299e-10 -6.63754e-10 -0.001)
(-2.03485e-10 -2.29743e-10 -0.001)
(-5.75209e-10 -2.28862e-10 -0.001)
(-8.91499e-10 -2.313e-10 -0.001)
(-1.15209e-09 -2.3588e-10 -0.001)
(-1.31441e-09 -2.44085e-10 -0.001)
(-1.36764e-09 -2.4214e-10 -0.001)
(-1.26943e-09 -2.41321e-10 -0.001)
(-1.0049e-09 -2.36593e-10 -0.001)
(-6.31945e-10 -2.2956e-10 -0.001)
(-2.10975e-10 -2.23214e-10 -0.001)
(-2.91085e-10 -3.07591e-10 -0.000999995)
(-8.7019e-10 -3.11097e-10 -0.000999995)
(-1.37709e-09 -3.07665e-10 -0.000999995)
(-1.74954e-09 -3.07195e-10 -0.000999996)
(-2.00517e-09 -3.10637e-10 -0.000999997)
(-2.096e-09 -3.09776e-10 -0.000999997)
(-1.93058e-09 -3.00148e-10 -0.000999998)
(-1.53793e-09 -2.95654e-10 -0.000999999)
(-9.88204e-10 -2.91224e-10 -0.000999999)
(-3.38222e-10 -2.8647e-10 -0.000999999)
(-2.94555e-10 -9.23936e-10 -0.000999995)
(-8.71386e-10 -9.28546e-10 -0.000999995)
(-1.37586e-09 -9.22177e-10 -0.000999996)
(-1.75602e-09 -9.17904e-10 -0.000999996)
(-2.01165e-09 -9.14176e-10 -0.000999997)
(-2.08936e-09 -9.16196e-10 -0.000999998)
(-1.91994e-09 -8.74888e-10 -0.000999998)
(-1.53184e-09 -8.55496e-10 -0.000999999)
(-9.81353e-10 -8.41743e-10 -0.000999999)
(-3.34602e-10 -8.33171e-10 -0.001)
(-2.94421e-10 -1.46888e-09 -0.000999995)
(-8.68321e-10 -1.47187e-09 -0.000999996)
(-1.36915e-09 -1.46355e-09 -0.000999996)
(-1.7451e-09 -1.44992e-09 -0.000999997)
(-2.00747e-09 -1.43103e-09 -0.000999997)
(-2.06076e-09 -1.43449e-09 -0.000999998)
(-1.87356e-09 -1.36189e-09 -0.000999999)
(-1.50783e-09 -1.33091e-09 -0.000999999)
(-9.69409e-10 -1.31413e-09 -0.001)
(-3.31875e-10 -1.30856e-09 -0.001)
(-2.94696e-10 -1.87918e-09 -0.000999996)
(-8.63176e-10 -1.87801e-09 -0.000999996)
(-1.35393e-09 -1.85899e-09 -0.000999997)
(-1.72362e-09 -1.83244e-09 -0.000999997)
(-1.99639e-09 -1.81259e-09 -0.000999998)
(-2.02044e-09 -1.81445e-09 -0.000999998)
(-1.81659e-09 -1.72297e-09 -0.000999999)
(-1.48435e-09 -1.69091e-09 -0.001)
(-9.61674e-10 -1.68019e-09 -0.001)
(-3.31538e-10 -1.67987e-09 -0.001)
(-2.89537e-10 -2.09872e-09 -0.000999997)
(-8.44315e-10 -2.1066e-09 -0.000999997)
(-1.32344e-09 -2.10175e-09 -0.000999997)
(-1.69868e-09 -2.0915e-09 -0.000999998)
(-1.98948e-09 -2.09155e-09 -0.000999998)
(-1.97112e-09 -1.93499e-09 -0.000999999)
(-1.74996e-09 -1.98624e-09 -0.001)
(-1.46519e-09 -1.95825e-09 -0.001)
(-9.61746e-10 -1.94513e-09 -0.001)
(-3.34756e-10 -1.94094e-09 -0.001)
(-2.98534e-10 -2.10232e-09 -0.000999997)
(-8.62023e-10 -2.11308e-09 -0.000999998)
(-1.33861e-09 -2.10696e-09 -0.000999998)
(-1.71339e-09 -2.09366e-09 -0.000999998)
(-1.83992e-09 -2.06751e-09 -0.000999999)
(-1.91517e-09 -2.01338e-09 -0.001)
(-1.83983e-09 -2.06971e-09 -0.001)
(-1.44338e-09 -2.05971e-09 -0.001)
(-9.48192e-10 -2.04915e-09 -0.001)
(-3.31001e-10 -2.03851e-09 -0.001)
(-2.96365e-10 -1.91572e-09 -0.000999998)
(-8.44909e-10 -1.92004e-09 -0.000999998)
(-1.30382e-09 -1.90385e-09 -0.000999999)
(-1.65913e-09 -1.88464e-09 -0.000999999)
(-1.90915e-09 -1.85111e-09 -0.001)
(-1.97337e-09 -1.94279e-09 -0.001)
(-1.79636e-09 -1.8992e-09 -0.001)
(-1.44485e-09 -1.90517e-09 -0.001)
(-9.4453e-10 -1.89867e-09 -0.001)
(-3.27927e-10 -1.88321e-09 -0.001)
(-2.99288e-10 -1.53558e-09 -0.000999999)
(-8.46502e-10 -1.54427e-09 -0.000999999)
(-1.30305e-09 -1.54488e-09 -0.000999999)
(-1.66064e-09 -1.5508e-09 -0.001)
(-1.89803e-09 -1.56355e-09 -0.001)
(-1.96324e-09 -1.54356e-09 -0.001)
(-1.8022e-09 -1.53965e-09 -0.001)
(-1.44301e-09 -1.53648e-09 -0.001)
(-9.29939e-10 -1.51996e-09 -0.001)
(-3.19116e-10 -1.49887e-09 -0.001)
(-3.02184e-10 -9.89899e-10 -0.000999999)
(-8.51197e-10 -9.94887e-10 -0.000999999)
(-1.3101e-09 -1.00055e-09 -0.001)
(-1.67763e-09 -1.01221e-09 -0.001)
(-1.90172e-09 -1.03496e-09 -0.001)
(-1.94929e-09 -1.0251e-09 -0.001)
(-1.78913e-09 -1.0104e-09 -0.001)
(-1.42515e-09 -9.93783e-10 -0.001)
(-9.0976e-10 -9.7382e-10 -0.001)
(-3.09659e-10 -9.56381e-10 -0.001)
(-3.01904e-10 -3.39572e-10 -0.000999999)
(-8.53591e-10 -3.40455e-10 -0.001)
(-1.31762e-09 -3.44215e-10 -0.001)
(-1.69157e-09 -3.50533e-10 -0.001)
(-1.90708e-09 -3.61433e-10 -0.001)
(-1.93495e-09 -3.5954e-10 -0.001)
(-1.76748e-09 -3.50655e-10 -0.001)
(-1.40378e-09 -3.41154e-10 -0.001)
(-8.92668e-10 -3.31914e-10 -0.001)
(-3.02918e-10 -3.25126e-10 -0.001)
(-4.08133e-10 -4.23126e-10 -0.000999993)
(-1.2206e-09 -4.26272e-10 -0.000999994)
(-1.93482e-09 -4.22019e-10 -0.000999994)
(-2.4547e-09 -4.19648e-10 -0.000999995)
(-2.80663e-09 -4.19535e-10 -0.000999996)
(-2.93956e-09 -4.13527e-10 -0.000999997)
(-2.70613e-09 -4.05964e-10 -0.000999998)
(-2.14789e-09 -4.03491e-10 -0.000999999)
(-1.38175e-09 -4.01243e-10 -0.000999999)
(-4.74457e-10 -3.98543e-10 -0.001)
(-4.11243e-10 -1.2695e-09 -0.000999994)
(-1.22102e-09 -1.27244e-09 -0.000999994)
(-1.93183e-09 -1.26209e-09 -0.000999994)
(-2.45685e-09 -1.24861e-09 -0.000999995)
(-2.80573e-09 -1.22683e-09 -0.000999996)
(-2.93133e-09 -1.22099e-09 -0.000999997)
(-2.701e-09 -1.1887e-09 -0.000999998)
(-2.14714e-09 -1.17704e-09 -0.000999999)
(-1.38003e-09 -1.16999e-09 -0.000999999)
(-4.73311e-10 -1.16614e-09 -0.001)
(-4.09383e-10 -2.01786e-09 -0.000999994)
(-1.21307e-09 -2.01765e-09 -0.000999994)
(-1.9147e-09 -2.00078e-09 -0.000999995)
(-2.42425e-09 -1.96669e-09 -0.000999996)
(-2.78451e-09 -1.90428e-09 -0.000999997)
(-2.9071e-09 -1.92025e-09 -0.000999998)
(-2.66727e-09 -1.86057e-09 -0.000999999)
(-2.13334e-09 -1.8429e-09 -0.000999999)
(-1.37572e-09 -1.83709e-09 -0.001)
(-4.73671e-10 -1.83847e-09 -0.001)
(-4.072e-10 -2.57207e-09 -0.000999995)
(-1.20005e-09 -2.56899e-09 -0.000999995)
(-1.88088e-09 -2.53792e-09 -0.000999996)
(-2.36059e-09 -2.47649e-09 -0.000999996)
(-2.75956e-09 -2.34743e-09 -0.000999997)
(-2.88804e-09 -2.49005e-09 -0.000999998)
(-2.62385e-09 -2.38842e-09 -0.000999999)
(-2.12395e-09 -2.35736e-09 -0.001)
(-1.37933e-09 -2.35229e-09 -0.001)
(-4.78176e-10 -2.3575e-09 -0.001)
(-4.01377e-10 -2.89499e-09 -0.000999996)
(-1.17383e-09 -2.90212e-09 -0.000999996)
(-1.82196e-09 -2.89099e-09 -0.000999997)
(-2.23379e-09 -2.87876e-09 -0.000999997)
(-2.79805e-09 -2.93434e-09 -0.000999998)
(-2.94822e-09 -2.62439e-09 -0.000999999)
(-2.53472e-09 -2.72885e-09 -0.001)
(-2.09743e-09 -2.72045e-09 -0.001)
(-1.38055e-09 -2.71142e-09 -0.001)
(-4.83318e-10 -2.70477e-09 -0.001)
(-4.08872e-10 -2.95176e-09 -0.000999997)
(-1.19031e-09 -2.97235e-09 -0.000999997)
(-1.85721e-09 -2.97818e-09 -0.000999998)
(-2.40403e-09 -2.99615e-09 -0.000999998)
(-2.50522e-09 -3.10611e-09 -0.000999999)
(-2.68236e-09 -2.84789e-09 -0.001)
(-2.72009e-09 -2.91521e-09 -0.001)
(-2.1068e-09 -2.89287e-09 -0.001)
(-1.36896e-09 -2.86299e-09 -0.001)
(-4.76589e-10 -2.83655e-09 -0.001)
(-4.16553e-10 -2.70687e-09 -0.000999998)
(-1.19458e-09 -2.73005e-09 -0.000999998)
(-1.84535e-09 -2.73347e-09 -0.000999999)
(-2.36165e-09 -2.73646e-09 -0.000999999)
(-2.65e-09 -2.70596e-09 -0.001)
(-2.75729e-09 -2.90537e-09 -0.001)
(-2.57961e-09 -2.75865e-09 -0.001)
(-2.04544e-09 -2.69992e-09 -0.001)
(-1.32978e-09 -2.65315e-09 -0.001)
(-4.62239e-10 -2.61762e-09 -0.001)
(-4.27116e-10 -2.16784e-09 -0.000999999)
(-1.21181e-09 -2.18949e-09 -0.000999999)
(-1.86337e-09 -2.20171e-09 -0.000999999)
(-2.37644e-09 -2.22349e-09 -0.001)
(-2.67404e-09 -2.23704e-09 -0.001)
(-2.73514e-09 -2.26019e-09 -0.001)
(-2.51466e-09 -2.1873e-09 -0.001)
(-2.00152e-09 -2.14414e-09 -0.001)
(-1.29181e-09 -2.10414e-09 -0.001)
(-4.46079e-10 -2.07198e-09 -0.001)
(-4.34165e-10 -1.3984e-09 -0.000999999)
(-1.22423e-09 -1.4078e-09 -0.000999999)
(-1.87902e-09 -1.41665e-09 -0.001)
(-2.39674e-09 -1.43379e-09 -0.001)
(-2.68644e-09 -1.45258e-09 -0.001)
(-2.7073e-09 -1.4578e-09 -0.001)
(-2.46334e-09 -1.40969e-09 -0.001)
(-1.96228e-09 -1.37609e-09 -0.001)
(-1.26156e-09 -1.34868e-09 -0.001)
(-4.3399e-10 -1.32919e-09 -0.00100001)
(-4.33125e-10 -4.79834e-10 -0.000999999)
(-1.22501e-09 -4.80447e-10 -0.001)
(-1.88551e-09 -4.83797e-10 -0.001)
(-2.40759e-09 -4.90529e-10 -0.001)
(-2.69275e-09 -4.99134e-10 -0.001)
(-2.68698e-09 -5.01855e-10 -0.001)
(-2.42818e-09 -4.83903e-10 -0.001)
(-1.93683e-09 -4.71334e-10 -0.001)
(-1.24508e-09 -4.62086e-10 -0.00100001)
(-4.28282e-10 -4.5632e-10 -0.00100001)
(-5.76314e-10 -5.83132e-10 -0.000999991)
(-1.71327e-09 -5.85233e-10 -0.000999992)
(-2.70751e-09 -5.79918e-10 -0.000999993)
(-3.42962e-09 -5.74419e-10 -0.000999994)
(-3.89184e-09 -5.69262e-10 -0.000999995)
(-4.04087e-09 -5.56462e-10 -0.000999996)
(-3.70564e-09 -5.55286e-10 -0.000999997)
(-2.93727e-09 -5.55263e-10 -0.000999999)
(-1.88961e-09 -5.54925e-10 -0.000999999)
(-6.49691e-10 -5.53659e-10 -0.001)
(-5.78389e-10 -1.737e-09 -0.000999992)
(-1.71212e-09 -1.73686e-09 -0.000999992)
(-2.70163e-09 -1.72161e-09 -0.000999993)
(-3.42524e-09 -1.69813e-09 -0.000999994)
(-3.88097e-09 -1.66247e-09 -0.000999995)
(-4.03427e-09 -1.63728e-09 -0.000999997)
(-3.71125e-09 -1.63095e-09 -0.000999998)
(-2.94238e-09 -1.62865e-09 -0.000999999)
(-1.89257e-09 -1.62768e-09 -0.001)
(-6.50633e-10 -1.62714e-09 -0.001)
(-5.73996e-10 -2.74901e-09 -0.000999993)
(-1.6978e-09 -2.74521e-09 -0.000999993)
(-2.67385e-09 -2.72096e-09 -0.000999994)
(-3.37706e-09 -2.67343e-09 -0.000999995)
(-3.83835e-09 -2.59442e-09 -0.000999996)
(-4.017e-09 -2.57816e-09 -0.000999997)
(-3.70414e-09 -2.56533e-09 -0.000999999)
(-2.93983e-09 -2.56307e-09 -0.001)
(-1.89492e-09 -2.56515e-09 -0.001)
(-6.53418e-10 -2.56929e-09 -0.001)
(-5.6948e-10 -3.48984e-09 -0.000999994)
(-1.67885e-09 -3.48934e-09 -0.000999994)
(-2.62985e-09 -3.45682e-09 -0.000999995)
(-3.299e-09 -3.38907e-09 -0.000999996)
(-3.78598e-09 -3.24178e-09 -0.000999997)
(-4.00531e-09 -3.35663e-09 -0.000999998)
(-3.69645e-09 -3.31517e-09 -0.001)
(-2.94273e-09 -3.29279e-09 -0.001)
(-1.90404e-09 -3.28738e-09 -0.001)
(-6.59654e-10 -3.2883e-09 -0.001)
(-5.67029e-10 -3.9365e-09 -0.000999995)
(-1.65806e-09 -3.94441e-09 -0.000999995)
(-2.57333e-09 -3.92501e-09 -0.000999996)
(-3.16202e-09 -3.8969e-09 -0.000999997)
(-3.80612e-09 -3.94139e-09 -0.000999998)
(-4.09032e-09 -3.71016e-09 -0.000999999)
(-3.64025e-09 -3.76226e-09 -0.001)
(-2.91236e-09 -3.75666e-09 -0.001)
(-1.89697e-09 -3.74573e-09 -0.001)
(-6.60542e-10 -3.73211e-09 -0.001)
(-5.70158e-10 -4.05202e-09 -0.000999996)
(-1.65988e-09 -4.08079e-09 -0.000999996)
(-2.58209e-09 -4.09103e-09 -0.000999997)
(-3.31521e-09 -4.11524e-09 -0.000999998)
(-3.59926e-09 -4.26395e-09 -0.000999999)
(-3.82649e-09 -4.01359e-09 -0.001)
(-3.74287e-09 -3.9933e-09 -0.001)
(-2.92653e-09 -3.94534e-09 -0.001)
(-1.88683e-09 -3.89915e-09 -0.001)
(-6.53057e-10 -3.86285e-09 -0.001)
(-5.88359e-10 -3.72622e-09 -0.000999997)
(-1.68936e-09 -3.76565e-09 -0.000999998)
(-2.60761e-09 -3.78647e-09 -0.000999998)
(-3.33506e-09 -3.81697e-09 -0.000999999)
(-3.70417e-09 -3.82554e-09 -0.001)
(-3.81967e-09 -3.95323e-09 -0.001)
(-3.57207e-09 -3.77505e-09 -0.001)
(-2.81855e-09 -3.66989e-09 -0.001)
(-1.82206e-09 -3.59536e-09 -0.001)
(-6.3155e-10 -3.54958e-09 -0.00100001)
(-6.02746e-10 -2.97278e-09 -0.000999998)
(-1.71303e-09 -2.99972e-09 -0.000999999)
(-2.63313e-09 -3.0135e-09 -0.000999999)
(-3.35433e-09 -3.03891e-09 -0.001)
(-3.73559e-09 -3.04432e-09 -0.001)
(-3.77593e-09 -3.08154e-09 -0.001)
(-3.45953e-09 -2.96551e-09 -0.001)
(-2.74714e-09 -2.89669e-09 -0.00100001)
(-1.7735e-09 -2.84555e-09 -0.00100001)
(-6.14054e-10 -2.81206e-09 -0.00100001)
(-6.09743e-10 -1.91009e-09 -0.000999999)
(-1.72423e-09 -1.91654e-09 -0.000999999)
(-2.64631e-09 -1.9222e-09 -0.001)
(-3.36556e-09 -1.93663e-09 -0.001)
(-3.74647e-09 -1.94215e-09 -0.001)
(-3.7405e-09 -1.95895e-09 -0.001)
(-3.38691e-09 -1.89471e-09 -0.001)
(-2.69858e-09 -1.85505e-09 -0.00100001)
(-1.74275e-09 -1.8284e-09 -0.00100001)
(-6.03317e-10 -1.81125e-09 -0.00100001)
(-6.04506e-10 -6.53091e-10 -0.000999999)
(-1.7181e-09 -6.50158e-10 -0.001)
(-2.64783e-09 -6.51424e-10 -0.001)
(-3.36769e-09 -6.56697e-10 -0.001)
(-3.7506e-09 -6.59772e-10 -0.001)
(-3.72111e-09 -6.67751e-10 -0.001)
(-3.34897e-09 -6.47507e-10 -0.00100001)
(-2.67575e-09 -6.36297e-10 -0.00100001)
(-1.72987e-09 -6.29656e-10 -0.00100001)
(-5.99147e-10 -6.2543e-10 -0.00100001)
(-8.14908e-10 -8.06009e-10 -0.000999989)
(-2.40037e-09 -8.06848e-10 -0.000999989)
(-3.77141e-09 -8.00182e-10 -0.00099999)
(-4.76743e-09 -7.91588e-10 -0.000999992)
(-5.36618e-09 -7.82055e-10 -0.000999994)
(-5.50273e-09 -7.65426e-10 -0.000999995)
(-5.01691e-09 -7.68336e-10 -0.000999997)
(-3.97558e-09 -7.68593e-10 -0.000999998)
(-2.55607e-09 -7.68145e-10 -0.000999999)
(-8.79214e-10 -7.67485e-10 -0.001)
(-8.15748e-10 -2.37831e-09 -0.000999989)
(-2.3974e-09 -2.37597e-09 -0.00099999)
(-3.76297e-09 -2.35709e-09 -0.000999991)
(-4.75799e-09 -2.32809e-09 -0.000999992)
(-5.34976e-09 -2.29107e-09 -0.000999994)
(-5.49907e-09 -2.25074e-09 -0.000999996)
(-5.02933e-09 -2.26281e-09 -0.000999997)
(-3.98278e-09 -2.26274e-09 -0.000999999)
(-2.5611e-09 -2.26186e-09 -0.001)
(-8.81538e-10 -2.26121e-09 -0.001)
(-8.09697e-10 -3.74302e-09 -0.00099999)
(-2.37916e-09 -3.73876e-09 -0.000999991)
(-3.73056e-09 -3.71282e-09 -0.000999992)
(-4.71054e-09 -3.66683e-09 -0.000999993)
(-5.29909e-09 -3.6098e-09 -0.000999995)
(-5.48502e-09 -3.54968e-09 -0.000999997)
(-5.03856e-09 -3.57134e-09 -0.000999998)
(-3.98246e-09 -3.57034e-09 -0.001)
(-2.56382e-09 -3.56873e-09 -0.001)
(-8.8443e-10 -3.56737e-09 -0.001)
(-8.04615e-10 -4.74154e-09 -0.000999992)
(-2.36018e-09 -4.74838e-09 -0.000999992)
(-3.69105e-09 -4.72695e-09 -0.000999993)
(-4.65538e-09 -4.68303e-09 -0.000999995)
(-5.23307e-09 -4.61618e-09 -0.000999996)
(-5.46109e-09 -4.58847e-09 -0.000999998)
(-5.05042e-09 -4.59186e-09 -0.001)
(-3.98083e-09 -4.57231e-09 -0.001)
(-2.5654e-09 -4.55616e-09 -0.001)
(-8.86982e-10 -4.54284e-09 -0.001)
(-8.07904e-10 -5.32991e-09 -0.000999993)
(-2.35554e-09 -5.34376e-09 -0.000999994)
(-3.66481e-09 -5.32436e-09 -0.000999995)
(-4.59976e-09 -5.28616e-09 -0.000999996)
(-5.2044e-09 -5.28283e-09 -0.000999998)
(-5.46084e-09 -5.26049e-09 -0.001)
(-5.02243e-09 -5.19874e-09 -0.001)
(-3.94718e-09 -5.1629e-09 -0.001)
(-2.54338e-09 -5.13638e-09 -0.001)
(-8.79747e-10 -5.10928e-09 -0.001)
(-8.08768e-10 -5.47292e-09 -0.000999995)
(-2.34447e-09 -5.50365e-09 -0.000999995)
(-3.633e-09 -5.50702e-09 -0.000999997)
(-4.61397e-09 -5.51347e-09 -0.000999998)
(-5.20743e-09 -5.575e-09 -0.001)
(-5.37688e-09 -5.50738e-09 -0.001)
(-4.95292e-09 -5.38621e-09 -0.001)
(-3.91894e-09 -5.31311e-09 -0.001)
(-2.52187e-09 -5.26149e-09 -0.00100001)
(-8.69543e-10 -5.22467e-09 -0.00100001)
(-8.28516e-10 -5.02061e-09 -0.000999997)
(-2.3791e-09 -5.05988e-09 -0.000999997)
(-3.67416e-09 -5.0785e-09 -0.000999998)
(-4.6676e-09 -5.11385e-09 -0.001)
(-5.19844e-09 -5.1439e-09 -0.001)
(-5.27206e-09 -5.10441e-09 -0.001)
(-4.82818e-09 -4.97478e-09 -0.001)
(-3.82291e-09 -4.8806e-09 -0.00100001)
(-2.46521e-09 -4.81373e-09 -0.00100001)
(-8.52793e-10 -4.77622e-09 -0.00100001)