/*--------------------------------*- C++ -*----------------------------------*\
  =========                 |
  \\      /  F ield         | OpenFOAM: The Open Source CFD Toolbox
   \\    /   O peration     | Website:  https://openfoam.org
    \\  /    A nd           | Version:  9
     \\/     M anipulation  |
\*---------------------------------------------------------------------------*/
FoamFile
{
    format      ascii;
    class       surfaceScalarField;
    location    "700";
    object      phi;
}
// * * * * * * * * * * * * * * * * * * * * * * * * * * * * * * * * * * * * * //

dimensions      [0 3 -1 0 0 0 0];

internalField   nonuniform List<scalar> 
716
(
8.01414e-09
-2.30685e-08
-0.0249997
-1.49174e-08
-0.0249994
1.60828e-08
-0.0250008
-0.0250001
1.1456e-08
-4.45201e-08
-0.0249996
-2.61726e-08
-0.0249993
2.93011e-08
-0.0250008
-0.0250001
1.6292e-08
-7.03022e-08
-0.0249996
-4.02624e-08
-0.0249993
4.54683e-08
-0.025001
-0.0250001
2.1665e-08
-9.93959e-08
-0.0249995
-5.62468e-08
-0.0249992
6.37516e-08
-0.0250011
-0.0250001
2.74933e-08
-1.32903e-07
-0.0249995
-7.45283e-08
-0.0249991
8.49007e-08
-0.0250013
-0.0250001
3.37236e-08
-1.72409e-07
-0.0249993
-9.56434e-08
-0.0249989
1.10032e-07
-0.0250016
-0.0250001
4.01919e-08
-2.19898e-07
-0.0249992
-1.20081e-07
-0.0249988
1.40491e-07
-0.0250019
-0.0250001
4.66759e-08
-2.77865e-07
-0.024999
-1.48251e-07
-0.0249986
1.77904e-07
-0.0250024
-0.0250001
5.29646e-08
-3.4945e-07
-0.0249987
-1.8058e-07
-0.0249983
2.24377e-07
-0.025003
-0.0250001
5.86102e-08
-4.38609e-07
-0.0249983
-2.17449e-07
-0.0249981
2.82722e-07
-0.0250037
-0.025
6.26419e-08
-5.50335e-07
-0.0249978
-2.59152e-07
-0.0249977
3.56547e-07
-0.0250046
-0.0249999
6.36589e-08
-6.90932e-07
-0.0249972
-3.05825e-07
-0.0249974
4.50473e-07
-0.0250057
-0.0249998
5.97846e-08
-8.68396e-07
-0.0249964
-3.5733e-07
-0.024997
5.70417e-07
-0.0250072
-0.0249996
4.85492e-08
-1.0929e-06
-0.0249954
-4.1309e-07
-0.0249965
7.23993e-07
-0.025009
-0.0249993
2.67421e-08
-1.37739e-06
-0.024994
-4.71864e-07
-0.024996
9.21024e-07
-0.0250113
-0.0249988
-1.09841e-08
-1.73845e-06
-0.0249923
-5.31433e-07
-0.0249955
1.17423e-06
-0.0250142
-0.0249982
-8.8866e-08
-2.19728e-06
-0.0249899
-5.88155e-07
-0.024995
1.50013e-06
-0.0250179
-0.0249972
-2.04861e-07
-2.78153e-06
-0.0249869
-6.35848e-07
-0.0249946
1.92018e-06
-0.0250226
-0.0249959
-3.76489e-07
-3.52672e-06
-0.024983
-6.65223e-07
-0.0249943
2.46239e-06
-0.0250286
-0.0249941
-6.26612e-07
-4.47867e-06
-0.0249779
-6.62248e-07
-0.0249943
3.16328e-06
-0.0250363
-0.0249916
-9.86269e-07
-5.69664e-06
-0.0249712
-6.05415e-07
-0.0249947
4.07061e-06
-0.0250461
-0.0249881
-1.49776e-06
-7.25739e-06
-0.0249624
-4.72942e-07
-0.0249957
5.24696e-06
-0.0250586
-0.0249833
-2.21829e-06
-9.26049e-06
-0.0249509
-2.69647e-07
-0.0249976
6.77408e-06
-0.0250746
-0.0249768
-3.22401e-06
-1.18353e-05
-0.0249358
1.5856e-07
-0.025001
8.7576e-06
-0.0250952
-0.0249679
-4.62028e-06
-1.515e-05
-0.0249161
8.23795e-07
-0.0250065
1.13385e-05
-0.0251217
-0.0249557
-6.54878e-06
-1.94237e-05
-0.0248901
1.85217e-06
-0.0250149
1.47011e-05
-0.0251558
-0.0249392
-9.20073e-06
-2.49419e-05
-0.024856
3.38158e-06
-0.0250274
1.90879e-05
-0.0251998
-0.0249167
-1.28336e-05
-3.20777e-05
-0.0248111
5.61785e-06
-0.0250459
2.48178e-05
-0.0252567
-0.0248863
-1.77937e-05
-4.13187e-05
-0.024752
8.84052e-06
-0.0250725
3.23104e-05
-0.0253303
-0.0248452
-2.45467e-05
-5.33033e-05
-0.0246742
1.34309e-05
-0.0251104
4.21193e-05
-0.0254257
-0.0247896
-3.37183e-05
-6.88684e-05
-0.0245716
1.99097e-05
-0.025164
5.49751e-05
-0.0255495
-0.0247148
-4.61516e-05
-8.91162e-05
-0.0244364
2.89907e-05
-0.0252392
7.18509e-05
-0.0257105
-0.0246139
-6.30279e-05
-0.000115556
-0.0242578
4.16833e-05
-0.0253439
9.40856e-05
-0.0259201
-0.0244782
-8.62554e-05
-0.000150464
-0.0240211
5.95781e-05
-0.0254897
0.000123648
-0.0261942
-0.024295
-0.000118764
-0.00019697
-0.0237054
8.51336e-05
-0.0256936
0.000163213
-0.0265544
-0.0240466
-0.000153478
-0.000247815
-0.0233041
0.000113551
-0.0259607
0.000207754
-0.02701
-0.0237253
-0.000186205
-0.000289549
-0.0228284
0.000143908
-0.0262908
0.000246629
-0.0275462
-0.0233348
-0.000182434
-0.000277019
-0.0223689
0.000157224
-0.0266305
0.000251573
-0.0280748
-0.0229261
-0.000217104
-0.000294633
-0.0218573
0.00016135
-0.0270089
0.000241031
-0.0286105
-0.0225237
0.000500674
0.000662744
-0.0230208
-0.00029891
-0.0262092
-0.000454539
-0.0274931
-0.0232772
-1.80436e-05
-2.10686e-05
-0.0229817
1.05495e-05
-0.0262378
1.41443e-05
-0.0275283
-0.0232525
-0.000189561
-0.000314281
-0.0224779
7.25715e-05
-0.0264999
0.000209749
-0.0280523
-0.0229702
-8.49166e-05
-0.00019194
-0.022201
0.000116849
-0.0267017
0.000231313
-0.0284755
-0.022622
-0.000280678
-0.000225891
-0.0216945
9.53481e-05
-0.0270778
4.44255e-05
-0.0287459
-0.0224823
-0.000291492
-0.000219003
-0.021184
-0.000110531
-0.0272587
-0.000188866
-0.0287761
-0.0227817
-0.000214998
-7.83661e-05
-0.0208907
-1.08697e-05
-0.0274628
-0.000226474
-0.0286279
-0.023019
-0.000177047
0.000193843
-0.0209075
0.000296276
-0.027936
-0.000160387
-0.0282736
-0.0228832
-4.30094e-05
0.000493067
-0.0213576
0.000449157
-0.0284281
-0.000172644
-0.0276078
-0.0226066
9.3986e-05
0.000350479
-0.021802
0.00018636
-0.0285205
-6.87903e-05
-0.0271886
-0.0224891
-0.000158769
3.54745e-05
-0.0216788
-1.61945e-05
-0.0286632
-0.000173468
-0.0269798
-0.0226787
-6.08115e-05
4.84432e-05
-0.0216664
-8.22899e-05
-0.0286416
-0.000191623
-0.0267396
-0.0229526
2.72224e-05
0.000123369
-0.021817
5.86796e-05
-0.0286731
-4.24709e-05
-0.0265737
-0.0229364
-5.92389e-05
0.000329087
-0.0220869
-3.35649e-05
-0.0286988
-8.84248e-05
-0.0261562
-0.0230583
0.000209278
0.0002158
-0.0225119
-0.000254014
-0.0282355
7.57579e-05
-0.0260162
-0.0232364
0.000341805
0.000191843
-0.0230455
-0.000309899
-0.0275838
-0.000128951
-0.0256955
-0.0236752
0.000304576
0.000141434
-0.0234915
-0.00026153
-0.0270178
-9.57492e-05
-0.0254583
-0.0240325
0.000240825
0.000100866
-0.0238331
-0.000202794
-0.0265742
-6.06154e-05
-0.0252969
-0.0242958
0.000189291
7.39331e-05
-0.0240963
-0.000155658
-0.0262292
-3.83152e-05
-0.0251846
-0.0244898
0.00014884
5.43288e-05
-0.0242995
-0.00011939
-0.025961
-2.3612e-05
-0.0251067
-0.0246328
0.000117139
3.97214e-05
-0.0244563
-9.15543e-05
-0.0257523
-1.41244e-05
-0.0250528
-0.0247384
9.2309e-05
2.89018e-05
-0.0245775
-7.02526e-05
-0.0255898
-6.92587e-06
-0.025017
-0.0248156
7.28407e-05
2.09406e-05
-0.0246713
-5.39697e-05
-0.025463
-1.0023e-06
-0.0249951
-0.0248706
5.75571e-05
1.50782e-05
-0.024744
-4.14904e-05
-0.025364
1.78873e-06
-0.0249819
-0.0249103
4.55431e-05
1.07699e-05
-0.0248003
-3.19154e-05
-0.0252865
3.25422e-06
-0.0249744
-0.0249389
3.60867e-05
7.61693e-06
-0.0248439
-2.45642e-05
-0.0252259
3.99804e-06
-0.0249708
-0.0249595
2.86332e-05
5.32279e-06
-0.0248779
-1.89188e-05
-0.0251784
4.30376e-06
-0.0249698
-0.0249741
2.27499e-05
3.66529e-06
-0.0249043
-1.45826e-05
-0.025141
4.34285e-06
-0.0249705
-0.0249843
1.80993e-05
2.47725e-06
-0.0249249
-1.12511e-05
-0.0251117
4.20792e-06
-0.0249722
-0.0249914
1.44179e-05
1.63344e-06
-0.024941
-8.69031e-06
-0.0250886
3.95748e-06
-0.0249745
-0.0249961
1.14998e-05
1.04075e-06
-0.0249535
-6.72062e-06
-0.0250703
3.6362e-06
-0.0249771
-0.0249992
9.18378e-06
6.304e-07
-0.0249634
-5.20449e-06
-0.0250559
3.27921e-06
-0.0249797
-0.0250012
7.34355e-06
3.51892e-07
-0.0249711
-4.03659e-06
-0.0250445
2.91267e-06
-0.0249823
-0.0250023
5.87984e-06
1.68547e-07
-0.0249772
-3.13622e-06
-0.0250355
2.55501e-06
-0.0249846
-0.0250029
4.71455e-06
5.50147e-08
-0.024982
-2.44148e-06
-0.0250283
2.21762e-06
-0.0249868
-0.0250032
3.7862e-06
-2.31691e-08
-0.0249857
-1.9049e-06
-0.0250226
1.90768e-06
-0.0249887
-0.0250032
3.04576e-06
-8.28211e-08
-0.0249887
-1.48997e-06
-0.0250181
1.62902e-06
-0.0249904
-0.025003
2.45407e-06
-1.06568e-07
-0.024991
-1.16862e-06
-0.0250145
1.38299e-06
-0.0249919
-0.0250028
1.98058e-06
-1.11074e-07
-0.0249928
-9.19195e-07
-0.0250116
1.16865e-06
-0.0249932
-0.0250025
1.60111e-06
-1.09982e-07
-0.0249942
-7.25057e-07
-0.0250093
9.84021e-07
-0.0249943
-0.0250022
1.2965e-06
-1.0477e-07
-0.0249954
-5.73429e-07
-0.0250074
8.26693e-07
-0.0249952
-0.0250019
1.05157e-06
-9.74078e-08
-0.0249963
-4.54552e-07
-0.0250059
6.93997e-07
-0.024996
-0.0250015
8.54406e-07
-8.95434e-08
-0.024997
-3.60992e-07
-0.0250047
5.83183e-07
-0.0249967
-0.0250013
6.95632e-07
-8.22124e-08
-0.0249975
-2.87107e-07
-0.0250037
4.91539e-07
-0.0249973
-0.025001
5.67918e-07
-7.59107e-08
-0.024998
-2.28612e-07
-0.0250029
4.16478e-07
-0.0249978
-0.0250008
4.65543e-07
-7.05888e-08
-0.0249984
-1.82261e-07
-0.0250023
3.55596e-07
-0.0249982
-0.0250006
3.84037e-07
-6.66497e-08
-0.0249987
-1.45581e-07
-0.0250017
3.06705e-07
-0.0249986
-0.0250005
3.19782e-07
-6.4106e-08
-0.024999
-1.1685e-07
-0.0250013
2.67799e-07
-0.0249989
-0.0250004
2.69551e-07
-6.22413e-08
-0.0249993
-9.47832e-08
-0.0250009
2.36897e-07
-0.0249992
-0.0250003
2.30697e-07
-6.02996e-08
-0.0249995
-7.86875e-08
-0.0250006
2.12215e-07
-0.0249995
-0.0250002
2.126e-07
-5.88932e-08
-7.14724e-08
2.00339e-07
)
;

boundaryField
{
    inlet
    {
        type            calculated;
        value           nonuniform List<scalar> 4(-0.0249998 -0.0249997 -0.0250003 -0.0250002);
    }
    outlet
    {
        type            calculated;
        value           nonuniform List<scalar> 4(0.0249997 0.0250007 0.0249994 0.0250001);
    }
    repeat_boundary
    {
        type            calculated;
        value           uniform 0;
    }
}


// ************************************************************************* //
