FoamFile
{version 2.0; format ascii;class Cloud<passiveParticle>; location 0;object  positions;}
41
(
( 0.000196939 -0.000390598 9.99338e-05 ) 0 
( 4.48866e-05 -4.16273e-05 9.99084e-05 ) 0 
( 0.000177033 -0.000191665 9.98662e-05 ) 0 
( 0.00040839 -0.000255465 9.9803e-05 ) 0 
( 4.80406e-05 -0.000417056 0.000233501 ) 0 
( 0.000384703 -0.000387219 0.000248243 ) 0 
( 0.000324128 -5.61933e-05 9.97934e-05 ) 0 
( 6.34127e-05 -0.000192958 0.000267975 ) 0 
( 0.000299004 -0.000200807 0.000257893 ) 0 
( 0.000185632 -3.67774e-05 0.000242467 ) 0 
( 0.000474179 -0.000110147 0.000220241 ) 0 
( 0.000208327 -0.000359758 0.000338323 ) 0 
( 5.05328e-05 -3.46788e-05 0.0003897 ) 0 
( 0.000407074 -0.000257853 0.000416013 ) 0 
( 0.0002942 -6.82567e-05 0.000407398 ) 0 
( 0.000284495 -0.000372581 0.000524511 ) 0 
( 0.000150928 -0.000202293 0.000447403 ) 0 
( 0.000108895 -0.000457921 0.000481246 ) 0 
( 0.000266717 -0.0001927 0.000610069 ) 0 
( 0.000141043 -4.29946e-05 0.000567808 ) 0 
( 0.000494011 -0.000332624 0.00057977 ) 0 
( 0.000434474 -0.000105633 0.000544917 ) 0 
( 4.60311e-05 -0.000300141 0.000586736 ) 0 
( 0.000165514 -0.000436647 0.000671836 ) 0 
( 0.000426811 -0.000215956 0.000727587 ) 0 
( 0.000284324 -1.75547e-05 0.000704936 ) 0 
( 0.000364186 -0.000425568 0.00070014 ) 0 
( 0.000243148 -0.000289832 0.000783214 ) 0 
( 0.000450623 -3.73254e-05 0.000814174 ) 0 
( 5.3412e-05 -0.000227537 0.000792997 ) 0 
( 0.000200667 -0.000110561 0.000860894 ) 0 
( 0.000220565 -0.000462091 0.000882137 ) 0 
( 0.000396683 -0.000288916 0.000911321 ) 0 
( 0.000357252 -8.86738e-05 0.000983339 ) 0 
( 8.13396e-05 -0.000339322 0.00095637 ) 0 
( 0.000361486 -0.000463441 0.00102401 ) 0 
( 4.15122e-05 -0.000144483 0.000977057 ) 0 
( 0.000241186 -0.000244592 0.00103018 ) 0 
( 0.000463647 -9.41596e-06 0.00113298 ) 0 
( 9.77397e-05 -0.000446408 0.00112443 ) 0 
( 0.000366666 -0.000322004 0.00116526 ) 0 
)
