FoamFile
{version 2.0; format ascii;class vectorField; location 0;object  v;}
41
(
( 8.13749e-05 7.13709e-05 -7.42345e-05 )  
( -8.51991e-06 1.54459e-05 -0.000137355 )  
( 4.47785e-05 7.89402e-05 -0.000107848 )  
( 2.45815e-06 -1.8188e-05 -0.000151063 )  
( -5.19508e-05 -1.59458e-05 -0.000202154 )  
( -0.00012777 -3.82932e-05 -0.000363493 )  
( -5.05821e-06 2.23095e-05 -0.00016052 )  
( 1.47872e-05 0.000105485 -6.78335e-05 )  
( 0.000105653 5.4012e-05 -0.000236422 )  
( 0.000123855 2.18913e-05 -0.000249622 )  
( 2.24578e-05 -2.61465e-05 -0.000132235 )  
( -2.75158e-05 9.91652e-05 -0.000301144 )  
( 7.2865e-05 -0.000152459 -0.0002419 )  
( -1.79601e-05 -2.06222e-05 -0.000161164 )  
( 0.000142019 2.30263e-05 -0.000181678 )  
( -3.85923e-05 1.9731e-05 -0.000175977 )  
( 2.46301e-05 3.54564e-05 -2.55392e-05 )  
( 7.33936e-05 -5.98618e-05 -0.000281092 )  
( 4.88952e-05 -3.18289e-05 0.000125327 )  
( 5.89828e-06 -1.18047e-05 6.76739e-05 )  
( 3.79304e-05 3.09213e-05 3.7247e-05 )  
( 6.37393e-05 -0.000141341 -1.96891e-05 )  
( 0.000114165 -0.000196479 -0.000238402 )  
( 6.80819e-06 -6.56857e-05 -2.3868e-05 )  
( 0.000106189 -5.80134e-06 0.000277754 )  
( -1.67821e-05 8.29939e-05 0.000226524 )  
( -1.48011e-05 -8.08895e-05 0.000142062 )  
( -7.041e-06 -9.8271e-05 0.000285982 )  
( -1.6555e-05 0.000121144 0.000424577 )  
( 4.00342e-06 -0.000136546 0.00038852 )  
( 5.49748e-05 3.73108e-05 0.000436702 )  
( -0.000127958 -0.000125905 0.000536182 )  
( -5.05674e-05 -0.000255706 0.00044482 )  
( -1.75895e-05 -3.4383e-06 0.000539481 )  
( -9.0742e-05 5.18248e-05 0.000665581 )  
( 0.000153001 -5.27424e-05 0.00055258 )  
( 7.19524e-05 -4.75811e-05 0.000543263 )  
( -5.01808e-05 -8.19036e-05 0.000573776 )  
( -8.75465e-05 -0.000275009 0.000755299 )  
( -0.000117313 -0.000146003 0.000647244 )  
( 2.1999e-05 0.000224969 0.000497471 )  
)
