/*--------------------------------*- C++ -*----------------------------------*\
| =========                 |                                                 |
| \\      /  F ield         | OpenFOAM: The Open Source CFD Toolbox           |
|  \\    /   O peration     | Version:  5.x                                   |
|   \\  /    A nd           | Web:      www.OpenFOAM.org                      |
|    \\/     M anipulation  |                                                 |
\*---------------------------------------------------------------------------*/
FoamFile
{
    version     2.0;
    format      ascii;
    class       volScalarField;
    location    "700";
    object      p;
}
// * * * * * * * * * * * * * * * * * * * * * * * * * * * * * * * * * * * * * //

dimensions      [0 2 -2 0 0 0 0];

internalField   nonuniform List<scalar> 
90
(
-0.0084574
0.00240544
0.035766
0.0206871
-0.0247475
-0.071375
-0.108851
-0.127776
-0.146063
-0.147934
-0.123689
-0.107445
-0.0944962
-0.0861924
-0.0816677
-0.0806124
-0.0826121
-0.0874343
-0.0948834
-0.104819
-0.117145
-0.131802
-0.148754
-0.167966
-0.189406
-0.213043
-0.238848
-0.266786
-0.296822
-0.328915
-0.363019
-0.399085
-0.437056
-0.476874
-0.518476
-0.561797
-0.606772
-0.653336
-0.701424
-0.750974
-0.801928
-0.854235
-0.907847
-0.962723
-1.01883
-1.07614
-1.13463
-1.1943
-1.25512
-1.31709
-1.38022
-1.44451
-1.50996
-1.57659
-1.64441
-1.71343
-1.78366
-1.85511
-1.92781
-2.00176
-2.07699
-2.15351
-2.23133
-2.31049
-2.39099
-2.47286
-2.55613
-2.64082
-2.72697
-2.81459
-2.90374
-2.99443
-3.08671
-3.18062
-3.27622
-3.37356
-3.47269
-3.57369
-3.6766
-3.78149
-3.88847
-3.99768
-4.10913
-4.22245
-4.33732
-4.45601
-4.58379
-4.71785
-4.82592
-4.84642
)
;

boundaryField
{
    inlet
    {
        type            zeroGradient;
    }
    outlet
    {
        type            fixedValue;
        value           uniform 0;
    }
    repeat_boundary
    {
        type            zeroGradient;
    }
    procBoundary0to1
    {
        type            processor;
        value           nonuniform List<scalar> 
90
(
0.0199522
0.0232328
0.0256182
0.0216945
0.016241
0.00863909
0.00092469
-0.00590157
-0.0129835
-0.0187156
-0.0240389
-0.0295737
-0.0357066
-0.0428123
-0.0511504
-0.0609286
-0.0722857
-0.085324
-0.100087
-0.11656
-0.134787
-0.155055
-0.17767
-0.202657
-0.229944
-0.259469
-0.291169
-0.324976
-0.360822
-0.398636
-0.438345
-0.479873
-0.523144
-0.568086
-0.614624
-0.662688
-0.712212
-0.763133
-0.815394
-0.868945
-0.923742
-0.979747
-1.03693
-1.09527
-1.15475
-1.21535
-1.27708
-1.33992
-1.40389
-1.46899
-1.53523
-1.60262
-1.67117
-1.7409
-1.81183
-1.88396
-1.95731
-2.0319
-2.10775
-2.18486
-2.26325
-2.34295
-2.42396
-2.5063
-2.58999
-2.67505
-2.76151
-2.84938
-2.9387
-3.02949
-3.12182
-3.21575
-3.31135
-3.40865
-3.50769
-3.60851
-3.71113
-3.81557
-3.92183
-4.02995
-4.13996
-4.25191
-4.36565
-4.48081
-4.59746
-4.7178
-4.84536
-4.97618
-5.08374
-5.11211
)
;
    }
    procBoundary0to2
    {
        type            processor;
        value           nonuniform List<scalar> 
90
(
-0.0583554
-0.0703043
-0.0478595
-0.0301598
-0.0178821
-0.0130049
-0.0117515
-0.0130376
-0.0156483
-0.0185255
-0.0204443
-0.0224289
-0.0248339
-0.0281926
-0.0327969
-0.0389415
-0.0467953
-0.0564926
-0.0681144
-0.0817199
-0.0973378
-0.114975
-0.134624
-0.156283
-0.179945
-0.205601
-0.233237
-0.262835
-0.294372
-0.32782
-0.363147
-0.400318
-0.439293
-0.480032
-0.522489
-0.56662
-0.612386
-0.659752
-0.708676
-0.759108
-0.811006
-0.864327
-0.919031
-0.975081
-1.03244
-1.09109
-1.15099
-1.21212
-1.27446
-1.338
-1.40273
-1.46863
-1.53569
-1.60392
-1.67332
-1.74388
-1.81561
-1.88853
-1.96263
-2.03794
-2.11447
-2.19223
-2.27124
-2.35153
-2.43313
-2.51606
-2.60032
-2.68599
-2.77326
-2.86225
-2.9526
-3.04375
-3.13559
-3.22834
-3.32211
-3.41695
-3.51284
-3.6097
-3.70743
-3.80585
-3.90464
-4.00326
-4.10143
-4.19965
-4.29775
-4.38828
-4.45854
-4.52847
-4.68766
-4.95857
)
;
    }
}


// ************************************************************************* //
