/*--------------------------------*- C++ -*----------------------------------*\
| =========                 |                                                 |
| \\      /  F ield         | OpenFOAM: The Open Source CFD Toolbox           |
|  \\    /   O peration     | Version:  5.x                                   |
|   \\  /    A nd           | Web:      www.OpenFOAM.org                      |
|    \\/     M anipulation  |                                                 |
\*---------------------------------------------------------------------------*/
FoamFile
{
    version     2.0;
    format      ascii;
    class       surfaceScalarField;
    location    "700";
    object      phi;
}
// * * * * * * * * * * * * * * * * * * * * * * * * * * * * * * * * * * * * * //

dimensions      [0 3 -1 0 0 0 0];

internalField   nonuniform List<scalar> 
89
(
-128.84
-128.852
-128.873
-128.893
-128.904
-128.909
-128.91
-128.932
-128.963
-129.021
-129.104
-129.207
-129.327
-129.461
-129.605
-129.758
-129.917
-130.081
-130.247
-130.414
-130.581
-130.747
-130.91
-131.07
-131.225
-131.376
-131.521
-131.66
-131.792
-131.917
-132.035
-132.145
-132.248
-132.343
-132.431
-132.512
-132.585
-132.652
-132.712
-132.765
-132.812
-132.853
-132.888
-132.916
-132.939
-132.955
-132.965
-132.969
-132.967
-132.958
-132.942
-132.921
-132.892
-132.857
-132.815
-132.766
-132.71
-132.648
-132.578
-132.502
-132.418
-132.328
-132.23
-132.126
-132.015
-131.897
-131.772
-131.64
-131.501
-131.356
-131.203
-131.043
-130.876
-130.702
-130.521
-130.333
-130.138
-129.936
-129.727
-129.511
-129.29
-129.062
-128.83
-128.593
-128.353
-128.11
-127.865
-127.623
-127.39
)
;

boundaryField
{
    inlet
    {
        type            calculated;
        value           uniform -127.163;
    }
    outlet
    {
        type            calculated;
        value           uniform 128.828;
    }
    repeat_boundary
    {
        type            calculated;
        value           uniform 0;
    }
    procBoundary0to1
    {
        type            processor;
        value           nonuniform List<scalar> 
90
(
0.325068
0.337898
0.355241
0.363629
0.369418
0.377213
0.386202
0.409447
0.421626
0.447867
0.467556
0.485962
0.501894
0.515844
0.528088
0.538813
0.54821
0.556415
0.563545
0.569704
0.575007
0.579597
0.583562
0.586904
0.5896
0.591644
0.593042
0.593818
0.594005
0.593651
0.592809
0.591544
0.589922
0.588012
0.585885
0.583609
0.581249
0.578867
0.576518
0.57425
0.572105
0.570118
0.568315
0.566716
0.565333
0.564174
0.563242
0.562535
0.562048
0.561774
0.561706
0.561833
0.562146
0.562635
0.563291
0.564105
0.565067
0.566169
0.567404
0.568762
0.570236
0.571818
0.5735
0.575277
0.57714
0.579083
0.5811
0.583186
0.585334
0.587543
0.589811
0.592136
0.59451
0.596922
0.599359
0.601808
0.60426
0.606709
0.609154
0.611602
0.614061
0.61654
0.619062
0.621683
0.624542
0.627901
0.63101
0.634172
0.627018
0.621703
)
;
    }
    procBoundary0to2
    {
        type            processor;
        value           nonuniform List<scalar> 
90
(
-0.312472
-0.326175
-0.334521
-0.343168
-0.358934
-0.372243
-0.384348
-0.388231
-0.390575
-0.389607
-0.38479
-0.382654
-0.381703
-0.382135
-0.383594
-0.385967
-0.389123
-0.392972
-0.397444
-0.402477
-0.408016
-0.414003
-0.420373
-0.427048
-0.43394
-0.440961
-0.44802
-0.455034
-0.461925
-0.468627
-0.475088
-0.481266
-0.487141
-0.492702
-0.497958
-0.502931
-0.507653
-0.512169
-0.516533
-0.520807
-0.525053
-0.529335
-0.533712
-0.538238
-0.54296
-0.547919
-0.553142
-0.558653
-0.564461
-0.570571
-0.576978
-0.583671
-0.590636
-0.597854
-0.605302
-0.61296
-0.620807
-0.62882
-0.636982
-0.645277
-0.653688
-0.662205
-0.670817
-0.679515
-0.688293
-0.697148
-0.706077
-0.715074
-0.724128
-0.733251
-0.742485
-0.751866
-0.761362
-0.770913
-0.780472
-0.790003
-0.799468
-0.808826
-0.818024
-0.827002
-0.835692
-0.844001
-0.85175
-0.858675
-0.864616
-0.870244
-0.875799
-0.876307
-0.860282
-0.849117
)
;
    }
}


// ************************************************************************* //
