/*--------------------------------*- C++ -*----------------------------------*\
| =========                 |                                                 |
| \\      /  F ield         | OpenFOAM: The Open Source CFD Toolbox           |
|  \\    /   O peration     | Version:  5.x                                   |
|   \\  /    A nd           | Web:      www.OpenFOAM.org                      |
|    \\/     M anipulation  |                                                 |
\*---------------------------------------------------------------------------*/
FoamFile
{
    version     2.0;
    format      ascii;
    class       volScalarField;
    location    "0.06";
    object      p;
}
// * * * * * * * * * * * * * * * * * * * * * * * * * * * * * * * * * * * * * //

dimensions      [0 2 -2 0 0 0 0];

internalField   nonuniform List<scalar> 
2250
(
-1.23458e-10
-5.60579e-11
-6.70295e-11
-1.03649e-10
-1.2706e-10
-6.29591e-11
-5.34341e-11
-7.12497e-11
-9.12062e-11
-1.00114e-10
-6.4037e-11
-6.98111e-11
-8.56926e-11
-9.97236e-11
-1.05344e-10
-8.47014e-11
-8.99574e-11
-1.04254e-10
-1.15317e-10
-1.17228e-10
-1.03749e-10
-1.06317e-10
-1.18447e-10
-1.24871e-10
-1.20175e-10
-2.20588e-10
-1.25442e-10
-1.60066e-10
-2.28383e-10
-2.56539e-10
-1.53878e-10
-1.30049e-10
-1.64973e-10
-1.98926e-10
-2.04057e-10
-1.8018e-10
-1.82164e-10
-2.12881e-10
-2.36019e-10
-2.32565e-10
-2.44796e-10
-2.46731e-10
-2.72593e-10
-2.83986e-10
-2.65945e-10
-3.00395e-10
-2.94348e-10
-3.07212e-10
-2.99345e-10
-2.62624e-10
-1.36173e-10
-8.12782e-11
-1.04345e-10
-1.38406e-10
-1.36085e-10
-1.58555e-10
-1.08331e-10
-1.19426e-10
-1.3296e-10
-1.20489e-10
-2.29101e-10
-2.01729e-10
-2.11941e-10
-2.14201e-10
-1.8506e-10
-3.43538e-10
-3.20597e-10
-3.1963e-10
-2.95585e-10
-2.39565e-10
-4.41106e-10
-4.00867e-10
-3.69626e-10
-3.12004e-10
-2.35278e-10
8.02866e-11
1.42233e-10
1.77651e-10
2.00928e-10
2.24132e-10
-3.26846e-11
7.42139e-11
1.15472e-10
1.35569e-10
1.58907e-10
-1.7077e-10
-8.64632e-11
-4.39603e-11
-3.73711e-12
4.65363e-11
-3.64292e-10
-2.78935e-10
-2.08211e-10
-1.24736e-10
-4.20498e-11
-5.18585e-10
-3.95846e-10
-2.80356e-10
-1.60871e-10
-6.7061e-11
6.02332e-10
6.18223e-10
6.60976e-10
6.90531e-10
7.03801e-10
2.91736e-10
4.13627e-10
4.83963e-10
5.22164e-10
5.43045e-10
-1.73064e-11
1.2473e-10
2.28355e-10
3.12634e-10
3.70401e-10
-3.454e-10
-1.60249e-10
1.27228e-12
1.42892e-10
2.32746e-10
-5.58508e-10
-3.10873e-10
-1.00833e-10
6.89473e-11
1.63349e-10
1.44142e-09
1.27649e-09
1.22268e-09
1.19643e-09
1.17917e-09
7.54684e-10
8.08422e-10
8.67682e-10
9.08365e-10
9.24313e-10
1.58916e-10
3.44027e-10
5.02746e-10
6.25932e-10
6.89247e-10
-3.17439e-10
-2.40242e-11
2.22412e-10
4.11347e-10
5.06287e-10
-5.59277e-10
-1.94586e-10
9.52071e-11
3.04417e-10
4.07718e-10
2.03471e-09
1.78678e-09
1.67638e-09
1.61507e-09
1.5805e-09
1.05054e-09
1.08527e-09
1.16054e-09
1.22307e-09
1.25138e-09
2.43221e-10
4.95214e-10
7.17758e-10
8.86102e-10
9.67683e-10
-2.94747e-10
9.31595e-11
4.13039e-10
6.46519e-10
7.57777e-10
-5.24474e-10
-8.03071e-11
2.75496e-10
5.25072e-10
6.49199e-10
1.85808e-09
1.87777e-09
1.90355e-09
1.90877e-09
1.90163e-09
9.54914e-10
1.14581e-09
1.32472e-09
1.45381e-09
1.51479e-09
1.866e-10
5.56066e-10
8.64296e-10
1.08815e-09
1.19372e-09
-2.93597e-10
1.744e-10
5.62324e-10
8.38175e-10
9.63244e-10
-4.96975e-10
5.60668e-12
4.21188e-10
7.06093e-10
8.36015e-10
1.2518e-09
1.67331e-09
1.92959e-09
2.06831e-09
2.11921e-09
6.44203e-10
1.04452e-09
1.35845e-09
1.5696e-09
1.65874e-09
5.13281e-11
5.26573e-10
9.13609e-10
1.18124e-09
1.29252e-09
-3.48392e-10
1.77431e-10
6.16053e-10
9.12014e-10
1.02389e-09
-5.45698e-10
6.30721e-12
4.60422e-10
7.50376e-10
8.49623e-10
7.94123e-10
1.39647e-09
1.77772e-09
2.01628e-09
2.11092e-09
3.57763e-10
8.29646e-10
1.20912e-09
1.4655e-09
1.55846e-09
-1.40413e-10
3.55033e-10
7.68516e-10
1.04066e-09
1.13e-09
-5.27684e-10
1.35005e-11
4.5682e-10
7.29892e-10
8.01367e-10
-7.38567e-10
-1.68522e-10
2.72482e-10
5.22118e-10
5.70996e-10
3.27097e-10
9.57002e-10
1.35878e-09
1.63989e-09
1.75653e-09
-2.49226e-11
4.18569e-10
7.88282e-10
1.04203e-09
1.12412e-09
-4.97913e-10
-4.55299e-11
3.3237e-10
5.65859e-10
6.21597e-10
-8.959e-10
-3.93245e-10
-8.82117e-12
2.00281e-10
2.31854e-10
-1.10308e-09
-5.81692e-10
-2.21055e-10
-4.31563e-11
-2.72905e-11
-4.51873e-10
2.33252e-10
6.49819e-10
9.49554e-10
1.08218e-09
-6.69471e-10
-2.43044e-10
8.91384e-11
3.10546e-10
3.78438e-10
-1.07811e-09
-6.91483e-10
-3.95139e-10
-2.28817e-10
-1.99583e-10
-1.43652e-09
-1.03887e-09
-7.70903e-10
-6.44371e-10
-6.29539e-10
-1.60906e-09
-1.22679e-09
-9.9836e-10
-8.94854e-10
-8.81639e-10
-1.19052e-09
-5.71107e-10
-1.9585e-10
6.96162e-11
1.87025e-10
-1.39987e-09
-1.04905e-09
-7.98129e-10
-6.43478e-10
-6.02056e-10
-1.77184e-09
-1.5121e-09
-1.33953e-09
-1.25621e-09
-1.24501e-09
-2.08583e-09
-1.87401e-09
-1.75698e-09
-1.70968e-09
-1.69748e-09
-2.23823e-09
-2.07466e-09
-1.99418e-09
-1.95325e-09
-1.939e-09
-1.674e-09
-1.31081e-09
-1.08682e-09
-9.45963e-10
-9.01751e-10
-2.0823e-09
-1.91972e-09
-1.81886e-09
-1.77468e-09
-1.77919e-09
-2.52942e-09
-2.47354e-09
-2.45941e-09
-2.46872e-09
-2.48177e-09
-2.87719e-09
-2.9003e-09
-2.93929e-09
-2.96691e-09
-2.97534e-09
-3.07069e-09
-3.14465e-09
-3.20067e-09
-3.22646e-09
-3.24475e-09
-2.3022e-09
-2.16071e-09
-2.11798e-09
-2.14667e-09
-2.20289e-09
-2.9096e-09
-2.94242e-09
-3.02177e-09
-3.11158e-09
-3.17541e-09
-3.49735e-09
-3.6516e-09
-3.80379e-09
-3.91649e-09
-3.97808e-09
-3.96321e-09
-4.20066e-09
-4.38718e-09
-4.50735e-09
-4.57563e-09
-4.24509e-09
-4.51479e-09
-4.70508e-09
-4.83186e-09
-4.91743e-09
-3.11011e-09
-3.17999e-09
-3.34517e-09
-3.54981e-09
-3.70136e-09
-3.98058e-09
-4.21125e-09
-4.48418e-09
-4.72027e-09
-4.86067e-09
-4.80535e-09
-5.15635e-09
-5.48206e-09
-5.72318e-09
-5.86367e-09
-5.45862e-09
-5.88421e-09
-6.23411e-09
-6.48539e-09
-6.63741e-09
-5.83672e-09
-6.28767e-09
-6.64752e-09
-6.91424e-09
-7.06811e-09
-3.86565e-09
-4.29384e-09
-4.7505e-09
-5.16458e-09
-5.42979e-09
-5.25707e-09
-5.77531e-09
-6.28815e-09
-6.70506e-09
-6.95053e-09
-6.48202e-09
-7.08156e-09
-7.62414e-09
-8.03197e-09
-8.26822e-09
-7.38966e-09
-8.05492e-09
-8.62176e-09
-9.03856e-09
-9.27228e-09
-7.8761e-09
-8.5796e-09
-9.16493e-09
-9.58987e-09
-9.81164e-09
-5.00497e-09
-5.72873e-09
-6.49595e-09
-7.16654e-09
-7.57566e-09
-6.94789e-09
-7.79111e-09
-8.59445e-09
-9.23253e-09
-9.59564e-09
-8.63994e-09
-9.56396e-09
-1.03825e-08
-1.09896e-08
-1.1328e-08
-9.85887e-09
-1.08563e-08
-1.16982e-08
-1.23056e-08
-1.26345e-08
-1.05106e-08
-1.15507e-08
-1.24062e-08
-1.30155e-08
-1.33386e-08
-6.74939e-09
-7.73108e-09
-8.85098e-09
-9.8042e-09
-1.03358e-08
-9.23309e-09
-1.04533e-08
-1.16073e-08
-1.2493e-08
-1.29733e-08
-1.14688e-08
-1.27943e-08
-1.39477e-08
-1.47936e-08
-1.52623e-08
-1.31133e-08
-1.45058e-08
-1.56749e-08
-1.6522e-08
-1.69884e-08
-1.40231e-08
-1.54303e-08
-1.66045e-08
-1.74576e-08
-1.79049e-08
-8.61691e-09
-1.02456e-08
-1.18978e-08
-1.31678e-08
-1.3812e-08
-1.20562e-08
-1.38603e-08
-1.54849e-08
-1.6687e-08
-1.7333e-08
-1.51243e-08
-1.69737e-08
-1.85671e-08
-1.97437e-08
-2.03971e-08
-1.74129e-08
-1.9271e-08
-2.08621e-08
-2.20354e-08
-2.26628e-08
-1.86722e-08
-2.05042e-08
-2.20923e-08
-2.32482e-08
-2.38255e-08
-1.07418e-08
-1.32908e-08
-1.56505e-08
-1.73773e-08
-1.82621e-08
-1.55578e-08
-1.81519e-08
-2.04375e-08
-2.21258e-08
-2.3038e-08
-1.98068e-08
-2.23598e-08
-2.45861e-08
-2.62378e-08
-2.7121e-08
-2.29718e-08
-2.54747e-08
-2.76601e-08
-2.9253e-08
-3.00587e-08
-2.46571e-08
-2.71259e-08
-2.92743e-08
-3.0796e-08
-3.15702e-08
-1.34263e-08
-1.70136e-08
-2.03489e-08
-2.28331e-08
-2.41499e-08
-1.99826e-08
-2.36196e-08
-2.68577e-08
-2.92585e-08
-3.05236e-08
-2.58032e-08
-2.93548e-08
-3.24753e-08
-3.47493e-08
-3.59112e-08
-3.01091e-08
-3.35814e-08
-3.65728e-08
-3.86927e-08
-3.97688e-08
-3.23659e-08
-3.58019e-08
-3.86818e-08
-4.07127e-08
-4.18084e-08
-1.63579e-08
-2.16267e-08
-2.64395e-08
-3.00103e-08
-3.18797e-08
-2.55282e-08
-3.07028e-08
-3.52637e-08
-3.85901e-08
-4.02998e-08
-3.35727e-08
-3.85339e-08
-4.28163e-08
-4.58761e-08
-4.74416e-08
-3.94844e-08
-4.42579e-08
-4.8264e-08
-5.11082e-08
-5.26155e-08
-4.26026e-08
-4.72399e-08
-5.10698e-08
-5.38514e-08
-5.53677e-08
-1.99197e-08
-2.76068e-08
-3.43953e-08
-3.93493e-08
-4.19161e-08
-3.27141e-08
-3.99691e-08
-4.62328e-08
-5.07528e-08
-5.30946e-08
-4.38471e-08
-5.06031e-08
-5.63426e-08
-6.04732e-08
-6.26456e-08
-5.20228e-08
-5.83392e-08
-6.36536e-08
-6.75361e-08
-6.96089e-08
-5.63292e-08
-6.23496e-08
-6.74746e-08
-7.12689e-08
-7.32753e-08
-2.4623e-08
-3.53262e-08
-4.46862e-08
-5.15235e-08
-5.51002e-08
-4.20875e-08
-5.20108e-08
-6.0512e-08
-6.66922e-08
-6.99434e-08
-5.73948e-08
-6.6412e-08
-7.41024e-08
-7.97344e-08
-8.27009e-08
-6.86203e-08
-7.69121e-08
-8.40281e-08
-8.92824e-08
-9.20166e-08
-7.44736e-08
-8.23931e-08
-8.92654e-08
-9.43027e-08
-9.69102e-08
-3.01279e-08
-4.50462e-08
-5.80173e-08
-6.75581e-08
-7.25859e-08
-5.41076e-08
-6.76224e-08
-7.9216e-08
-8.77052e-08
-9.21638e-08
-7.51368e-08
-8.72186e-08
-9.75803e-08
-1.05173e-07
-1.09109e-07
-9.0542e-08
-1.01609e-07
-1.111e-07
-1.18019e-07
-1.21573e-07
-9.8617e-08
-1.09204e-07
-1.18239e-07
-1.24769e-07
-1.28132e-07
-3.66348e-08
-5.73901e-08
-7.54203e-08
-8.87316e-08
-9.57584e-08
-6.97009e-08
-8.80479e-08
-1.0384e-07
-1.15413e-07
-1.21458e-07
-9.87155e-08
-1.14879e-07
-1.28685e-07
-1.38732e-07
-1.43925e-07
-1.20105e-07
-1.34737e-07
-1.47096e-07
-1.56039e-07
-1.6064e-07
-1.31447e-07
-1.45244e-07
-1.56809e-07
-1.65156e-07
-1.69427e-07
-4.43563e-08
-7.30247e-08
-9.80866e-08
-1.16637e-07
-1.26431e-07
-9.0068e-08
-1.14844e-07
-1.36208e-07
-1.51912e-07
-1.60126e-07
-1.30454e-07
-1.51775e-07
-1.6985e-07
-1.83041e-07
-1.89859e-07
-1.60459e-07
-1.79302e-07
-1.95026e-07
-2.0648e-07
-2.12323e-07
-1.76345e-07
-1.93841e-07
-2.08306e-07
-2.18786e-07
-2.24066e-07
-5.26697e-08
-9.25604e-08
-1.27449e-07
-1.53408e-07
-1.67089e-07
-1.16455e-07
-1.4995e-07
-1.78673e-07
-2.00032e-07
-2.11191e-07
-1.73134e-07
-2.01073e-07
-2.24317e-07
-2.41521e-07
-2.50197e-07
-2.15582e-07
-2.39568e-07
-2.59041e-07
-2.735e-07
-2.80666e-07
-2.3796e-07
-2.5988e-07
-2.77155e-07
-2.89989e-07
-2.96065e-07
-6.08281e-08
-1.1668e-07
-1.65202e-07
-2.01831e-07
-2.21018e-07
-1.50208e-07
-1.96005e-07
-2.34216e-07
-2.63501e-07
-2.78614e-07
-2.30323e-07
-2.67362e-07
-2.96121e-07
-3.18246e-07
-3.28517e-07
-2.91226e-07
-3.22006e-07
-3.44601e-07
-3.62783e-07
-3.71076e-07
-3.22976e-07
-3.50549e-07
-3.68924e-07
-3.84387e-07
-3.90135e-07
-6.63561e-08
-1.45964e-07
-2.13078e-07
-2.65488e-07
-2.9212e-07
-1.92172e-07
-2.56923e-07
-3.06269e-07
-3.47532e-07
-3.68278e-07
-3.05974e-07
-3.57743e-07
-3.89251e-07
-4.1753e-07
-4.27032e-07
-3.94821e-07
-4.37026e-07
-4.5888e-07
-4.8332e-07
-4.91889e-07
-4.38968e-07
-4.77519e-07
-4.89825e-07
-5.09717e-07
-5.11333e-07
-6.15628e-08
-1.81492e-07
-2.72076e-07
-3.49244e-07
-3.833e-07
-2.39594e-07
-3.40552e-07
-3.9808e-07
-4.61127e-07
-4.91467e-07
-3.99377e-07
-4.86338e-07
-5.04439e-07
-5.43866e-07
-5.43377e-07
-5.33693e-07
-6.05359e-07
-6.10356e-07
-6.51061e-07
-6.55648e-07
-5.91098e-07
-6.64509e-07
-6.42113e-07
-6.79323e-07
-6.63124e-07
-2.43197e-08
-2.31019e-07
-3.4007e-07
-4.62705e-07
-4.92307e-07
-2.79241e-07
-4.65573e-07
-5.08898e-07
-6.21596e-07
-6.67074e-07
-4.9326e-07
-6.83565e-07
-6.29541e-07
-7.09049e-07
-6.69116e-07
-7.16637e-07
-8.65498e-07
-8.03103e-07
-8.92617e-07
-8.75328e-07
-7.78801e-07
-9.5608e-07
-8.16333e-07
-9.18525e-07
-8.44348e-07
1.01097e-07
-3.25311e-07
-4.02844e-07
-6.39963e-07
-6.10987e-07
-2.94464e-07
-6.56315e-07
-6.28929e-07
-8.51853e-07
-9.13458e-07
-5.4809e-07
-9.98192e-07
-7.41948e-07
-9.39923e-07
-7.85776e-07
-9.67492e-07
-1.26596e-06
-1.04755e-06
-1.2377e-06
-1.16476e-06
-1.00233e-06
-1.4151e-06
-1.00477e-06
-1.25849e-06
-1.04679e-06
4.15569e-07
-5.34514e-07
-4.4641e-07
-9.48539e-07
-7.35936e-07
-2.78294e-07
-9.02621e-07
-7.72792e-07
-1.17569e-06
-1.26537e-06
-5.14688e-07
-1.50262e-06
-8.4977e-07
-1.27994e-06
-8.79367e-07
-1.34202e-06
-1.85201e-06
-1.38933e-06
-1.71155e-06
-1.56116e-06
-1.27676e-06
-2.13029e-06
-1.21055e-06
-1.7415e-06
-1.27082e-06
1.15448e-06
-8.47193e-07
-4.63355e-07
-1.45172e-06
-8.82548e-07
-1.62344e-07
-1.13399e-06
-9.33748e-07
-1.53328e-06
-1.77251e-06
-2.43043e-07
-2.24095e-06
-9.28905e-07
-1.72741e-06
-9.58769e-07
-1.89416e-06
-2.61763e-06
-1.85294e-06
-2.29268e-06
-2.11609e-06
-1.55769e-06
-3.20977e-06
-1.35739e-06
-2.36841e-06
-1.51483e-06
5.52044e-06
1.1459e-06
3.40754e-06
6.83588e-07
3.73143e-06
7.78227e-07
2.33969e-07
1.77319e-06
4.40706e-07
2.48833e-07
1.73178e-06
-2.18662e-06
1.31591e-06
1.11224e-06
3.97717e-06
-1.86582e-06
-2.95129e-06
-1.05665e-06
-1.23494e-06
-8.2961e-07
-6.19591e-07
-4.39601e-06
-2.85993e-07
-1.58789e-06
2.02106e-06
-2.46246e-06
-7.27283e-06
-8.3988e-06
-1.09427e-05
-9.54886e-06
-3.89378e-06
-6.55336e-06
-8.41237e-06
-9.40765e-06
-9.77125e-06
-6.18686e-06
-9.46311e-06
-9.04773e-06
-1.13895e-05
-9.98851e-06
-1.01224e-05
-9.78033e-06
-1.03056e-05
-1.02949e-05
-9.49759e-06
-9.70719e-06
-1.03692e-05
-8.40322e-06
-1.0036e-05
-8.34801e-06
3.35855e-05
8.01833e-06
1.93651e-05
4.99558e-06
2.73235e-05
4.26436e-06
8.43583e-06
1.48293e-05
6.91103e-06
6.72593e-06
1.63033e-05
-2.54974e-06
7.85099e-06
1.2722e-05
2.66898e-05
4.11733e-08
-1.72396e-06
2.32677e-06
4.25243e-06
1.83445e-06
1.23361e-05
-9.7544e-06
7.8411e-06
-1.1935e-08
2.1785e-05
-3.78523e-05
-2.0674e-05
-2.52531e-05
-2.8927e-05
-3.84287e-05
1.35278e-06
5.53148e-06
-2.97186e-05
-3.13617e-05
-9.88912e-06
-2.88899e-05
-1.9205e-05
-2.91357e-05
-4.35484e-05
-4.40941e-05
-3.48446e-05
-1.95208e-05
-2.65874e-05
-2.78258e-05
-1.36922e-05
-4.27163e-05
-1.71373e-05
-2.00898e-05
-2.15899e-05
-1.64647e-05
9.65542e-05
-4.49204e-05
2.72201e-05
-3.21742e-05
0.000106733
-0.000120447
7.986e-05
3.29578e-06
-5.52401e-05
7.7797e-05
7.43702e-06
-4.01112e-05
-4.42618e-05
6.64186e-06
4.54367e-05
-4.65148e-05
-2.39541e-05
-1.20979e-05
-1.00196e-06
-2.39637e-05
5.98046e-05
-2.22288e-05
-1.61651e-05
-4.68856e-05
6.32836e-05
0.000791401
0.000723821
0.000626198
0.000515216
0.000592016
0.000664768
0.000487201
0.000727626
0.000593055
0.000966442
0.000621963
0.000952325
0.000727929
0.000678336
0.000871544
0.000552798
0.000832372
0.000967409
0.000657108
0.00104971
0.000380211
0.000556441
0.000806548
0.000917537
0.000953221
0.00121437
0.0012088
0.000845427
0.00152996
0.00137989
0.00122425
0.00133924
0.00101875
0.00145679
0.00188688
0.00133795
0.00126882
0.00101424
0.00110928
0.00154689
0.0012084
0.00125949
0.0018678
0.0013591
0.00159362
0.00045746
0.0013476
0.00142531
0.001492
0.00131095
0.00145991
0.0018757
0.00278969
0.00260199
0.00262225
0.00143174
0.00183694
0.00199421
0.00237115
0.00261691
0.0016742
0.00178951
0.00261863
0.00241495
0.00248725
0.00150658
0.00219587
0.00231317
0.00212132
0.00220989
0.00185356
0.00164662
0.00179915
0.0019055
0.00187276
0.00174294
0.00256721
0.00292775
0.00273786
0.0031268
0.00243704
0.00236096
0.00257051
0.00267491
0.00275131
0.00169133
0.00260576
0.00280088
0.00276963
0.00271446
0.00247572
0.00258768
0.00281927
0.00261092
0.00293578
0.00274416
0.00244721
0.00247138
0.00231112
0.00210245
0.00329969
0.00319651
0.00279917
0.00298571
0.00298592
0.0034586
0.00321487
0.00315159
0.0033463
0.00279749
0.00191347
0.00322866
0.00306827
0.00320867
0.00316404
0.00323643
0.0027158
0.00302411
0.00298496
0.00301732
0.00358869
0.00303196
0.00318653
0.00286394
0.00363924
0.00451113
0.00390035
0.00331152
0.00384508
0.00406126
0.0039182
0.00393083
0.00367715
0.00370046
0.00351724
0.00382942
0.00397155
0.00372415
0.00389936
0.00403654
0.00377253
0.00386068
0.00342806
0.00388356
0.00298913
0.00379813
0.00369993
0.00354407
0.00370402
0.00341879
0.00425028
0.00462822
0.00488981
0.00506304
0.00482247
0.00441245
0.00449137
0.00437898
0.00415511
0.00409647
0.00516877
0.00447951
0.00432469
0.00432034
0.0040813
0.00419393
0.00442501
0.0041928
0.00442172
0.00412488
0.00419661
0.00407406
0.00400686
0.00467629
0.00388828
0.00452011
0.00513134
0.00487403
0.00482569
0.00445476
0.00524549
0.0052526
0.0047715
0.00512418
0.0049224
0.00519653
0.00482909
0.00536289
0.00486997
0.00532514
0.00499229
0.00479851
0.00461539
0.00494547
0.00531785
0.00439517
0.00564847
0.00484474
0.00497792
0.00519362
0.00535661
0.00550025
0.00509828
0.00536552
0.0048562
0.00518322
0.00544534
0.00542997
0.00581016
0.00556507
0.00536168
0.00546695
0.00552751
0.00562011
0.00556587
0.00549257
0.00561604
0.00543448
0.00569925
0.00564698
0.00546217
0.00589764
0.00531187
0.00545629
0.00549578
0.00565037
0.00572529
0.00614179
0.00616219
0.00595553
0.00605077
0.0057114
0.00616982
0.0060618
0.00605043
0.00574047
0.0060283
0.00594557
0.00592495
0.0056614
0.00589228
0.00611691
0.00602717
0.00603759
0.00594173
0.00634489
0.00611015
0.00612689
0.00626128
0.00622471
0.00609354
0.00614562
0.00623958
0.00618424
0.00620636
0.00622486
0.00617158
0.00618763
0.00616166
0.00617184
0.0060932
0.00616806
0.0060878
0.00613462
0.00614015
0.00623135
0.00617474
0.00611397
0.00611617
0.00607364
0.00622371
0.00618047
0.00618124
0.00613315
0.00594607
0.00615489
0.0061549
0.00614276
0.00617116
0.00617121
0.00615237
0.00616333
0.00615758
0.00616869
0.00616564
0.00616367
0.00615009
0.00611191
0.0061404
0.00613514
0.00616334
0.0061542
0.00613661
0.00613324
0.00611507
0.00616905
0.00616211
0.00614405
0.00611119
0.00606806
0.00616584
0.00615944
0.00617172
0.00616677
0.00617154
0.00617297
0.00616404
0.00616819
0.00616436
0.00616755
0.00615859
0.0061556
0.0061579
0.00614898
0.00615393
0.00617012
0.00615653
0.00615706
0.00614226
0.00613999
0.00617285
0.00615444
0.00615585
0.00613641
0.00612817
0.00616695
0.00616634
0.00616498
0.0061673
0.00616904
0.00616732
0.00616574
0.00616561
0.00616421
0.00616421
0.00616501
0.00616063
0.00615751
0.00615615
0.00615555
0.00616864
0.00616006
0.00615937
0.0061521
0.00615093
0.00616771
0.00615866
0.00615708
0.0061472
0.00614399
0.006169
0.00616842
0.0061684
0.00616845
0.00616913
0.00616913
0.00616741
0.00616741
0.00616596
0.00616595
0.006167
0.00616398
0.00616335
0.006161
0.00616081
0.00616861
0.00616322
0.00616305
0.00615865
0.00615824
0.00616799
0.00616189
0.00616138
0.00615597
0.00615521
0.00617028
0.00616979
0.00616966
0.00616949
0.00616975
0.00616997
0.00616872
0.00616853
0.00616755
0.00616747
0.00616861
0.00616637
0.00616607
0.00616446
0.00616438
0.00616907
0.0061657
0.00616553
0.00616297
0.00616278
0.00616861
0.00616477
0.0061645
0.00616145
0.00616118
0.00617106
0.00617066
0.00617052
0.00617031
0.00617039
0.00617055
0.00616967
0.00616945
0.00616879
0.00616871
0.00616971
0.00616813
0.00616796
0.00616688
0.00616684
0.00616967
0.00616756
0.00616737
0.00616586
0.00616574
0.00616935
0.00616693
0.00616676
0.00616497
0.00616486
0.00617152
0.00617121
0.00617108
0.0061709
0.0061709
0.006171
0.00617037
0.00617018
0.00616974
0.00616968
0.00617043
0.00616938
0.00616925
0.00616855
0.00616851
0.00617024
0.00616891
0.00616873
0.00616781
0.00616773
0.00617003
0.0061685
0.00616835
0.00616729
0.00616722
0.00617179
0.00617155
0.00617144
0.00617129
0.00617127
0.00617135
0.0061709
0.00617075
0.00617045
0.00617041
0.00617094
0.00617026
0.00617013
0.00616969
0.00616964
0.00617072
0.00616987
0.00616972
0.00616916
0.0061691
0.00617057
0.00616961
0.00616948
0.00616884
0.00616878
0.00617195
0.00617177
0.00617168
0.00617157
0.00617154
0.0061716
0.00617129
0.00617118
0.00617098
0.00617094
0.0061713
0.00617086
0.00617075
0.00617046
0.00617042
0.00617111
0.00617057
0.00617044
0.00617009
0.00617004
0.006171
0.0061704
0.00617027
0.00616988
0.00616984
0.00617205
0.00617192
0.00617184
0.00617176
0.00617174
0.00617178
0.00617157
0.00617149
0.00617135
0.00617132
0.00617156
0.00617127
0.00617118
0.006171
0.00617096
0.00617141
0.00617106
0.00617096
0.00617074
0.0061707
0.00617132
0.00617095
0.00617084
0.0061706
0.00617056
0.00617211
0.00617202
0.00617196
0.00617191
0.00617189
0.00617192
0.00617177
0.00617171
0.00617162
0.00617159
0.00617175
0.00617156
0.00617149
0.00617137
0.00617134
0.00617163
0.00617141
0.00617133
0.00617119
0.00617116
0.00617157
0.00617133
0.00617125
0.00617109
0.00617106
0.00617216
0.00617209
0.00617205
0.00617201
0.00617199
0.00617201
0.00617192
0.00617186
0.00617181
0.00617179
0.00617189
0.00617177
0.00617171
0.00617163
0.00617161
0.0061718
0.00617166
0.00617159
0.00617151
0.00617148
0.00617175
0.0061716
0.00617153
0.00617144
0.00617141
0.00617219
0.00617214
0.00617211
0.00617208
0.00617207
0.00617208
0.00617202
0.00617198
0.00617194
0.00617192
0.00617199
0.00617191
0.00617187
0.00617182
0.0061718
0.00617193
0.00617183
0.00617179
0.00617173
0.00617171
0.00617189
0.00617179
0.00617174
0.00617168
0.00617166
0.00617221
0.00617218
0.00617215
0.00617213
0.00617212
0.00617213
0.00617209
0.00617206
0.00617203
0.00617202
0.00617207
0.00617201
0.00617198
0.00617195
0.00617193
0.00617202
0.00617196
0.00617192
0.00617188
0.00617187
0.00617199
0.00617193
0.00617189
0.00617185
0.00617184
0.00617223
0.00617221
0.00617219
0.00617217
0.00617216
0.00617217
0.00617214
0.00617212
0.0061721
0.00617209
0.00617212
0.00617209
0.00617206
0.00617204
0.00617203
0.00617209
0.00617205
0.00617202
0.00617199
0.00617198
0.00617207
0.00617203
0.006172
0.00617197
0.00617196
0.00617224
0.00617222
0.00617221
0.0061722
0.00617219
0.0061722
0.00617218
0.00617216
0.00617215
0.00617214
0.00617216
0.00617214
0.00617212
0.0061721
0.0061721
0.00617214
0.00617211
0.00617209
0.00617207
0.00617206
0.00617212
0.00617209
0.00617207
0.00617206
0.00617205
0.00617225
0.00617224
0.00617223
0.00617222
0.00617221
0.00617222
0.0061722
0.00617219
0.00617218
0.00617218
0.00617219
0.00617218
0.00617216
0.00617215
0.00617215
0.00617217
0.00617215
0.00617214
0.00617213
0.00617212
0.00617216
0.00617214
0.00617213
0.00617212
0.00617211
0.00617226
0.00617225
0.00617224
0.00617223
0.00617223
0.00617223
0.00617222
0.00617221
0.00617221
0.0061722
0.00617221
0.0061722
0.00617219
0.00617218
0.00617218
0.0061722
0.00617219
0.00617218
0.00617217
0.00617216
0.00617219
0.00617218
0.00617217
0.00617216
0.00617216
0.00617226
0.00617225
0.00617225
0.00617224
0.00617224
0.00617224
0.00617224
0.00617223
0.00617222
0.00617222
0.00617223
0.00617222
0.00617221
0.00617221
0.00617221
0.00617222
0.00617221
0.0061722
0.0061722
0.00617219
0.00617221
0.0061722
0.0061722
0.00617219
0.00617219
0.00617226
0.00617226
0.00617225
0.00617225
0.00617225
0.00617225
0.00617225
0.00617224
0.00617224
0.00617224
0.00617224
0.00617223
0.00617223
0.00617223
0.00617222
0.00617223
0.00617223
0.00617222
0.00617222
0.00617222
0.00617223
0.00617222
0.00617222
0.00617221
0.00617221
0.00617227
0.00617226
0.00617226
0.00617226
0.00617226
0.00617226
0.00617225
0.00617225
0.00617225
0.00617225
0.00617225
0.00617225
0.00617224
0.00617224
0.00617224
0.00617224
0.00617224
0.00617224
0.00617223
0.00617223
0.00617224
0.00617224
0.00617223
0.00617223
0.00617223
0.00617227
0.00617227
0.00617226
0.00617226
0.00617226
0.00617226
0.00617226
0.00617226
0.00617225
0.00617225
0.00617226
0.00617225
0.00617225
0.00617225
0.00617225
0.00617225
0.00617225
0.00617225
0.00617224
0.00617224
0.00617225
0.00617225
0.00617224
0.00617224
0.00617224
0.00617227
0.00617227
0.00617227
0.00617226
0.00617226
0.00617226
0.00617226
0.00617226
0.00617226
0.00617226
0.00617226
0.00617226
0.00617226
0.00617225
0.00617225
0.00617226
0.00617225
0.00617225
0.00617225
0.00617225
0.00617226
0.00617225
0.00617225
0.00617225
0.00617225
0.00617227
0.00617227
0.00617227
0.00617227
0.00617227
0.00617227
0.00617226
0.00617226
0.00617226
0.00617226
0.00617226
0.00617226
0.00617226
0.00617226
0.00617226
0.00617226
0.00617226
0.00617226
0.00617226
0.00617226
0.00617226
0.00617226
0.00617226
0.00617226
0.00617226
0.00617227
0.00617227
0.00617227
0.00617227
0.00617227
0.00617227
0.00617227
0.00617227
0.00617226
0.00617226
0.00617227
0.00617226
0.00617226
0.00617226
0.00617226
0.00617226
0.00617226
0.00617226
0.00617226
0.00617226
0.00617226
0.00617226
0.00617226
0.00617226
0.00617226
0.00617227
0.00617227
0.00617227
0.00617227
0.00617227
0.00617227
0.00617227
0.00617227
0.00617227
0.00617227
0.00617227
0.00617227
0.00617227
0.00617226
0.00617226
0.00617227
0.00617226
0.00617226
0.00617226
0.00617226
0.00617226
0.00617226
0.00617226
0.00617226
0.00617226
0.00617227
0.00617227
0.00617227
0.00617227
0.00617227
0.00617227
0.00617227
0.00617227
0.00617227
0.00617227
0.00617227
0.00617227
0.00617227
0.00617227
0.00617227
0.00617227
0.00617227
0.00617227
0.00617227
0.00617227
0.00617227
0.00617227
0.00617227
0.00617227
0.00617227
0.00617227
0.00617227
0.00617227
0.00617227
0.00617227
0.00617227
0.00617227
0.00617227
0.00617227
0.00617227
0.00617227
0.00617227
0.00617227
0.00617227
0.00617227
0.00617227
0.00617227
0.00617227
0.00617227
0.00617227
0.00617227
0.00617227
0.00617227
0.00617227
0.00617227
0.00617227
0.00617227
0.00617227
0.00617227
0.00617227
0.00617227
0.00617227
0.00617227
0.00617227
0.00617227
0.00617227
0.00617227
0.00617227
0.00617227
0.00617227
0.00617227
0.00617227
0.00617227
0.00617227
0.00617227
0.00617227
0.00617227
0.00617227
0.00617227
0.00617227
0.00617227
0.00617227
0.00617227
0.00617227
0.00617227
0.00617227
0.00617227
0.00617227
0.00617227
0.00617227
0.00617227
0.00617227
0.00617227
0.00617227
0.00617227
0.00617227
0.00617227
0.00617227
0.00617227
0.00617227
0.00617227
0.00617227
0.00617227
0.00617227
0.00617227
0.00617227
0.00617227
0.00617227
0.00617227
0.00617227
0.00617227
0.00617227
0.00617227
0.00617227
0.00617227
0.00617227
0.00617227
0.00617227
0.00617227
0.00617227
0.00617227
0.00617227
0.00617227
0.00617227
0.00617227
0.00617227
0.00617227
0.00617227
0.00617227
0.00617227
0.00617227
0.00617227
0.00617227
0.00617227
0.00617227
0.00617227
0.00617227
0.00617227
0.00617227
0.00617227
0.00617227
0.00617227
0.00617227
0.00617227
0.00617227
0.00617227
0.00617227
0.00617227
0.00617227
0.00617227
0.00617227
0.00617227
0.00617227
0.00617227
0.00617227
0.00617227
0.00617227
0.00617227
0.00617227
0.00617227
0.00617227
0.00617227
0.00617227
0.00617227
0.00617227
0.00617227
0.00617227
0.00617227
0.00617227
0.00617227
0.00617227
0.00617227
0.00617227
0.00617227
0.00617227
0.00617227
0.00617227
0.00617227
0.00617227
0.00617227
0.00617227
0.00617227
0.00617227
0.00617227
0.00617227
0.00617227
0.00617227
0.00617227
0.00617227
0.00617227
0.00617227
0.00617227
0.00617227
0.00617227
0.00617227
0.00617227
0.00617227
0.00617227
0.00617227
0.00617227
0.00617227
0.00617227
0.00617227
0.00617227
0.00617227
0.00617227
0.00617227
0.00617227
0.00617227
0.00617227
0.00617227
0.00617227
0.00617227
0.00617227
0.00617227
0.00617227
0.00617227
0.00617227
0.00617227
0.00617227
0.00617227
0.00617227
0.00617227
0.00617227
0.00617227
0.00617227
0.00617227
0.00617227
0.00617227
0.00617227
0.00617227
0.00617227
0.00617227
0.00617227
0.00617227
0.00617227
0.00617227
0.00617227
0.00617227
0.00617227
0.00617227
0.00617227
0.00617227
0.00617227
0.00617227
0.00617227
0.00617227
0.00617227
0.00617227
0.00617227
0.00617227
0.00617227
0.00617227
0.00617227
0.00617227
0.00617227
0.00617227
0.00617227
0.00617227
0.00617227
0.00617227
0.00617227
0.00617227
0.00617227
0.00617227
0.00617227
0.00617227
0.00617227
0.00617227
0.00617227
0.00617227
0.00617227
0.00617227
0.00617227
0.00617227
0.00617227
0.00617227
0.00617227
0.00617227
0.00617227
0.00617227
0.00617227
0.00617227
0.00617227
0.00617227
0.00617227
0.00617227
0.00617227
0.00617227
0.00617227
0.00617227
0.00617227
0.00617227
0.00617227
0.00617227
0.00617227
0.00617227
0.00617227
0.00617227
0.00617227
0.00617227
0.00617227
0.00617227
0.00617227
0.00617227
)
;

boundaryField
{
    inlet
    {
        type            zeroGradient;
    }
    outlet
    {
        type            fixedValue;
        value           uniform 0;
    }
    repeat_boundary
    {
        type            zeroGradient;
    }
    procBoundary3to1
    {
        type            processor;
        value           nonuniform List<scalar> 
450
(
-5.19683e-11
-6.10755e-11
-7.72839e-11
-1.1386e-10
-1.34391e-10
-1.54115e-11
-8.56882e-11
-1.61755e-10
-2.38099e-10
-2.56621e-10
9.59396e-11
1.43737e-11
-7.6943e-11
-1.28732e-10
-1.13001e-10
2.47455e-10
2.79924e-10
2.42318e-10
2.37769e-10
2.7019e-10
5.70985e-10
7.60846e-10
7.72213e-10
7.7101e-10
7.80321e-10
1.16684e-09
1.36597e-09
1.37227e-09
1.33387e-09
1.29967e-09
1.82915e-09
1.87119e-09
1.86048e-09
1.80683e-09
1.74887e-09
2.1831e-09
2.12665e-09
2.16036e-09
2.15464e-09
2.11793e-09
2.09427e-09
2.14021e-09
2.28896e-09
2.3796e-09
2.39509e-09
1.75395e-09
1.93531e-09
2.20197e-09
2.39553e-09
2.46207e-09
1.34399e-09
1.50684e-09
1.82089e-09
2.08692e-09
2.19029e-09
8.3369e-10
9.18733e-10
1.20628e-09
1.48925e-09
1.60779e-09
1.96714e-10
2.68845e-10
4.93082e-10
7.27878e-10
8.21694e-10
-4.3717e-10
-4.16238e-10
-2.9393e-10
-1.66109e-10
-1.37854e-10
-1.00891e-09
-1.13312e-09
-1.17598e-09
-1.20597e-09
-1.26501e-09
-1.57302e-09
-1.86496e-09
-2.12281e-09
-2.3455e-09
-2.50287e-09
-2.0836e-09
-2.65101e-09
-3.15756e-09
-3.59235e-09
-3.86892e-09
-2.54187e-09
-3.57361e-09
-4.41149e-09
-5.10798e-09
-5.53203e-09
-3.11018e-09
-4.72122e-09
-6.03437e-09
-7.05863e-09
-7.62243e-09
-3.80618e-09
-6.17381e-09
-8.09219e-09
-9.47765e-09
-1.01747e-08
-4.5237e-09
-7.88248e-09
-1.05569e-08
-1.24362e-08
-1.33903e-08
-5.10954e-09
-9.72528e-09
-1.35077e-08
-1.62204e-08
-1.76421e-08
-5.36537e-09
-1.18359e-08
-1.72537e-08
-2.11733e-08
-2.32188e-08
-5.48442e-09
-1.45232e-08
-2.21051e-08
-2.75882e-08
-3.04379e-08
-5.37439e-09
-1.77732e-08
-2.82781e-08
-3.59195e-08
-3.99238e-08
-4.13307e-09
-2.14047e-08
-3.61364e-08
-4.68946e-08
-5.25637e-08
-1.46243e-09
-2.55801e-08
-4.63059e-08
-6.14912e-08
-6.95063e-08
3.23611e-09
-3.03228e-08
-5.95113e-08
-8.10253e-08
-9.24189e-08
1.20233e-08
-3.51336e-08
-7.65155e-08
-1.07259e-07
-1.23654e-07
2.71848e-08
-3.92371e-08
-9.82666e-08
-1.42551e-07
-1.66448e-07
5.38269e-08
-4.03077e-08
-1.25273e-07
-1.89605e-07
-2.25152e-07
1.03092e-07
-3.19958e-08
-1.55712e-07
-2.49897e-07
-3.05239e-07
1.97244e-07
3.50717e-09
-1.79413e-07
-3.16145e-07
-4.13599e-07
3.82612e-07
1.14984e-07
-1.73008e-07
-3.59448e-07
-5.62956e-07
7.26403e-07
3.79536e-07
-1.44897e-07
-3.44484e-07
-7.91816e-07
1.3533e-06
9.66778e-07
-8.85715e-08
-1.36659e-07
-1.1205e-06
4.23789e-06
4.47651e-06
3.30897e-06
1.96237e-06
6.93518e-07
-2.71075e-06
-2.79404e-06