/*--------------------------------*- C++ -*----------------------------------*\
| =========                 |                                                 |
| \\      /  F ield         | OpenFOAM: The Open Source CFD Toolbox           |
|  \\    /   O peration     | Version:  5.x                                   |
|   \\  /    A nd           | Web:      www.OpenFOAM.org                      |
|    \\/     M anipulation  |                                                 |
\*---------------------------------------------------------------------------*/
FoamFile
{
    version     2.0;
    format      ascii;
    class       surfaceScalarField;
    location    "0.06";
    object      phi;
}
// * * * * * * * * * * * * * * * * * * * * * * * * * * * * * * * * * * * * * //

dimensions      [0 3 -1 0 0 0 0];

internalField   nonuniform List<scalar> 
5825
(
-2.1551e-16
-1.89962e-16
-1e-09
-1.48881e-16
-1.63008e-16
-1e-09
-8.42358e-17
-1.61377e-16
-1e-09
-4.04803e-17
-1.77882e-16
-1e-09
-1.90574e-16
-1e-09
-1.86472e-16
-1.38734e-16
-1e-09
-1.44038e-16
-1.29387e-16
-1e-09
-9.98656e-17
-1.34282e-16
-1e-09
-5.29116e-17
-1.42422e-16
-1e-09
-1.46498e-16
-1e-09
-1.79811e-16
-8.73798e-17
-1e-09
-1.48947e-16
-8.89405e-17
-1e-09
-1.0849e-16
-9.22915e-17
-1e-09
-5.76747e-17
-9.65396e-17
-1e-09
-1.00581e-16
-1e-09
-1.81903e-16
-4.08646e-17
-1e-09
-1.51953e-16
-4.28194e-17
-1e-09
-1.12788e-16
-4.50036e-17
-1e-09
-6.18858e-17
-4.90586e-17
-1e-09
-5.46399e-17
-1e-09
-1.83601e-16
-1e-09
-1.53511e-16
-1e-09
-1.16607e-16
-1e-09
-6.73998e-17
-1e-09
-1e-09
-5.26149e-16
-4.48166e-16
-1e-09
-3.92815e-16
-4.35241e-16
-1e-09
-2.56448e-16
-4.58177e-16
-1e-09
-1.42424e-16
-5.00234e-16
-1e-09
-5.23218e-16
-1e-09
-5.03883e-16
-3.5512e-16
-1e-09
-4.06051e-16
-3.56335e-16
-1e-09
-2.92866e-16
-3.74719e-16
-1e-09
-1.60955e-16
-3.93734e-16
-1e-09
-4.05309e-16
-1e-09
-5.09013e-16
-2.36523e-16
-1e-09
-4.24787e-16
-2.45406e-16
-1e-09
-3.13797e-16
-2.57736e-16
-1e-09
-1.7442e-16
-2.72893e-16
-1e-09
-2.87934e-16
-1e-09
-5.21418e-16
-1.1303e-16
-1e-09
-4.35853e-16
-1.21536e-16
-1e-09
-3.29109e-16
-1.34538e-16
-1e-09
-1.8947e-16
-1.50402e-16
-1e-09
-1.6466e-16
-1e-09
-5.30692e-16
-1e-09
-4.47381e-16
-1e-09
-3.44637e-16
-1e-09
-2.03339e-16
-1e-09
-1e-09
-7.9603e-16
-6.76683e-16
-1e-09
-6.92276e-16
-7.55676e-16
-1e-09
-5.09024e-16
-8.1746e-16
-1e-09
-2.87901e-16
-8.59956e-16
-1e-09
-8.74765e-16
-1e-09
-8.71191e-16
-6.0767e-16
-1e-09
-7.36285e-16
-6.32297e-16
-1e-09
-5.43702e-16
-6.64369e-16
-1e-09
-2.9873e-16
-6.89574e-16
-1e-09
-7.09099e-16
-1e-09
-9.09601e-16
-4.22838e-16
-1e-09
-7.68633e-16
-4.37978e-16
-1e-09
-5.71386e-16
-4.61576e-16
-1e-09
-3.20159e-16
-4.9002e-16
-1e-09
-5.13622e-16
-1e-09
-9.28818e-16
-2.05388e-16
-1e-09
-7.90376e-16
-2.2483e-16
-1e-09
-6.0008e-16
-2.52093e-16
-1e-09
-3.43861e-16
-2.76859e-16
-1e-09
-2.88293e-16
-1e-09
-9.48446e-16
-1e-09
-8.15711e-16
-1e-09
-6.24061e-16
-1e-09
-3.54891e-16
-1e-09
-1e-09
-1.26808e-15
-1.09964e-15
-1e-09
-1.12396e-15
-1.20433e-15
-1e-09
-8.42976e-16
-1.2695e-15
-1e-09
-4.60897e-16
-1.29152e-15
-1e-09
-1.2946e-15
-1e-09
-1.372e-15
-9.68999e-16
-1e-09
-1.1667e-15
-9.93883e-16
-1e-09
-8.61051e-16
-1.02982e-15
-1e-09
-4.65119e-16
-1.05961e-15
-1e-09
-1.08124e-15
-1e-09
-1.41301e-15
-6.68844e-16
-1e-09
-1.20304e-15
-6.88258e-16
-1e-09
-8.92956e-16
-7.23679e-16
-1e-09
-4.8914e-16
-7.60747e-16
-1e-09
-7.81407e-16
-1e-09
-1.43391e-15
-3.26862e-16
-1e-09
-1.23697e-15
-3.61114e-16
-1e-09
-9.30245e-16
-3.95722e-16
-1e-09
-5.11109e-16
-4.17227e-16
-1e-09
-4.15803e-16
-1e-09
-1.46515e-15
-1e-09
-1.26888e-15
-1e-09
-9.49619e-16
-1e-09
-5.09358e-16
-1e-09
-1e-09
-1.94081e-15
-1.71079e-15
-1e-09
-1.68625e-15
-1.78717e-15
-1e-09
-1.24733e-15
-1.83162e-15
-1e-09
-6.67764e-16
-1.83978e-15
-1e-09
-1.835e-15
-1e-09
-2.01869e-15
-1.4405e-15
-1e-09
-1.71138e-15
-1.45723e-15
-1e-09
-1.25504e-15
-1.49557e-15
-1e-09
-6.69062e-16
-1.52895e-15
-1e-09
-1.54408e-15
-1e-09
-2.04817e-15
-9.8756e-16
-1e-09
-1.74967e-15
-1.01884e-15
-1e-09
-1.29004e-15
-1.06306e-15
-1e-09
-6.88185e-16
-1.099e-15
-1e-09
-1.1091e-15
-1e-09
-2.07855e-15
-4.9947e-16
-1e-09
-1.79236e-15
-5.43102e-16
-1e-09
-1.32595e-15
-5.72463e-16
-1e-09
-7.01098e-16
-5.82253e-16
-1e-09
-5.73254e-16
-1e-09
-2.11581e-15
-1e-09
-1.8173e-15
-1e-09
-1.33218e-15
-1e-09
-6.91599e-16
-1e-09
-1e-09
-2.69922e-15
-2.36911e-15
-1e-09
-2.35788e-15
-2.46459e-15
-1e-09
-1.73527e-15
-2.51623e-15
-1e-09
-9.24831e-16
-2.53373e-15
-1e-09
-2.52902e-15
-1e-09
-2.7963e-15
-1.99852e-15
-1e-09
-2.39321e-15
-2.03919e-15
-1e-09
-1.75228e-15
-2.09073e-15
-1e-09
-9.2886e-16
-2.12811e-15
-1e-09
-2.13743e-15
-1e-09
-2.85327e-15
-1.41355e-15
-1e-09
-2.44462e-15
-1.46111e-15
-1e-09
-1.79175e-15
-1.50755e-15
-1e-09
-9.44356e-16
-1.53717e-15
-1.00001e-09
-1.54066e-15
-1.00001e-09
-2.90208e-15
-7.50356e-16
-1e-09
-2.48897e-15
-7.8644e-16
-1e-09
-1.82131e-15
-8.05066e-16
-1.00001e-09
-9.51759e-16
-8.06953e-16
-1.00001e-09
-8.02788e-16
-1.00001e-09
-2.92878e-15
-1e-09
-2.50048e-15
-1e-09
-1.81857e-15
-1.00001e-09
-9.47142e-16
-1.00001e-09
-1.00001e-09
-3.72736e-15
-3.22194e-15
-1e-09
-3.24245e-15
-3.32919e-15
-1e-09
-2.37274e-15
-3.40402e-15
-1e-09
-1.25584e-15
-3.44337e-15
-1e-09
-3.4531e-15
-1.00001e-09
-3.83796e-15
-2.74479e-15
-1e-09
-3.29905e-15
-2.81764e-15
-1e-09
-2.41005e-15
-2.87957e-15
-1.00001e-09
-1.27563e-15
-2.92132e-15
-1.00001e-09
-2.93176e-15
-1.00001e-09
-3.92948e-15
-2.01221e-15
-1e-09
-3.36126e-15
-2.0599e-15
-1.00001e-09
-2.45469e-15
-2.10179e-15
-1.00001e-09
-1.29426e-15
-2.12738e-15
-1.00001e-09
-2.13035e-15
-1.00001e-09
-3.97948e-15
-1.08924e-15
-1e-09
-3.40014e-15
-1.10717e-15
-1.00001e-09
-2.47994e-15
-1.12097e-15
-1.00001e-09
-1.30201e-15
-1.12331e-15
-1.00001e-09
-1.12618e-15
-1.00001e-09
-3.98724e-15
-1e-09
-3.40379e-15
-1.00001e-09
-2.47671e-15
-1.00001e-09
-1.30452e-15
-1.00001e-09
-1.00001e-09
-5.26208e-15
-4.52429e-15
-1e-09
-4.50701e-15
-4.58082e-15
-1e-09
-3.26239e-15
-4.6363e-15
-1.00001e-09
-1.71138e-15
-4.68309e-15
-1.00001e-09
-4.70529e-15
-1.00001e-09
-5.33091e-15
-3.85076e-15
-1e-09
-4.54918e-15
-3.90785e-15
-1.00001e-09
-3.30714e-15
-3.95787e-15
-1.00001e-09
-1.74606e-15
-3.99774e-15
-1.00001e-09
-4.00825e-15
-1.00001e-09
-5.4001e-15
-2.84156e-15
-1e-09
-4.59971e-15
-2.86761e-15
-1.00001e-09
-3.34957e-15
-2.90153e-15
-1.00001e-09
-1.76665e-15
-2.92446e-15
-1.00001e-09
-2.92361e-15
-1.00001e-09
-5.4279e-15
-1.51872e-15
-1.00001e-09
-4.63022e-15
-1.52795e-15
-1.00001e-09
-3.37204e-15
-1.5428e-15
-1.00001e-09
-1.77208e-15
-1.54532e-15
-1.00001e-09
-1.54275e-15
-1.00001e-09
-5.42512e-15
-1.00001e-09
-4.63248e-15
-1.00001e-09
-3.36741e-15
-1.00001e-09
-1.76897e-15
-1.00001e-09
-1.00001e-09
-7.36591e-15
-6.37148e-15
-1e-09
-6.24088e-15
-6.34282e-15
-1.00001e-09
-4.49274e-15
-6.35353e-15
-1.00001e-09
-2.34685e-15
-6.38405e-15
-1.00001e-09
-6.39652e-15
-1.00001e-09
-7.34899e-15
-5.39473e-15
-1e-09
-6.24024e-15
-5.40481e-15
-1.00001e-09
-4.52324e-15
-5.43256e-15
-1.00001e-09
-2.37579e-15
-5.45976e-15
-1.00001e-09
-5.45995e-15
-1.00001e-09
-7.37045e-15
-3.93468e-15
-1.00001e-09
-6.26821e-15
-3.94662e-15
-1.00001e-09
-4.55258e-15
-3.97423e-15
-1.00001e-09
-2.38907e-15
-3.98843e-15
-1.00001e-09
-3.97317e-15
-1.00001e-09
-7.38303e-15
-2.06969e-15
-1.00001e-09
-6.29262e-15
-2.08489e-15
-1.00001e-09
-4.56658e-15
-2.09715e-15
-1.00001e-09
-2.38259e-15
-2.09044e-15
-1.00001e-09
-2.07315e-15
-1.00002e-09
-7.38182e-15
-1.00001e-09
-6.28937e-15
-1.00001e-09
-4.54991e-15
-1.00001e-09
-2.36456e-15
-1.00002e-09
-1.00002e-09
-1.00118e-14
-8.75255e-15
-1e-09
-8.49927e-15
-8.70506e-15
-1.00001e-09
-6.14582e-15
-8.70251e-15
-1.00001e-09
-3.21286e-15
-8.71118e-15
-1.00001e-09
-8.69777e-15
-1.00001e-09
-9.97138e-15
-7.41423e-15
-1.00001e-09
-8.48442e-15
-7.41619e-15
-1.00001e-09
-6.15536e-15
-7.43502e-15
-1.00001e-09
-3.22114e-15
-7.44146e-15
-1.00002e-09
-7.41939e-15
-1.00002e-09
-9.98579e-15
-5.36959e-15
-1.00001e-09
-8.50306e-15
-5.39648e-15
-1.00001e-09
-6.16432e-15
-5.41721e-15
-1.00002e-09
-3.21718e-15
-5.41159e-15
-1.00002e-09
-5.37712e-15
-1.00002e-09
-1.00123e-14
-2.81764e-15
-1.00001e-09
-8.5209e-15
-2.83878e-15
-1.00001e-09
-6.15884e-15
-2.83729e-15
-1.00002e-09
-3.19518e-15
-2.8163e-15
-1.00002e-09
-2.79362e-15
-1.00002e-09
-1.00102e-14
-1.00001e-09
-8.49897e-15
-1.00002e-09
-6.12371e-15
-1.00002e-09
-3.17156e-15
-1.00002e-09
-1.00002e-09
-1.35147e-14
-1.19419e-14
-1e-09
-1.15198e-14
-1.19133e-14
-1.00001e-09
-8.37685e-15
-1.19149e-14
-1.00001e-09
-4.39387e-15
-1.18957e-14
-1.00002e-09
-1.1848e-14
-1.00002e-09
-1.3489e-14
-1.01364e-14
-1.00001e-09
-1.15026e-14
-1.01459e-14
-1.00001e-09
-8.35806e-15
-1.01542e-14
-1.00002e-09
-4.37495e-15
-1.01293e-14
-1.00002e-09
-1.00776e-14
-1.00002e-09
-1.35169e-14
-7.34001e-15
-1.00001e-09
-1.15105e-14
-7.37396e-15
-1.00002e-09
-8.33707e-15
-7.37339e-15
-1.00002e-09
-4.34823e-15
-7.34124e-15
-1.00002e-09
-7.29782e-15
-1.00003e-09
-1.35507e-14
-3.86968e-15
-1.00002e-09
-1.15067e-14
-3.87665e-15
-1.00002e-09
-8.30526e-15
-3.85285e-15
-1.00002e-09
-4.32196e-15
-3.82713e-15
-1.00003e-09
-3.81575e-15
-1.00003e-09
-1.35256e-14
-1.00002e-09
-1.14552e-14
-1.00002e-09
-8.26009e-15
-1.00003e-09
-4.30947e-15
-1.00003e-09
-1.00003e-09
-1.84124e-14
-1.64046e-14
-1.00001e-09
-1.56607e-14
-1.63277e-14
-1.00001e-09
-1.14153e-14
-1.62916e-14
-1.00002e-09
-6.00687e-15
-1.62238e-14
-1.00002e-09
-1.61303e-14
-1.00003e-09
-1.83341e-14
-1.38985e-14
-1.00001e-09
-1.56145e-14
-1.38788e-14
-1.00002e-09
-1.13489e-14
-1.38439e-14
-1.00002e-09
-5.95216e-15
-1.37784e-14
-1.00003e-09
-1.3703e-14
-1.00003e-09
-1.8324e-14
-1.00865e-14
-1.00002e-09
-1.55793e-14
-1.008e-14
-1.00002e-09
-1.12876e-14
-1.00383e-14
-1.00003e-09
-5.91031e-15
-9.98801e-15
-1.00003e-09
-9.95092e-15
-1.00004e-09
-1.83166e-14
-5.33063e-15
-1.00002e-09
-1.55345e-14
-5.30161e-15
-1.00003e-09
-1.12374e-14
-5.26047e-15
-1.00003e-09
-5.89659e-15
-5.24525e-15
-1.00004e-09
-5.24481e-15
-1.00004e-09
-1.82439e-14
-1.00002e-09
-1.54559e-14
-1.00003e-09
-1.11959e-14
-1.00004e-09
-5.89492e-15
-1.00004e-09
-1.00004e-09
-2.50216e-14
-2.24042e-14
-1.00001e-09
-2.12817e-14
-2.22851e-14
-1.00002e-09
-1.55135e-14
-2.21911e-14
-1.00003e-09
-8.17136e-15
-2.2072e-14
-1.00003e-09
-2.19381e-14
-1.00003e-09
-2.49013e-14
-1.90155e-14
-1.00002e-09
-2.11859e-14
-1.89362e-14
-1.00003e-09
-1.53991e-14
-1.8843e-14
-1.00003e-09
-8.09085e-15
-1.87491e-14
-1.00004e-09
-1.86672e-14
-1.00004e-09
-2.48235e-14
-1.38274e-14
-1.00002e-09
-2.10924e-14
-1.37542e-14
-1.00003e-09
-1.53082e-14
-1.36744e-14
-1.00004e-09
-8.05372e-15
-1.3624e-14
-1.00005e-09
-1.35911e-14
-1.00005e-09
-2.47467e-14
-7.29888e-15
-1.00003e-09
-2.10098e-14
-7.23662e-15
-1.00004e-09
-1.52577e-14
-7.19525e-15
-1.00005e-09
-8.05278e-15
-7.19078e-15
-1.00005e-09
-7.17935e-15
-1.00005e-09
-2.46256e-14
-1.00003e-09
-2.09182e-14
-1.00004e-09
-1.52178e-14
-1.00005e-09
-8.03981e-15
-1.00005e-09
-1.00006e-09
-3.39083e-14
-3.04611e-14
-1.00001e-09
-2.8868e-14
-3.03071e-14
-1.00002e-09
-2.10205e-14
-3.01603e-14
-1.00003e-09
-1.10614e-14
-3.00164e-14
-1.00004e-09
-2.98692e-14
-1.00005e-09
-3.37525e-14
-2.59135e-14
-1.00002e-09
-2.87222e-14
-2.5773e-14
-1.00004e-09
-2.08825e-14
-2.5636e-14
-1.00005e-09
-1.09869e-14
-2.55378e-14
-1.00005e-09
-2.5451e-14
-1.00006e-09
-3.36112e-14
-1.88522e-14
-1.00003e-09
-2.85846e-14
-1.87258e-14
-1.00005e-09
-2.0787e-14
-1.86293e-14
-1.00006e-09
-1.09609e-14
-1.85815e-14
-1.00006e-09
-1.85264e-14
-1.00007e-09
-3.34804e-14
-9.9248e-15
-1.00004e-09
-2.84849e-14
-9.85413e-15
-1.00005e-09
-2.07391e-14
-9.82024e-15
-1.00006e-09
-1.09499e-14
-9.80574e-15
-1.00007e-09
-9.75927e-15
-1.00007e-09
-3.33306e-14
-1.00004e-09
-2.83834e-14
-1.00006e-09
-2.06763e-14
-1.00007e-09
-1.09013e-14
-1.00007e-09
-1.00008e-09
-4.60933e-14
-4.15284e-14
-1.00002e-09
-3.92063e-14
-4.12565e-14
-1.00003e-09
-2.8493e-14
-4.10252e-14
-1.00005e-09
-1.49763e-14
-4.08639e-14
-1.00006e-09
-4.0708e-14
-1.00006e-09
-4.58211e-14
-3.52996e-14
-1.00003e-09
-3.89757e-14
-3.50655e-14
-1.00005e-09
-2.83373e-14
-3.48867e-14
-1.00006e-09
-1.49185e-14
-3.47795e-14
-1.00007e-09
-3.46578e-14
-1.00008e-09
-4.55866e-14
-2.56403e-14
-1.00004e-09
-3.87964e-14
-2.54702e-14
-1.00006e-09
-2.82338e-14
-2.5356e-14
-1.00008e-09
-1.48802e-14
-2.52852e-14
-1.00009e-09
-2.51797e-14
-1.00009e-09
-4.54118e-14
-1.34736e-14
-1.00005e-09
-3.86782e-14
-1.34045e-14
-1.00007e-09
-2.81629e-14
-1.33587e-14
-1.00008e-09
-1.48347e-14
-1.33097e-14
-1.0001e-09
-1.32317e-14
-1.0001e-09
-4.52357e-14
-1.00006e-09
-3.85405e-14
-1.00008e-09
-2.8048e-14
-1.00009e-09
-1.47537e-14
-1.0001e-09
-1.00011e-09
-6.26977e-14
-5.65846e-14
-1.00002e-09
-5.32759e-14
-5.61531e-14
-1.00005e-09
-3.86802e-14
-5.58163e-14
-1.00007e-09
-2.03266e-14
-5.56118e-14
-1.00008e-09
-5.54075e-14
-1.00009e-09
-6.22667e-14
-4.80358e-14
-1.00004e-09
-5.29417e-14
-4.769e-14
-1.00007e-09
-3.84825e-14
-4.74455e-14
-1.00009e-09
-2.0256e-14
-4.72909e-14
-1.0001e-09
-4.70996e-14
-1.00011e-09
-6.19189e-14
-3.48584e-14
-1.00006e-09
-5.26967e-14
-3.46292e-14
-1.00008e-09
-3.83327e-14
-3.44623e-14
-1.0001e-09
-2.0178e-14
-3.43373e-14
-1.00012e-09
-3.41791e-14
-1.00012e-09
-6.16834e-14
-1.83231e-14
-1.00007e-09
-5.25246e-14
-1.82264e-14
-1.0001e-09
-3.82075e-14
-1.81379e-14
-1.00012e-09
-2.01007e-14
-1.80531e-14
-1.00013e-09
-1.79733e-14
-1.00014e-09
-6.14408e-14
-1.00008e-09
-5.23111e-14
-1.0001e-09
-3.80337e-14
-1.00012e-09
-2.00166e-14
-1.00014e-09
-1.00014e-09
-8.51315e-14
-7.684e-14
-1.00003e-09
-7.23815e-14
-7.62958e-14
-1.00006e-09
-5.25566e-14
-7.58444e-14
-1.00009e-09
-2.76254e-14
-7.55563e-14
-1.00011e-09
-7.5258e-14
-1.00012e-09
-8.45885e-14
-6.52789e-14
-1.00006e-09
-7.19342e-14
-6.48098e-14
-1.00009e-09
-5.22777e-14
-6.44544e-14
-1.00012e-09
-2.75089e-14
-6.4213e-14
-1.00014e-09
-6.39388e-14
-1.00015e-09
-8.41164e-14
-4.74004e-14
-1.00008e-09
-7.15775e-14
-4.70662e-14
-1.00011e-09
-5.20421e-14
-4.68019e-14
-1.00014e-09
-2.73877e-14
-4.6608e-14
-1.00016e-09
-4.64061e-14
-1.00017e-09
-8.37733e-14
-2.49396e-14
-1.0001e-09
-7.13069e-14
-2.47706e-14
-1.00013e-09
-5.1848e-14
-2.46253e-14
-1.00016e-09
-2.72951e-14
-2.45211e-14
-1.00018e-09
-2.4433e-14
-1.00019e-09
-8.34053e-14
-1.00011e-09
-7.09926e-14
-1.00014e-09
-5.16231e-14
-1.00017e-09
-2.7201e-14
-1.00019e-09
-1.0002e-09
-1.15738e-13
-1.0442e-13
-1.00004e-09
-9.84375e-14
-1.03651e-13
-1.00008e-09
-7.14776e-14
-1.02992e-13
-1.00012e-09
-3.7585e-14
-1.02564e-13
-1.00015e-09
-1.02136e-13
-1.00016e-09
-1.1497e-13
-8.87667e-14
-1.00008e-09
-9.77834e-14
-8.80709e-14
-1.00012e-09
-7.10617e-14
-8.75267e-14
-1.00016e-09
-3.74023e-14
-8.71558e-14
-1.00018e-09
-8.67687e-14
-1.0002e-09
-1.1427e-13
-6.44814e-14
-1.00011e-09
-9.72378e-14
-6.39632e-14
-1.00016e-09
-7.06983e-14
-6.35535e-14
-1.00019e-09
-3.72227e-14
-6.32667e-14
-1.00022e-09
-6.29845e-14
-1.00023e-09
-1.1374e-13
-3.39176e-14
-1.00014e-09
-9.68204e-14
-3.36512e-14
-1.00018e-09
-7.04112e-14
-3.34414e-14
-1.00021e-09
-3.7089e-14
-3.3299e-14
-1.00024e-09
-3.31511e-14
-1.00025e-09
-1.13203e-13
-1.00015e-09
-9.63812e-14
-1.00019e-09
-7.01043e-14
-1.00023e-09
-3.69326e-14
-1.00025e-09
-1.00027e-09
-1.57518e-13
-1.42073e-13
-1.00006e-09
-1.33974e-13
-1.40871e-13
-1.00012e-09
-9.73185e-14
-1.39869e-13
-1.00016e-09
-5.1224e-14
-1.39204e-13
-1.0002e-09
-1.3855e-13
-1.00022e-09
-1.56316e-13
-1.20752e-13
-1.00011e-09
-1.32978e-13
-1.19684e-13
-1.00017e-09
-9.66679e-14
-1.1884e-13
-1.00022e-09
-5.09041e-14
-1.18247e-13
-1.00025e-09
-1.17656e-13
-1.00027e-09
-1.55242e-13
-8.76822e-14
-1.00015e-09
-1.32134e-13
-8.68988e-14
-1.00021e-09
-9.60844e-14
-8.62684e-14
-1.00026e-09
-5.05956e-14
-8.58154e-14
-1.00029e-09
-8.53781e-14
-1.00031e-09
-1.54442e-13
-4.60823e-14
-1.00019e-09
-1.31493e-13
-4.57003e-14
-1.00024e-09
-9.56308e-14
-4.53841e-14
-1.00029e-09
-5.03599e-14
-4.51462e-14
-1.00033e-09
-4.49269e-14
-1.00034e-09
-1.53691e-13
-1.0002e-09
-1.30863e-13
-1.00026e-09
-9.51685e-14
-1.00031e-09
-5.01288e-14
-1.00034e-09
-1.00036e-09
-2.14205e-13
-1.93111e-13
-1.00008e-09
-1.82342e-13
-1.91369e-13
-1.00016e-09
-1.32588e-13
-1.89866e-13
-1.00022e-09
-6.98492e-14
-1.8877e-13
-1.00027e-09
-1.87722e-13
-1.0003e-09
-2.12461e-13
-1.64119e-13
-1.00015e-09
-1.80847e-13
-1.62544e-13
-1.00023e-09
-1.31513e-13
-1.61229e-13
-1.00029e-09
-6.92568e-14
-1.60257e-13
-1.00034e-09
-1.59354e-13
-1.00037e-09
-2.10875e-13
-1.19121e-13
-1.00021e-09
-1.79532e-13
-1.17968e-13
-1.00029e-09
-1.30555e-13
-1.16989e-13
-1.00035e-09
-6.87379e-14
-1.16267e-13
-1.0004e-09
-1.1563e-13
-1.00043e-09
-2.09699e-13
-6.25974e-14
-1.00025e-09
-1.78538e-13
-6.20313e-14
-1.00033e-09
-1.29831e-13
-6.15284e-14
-1.00039e-09
-6.83761e-14
-6.11655e-14
-1.00044e-09
-6.08761e-14
-1.00047e-09
-2.08629e-13
-1.00028e-09
-1.77608e-13
-1.00035e-09
-1.29162e-13
-1.00042e-09
-6.80702e-14
-1.00046e-09
-1.00049e-09
-2.91428e-13
-2.62475e-13
-1.00011e-09
-2.48237e-13
-2.59827e-13
-1.00021e-09
-1.80598e-13
-2.5747e-13
-1.00031e-09
-9.51278e-14
-2.55676e-13
-1.00037e-09
-2.54089e-13
-1.00041e-09
-2.88778e-13
-2.22965e-13
-1.0002e-09
-2.4589e-13
-2.20566e-13
-1.00031e-09
-1.78832e-13
-2.18497e-13
-1.0004e-09
-9.41624e-14
-2.16964e-13
-1.00047e-09
-2.15657e-13
-1.0005e-09
-2.86366e-13
-1.61772e-13
-1.00029e-09
-2.4382e-13
-1.6001e-13
-1.00039e-09
-1.77316e-13
-1.58492e-13
-1.00048e-09
-9.338e-14
-1.57398e-13
-1.00054e-09
-1.56506e-13
-1.00058e-09
-2.84571e-13
-8.50443e-14
-1.00034e-09
-2.42281e-13
-8.41328e-14
-1.00045e-09
-1.7622e-13
-8.33573e-14
-1.00054e-09
-9.2862e-14
-8.28382e-14
-1.0006e-09
-8.23826e-14
-1.00063e-09
-2.82972e-13
-1.00038e-09
-2.40922e-13
-1.00048e-09
-1.75282e-13
-1.00057e-09
-9.23833e-14
-1.00063e-09
-1.00066e-09
-3.96808e-13
-3.56893e-13
-1.00015e-09
-3.37936e-13
-3.52568e-13
-1.00029e-09
-2.45835e-13
-3.48832e-13
-1.00042e-09
-1.29452e-13
-3.46052e-13
-1.00051e-09
-3.4378e-13
-1.00056e-09
-3.9248e-13
-3.0284e-13
-1.00028e-09
-3.34208e-13
-2.99065e-13
-1.00042e-09
-2.43093e-13
-2.95848e-13
-1.00054e-09
-1.28026e-13
-2.93518e-13
-1.00063e-09
-2.91646e-13
-1.00068e-09
-3.8869e-13
-2.19628e-13
-1.00039e-09
-3.30989e-13
-2.16852e-13
-1.00053e-09
-2.40787e-13
-2.14531e-13
-1.00065e-09
-1.26868e-13
-2.12894e-13
-1.00074e-09
-2.11559e-13
-1.00079e-09
-3.85871e-13
-1.15454e-13
-1.00047e-09
-3.28637e-13
-1.13994e-13
-1.00061e-09
-2.39147e-13
-1.12832e-13
-1.00073e-09
-1.26042e-13
-1.12008e-13
-1.00081e-09
-1.11248e-13
-1.00086e-09
-3.83471e-13
-1.00051e-09
-3.26677e-13
-1.00065e-09
-2.3775e-13
-1.00077e-09
-1.2525e-13
-1.00085e-09
-1.0009e-09
-5.39998e-13
-4.84879e-13
-1.0002e-09
-4.59915e-13
-4.78072e-13
-1.0004e-09
-3.34631e-13
-4.72321e-13
-1.00057e-09
-1.7625e-13
-4.68119e-13
-1.00069e-09
-4.64828e-13
-1.00076e-09
-5.33187e-13
-4.1103e-13
-1.00038e-09
-4.54165e-13
-4.05161e-13
-1.00057e-09
-3.30478e-13
-4.00241e-13
-1.00074e-09
-1.74114e-13
-3.96694e-13
-1.00086e-09
-3.93916e-13
-1.00093e-09
-5.27309e-13
-2.9789e-13
-1.00053e-09
-4.4924e-13
-2.9359e-13
-1.00072e-09
-3.26964e-13
-2.90049e-13
-1.00088e-09
-1.72308e-13
-2.87495e-13
-1.001e-09
-2.85429e-13
-1.00107e-09
-5.22951e-13
-1.56495e-13
-1.00064e-09
-4.45653e-13
-1.54276e-13
-1.00082e-09
-3.24403e-13
-1.5247e-13
-1.00099e-09
-1.70932e-13
-1.51092e-13
-1.0011e-09
-1.49953e-13
-1.00117e-09
-5.1945e-13
-1.00069e-09
-4.42755e-13
-1.00088e-09
-3.22244e-13
-1.00104e-09
-1.69746e-13
-1.00116e-09
-1.00122e-09
-7.34712e-13
-6.58373e-13
-1.00027e-09
-6.26075e-13
-6.47904e-13
-1.00055e-09
-4.55727e-13
-6.39083e-13
-1.00078e-09
-2.40112e-13
-6.32643e-13
-1.00095e-09
-6.27752e-13
-1.00104e-09
-7.24236e-13
-5.57406e-13
-1.00051e-09
-6.17247e-13
-5.48373e-13
-1.00078e-09
-4.49353e-13
-5.40816e-13
-1.00101e-09
-2.36796e-13
-5.35311e-13
-1.00117e-09
-5.31126e-13
-1.00126e-09
-7.15195e-13
-4.03568e-13
-1.00072e-09
-6.09679e-13
-3.96972e-13
-1.00098e-09
-4.43892e-13
-3.91464e-13
-1.0012e-09
-2.33933e-13
-3.87403e-13
-1.00136e-09
-3.84308e-13
-1.00145e-09
-7.08519e-13
-2.11884e-13
-1.00086e-09
-6.04101e-13
-2.08482e-13
-1.00112e-09
-4.39818e-13
-2.05567e-13
-1.00134e-09
-2.31772e-13
-2.03386e-13
-1.0015e-09
-2.01764e-13
-1.00158e-09
-7.03366e-13
-1.00094e-09
-5.99692e-13
-1.00119e-09
-4.36571e-13
-1.00141e-09
-2.3008e-13
-1.00157e-09
-1.00165e-09
-9.99927e-13
-8.93573e-13
-1.00038e-09
-8.52563e-13
-8.77396e-13
-1.00074e-09
-6.20868e-13
-8.63789e-13
-1.00106e-09
-3.27208e-13
-8.5385e-13
-1.00129e-09
-8.46568e-13
-1.00141e-09
-9.83735e-13
-7.55165e-13
-1.0007e-09
-8.38947e-13
-7.41218e-13
-1.00106e-09
-6.1102e-13
-7.295e-13
-1.00137e-09
-3.22069e-13
-7.20937e-13
-1.00159e-09
-7.14711e-13
-1.00171e-09
-9.69767e-13
-5.46078e-13
-1.00097e-09
-8.27208e-13
-5.35796e-13
-1.00132e-09
-6.02518e-13
-5.27126e-13
-1.00163e-09
-3.17641e-13
-5.20784e-13
-1.00185e-09
-5.16233e-13
-1.00196e-09
-9.59368e-13
-2.86558e-13
-1.00117e-09
-8.18433e-13
-2.81115e-13
-1.00151e-09
-5.96154e-13
-2.76487e-13
-1.00181e-09
-3.14351e-13
-2.7316e-13
-1.00203e-09
-2.70784e-13
-1.00214e-09
-9.51529e-13
-1.00127e-09
-8.11757e-13
-1.00161e-09
-5.91363e-13
-1.00191e-09
-3.11872e-13
-1.00212e-09
-1.00223e-09
-1.36084e-12
-1.21155e-12
-1.00052e-09
-1.16119e-12
-1.18675e-12
-1.00102e-09
-8.46146e-13
-1.16583e-12
-1.00145e-09
-4.46129e-13
-1.15055e-12
-1.00176e-09
-1.13976e-12
-1.00193e-09
-1.33601e-12
-1.02164e-12
-1.00095e-09
-1.14027e-12
-9.9999e-13
-1.00144e-09
-8.31006e-13
-9.81827e-13
-1.00186e-09
-4.38255e-13
-9.68641e-13
-1.00217e-09
-9.59452e-13
-1.00233e-09
-1.31431e-12
-7.37614e-13
-1.00132e-09
-1.12207e-12
-7.21377e-13
-1.0018e-09
-8.17908e-13
-7.07805e-13
-1.0022e-09
-4.31507e-13
-6.98008e-13
-1.0025e-09
-6.91229e-13
-1.00266e-09
-1.29789e-12
-3.86716e-13
-1.00158e-09
-1.10833e-12
-3.78011e-13
-1.00205e-09
-8.08062e-13
-3.70818e-13
-1.00245e-09
-4.26423e-13
-3.65685e-13
-1.00274e-09
-3.62139e-13
-1.0029e-09
-1.28589e-12
-1.00172e-09
-1.09832e-12
-1.00218e-09
-8.00915e-13
-1.00257e-09
-4.22717e-13
-1.00286e-09
-1.00302e-09
-1.85226e-12
-1.64076e-12
-1.00071e-09
-1.5821e-12
-1.60279e-12
-1.0014e-09
-1.1539e-12
-1.57075e-12
-1.00198e-09
-6.08804e-13
-1.54732e-12
-1.00241e-09
-1.5313e-12
-1.00265e-09
-1.81424e-12
-1.37945e-12
-1.0013e-09
-1.55009e-12
-1.34572e-12
-1.00196e-09
-1.1307e-12
-1.31773e-12
-1.00253e-09
-5.96769e-13
-1.29756e-12
-1.00295e-09
-1.28402e-12
-1.00318e-09
-1.78041e-12
-9.93782e-13
-1.00179e-09
-1.52203e-12
-9.68078e-13
-1.00243e-09
-1.11068e-12
-9.46888e-13
-1.00299e-09
-5.86541e-13
-9.31609e-13
-1.00339e-09
-9.21431e-13
-1.00361e-09
-1.75439e-12
-5.20487e-13
-1.00214e-09
-1.50054e-12
-5.06672e-13
-1.00276e-09
-1.09529e-12
-4.95446e-13
-1.0033e-09
-5.78596e-13
-4.87424e-13
-1.0037e-09
-4.82197e-13
-1.00391e-09
-1.73605e-12
-1.00232e-09
-1.48541e-12
-1.00294e-09
-1.0845e-12
-1.00347e-09
-5.73116e-13
-1.00386e-09
-1.00408e-09
-2.5218e-12
-2.21877e-12
-1.00099e-09
-2.1567e-12
-2.16029e-12
-1.00192e-09
-1.57483e-12
-2.11158e-12
-1.00272e-09
-8.31656e-13
-2.07571e-12
-1.00331e-09
-2.05194e-12
-1.00363e-09
-2.46333e-12
-1.85758e-12
-1.00178e-09
-2.10798e-12
-1.80479e-12
-1.00268e-09
-1.53936e-12
-1.76203e-12
-1.00345e-09
-8.13286e-13
-1.73141e-12
-1.00402e-09
-1.71189e-12
-1.00433e-09
-2.41047e-12
-1.33443e-12
-1.00242e-09
-2.06511e-12
-1.29334e-12
-1.00329e-09
-1.50909e-12
-1.26003e-12
-1.00404e-09
-7.98277e-13
-1.23577e-12
-1.0046e-09
-1.22041e-12
-1.0049e-09
-2.36887e-12
-6.98692e-13
-1.00288e-09
-2.03114e-12
-6.76279e-13
-1.00372e-09
-1.48454e-12
-6.58746e-13
-1.00445e-09
-7.85711e-13
-6.46275e-13
-1.00499e-09
-6.38891e-13
-1.00528e-09
-2.34023e-12
-1.00313e-09
-2.00817e-12
-1.00394e-09
-1.46834e-12
-1.00467e-09
-7.77924e-13
-1.0052e-09
-1.00549e-09
-3.43357e-12
-2.99407e-12
-1.00139e-09
-2.94192e-12
-2.90315e-12
-1.00265e-09
-2.1512e-12
-2.83011e-12
-1.00375e-09
-1.1375e-12
-2.77513e-12
-1.00456e-09
-2.74009e-12
-1.005e-09
-3.34304e-12
-2.4923e-12
-1.00244e-09
-2.86855e-12
-2.40868e-12
-1.00364e-09
-2.09694e-12
-2.34468e-12
-1.00471e-09
-1.10953e-12
-2.29921e-12
-1.00549e-09
-2.27315e-12
-1.00591e-09
-3.25977e-12
-1.78368e-12
-1.00329e-09
-2.80437e-12
-1.71641e-12
-1.00444e-09
-2.05267e-12
-1.66347e-12
-1.00548e-09
-1.08978e-12
-1.62332e-12
-1.00624e-09
-1.59915e-12
-1.00667e-09
-3.19173e-12
-9.3534e-13
-1.00388e-09
-2.74969e-12
-8.97737e-13
-1.00498e-09
-2.01172e-12
-8.7129e-13
-1.00598e-09
-1.06866e-12
-8.51961e-13
-1.0067e-09
-8.43037e-13
-1.00711e-09
-3.14569e-12
-1.00421e-09
-2.71554e-12
-1.00527e-09
-1.98776e-12
-1.00627e-09
-1.0592e-12
-1.00698e-09
-1.00739e-09
-4.67276e-12
-4.02908e-12
-1.002e-09
-4.01685e-12
-3.88316e-12
-1.00368e-09
-2.94106e-12
-3.77731e-12
-1.00519e-09
-1.55857e-12
-3.69174e-12
-1.0063e-09
-3.64012e-12
-1.00691e-09
-4.52913e-12
-3.32754e-12
-1.00338e-09
-3.90877e-12
-3.19104e-12
-1.00496e-09
-2.85683e-12
-3.10115e-12
-1.00644e-09
-1.51497e-12
-3.03739e-12
-1.00748e-09
-3.01117e-12
-1.00805e-09
-4.39509e-12
-2.36825e-12
-1.00448e-09
-3.8185e-12
-2.25374e-12
-1.00595e-09
-2.79834e-12
-2.16756e-12
-1.00743e-09
-1.49891e-12
-2.09265e-12
-1.00848e-09
-2.04972e-12
-1.00913e-09
-4.27964e-12
-1.25076e-12
-1.00523e-09
-3.72695e-12
-1.18379e-12
-1.0066e-09
-2.72154e-12
-1.1484e-12
-1.00801e-09
-1.45657e-12
-1.11803e-12
-1.00894e-09
-1.11382e-12
-1.0095e-09
-4.20154e-12
-1.00569e-09
-3.6802e-12
-1.00698e-09
-2.6879e-12
-1.00841e-09
-1.453e-12
-1.00933e-09
-1.00996e-09
-6.34159e-12
-5.4014e-12
-1.00299e-09
-5.49342e-12
-5.14898e-12
-1.00514e-09
-4.02244e-12
-5.01081e-12
-1.00726e-09
-2.14347e-12
-4.86868e-12
-1.00876e-09
-4.78417e-12
-1.00965e-09
-6.0983e-12
-4.41635e-12
-1.0048e-09
-5.34263e-12
-4.17705e-12
-1.00668e-09
-3.8827e-12
-4.07681e-12
-1.00883e-09
-2.06433e-12
-3.99972e-12
-1.01017e-09
-4.0085e-12
-1.01089e-09
-5.86755e-12
-3.11069e-12
-1.00625e-09
-5.24041e-12
-2.90392e-12
-1.00785e-09
-3.8327e-12
-2.7565e-12
-1.01016e-09
-2.10272e-12
-2.59774e-12
-1.01161e-09
-2.52113e-12
-1.01272e-09
-5.66061e-12
-1.68282e-12
-1.00712e-09
-5.07028e-12
-1.54637e-12
-1.00855e-09
-3.65103e-12
-1.52116e-12
-1.01066e-09
-1.98567e-12
-1.46712e-12
-1.01174e-09
-1.49321e-12
-1.01251e-09
-5.51109e-12
-1.00786e-09
-5.02672e-12
-1.00901e-09
-3.61009e-12
-1.01135e-09
-2.02825e-12
-1.01238e-09
-1.01348e-09
-8.50902e-12
-7.21002e-12
-1.00486e-09
-7.53996e-12
-6.69991e-12
-1.00714e-09
-5.49239e-12
-6.58525e-12
-1.01029e-09
-2.9879e-12
-6.30075e-12
-1.01222e-09
-6.14009e-12
-1.01376e-09
-8.05179e-12
-5.84502e-12
-1.00718e-09
-7.35432e-12
-5.34382e-12
-1.00874e-09
-5.20997e-12
-5.35021e-12
-1.01221e-09
-2.76905e-12
-5.26694e-12
-1.01364e-09
-5.41581e-12
-1.01438e-09
-7.63719e-12
-4.00134e-12
-1.00924e-09
-7.344e-12
-3.61221e-12
-1.00987e-09
-5.28238e-12
-3.37935e-12
-1.01419e-09
-3.08281e-12
-3.03474e-12
-1.01605e-09
-2.93305e-12
-1.01828e-09
-7.26338e-12
-2.32337e-12
-1.00993e-09
-6.95496e-12
-1.97713e-12
-1.01049e-09
-4.76002e-12
-2.07041e-12
-1.01416e-09
-2.69625e-12
-1.91166e-12
-1.01493e-09
-2.04871e-12
-1.01609e-09
-6.97101e-12
-1.01142e-09
-7.00538e-12
-1.01095e-09
-4.75336e-12
-1.01567e-09
-2.93545e-12
-1.01611e-09
-1.01847e-09
-1.10996e-11
-9.57953e-12
-1.00901e-09
-1.04399e-11
-8.3406e-12
-1.00951e-09
-7.42225e-12
-8.54822e-12
-1.01494e-09
-4.35945e-12
-7.89637e-12
-1.01678e-09
-7.71702e-12
-1.02034e-09
-1.03421e-11
-7.82306e-12
-1.01146e-09
-1.02387e-11
-6.50954e-12
-1.01067e-09
-6.71532e-12
-7.06856e-12
-1.01721e-09
-3.5245e-12
-6.85061e-12
-1.01788e-09
-7.42068e-12
-1.0182e-09
-9.66019e-12
-4.96426e-12
-1.01504e-09
-1.06788e-11
-4.25894e-12
-1.01111e-09
-7.37671e-12
-4.00243e-12
-1.02056e-09
-4.85537e-12
-3.19586e-12
-1.02222e-09
-3.15753e-12
-1.0274e-09
-9.03311e-12
-3.38785e-12
-1.01425e-09
-9.62159e-12
-2.39437e-12
-1.01177e-09
-5.96129e-12
-2.98401e-12
-1.01884e-09
-3.63907e-12
-2.36213e-12
-1.01808e-09
-2.88473e-12
-1.02001e-09
-8.46594e-12
-1.01784e-09
-1.00128e-11
-1.0118e-09
-6.22972e-12
-1.02244e-09
-4.47718e-12
-1.02023e-09
-1.02583e-09
-1.3907e-11
-1.26035e-11
-1.01909e-09
-1.45619e-11
-9.60905e-12
-1.01151e-09
-9.88612e-12
-1.1035e-11
-1.02263e-09
-6.96989e-12
-9.55101e-12
-1.02179e-09
-9.57684e-12
-1.03169e-09
-1.30946e-11
-1.06584e-11
-1.01903e-09
-1.42858e-11
-7.09169e-12
-1.012e-09
-8.24046e-12
-9.36108e-12
-1.02493e-09
-3.97683e-12
-8.62908e-12
-1.02307e-09
-1.03462e-11
-1.02141e-09
-1.18422e-11
-5.85857e-12
-1.02674e-09
-1.59704e-11
-4.80561e-12
-1.00926e-09
-1.09037e-11
-4.54214e-12
-1.03044e-09
-8.30388e-12
-2.65219e-12
-1.0308e-09
-2.93994e-12
-1.04311e-09
-1.10137e-11
-5.30354e-12
-1.02063e-09
-1.31863e-11
-2.51602e-12
-1.01188e-09
-7.29602e-12
-4.64506e-12
-1.02463e-09
-4.71326e-12
-2.54935e-12
-1.02077e-09
-4.24126e-12
-1.02342e-09
-9.67988e-12
-1.02984e-09
-1.43976e-11
-1.0096e-09
-8.37408e-12
-1.03311e-09
-7.18279e-12
-1.02397e-09
-1.03725e-09
-1.62513e-11
-1.64488e-11
-1.04406e-09
-1.97083e-11
-9.05326e-12
-1.0124e-09
-1.35764e-11
-1.40398e-11
-1.03579e-09
-1.24847e-11
-1.11619e-11
-1.02505e-09
-1.15911e-11
-1.05285e-09
-1.67544e-11
-1.42166e-11
-1.03224e-09
-1.95931e-11
-5.95857e-12
-1.01225e-09
-9.64151e-12
-1.2043e-11
-1.03688e-09
-2.99182e-12
-1.06444e-11
-1.03023e-09
-1.48298e-11
-1.02116e-09
-1.36484e-11
-6.3253e-12
-1.04977e-09
-2.42215e-11
-5.48237e-12
-9.99168e-10
-1.77901e-11
-4.74474e-12
-1.04417e-09
-1.53462e-11
-6.45255e-13
-1.04324e-09
-1.85718e-12
-1.07143e-09
-1.34535e-11
-9.0014e-12
-1.02943e-09
-1.75069e-11
-1.81484e-12
-1.0115e-09
-8.68166e-12
-7.98776e-12
-1.03021e-09
-5.36761e-12
-1.6991e-12
-1.02303e-09
-6.69667e-12
-1.02395e-09
-9.74303e-12
-1.05273e-09
-2.064e-11
-1.00052e-09
-1.17152e-11
-1.05002e-09
-1.22049e-11
-1.02518e-09
-1.05615e-09
-1.63023e-11
-2.03101e-11
-1.10805e-09
-2.33353e-11
7.49279e-13
-1.0174e-09
-1.90403e-11
-1.66332e-11
-1.05773e-09
-2.47009e-11
-1.14918e-11
-1.02063e-09
-1.35281e-11
-1.09579e-09
-2.25968e-11
-1.7016e-11
-1.05534e-09
-2.67494e-11
-2.10811e-12
-1.00524e-09
-1.00331e-11
-1.32247e-11
-1.05701e-09
3.02316e-12
-1.33553e-11
-1.04143e-09
-2.17052e-11
-1.00996e-09
-1.33798e-11
-5.54952e-12
-1.09371e-09
-3.71457e-11
-6.14274e-12
-9.71367e-10
-3.2404e-11
-3.83155e-12
-1.05831e-09
-2.99047e-11
6.39965e-12
-1.0655e-09
1.3672e-12
-1.12441e-09
-1.72444e-11
-1.66879e-11
-1.0405e-09
-2.19115e-11
5.09582e-13
-1.01348e-09
-9.6873e-12
-1.50851e-11
-1.03118e-09
-4.06419e-12
2.31245e-12
-1.02456e-09
-1.14306e-11
-1.01521e-09