/*--------------------------------*- C++ -*----------------------------------*\
| =========                 |                                                 |
| \\      /  F ield         | OpenFOAM: The Open Source CFD Toolbox           |
|  \\    /   O peration     | Version:  5.x                                   |
|   \\  /    A nd           | Web:      www.OpenFOAM.org                      |
|    \\/     M anipulation  |                                                 |
\*---------------------------------------------------------------------------*/
FoamFile
{
    version     2.0;
    format      ascii;
    class       volVectorField;
    location    "0.06";
    object      U;
}
// * * * * * * * * * * * * * * * * * * * * * * * * * * * * * * * * * * * * * //

dimensions      [0 1 -1 0 0 0 0];

internalField   nonuniform List<vector> 
2250
(
(-2.1571e-10 -1.90968e-10 -0.001)
(-1.7909e-10 -1.76331e-10 -0.001)
(-1.17581e-10 -1.74817e-10 -0.001)
(-6.36562e-11 -1.8509e-10 -0.001)
(-2.05989e-11 -1.91142e-10 -0.001)
(-2.0111e-10 -1.61774e-10 -0.001)
(-1.68773e-10 -1.49274e-10 -0.001)
(-1.23226e-10 -1.49824e-10 -0.001)
(-7.74273e-11 -1.61704e-10 -0.001)
(-2.66354e-11 -1.69706e-10 -0.001)
(-1.965e-10 -1.13957e-10 -0.001)
(-1.67118e-10 -1.10301e-10 -0.001)
(-1.30012e-10 -1.14493e-10 -0.001)
(-8.39465e-11 -1.20716e-10 -0.001)
(-2.89907e-11 -1.24969e-10 -0.001)
(-1.97923e-10 -6.538e-11 -0.001)
(-1.69281e-10 -6.68754e-11 -0.001)
(-1.33641e-10 -6.9481e-11 -0.001)
(-8.81879e-11 -7.36386e-11 -0.001)
(-3.11526e-11 -7.85675e-11 -0.001)
(-1.97933e-10 -2.0816e-11 -0.001)
(-1.70804e-10 -2.1695e-11 -0.001)
(-1.36466e-10 -2.27349e-11 -0.001)
(-9.30037e-11 -2.48143e-11 -0.001)
(-3.40203e-11 -2.76865e-11 -0.001)
(-5.70748e-10 -5.02561e-10 -0.001)
(-4.36442e-10 -4.78702e-10 -0.001)
(-3.26943e-10 -4.89383e-10 -0.001)
(-2.03312e-10 -5.15439e-10 -0.001)
(-7.18838e-11 -5.2436e-10 -0.001)
(-5.46314e-10 -3.8257e-10 -0.001)
(-4.63161e-10 -4.04122e-10 -0.001)
(-3.53414e-10 -4.22908e-10 -0.001)
(-2.29983e-10 -4.50487e-10 -0.001)
(-8.08663e-11 -4.65354e-10 -0.001)
(-5.48172e-10 -2.9659e-10 -0.001)
(-4.76826e-10 -3.04169e-10 -0.001)
(-3.7337e-10 -3.19966e-10 -0.001)
(-2.46773e-10 -3.37328e-10 -0.001)
(-8.76921e-11 -3.51466e-10 -0.001)
(-5.56488e-10 -1.78404e-10 -0.001)
(-4.86525e-10 -1.86451e-10 -0.001)
(-3.86576e-10 -1.98785e-10 -0.001)
(-2.62166e-10 -2.14386e-10 -0.001)
(-9.5616e-11 -2.29465e-10 -0.001)
(-5.57635e-10 -5.74871e-11 -0.001)
(-4.96147e-10 -6.15699e-11 -0.001)
(-4.00511e-10 -6.81007e-11 -0.001)
(-2.77352e-10 -7.62379e-11 -0.001)
(-1.02921e-10 -8.35911e-11 -0.001)
(-9.48077e-10 -8.3018e-10 -0.001)
(-7.52086e-10 -8.45724e-10 -0.001)
(-6.02547e-10 -8.67858e-10 -0.001)
(-4.04281e-10 -8.93533e-10 -0.001)
(-1.45005e-10 -8.96947e-10 -0.001)
(-9.5674e-10 -6.5036e-10 -0.001)
(-8.18601e-10 -7.08433e-10 -0.001)
(-6.46897e-10 -7.53365e-10 -0.001)
(-4.26243e-10 -7.83444e-10 -0.001)
(-1.50175e-10 -7.98312e-10 -0.001)
(-9.63812e-10 -5.1491e-10 -0.001)
(-8.5508e-10 -5.41232e-10 -0.001)
(-6.77632e-10 -5.69936e-10 -0.001)
(-4.50865e-10 -5.97444e-10 -0.001)
(-1.61368e-10 -6.2021e-10 -0.001)
(-9.74915e-10 -3.19332e-10 -0.001)
(-8.73542e-10 -3.36642e-10 -0.001)
(-7.03107e-10 -3.61923e-10 -0.001)
(-4.77666e-10 -3.88848e-10 -0.001)
(-1.73978e-10 -4.0691e-10 -0.001)
(-9.78665e-10 -1.03809e-10 -0.001)
(-8.95893e-10 -1.13902e-10 -0.001)
(-7.2847e-10 -1.27782e-10 -0.001)
(-4.95679e-10 -1.40524e-10 -0.001)
(-1.7977e-10 -1.4638e-10 -0.001)
(-1.43675e-09 -1.26669e-09 -0.001)
(-1.23653e-09 -1.31126e-09 -0.001)
(-9.9045e-10 -1.33716e-09 -0.001)
(-6.60159e-10 -1.35256e-09 -0.001)
(-2.32362e-10 -1.34994e-09 -0.001)
(-1.47001e-09 -1.07578e-09 -0.001)
(-1.29154e-09 -1.12276e-09 -0.001)
(-1.02494e-09 -1.16796e-09 -0.001)
(-6.7126e-10 -1.19214e-09 -0.001)
(-2.34786e-10 -1.20475e-09 -0.001)
(-1.47909e-09 -8.23545e-10 -0.001)
(-1.3287e-09 -8.51063e-10 -0.001)
(-1.05994e-09 -8.87902e-10 -0.001)
(-6.99322e-10 -9.22081e-10 -0.001)
(-2.47185e-10 -9.44248e-10 -0.001)
(-1.49111e-09 -5.0505e-10 -0.001)
(-1.35579e-09 -5.3262e-10 -0.001)
(-1.09596e-09 -5.67732e-10 -0.001)
(-7.29365e-10 -5.97279e-10 -0.001)
(-2.58606e-10 -6.07264e-10 -0.001)
(-1.50062e-09 -1.65269e-10 -0.001)
(-1.38877e-09 -1.8306e-10 -0.001)
(-1.12251e-09 -2.00644e-10 -0.001)
(-7.38584e-10 -2.11568e-10 -0.001)
(-2.57762e-10 -2.1082e-10 -0.001)
(-2.10436e-09 -1.87431e-09 -0.001)
(-1.86981e-09 -1.89668e-09 -0.001)
(-1.48008e-09 -1.91617e-09 -0.001)
(-9.69906e-10 -1.92533e-09 -0.001)
(-3.37717e-10 -1.92073e-09 -0.001)
(-2.11589e-09 -1.63347e-09 -0.001)
(-1.89315e-09 -1.653e-09 -0.001)
(-1.49967e-09 -1.68937e-09 -0.001)
(-9.7441e-10 -1.71025e-09 -0.001)
(-3.38453e-10 -1.71737e-09 -0.001)
(-2.1259e-09 -1.2255e-09 -0.001)
(-1.9257e-09 -1.25324e-09 -0.001)
(-1.53749e-09 -1.29563e-09 -0.001)
(-1.00127e-09 -1.33077e-09 -0.001)
(-3.48038e-10 -1.34446e-09 -0.001)
(-2.14631e-09 -7.54884e-10 -0.001)
(-1.96311e-09 -7.9292e-10 -0.001)
(-1.5772e-09 -8.2948e-10 -0.001)
(-1.02578e-09 -8.52252e-10 -0.001)
(-3.54591e-10 -8.53364e-10 -0.001)
(-2.16253e-09 -2.53349e-10 -0.001)
(-1.99642e-09 -2.75579e-10 -0.001)
(-1.59378e-09 -2.90277e-10 -0.001)
(-1.02482e-09 -2.951e-10 -0.001)
(-3.50059e-10 -2.90683e-10 -0.001)
(-2.96219e-09 -2.64248e-09 -0.001)
(-2.61156e-09 -2.63722e-09 -0.001)
(-2.06747e-09 -2.64137e-09 -0.001)
(-1.3476e-09 -2.65102e-09 -0.001)
(-4.68092e-10 -2.65004e-09 -0.001)
(-2.95455e-09 -2.26475e-09 -0.001)
(-2.63701e-09 -2.29312e-09 -0.001)
(-2.09613e-09 -2.34063e-09 -0.001)
(-1.35853e-09 -2.36858e-09 -0.001)
(-4.70335e-10 -2.37384e-09 -0.001)
(-2.96395e-09 -1.72481e-09 -0.001)
(-2.68745e-09 -1.77172e-09 -0.001)
(-2.14315e-09 -1.82212e-09 -0.001)
(-1.38549e-09 -1.85623e-09 -0.001)
(-4.77817e-10 -1.86398e-09 -0.001)
(-2.99226e-09 -1.09918e-09 -0.001)
(-2.73409e-09 -1.14078e-09 -0.001)
(-2.18062e-09 -1.17271e-09 -0.001)
(-1.40392e-09 -1.18832e-09 -0.00100001)
(-4.81521e-10 -1.18912e-09 -0.00100001)
(-3.00671e-09 -3.81325e-10 -0.001)
(-2.75556e-09 -3.98899e-10 -0.001)
(-2.18651e-09 -4.07974e-10 -0.001)
(-1.40148e-09 -4.08865e-10 -0.00100001)
(-4.79892e-10 -4.07379e-10 -0.00100001)
(-4.0982e-09 -3.62507e-09 -0.001)
(-3.56521e-09 -3.60144e-09 -0.001)
(-2.84169e-09 -3.59649e-09 -0.001)
(-1.83949e-09 -3.60837e-09 -0.001)
(-6.35985e-10 -3.61567e-09 -0.001)
(-4.0809e-09 -3.0588e-09 -0.001)
(-3.62835e-09 -3.13033e-09 -0.001)
(-2.8884e-09 -3.19158e-09 -0.001)
(-1.86806e-09 -3.23185e-09 -0.00100001)
(-6.45864e-10 -3.24476e-09 -0.00100001)
(-4.09108e-09 -2.40985e-09 -0.001)
(-3.69799e-09 -2.47029e-09 -0.001)
(-2.94351e-09 -2.52376e-09 -0.00100001)
(-1.89905e-09 -2.55808e-09 -0.00100001)
(-6.54954e-10 -2.56656e-09 -0.00100001)
(-4.11251e-09 -1.57565e-09 -0.001)
(-3.74194e-09 -1.60746e-09 -0.00100001)
(-2.97618e-09 -1.63443e-09 -0.00100001)
(-1.91571e-09 -1.64841e-09 -0.00100001)
(-6.59032e-10 -1.65284e-09 -0.00100001)
(-4.11549e-09 -5.53264e-10 -0.001)
(-3.74929e-09 -5.61099e-10 -0.00100001)
(-2.97877e-09 -5.67821e-10 -0.00100001)
(-1.91693e-09 -5.69225e-10 -0.00100001)
(-6.61146e-10 -5.71513e-10 -0.00100001)
(-5.59133e-09 -4.89466e-09 -0.001)
(-4.97747e-09 -4.89729e-09 -0.001)
(-3.93583e-09 -4.89685e-09 -0.001)
(-2.52178e-09 -4.9126e-09 -0.00100001)
(-8.66263e-10 -4.92518e-09 -0.00100001)
(-5.59843e-09 -4.27036e-09 -0.001)
(-5.01478e-09 -4.31545e-09 -0.001)
(-3.97821e-09 -4.36242e-09 -0.00100001)
(-2.56104e-09 -4.40481e-09 -0.00100001)
(-8.83474e-10 -4.42431e-09 -0.00100001)
(-5.61032e-09 -3.39448e-09 -0.001)
(-5.06954e-09 -3.43497e-09 -0.00100001)
(-4.0256e-09 -3.47767e-09 -0.00100001)
(-2.59233e-09 -3.50952e-09 -0.00100001)
(-8.93966e-10 -3.51668e-09 -0.00100001)
(-5.61925e-09 -2.21495e-09 -0.00100001)
(-5.09754e-09 -2.23066e-09 -0.00100001)
(-4.05274e-09 -2.25452e-09 -0.00100001)
(-2.60669e-09 -2.26746e-09 -0.00100001)
(-8.97056e-10 -2.26751e-09 -0.00100001)
(-5.61311e-09 -7.70356e-10 -0.00100001)
(-5.09898e-09 -7.73767e-10 -0.00100001)
(-4.05468e-09 -7.81515e-10 -0.00100001)
(-2.60465e-09 -7.8319e-10 -0.00100001)
(-8.96468e-10 -7.82823e-10 -0.00100001)
(-7.60779e-09 -6.65051e-09 -0.001)
(-6.91792e-09 -6.66573e-09 -0.001)
(-5.43862e-09 -6.67531e-09 -0.00100001)
(-3.46756e-09 -6.69325e-09 -0.00100001)
(-1.18736e-09 -6.69911e-09 -0.00100001)
(-7.62031e-09 -5.98543e-09 -0.001)
(-6.89226e-09 -5.96549e-09 -0.00100001)
(-5.45364e-09 -5.98046e-09 -0.00100001)
(-3.49702e-09 -6.00892e-09 -0.00100001)
(-1.20196e-09 -6.01948e-09 -0.00100001)
(-7.6364e-09 -4.73308e-09 -0.00100001)
(-6.91294e-09 -4.74387e-09 -0.00100001)
(-5.48261e-09 -4.77167e-09 -0.00100001)
(-3.51837e-09 -4.79265e-09 -0.00100001)
(-1.2091e-09 -4.78808e-09 -0.00100001)
(-7.64723e-09 -3.04892e-09 -0.00100001)
(-6.93027e-09 -3.06102e-09 -0.00100001)
(-5.50241e-09 -3.08085e-09 -0.00100001)
(-3.52248e-09 -3.08482e-09 -0.00100001)
(-1.20618e-09 -3.07047e-09 -0.00100001)
(-7.64116e-09 -1.04861e-09 -0.00100001)
(-6.93122e-09 -1.05583e-09 -0.00100001)
(-5.49593e-09 -1.0626e-09 -0.00100001)
(-3.50713e-09 -1.05953e-09 -0.00100001)
(-1.19816e-09 -1.0518e-09 -0.00100001)
(-1.03679e-08 -9.12773e-09 -0.001)
(-9.4079e-09 -9.11288e-09 -0.00100001)
(-7.42048e-09 -9.11297e-09 -0.00100001)
(-4.74552e-09 -9.11918e-09 -0.00100001)
(-1.62577e-09 -9.10597e-09 -0.00100001)
(-1.03481e-08 -8.22401e-09 -0.00100001)
(-9.35896e-09 -8.18346e-09 -0.00100001)
(-7.42008e-09 -8.18906e-09 -0.00100001)
(-4.75422e-09 -8.19647e-09 -0.00100001)
(-1.63014e-09 -8.18393e-09 -0.00100001)
(-1.03582e-08 -6.48488e-09 -0.00100001)
(-9.37296e-09 -6.50109e-09 -0.00100001)
(-7.43425e-09 -6.52121e-09 -0.00100001)
(-4.75647e-09 -6.52189e-09 -0.00100002)
(-1.62855e-09 -6.49732e-09 -0.00100002)
(-1.03778e-08 -4.15685e-09 -0.00100001)
(-9.3945e-09 -4.18039e-09 -0.00100001)
(-7.44085e-09 -4.18978e-09 -0.00100002)
(-4.74268e-09 -4.17642e-09 -0.00100002)
(-1.61762e-09 -4.15016e-09 -0.00100002)
(-1.03686e-08 -1.42734e-09 -0.00100001)
(-9.38747e-09 -1.43831e-09 -0.00100001)
(-7.41611e-09 -1.4379e-09 -0.00100002)
(-4.71573e-09 -1.4274e-09 -0.00100002)
(-1.60696e-09 -1.41711e-09 -0.00100002)
(-1.40881e-08 -1.25021e-08 -0.001)
(-1.27332e-08 -1.24716e-08 -0.00100001)
(-1.00813e-08 -1.24478e-08 -0.00100001)
(-6.47743e-09 -1.24264e-08 -0.00100001)
(-2.2242e-09 -1.23866e-08 -0.00100002)
(-1.40555e-08 -1.12436e-08 -0.00100001)
(-1.26758e-08 -1.11991e-08 -0.00100001)
(-1.00681e-08 -1.12017e-08 -0.00100002)
(-6.45783e-09 -1.1179e-08 -0.00100002)
(-2.21477e-09 -1.11353e-08 -0.00100002)
(-1.40498e-08 -8.86375e-09 -0.00100001)
(-1.26913e-08 -8.89003e-09 -0.00100002)
(-1.00622e-08 -8.89476e-09 -0.00100002)
(-6.43298e-09 -8.86647e-09 -0.00100002)
(-2.20149e-09 -8.82361e-09 -0.00100002)
(-1.40603e-08 -5.69194e-09 -0.00100001)
(-1.27058e-08 -5.7122e-09 -0.00100002)
(-1.00445e-08 -5.6991e-09 -0.00100002)
(-6.40352e-09 -5.66988e-09 -0.00100002)
(-2.18834e-09 -5.64542e-09 -0.00100003)
(-1.40299e-08 -1.96104e-09 -0.00100001)
(-1.26735e-08 -1.96479e-09 -0.00100002)
(-1.00007e-08 -1.95269e-09 -0.00100002)
(-6.37784e-09 -1.93977e-09 -0.00100002)
(-2.18338e-09 -1.93529e-09 -0.00100003)
(-1.91145e-08 -1.70535e-08 -0.00100001)
(-1.73042e-08 -1.70109e-08 -0.00100001)
(-1.37271e-08 -1.69704e-08 -0.00100002)
(-8.83773e-09 -1.69171e-08 -0.00100002)
(-3.04154e-09 -1.68489e-08 -0.00100002)
(-1.90696e-08 -1.54071e-08 -0.00100001)
(-1.72197e-08 -1.53353e-08 -0.00100002)
(-1.36715e-08 -1.52978e-08 -0.00100002)
(-8.77585e-09 -1.52301e-08 -0.00100002)
(-3.01405e-09 -1.5153e-08 -0.00100003)
(-1.90458e-08 -1.21712e-08 -0.00100002)
(-1.71949e-08 -1.21591e-08 -0.00100002)
(-1.36233e-08 -1.21211e-08 -0.00100003)
(-8.7229e-09 -1.2063e-08 -0.00100003)
(-2.99305e-09 -1.20128e-08 -0.00100003)
(-1.90226e-08 -7.82848e-09 -0.00100002)
(-1.7168e-08 -7.80988e-09 -0.00100002)
(-1.35754e-08 -7.7672e-09 -0.00100003)
(-8.69049e-09 -7.73413e-09 -0.00100003)
(-2.98618e-09 -7.71935e-09 -0.00100003)
(-1.89569e-08 -2.70205e-09 -0.00100002)
(-1.70998e-08 -2.68718e-09 -0.00100003)
(-1.35216e-08 -2.66625e-09 -0.00100003)
(-8.67317e-09 -2.65869e-09 -0.00100003)
(-2.98691e-09 -2.66005e-09 -0.00100004)
(-2.59566e-08 -2.32451e-08 -0.00100001)
(-2.34988e-08 -2.31576e-08 -0.00100002)
(-1.86606e-08 -2.30895e-08 -0.00100002)
(-1.20159e-08 -2.30059e-08 -0.00100003)
(-4.1388e-09 -2.29137e-08 -0.00100003)
(-2.58616e-08 -2.10412e-08 -0.00100001)
(-2.33751e-08 -2.09254e-08 -0.00100002)
(-1.8554e-08 -2.08306e-08 -0.00100003)
(-1.19166e-08 -2.07234e-08 -0.00100003)
(-4.0983e-09 -2.06254e-08 -0.00100004)
(-2.57972e-08 -1.66707e-08 -0.00100002)
(-2.32882e-08 -1.65932e-08 -0.00100003)
(-1.84606e-08 -1.65056e-08 -0.00100003)
(-1.18513e-08 -1.64325e-08 -0.00100004)
(-4.07962e-09 -1.63829e-08 -0.00100004)
(-2.57254e-08 -1.07273e-08 -0.00100003)
(-2.32079e-08 -1.06579e-08 -0.00100003)
(-1.83932e-08 -1.05962e-08 -0.00100004)
(-1.18253e-08 -1.05686e-08 -0.00100004)
(-4.07916e-09 -1.05518e-08 -0.00100005)
(-2.56242e-08 -3.70002e-09 -0.00100003)
(-2.31114e-08 -3.66813e-09 -0.00100004)
(-1.83362e-08 -3.64735e-09 -0.00100004)
(-1.18045e-08 -3.64538e-09 -0.00100005)
(-4.0746e-09 -3.64166e-09 -0.00100005)
(-3.52677e-08 -3.16948e-08 -0.00100001)
(-3.18453e-08 -3.15413e-08 -0.00100002)
(-2.5305e-08 -3.14153e-08 -0.00100003)
(-1.62785e-08 -3.12977e-08 -0.00100004)
(-5.60443e-09 -3.11847e-08 -0.00100004)
(-3.51038e-08 -2.86237e-08 -0.00100002)
(-3.16886e-08 -2.84694e-08 -0.00100003)
(-2.51602e-08 -2.83256e-08 -0.00100004)
(-1.61702e-08 -2.82036e-08 -0.00100005)
(-5.56677e-09 -2.80998e-08 -0.00100005)
(-3.4967e-08 -2.27249e-08 -0.00100003)
(-3.15472e-08 -2.25887e-08 -0.00100004)
(-2.50418e-08 -2.24699e-08 -0.00100005)
(-1.61082e-08 -2.23955e-08 -0.00100005)
(-5.55369e-09 -2.23352e-08 -0.00100006)
(-3.48408e-08 -1.46124e-08 -0.00100003)
(-3.14309e-08 -1.4512e-08 -0.00100004)
(-2.4967e-08 -1.44459e-08 -0.00100005)
(-1.60783e-08 -1.44147e-08 -0.00100006)
(-5.54803e-09 -1.43706e-08 -0.00100006)
(-3.47083e-08 -5.03166e-09 -0.00100004)
(-3.13189e-08 -4.9957e-09 -0.00100005)
(-2.48966e-08 -4.97901e-09 -0.00100006)
(-1.60296e-08 -4.97196e-09 -0.00100006)
(-5.52588e-09 -4.95091e-09 -0.00100007)
(-4.78788e-08 -4.31571e-08 -0.00100001)
(-4.32723e-08 -4.29533e-08 -0.00100003)
(-3.43411e-08 -4.27547e-08 -0.00100004)
(-2.20595e-08 -4.25999e-08 -0.00100005)
(-7.58947e-09 -4.24584e-08 -0.00100005)
(-4.76697e-08 -3.90067e-08 -0.00100003)
(-4.30146e-08 -3.87469e-08 -0.00100004)
(-3.41447e-08 -3.85394e-08 -0.00100005)
(-2.19505e-08 -3.84031e-08 -0.00100006)
(-7.56024e-09 -3.8282e-08 -0.00100007)
(-4.74534e-08 -3.09351e-08 -0.00100004)
(-4.2805e-08 -3.07297e-08 -0.00100005)
(-3.40008e-08 -3.05806e-08 -0.00100007)
(-2.1878e-08 -3.049e-08 -0.00100007)
(-7.54088e-09 -3.03904e-08 -0.00100008)
(-4.72763e-08 -1.98625e-08 -0.00100005)
(-4.26564e-08 -1.97411e-08 -0.00100006)
(-3.39048e-08 -1.966e-08 -0.00100007)
(-2.18187e-08 -1.95992e-08 -0.00100008)
(-7.51755e-09 -1.95161e-08 -0.00100009)
(-4.7108e-08 -6.83183e-09 -0.00100005)
(-4.25182e-08 -6.79699e-09 -0.00100007)
(-3.37939e-08 -6.77433e-09 -0.00100008)
(-2.17298e-08 -6.74953e-09 -0.00100009)
(-7.48003e-09 -6.71348e-09 -0.00100009)
(-6.50473e-08 -5.87393e-08 -0.00100002)
(-5.88369e-08 -5.8434e-08 -0.00100004)
(-4.66492e-08 -5.81503e-08 -0.00100006)
(-2.99473e-08 -5.79447e-08 -0.00100007)
(-1.03021e-08 -5.77496e-08 -0.00100007)
(-6.4744e-08 -5.31176e-08 -0.00100004)
(-5.84462e-08 -5.27207e-08 -0.00100006)
(-4.63777e-08 -5.24261e-08 -0.00100007)
(-2.98102e-08 -5.22432e-08 -0.00100009)
(-1.02665e-08 -5.20691e-08 -0.00100009)
(-6.44419e-08 -4.20815e-08 -0.00100005)
(-5.81453e-08 -4.17883e-08 -0.00100007)
(-4.61766e-08 -4.15786e-08 -0.00100009)
(-2.96938e-08 -4.1436e-08 -0.0010001)
(-1.02269e-08 -4.12795e-08 -0.00100011)
(-6.42046e-08 -2.70079e-08 -0.00100006)
(-5.79382e-08 -2.68424e-08 -0.00100008)
(-4.60253e-08 -2.67126e-08 -0.0010001)
(-2.95906e-08 -2.6606e-08 -0.00100011)
(-1.01876e-08 -2.64988e-08 -0.00100012)
(-6.39742e-08 -9.29192e-09 -0.00100007)
(-5.77352e-08 -9.24336e-09 -0.00100009)
(-4.58515e-08 -9.19884e-09 -0.00100011)
(-2.94741e-08 -9.15608e-09 -0.00100012)
(-1.015e-08 -9.12046e-09 -0.00100012)
(-8.84837e-08 -7.99459e-08 -0.00100003)
(-7.99132e-08 -7.94575e-08 -0.00100005)
(-6.33851e-08 -7.9032e-08 -0.00100008)
(-4.06971e-08 -7.87291e-08 -0.00100009)
(-1.40027e-08 -7.84415e-08 -0.0010001)
(-8.79927e-08 -7.21558e-08 -0.00100005)
(-7.94096e-08 -7.16403e-08 -0.00100008)
(-6.30139e-08 -7.12304e-08 -0.0010001)
(-4.04949e-08 -7.09603e-08 -0.00100012)
(-1.39438e-08 -7.07049e-08 -0.00100013)
(-8.75444e-08 -5.7204e-08 -0.00100007)
(-7.89877e-08 -5.67936e-08 -0.0010001)
(-6.27116e-08 -5.6477e-08 -0.00100012)
(-4.03128e-08 -5.62544e-08 -0.00100014)
(-1.38824e-08 -5.60407e-08 -0.00100015)
(-8.71941e-08 -3.67382e-08 -0.00100009)
(-7.86759e-08 -3.64826e-08 -0.00100011)
(-6.24745e-08 -3.62744e-08 -0.00100014)
(-4.0167e-08 -3.6123e-08 -0.00100015)
(-1.38359e-08 -3.59942e-08 -0.00100016)
(-8.68532e-08 -1.2648e-08 -0.00100009)
(-7.83676e-08 -1.25629e-08 -0.00100012)
(-6.22313e-08 -1.24896e-08 -0.00100014)
(-4.00247e-08 -1.24376e-08 -0.00100016)
(-1.37947e-08 -1.23991e-08 -0.00100017)
(-1.20423e-07 -1.0879e-07 -0.00100004)
(-1.08661e-07 -1.08024e-07 -0.00100007)
(-8.62073e-08 -1.07365e-07 -0.0010001)
(-5.53581e-08 -1.06897e-07 -0.00100013)
(-1.9052e-08 -1.06474e-07 -0.00100014)
(-1.19636e-07 -9.80811e-08 -0.00100007)
(-1.0794e-07 -9.73376e-08 -0.00100011)
(-8.56606e-08 -9.67257e-08 -0.00100014)
(-5.50522e-08 -9.63178e-08 -0.00100016)
(-1.89596e-08 -9.59508e-08 -0.00100017)
(-1.18937e-07 -7.77989e-08 -0.0010001)
(-1.07306e-07 -7.71797e-08 -0.00100013)
(-8.51964e-08 -7.66925e-08 -0.00100016)
(-5.47756e-08 -7.63561e-08 -0.00100019)
(-1.88691e-08 -7.60545e-08 -0.0010002)
(-1.18396e-07 -4.9972e-08 -0.00100012)
(-1.06824e-07 -4.95737e-08 -0.00100015)
(-8.48368e-08 -4.92589e-08 -0.00100018)
(-5.4562e-08 -4.90411e-08 -0.00100021)
(-1.88022e-08 -4.88475e-08 -0.00100022)
(-1.17897e-07 -1.72016e-08 -0.00100013)
(-1.0638e-07 -1.70672e-08 -0.00100016)
(-8.44992e-08 -1.69615e-08 -0.00100019)
(-5.43534e-08 -1.68903e-08 -0.00100022)
(-1.87317e-08 -1.68235e-08 -0.00100023)
(-1.63903e-07 -1.4805e-07 -0.00100005)
(-1.4789e-07 -1.46821e-07 -0.0010001)
(-1.17351e-07 -1.45805e-07 -0.00100014)
(-7.5399e-08 -1.45079e-07 -0.00100017)
(-2.59664e-08 -1.44442e-07 -0.00100019)
(-1.62641e-07 -1.33432e-07 -0.00100009)
(-1.46775e-07 -1.32281e-07 -0.00100014)
(-1.1651e-07 -1.31342e-07 -0.00100019)
(-7.49046e-08 -1.30699e-07 -0.00100022)
(-2.5805e-08 -1.30132e-07 -0.00100023)
(-1.61559e-07 -1.05812e-07 -0.00100013)
(-1.45799e-07 -1.04869e-07 -0.00100018)
(-1.15781e-07 -1.04117e-07 -0.00100022)
(-7.44511e-08 -1.03583e-07 -0.00100025)
(-2.56499e-08 -1.03112e-07 -0.00100027)
(-1.60743e-07 -6.79321e-08 -0.00100016)
(-1.45067e-07 -6.73398e-08 -0.00100021)
(-1.15223e-07 -6.68586e-08 -0.00100025)
(-7.41013e-08 -6.6508e-08 -0.00100028)
(-2.55313e-08 -6.62077e-08 -0.0010003)
(-1.60035e-07 -2.33715e-08 -0.00100018)
(-1.44435e-07 -2.31782e-08 -0.00100022)
(-1.14725e-07 -2.30189e-08 -0.00100026)
(-7.37853e-08 -2.28993e-08 -0.00100029)
(-2.54263e-08 -2.27993e-08 -0.00100031)
(-2.2306e-07 -2.0146e-07 -0.00100007)
(-2.01193e-07 -1.99514e-07 -0.00100014)
(-1.5979e-07 -1.97923e-07 -0.00100019)
(-1.02759e-07 -1.9676e-07 -0.00100024)
(-3.54094e-08 -1.95774e-07 -0.00100026)
(-2.21089e-07 -1.81356e-07 -0.00100013)
(-1.99551e-07 -1.79673e-07 -0.0010002)
(-1.58478e-07 -1.78238e-07 -0.00100025)
(-1.01911e-07 -1.77185e-07 -0.0010003)
(-3.51105e-08 -1.76283e-07 -0.00100032)
(-2.19427e-07 -1.43785e-07 -0.00100018)
(-1.98076e-07 -1.42393e-07 -0.00100025)
(-1.57319e-07 -1.41223e-07 -0.0010003)
(-1.0116e-07 -1.4036e-07 -0.00100035)
(-3.4849e-08 -1.39648e-07 -0.00100037)
(-2.18194e-07 -9.22843e-08 -0.00100022)
(-1.96972e-07 -9.1409e-08 -0.00100028)
(-1.56444e-07 -9.06557e-08 -0.00100034)
(-1.00609e-07 -9.01043e-08 -0.00100038)
(-3.46664e-08 -8.96782e-08 -0.0010004)
(-2.17169e-07 -3.17474e-08 -0.00100024)
(-1.96051e-07 -3.14606e-08 -0.0010003)
(-1.55708e-07 -3.12067e-08 -0.00100036)
(-1.00162e-07 -3.10237e-08 -0.0010004)
(-3.45274e-08 -3.08916e-08 -0.00100042)
(-3.03525e-07 -2.74e-07 -0.00100009)
(-2.73816e-07 -2.70998e-07 -0.00100019)
(-2.17588e-07 -2.68488e-07 -0.00100026)
(-1.39965e-07 -2.66629e-07 -0.00100032)
(-4.82267e-08 -2.65144e-07 -0.00100035)
(-3.00511e-07 -2.46441e-07 -0.00100018)
(-2.71278e-07 -2.43878e-07 -0.00100027)
(-2.1549e-07 -2.41624e-07 -0.00100034)
(-1.38577e-07 -2.3993e-07 -0.0010004)
(-4.77392e-08 -2.38581e-07 -0.00100043)
(-2.97943e-07 -1.95302e-07 -0.00100025)
(-2.68999e-07 -1.93178e-07 -0.00100034)
(-2.13663e-07 -1.91349e-07 -0.00100041)
(-1.37409e-07 -1.90011e-07 -0.00100047)
(-4.73442e-08 -1.88988e-07 -0.0010005)
(-2.96036e-07 -1.25339e-07 -0.0010003)
(-2.67302e-07 -1.23977e-07 -0.00100039)
(-2.12321e-07 -1.2281e-07 -0.00100046)
(-1.36589e-07 -1.21989e-07 -0.00100052)
(-4.70819e-08 -1.21364e-07 -0.00100055)
(-2.94496e-07 -4.31298e-08 -0.00100032)
(-2.65929e-07 -4.26685e-08 -0.00100041)
(-2.11257e-07 -4.22765e-08 -0.00100049)
(-1.35934e-07 -4.20133e-08 -0.00100054)
(-4.68608e-08 -4.18019e-08 -0.00100057)
(-4.1295e-07 -3.72464e-07 -0.00100013)
(-3.72813e-07 -3.67855e-07 -0.00100025)
(-2.96209e-07 -3.6395e-07 -0.00100036)
(-1.90514e-07 -3.61084e-07 -0.00100044)
(-6.56319e-08 -3.58915e-07 -0.00100048)
(-4.08308e-07 -3.34921e-07 -0.00100024)
(-3.68714e-07 -3.30797e-07 -0.00100036)
(-2.92912e-07 -3.27257e-07 -0.00100047)
(-1.88395e-07 -3.24656e-07 -0.00100055)
(-6.49117e-08 -3.22712e-07 -0.00100059)
(-4.0433e-07 -2.65199e-07 -0.00100033)
(-3.65149e-07 -2.61858e-07 -0.00100046)
(-2.90098e-07 -2.59034e-07 -0.00100056)
(-1.86634e-07 -2.57012e-07 -0.00100064)
(-6.43255e-08 -2.55508e-07 -0.00100068)
(-4.01366e-07 -1.7015e-07 -0.0010004)
(-3.62517e-07 -1.67992e-07 -0.00100052)
(-2.88065e-07 -1.66219e-07 -0.00100063)
(-1.85379e-07 -1.64964e-07 -0.0010007)
(-6.39065e-08 -1.63979e-07 -0.00100074)
(-3.99056e-07 -5.85478e-08 -0.00100044)
(-3.60479e-07 -5.78086e-08 -0.00100056)
(-2.86498e-07 -5.72198e-08 -0.00100066)
(-1.84354e-07 -5.68009e-08 -0.00100074)
(-6.35348e-08 -5.64429e-08 -0.00100078)
(-5.61679e-07 -5.06092e-07 -0.00100017)
(-5.07388e-07 -4.9907e-07 -0.00100034)
(-4.03167e-07 -4.93085e-07 -0.00100049)
(-2.59363e-07 -4.88721e-07 -0.0010006)
(-8.9366e-08 -4.85535e-07 -0.00100065)
(-5.54566e-07 -4.54805e-07 -0.00100033)
(-5.00987e-07 -4.48342e-07 -0.00100049)
(-3.98126e-07 -4.42907e-07 -0.00100064)
(-2.56164e-07 -4.38962e-07 -0.00100074)
(-8.82848e-08 -4.36096e-07 -0.0010008)
(-5.48413e-07 -3.59805e-07 -0.00100045)
(-4.9549e-07 -3.54622e-07 -0.00100062)
(-3.93828e-07 -3.50308e-07 -0.00100076)
(-2.53456e-07 -3.47196e-07 -0.00100086)
(-8.73686e-08 -3.44902e-07 -0.00100092)
(-5.43849e-07 -2.30706e-07 -0.00100055)
(-4.91446e-07 -2.27384e-07 -0.00100071)
(-3.90697e-07 -2.24658e-07 -0.00100085)
(-2.51453e-07 -2.22652e-07 -0.00100095)
(-8.66717e-08 -2.21131e-07 -0.00100101)
(-5.40444e-07 -7.93512e-08 -0.0010006)
(-4.88432e-07 -7.82258e-08 -0.00100076)
(-3.88315e-07 -7.73083e-08 -0.0010009)
(-2.49874e-07 -7.66091e-08 -0.001001)
(-8.61115e-08 -7.6068e-08 -0.00100105)
(-7.63954e-07 -6.87514e-07 -0.00100024)
(-6.90538e-07 -6.76815e-07 -0.00100047)
(-5.48947e-07 -6.67652e-07 -0.00100067)
(-3.53286e-07 -6.60956e-07 -0.00100081)
(-1.21758e-07 -6.56196e-07 -0.00100089)
(-7.53084e-07 -6.1715e-07 -0.00100044)
(-6.80694e-07 -6.07197e-07 -0.00100067)
(-5.41208e-07 -5.98852e-07 -0.00100087)
(-3.48353e-07 -5.92769e-07 -0.00100101)
(-1.20075e-07 -5.88448e-07 -0.00100108)
(-7.43583e-07 -4.87673e-07 -0.00100062)
(-6.7224e-07 -4.79703e-07 -0.00100084)
(-5.34575e-07 -4.73039e-07 -0.00100103)
(-3.44117e-07 -4.6816e-07 -0.00100117)
(-1.18624e-07 -4.64686e-07 -0.00100125)
(-7.36553e-07 -3.12438e-07 -0.00100074)
(-6.66002e-07 -3.07337e-07 -0.00100097)
(-5.29662e-07 -3.0304e-07 -0.00100115)
(-3.40946e-07 -2.99858e-07 -0.00100129)
(-1.17529e-07 -2.97604e-07 -0.00100136)
(-7.31483e-07 -1.07418e-07 -0.00100081)
(-6.61462e-07 -1.05689e-07 -0.00100103)
(-5.26028e-07 -1.04208e-07 -0.00100122)
(-3.386e-07 -1.03102e-07 -0.00100135)
(-1.16728e-07 -1.02328e-07 -0.00100142)
(-1.03928e-06 -9.33797e-07 -0.00100032)
(-9.40076e-07 -9.17362e-07 -0.00100064)
(-7.47717e-07 -9.03306e-07 -0.00100091)
(-4.81391e-07 -8.92989e-07 -0.00100111)
(-1.6594e-07 -8.85847e-07 -0.00100122)
(-1.02256e-06 -8.3683e-07 -0.0010006)
(-9.24888e-07 -8.21462e-07 -0.00100091)
(-7.35766e-07 -8.08555e-07 -0.00100118)
(-4.73756e-07 -7.99132e-07 -0.00100137)
(-1.6333e-07 -7.92658e-07 -0.00100148)
(-1.00786e-06 -6.6024e-07 -0.00100084)
(-9.11802e-07 -6.47874e-07 -0.00100114)
(-7.25463e-07 -6.37474e-07 -0.0010014)
(-4.67177e-07 -6.29874e-07 -0.00100159)
(-1.61086e-07 -6.247e-07 -0.00100169)
(-9.96892e-07 -4.22603e-07 -0.00100101)
(-9.02042e-07 -4.14572e-07 -0.00100131)
(-7.17762e-07 -4.07787e-07 -0.00100156)
(-4.62269e-07 -4.02857e-07 -0.00100175)
(-1.59419e-07 -3.99524e-07 -0.00100185)
(-9.89146e-07 -1.45243e-07 -0.0010011)
(-8.95098e-07 -1.42473e-07 -0.00100139)
(-7.12285e-07 -1.40121e-07 -0.00100165)
(-4.58798e-07 -1.38431e-07 -0.00100183)
(-1.58238e-07 -1.3729e-07 -0.00100193)
(-1.41396e-06 -1.26767e-06 -0.00100044)
(-1.27985e-06 -1.24247e-06 -0.00100088)
(-1.01873e-06 -1.22095e-06 -0.00100125)
(-6.56233e-07 -1.20507e-06 -0.00100152)
(-2.26278e-07 -1.19436e-06 -0.00100166)
(-1.38827e-06 -1.13326e-06 -0.00100082)
(-1.25657e-06 -1.10958e-06 -0.00100124)
(-1.00036e-06 -1.08967e-06 -0.0010016)
(-6.44502e-07 -1.07518e-06 -0.00100187)
(-2.22277e-07 -1.06555e-06 -0.00100201)
(-1.36545e-06 -8.92415e-07 -0.00100114)
(-1.23626e-06 -8.73067e-07 -0.00100155)
(-9.84431e-07 -8.56873e-07 -0.0010019)
(-6.34406e-07 -8.45155e-07 -0.00100216)
(-2.18857e-07 -8.37442e-07 -0.0010023)
(-1.34816e-06 -5.70496e-07 -0.00100137)
(-1.22092e-06 -5.57745e-07 -0.00100177)
(-9.72439e-07 -5.47138e-07 -0.00100212)
(-6.26818e-07 -5.39517e-07 -0.00100237)
(-2.16282e-07 -5.34512e-07 -0.0010025)
(-1.33623e-06 -1.95959e-07 -0.00100148)
(-1.21032e-06 -1.91521e-07 -0.00100188)
(-9.64198e-07 -1.87858e-07 -0.00100222)
(-6.21609e-07 -1.85248e-07 -0.00100248)
(-2.14508e-07 -1.83532e-07 -0.00100261)
(-1.92412e-06 -1.71993e-06 -0.00100061)
(-1.74282e-06 -1.68134e-06 -0.0010012)
(-1.38865e-06 -1.64843e-06 -0.0010017)
(-8.95251e-07 -1.62402e-06 -0.00100207)
(-3.0884e-07 -1.60795e-06 -0.00100227)
(-1.88459e-06 -1.53224e-06 -0.00100112)
(-1.7072e-06 -1.4957e-06 -0.00100169)
(-1.36051e-06 -1.46513e-06 -0.00100218)
(-8.7728e-07 -1.44297e-06 -0.00100254)
(-3.02722e-07 -1.42866e-06 -0.00100273)
(-1.84902e-06 -1.20346e-06 -0.00100154)
(-1.67571e-06 -1.17309e-06 -0.0010021)
(-1.33606e-06 -1.14797e-06 -0.00100258)
(-8.61904e-07 -1.1299e-06 -0.00100293)
(-2.97547e-07 -1.11837e-06 -0.00100311)
(-1.82167e-06 -7.68091e-07 -0.00100185)
(-1.65156e-06 -7.47853e-07 -0.00100239)
(-1.31732e-06 -7.31268e-07 -0.00100286)
(-8.50051e-07 -7.19355e-07 -0.0010032)
(-2.93529e-07 -7.11834e-07 -0.00100338)
(-1.80322e-06 -2.63671e-07 -0.001002)
(-1.63535e-06 -2.5661e-07 -0.00100254)
(-1.30481e-06 -2.50887e-07 -0.001003)
(-8.42213e-07 -2.46807e-07 -0.00100334)
(-2.90905e-07 -2.44272e-07 -0.00100352)
(-2.61935e-06 -2.33193e-06 -0.00100084)
(-2.37413e-06 -2.27276e-06 -0.00100165)
(-1.89412e-06 -2.22264e-06 -0.00100234)
(-1.22245e-06 -2.18508e-06 -0.00100284)
(-4.21982e-07 -2.16099e-06 -0.00100311)
(-2.55846e-06 -2.06728e-06 -0.00100153)
(-2.31958e-06 -2.01056e-06 -0.00100231)
(-1.85123e-06 -1.96403e-06 -0.00100297)
(-1.19497e-06 -1.93032e-06 -0.00100347)
(-4.12646e-07 -1.90934e-06 -0.00100372)
(-2.50282e-06 -1.61787e-06 -0.00100209)
(-2.27088e-06 -1.56985e-06 -0.00100284)
(-1.81407e-06 -1.53098e-06 -0.00100349)
(-1.172e-06 -1.50301e-06 -0.00100397)
(-4.05104e-07 -1.48597e-06 -0.00100423)
(-2.45908e-06 -1.03085e-06 -0.00100249)
(-2.2325e-06 -9.98249e-07 -0.00100322)
(-1.78438e-06 -9.72175e-07 -0.00100386)
(-1.15316e-06 -9.53354e-07 -0.00100432)
(-3.98768e-07 -9.42167e-07 -0.00100457)
(-2.43009e-06 -3.53879e-07 -0.0010027)
(-2.20735e-06 -3.42386e-07 -0.00100342)
(-1.76539e-06 -3.3345e-07 -0.00100404)
(-1.1416e-06 -3.27128e-07 -0.0010045)
(-3.95087e-07 -3.23583e-07 -0.00100475)
(-3.56752e-06 -3.15859e-06 -0.00100118)
(-3.23495e-06 -3.06734e-06 -0.00100227)
(-2.58562e-06 -2.99189e-06 -0.00100321)
(-1.67099e-06 -2.9338e-06 -0.00100391)
(-5.77318e-07 -2.89797e-06 -0.00100428)
(-3.47389e-06 -2.78077e-06 -0.0010021)
(-3.15147e-06 -2.69179e-06 -0.00100314)
(-2.52069e-06 -2.62225e-06 -0.00100406)
(-1.62897e-06 -2.57163e-06 -0.00100472)
(-5.63135e-07 -2.54221e-06 -0.00100508)
(-3.38643e-06 -2.16572e-06 -0.00100284)
(-3.07643e-06 -2.0885e-06 -0.00100384)
(-2.46572e-06 -2.0287e-06 -0.00100473)
(-1.5967e-06 -1.98513e-06 -0.00100539)
(-5.53448e-07 -1.96058e-06 -0.00100574)
(-3.31511e-06 -1.37802e-06 -0.00100336)
(-3.01418e-06 -1.32401e-06 -0.00100432)
(-2.41729e-06 -1.28318e-06 -0.00100519)
(-1.56516e-06 -1.25261e-06 -0.00100581)
(-5.42836e-07 -1.23628e-06 -0.00100615)
(-3.26845e-06 -4.73836e-07 -0.00100364)
(-2.9749e-06 -4.54453e-07 -0.00100458)
(-2.38911e-06 -4.4106e-07 -0.00100543)
(-1.54918e-06 -4.314e-07 -0.00100605)
(-5.38654e-07 -4.27429e-07 -0.00100639)
(-4.86321e-06 -4.27378e-06 -0.00100168)
(-4.40774e-06 -4.12866e-06 -0.00100314)
(-3.53316e-06 -4.01815e-06 -0.00100444)
(-2.28693e-06 -3.92648e-06 -0.00100539)
(-7.91259e-07 -3.87426e-06 -0.0010059)
(-4.71866e-06 -3.72528e-06 -0.00100289)
(-4.2795e-06 -3.58143e-06 -0.00100427)
(-3.43584e-06 -3.4828e-06 -0.00100554)
(-2.22137e-06 -3.40887e-06 -0.00100644)
(-7.6922e-07 -3.37284e-06 -0.00100693)
(-4.5803e-06 -2.88168e-06 -0.00100386)
(-4.16526e-06 -2.75335e-06 -0.00100516)
(-3.36094e-06 -2.66337e-06 -0.00100641)
(-2.18471e-06 -2.59358e-06 -0.00100732)
(-7.62663e-07 -2.56001e-06 -0.00100784)
(-4.46068e-06 -1.8337e-06 -0.00100453)
(-4.06082e-06 -1.73981e-06 -0.00100576)
(-3.27603e-06 -1.67738e-06 -0.00100696)
(-2.12374e-06 -1.62356e-06 -0.00100778)
(-7.41274e-07 -1.60054e-06 -0.00100825)
(-4.38274e-06 -6.34633e-07 -0.00100491)
(-3.99972e-06 -5.99723e-07 -0.00100609)
(-3.23751e-06 -5.82519e-07 -0.00100729)
(-2.10691e-06 -5.68229e-07 -0.00100811)
(-7.4162e-07 -5.68889e-07 -0.00100861)
(-6.63884e-06 -5.7775e-06 -0.00100246)
(-5.99878e-06 -5.52594e-06 -0.00100438)
(-4.83465e-06 -5.37659e-06 -0.00100618)
(-3.13485e-06 -5.22187e-06 -0.00100747)
(-1.08882e-06 -5.14894e-06 -0.00100821)