/*--------------------------------*- C++ -*----------------------------------*\
| =========                 |                                                 |
| \\      /  F ield         | OpenFOAM: The Open Source CFD Toolbox           |
|  \\    /   O peration     | Version:  5.x                                   |
|   \\  /    A nd           | Web:      www.OpenFOAM.org                      |
|    \\/     M anipulation  |                                                 |
\*---------------------------------------------------------------------------*/
FoamFile
{
    version     2.0;
    format      ascii;
    class       surfaceScalarField;
    location    "7000";
    object      phi;
}
// * * * * * * * * * * * * * * * * * * * * * * * * * * * * * * * * * * * * * //

dimensions      [0 3 -1 0 0 0 0];

internalField   nonuniform List<scalar> 
179
(
1.68894e+07
1.68999e+07
1.69061e+07
1.69196e+07
1.69193e+07
1.68984e+07
1.68651e+07
1.67925e+07
1.67475e+07
1.67093e+07
1.66724e+07
1.66305e+07
1.65672e+07
1.64753e+07
1.64059e+07
1.63443e+07
1.62862e+07
1.62256e+07
1.61839e+07
1.61647e+07
1.61453e+07
1.61045e+07
1.60676e+07
1.60466e+07
1.60375e+07
1.60399e+07
1.60412e+07
1.60235e+07
1.60002e+07
1.59846e+07
1.59789e+07
1.59687e+07
1.59784e+07
1.59841e+07
1.59427e+07
1.59092e+07
1.59024e+07
1.5909e+07
1.59464e+07
1.59677e+07
1.59709e+07
1.59802e+07
1.59985e+07
1.60556e+07
1.61417e+07
1.62091e+07
1.62784e+07
1.63427e+07
1.63888e+07
1.64353e+07
1.64743e+07
1.65086e+07
1.65277e+07
1.65435e+07
1.6539e+07
1.65445e+07
1.65652e+07
1.65633e+07
1.65334e+07
1.65161e+07
1.64682e+07
1.63926e+07
1.63019e+07
1.62027e+07
1.60977e+07
1.59144e+07
1.57317e+07
1.5551e+07
1.54186e+07
1.52863e+07
1.51808e+07
1.50889e+07
1.50062e+07
1.49689e+07
1.49626e+07
1.49867e+07
1.50437e+07
1.51407e+07
1.52682e+07
1.5403e+07
1.56105e+07
1.57865e+07
1.5969e+07
1.61295e+07
1.62742e+07
1.6408e+07
1.65342e+07
1.66518e+07
1.6765e+07
1.68724e+07
1.69792e+07
1.70824e+07
1.71872e+07
1.72895e+07
1.7394e+07
1.74828e+07
1.75669e+07
1.76149e+07
1.76532e+07
1.76823e+07
1.77331e+07
1.78316e+07
1.79843e+07
1.8225e+07
1.85277e+07
1.88753e+07
1.92288e+07
1.95853e+07
1.99201e+07
2.0256e+07
2.05672e+07
2.08766e+07
2.12034e+07
2.15268e+07
2.18636e+07
2.22065e+07
2.257e+07
2.29328e+07
2.33136e+07
2.36892e+07
2.40742e+07
2.44419e+07
2.48059e+07
2.5151e+07
2.5494e+07
2.58365e+07
2.61979e+07
2.6585e+07
2.70073e+07
2.74658e+07
2.79563e+07
2.84627e+07
2.89843e+07
2.94935e+07
2.99978e+07
3.0469e+07
3.09144e+07
3.13194e+07
3.16919e+07
3.2028e+07
3.23295e+07
3.25967e+07
3.28288e+07
3.30301e+07
3.3203e+07
3.33543e+07
3.34871e+07
3.36114e+07
3.37324e+07
3.38736e+07
3.40352e+07
3.42142e+07
3.44078e+07
3.46182e+07
3.48458e+07
3.50947e+07
3.53668e+07
3.56703e+07
3.60087e+07
3.63895e+07
3.68163e+07
3.72884e+07
3.77967e+07
3.83115e+07
3.8787e+07
3.91921e+07
3.9452e+07
3.95427e+07
3.94041e+07
3.90186e+07
3.83587e+07
3.74538e+07
3.62855e+07
3.50073e+07
3.34813e+07
3.23301e+07
3.1144e+07
3.0086e+07
2.90226e+07
)
;

boundaryField
{
    inlet
    {
        type            calculated;
        value           uniform 2.84377e+07;
    }
    outlet
    {
        type            calculated;
        value           uniform -1.6891e+07;
    }
    repeat_boundary
    {
        type            calculated;
        value           uniform 0;
    }
    procBoundary2to0
    {
        type            processor;
        value           nonuniform List<scalar> 
180
(
1744.49
1021.96
1187.83
51.1382
289.643
-1425.79
5911.08
34640.1
27186.7
23579.2
13729.9
13087.4
29098.9
53959.2
42996.9
39264.6
34679.1
35323
27871.6
16276.8
12182.3
14231.3
13470.7
-3238.51
-10535.7
-24039.1
-26630.1
-1596.41
4807.05
-2644.81
-10978.8
-1593.85
-13670.8
-8194.13
23293.8
19113.1
23983.8
16342.4
-7639.53
87.5471
301.596
2774.81
-2773.36
-24932.4
-43422.2
-23485.4
-26487.5
-26160.4
-26389.8
-35084.9
-23565.5
-23196.3
-23137.6
-23457.8
-24518
-27292.7
-40083.1
-41532.5
-31008.3
-55505.9
-31808.6
-12423.8
1199.38
4634.69
-552.173
20587.1
27989.3
28219.4
22220
18107.4
13761.7
8484.07
3225.72
-831.123
-4515.27
-7144.89
-9101.42
-10526.5
-11825.1
-12777.1
-14171.1
-15040.2
-17262.6
-18293.2
-20635.8
-21674.6
-24374.7
-26076.6
-29327.4
-31519.4
-35572.4
-37912.3
-42609.9
-45390.7
-48081.7
-49395.8
-43501.5
-42592.3
-34324.1
-39485.2
-40435.5
-47343.2
-54696.7
-74400.4
-97912.7
-120275
-131982
-137777
-134916
-140297
-133208
-137262
-152010
-156728
-171630
-181508
-202312
-209132
-230064
-235543
-253556
-254315
-266261
-266713
-279009
-288261
-308711
-327840
-351672
-372151
-389239
-395601
-400106
-389016
-381036
-358288
-337738
-310157
-284916
-258242
-230705
-202880
-173323
-145376
-118876
-95260.3
-73183.6
-57623.1
-45641.6
-55524.3
-65349.6
-72753.2
-79341.8
-92840.6
-112078
-144435
-184018
-235169
-290250
-350038
-405231
-452476
-484592
-494216
-481415
-435779
-371998
-281523
-177084
-53398.1
92521.5
244350
427954
531741
761700
512537
635305
592596
692080
427430
)
;
    }
    procBoundary2to3
    {
        type            processor;
        value           nonuniform List<scalar> 
180
(
-115.965
-11548.8
-7367.43
-13588.7
16.7329
22302.4
27400.5
38002.4
17757.5
14628.5
23167.2
28819.6
34224.5
37904.4
26482.9
22332.6
23383.4
25290.8
13763.8
3018.08
7168.16
26586.9
23420.7
24234.9
19618.2
21659.4
25284.8
19311.3
18520.7
18225.4
16719.7
11816.3
3968.72
2421.86
18178.4
14374.2
-17239.5
-22894.9
-29830
-21380.7
-3483.82
-12053.2
-15485.7
-32207.7
-42709.7
-43879.8
-42798.3
-38189.4
-19721.1
-11344.4
-15451.4
-11095.1
4034.33
7654.15
29043.6
21707
19424
43420.9
60902.7
72788.9
79773.5
88006.1
89505.1
94593.8
105515
162723
154731
152422
110199
114179
91742.7
83405.8
79490.8
38148.5
10802.3
-16976.7
-47834.9
-86527.4
-115706
-121943
-193359
-160926
-165260
-142190
-124066
-112142
-101854
-91478.4
-83869.7
-75961.5
-71219.4
-65208
-62223.1
-56942.4
-56433.6
-39339.9
-40625.2
-5392.79
-4015.96
10430.7
-10331
-51165.8
-98085.3
-166256
-204781
-227276
-221591
-218720
-199875
-195582
-177997
-172099
-174852
-166683
-165145
-161436
-161108
-153726
-150705
-140015
-131494
-113428
-97717.9
-78368.5
-63974.5
-54234.2
-52745
-59217.8
-70653.2
-86303.2
-101333
-110768
-121494
-120189
-123258
-112942
-107582
-94849.2
-87652.7
-77799.9
-70808.1
-64313.4
-58816.7
-55913.1
-54055.3
-56005.1
-59626.8
-66692.6
-75323.3
-85637.3
-96287.2
-106204
-114267
-117581
-115483
-104477
-88163.6
-68285.6
-48118.3
-30780.7
-21563.1
-19655.3
-23744.6
-20572.1
5939.66
30727.5
112049
190835
315698
438917
567307
660616
740342
746410
764316
638685
550762
465392
371322
157502
)
;
    }
}


// ************************************************************************* //
