/*--------------------------------*- C++ -*----------------------------------*\
| =========                 |                                                 |
| \\      /  F ield         | OpenFOAM: The Open Source CFD Toolbox           |
|  \\    /   O peration     | Version:  5.x                                   |
|   \\  /    A nd           | Web:      www.OpenFOAM.org                      |
|    \\/     M anipulation  |                                                 |
\*---------------------------------------------------------------------------*/
FoamFile
{
    version     2.0;
    format      ascii;
    class       volVectorField;
    location    "200";
    object      Us;
}
// * * * * * * * * * * * * * * * * * * * * * * * * * * * * * * * * * * * * * //

dimensions      [0 1 -1 0 0 0 0];

internalField   nonuniform List<vector> 
90
(
(0 0 0)
(0 0 0)
(0 0 0)
(0 0 0)
(0 0 0)
(0 0 0)
(0 0 0)
(0 0 0)
(0 0 0)
(0 0 0)
(0 0 0)
(0 0 0)
(0 0 0)
(0 0 0)
(0 0 0)
(0 0 0)
(0 0 0)
(0 0 0)
(0 0 0)
(0 0 0)
(0 0 0)
(0 0 0)
(0 0 0)
(0 0 0)
(0 0 0)
(0 0 0)
(0 0 0)
(0 0 0)
(0 0 0)
(0 0 0)
(0 0 0)
(0 0 0)
(0 0 0)
(0 0 0)
(0 0 0)
(0 0 0)
(0 0 0)
(0 0 0)
(0 0 0)
(0 0 0)
(3.14497e-06 1.74699e-06 -5.16393e-08)
(8.41238e-06 4.16863e-06 -4.3316e-07)
(1.20793e-05 6.75611e-06 -4.90384e-08)
(1.52473e-05 7.25982e-06 4.99471e-07)
(1.67312e-05 8.74088e-06 1.5709e-06)
(1.92672e-05 9.1076e-06 2.31547e-06)
(1.91715e-05 1.01434e-05 2.00146e-06)
(1.89901e-05 9.61977e-06 2.5155e-06)
(2.58303e-05 8.21305e-06 1.96118e-06)
(3.51465e-05 1.10983e-05 2.50498e-07)
(3.79164e-05 2.53132e-05 -9.54557e-06)
(1.35516e-05 -2.2661e-05 -0.000128605)
(7.59653e-05 -5.98315e-06 -0.000116211)
(-0.000374003 1.24193e-06 -0.000167796)
(0 0 0)
(0 0 0)
(0 0 0)
(0 0 0)
(0 0 0)
(0 0 0)
(0 0 0)
(0 0 0)
(0 0 0)
(0 0 0)
(0 0 0)
(0 0 0)
(0 0 0)
(0 0 0)
(0 0 0)
(0 0 0)
(0 0 0)
(0 0 0)
(0 0 0)
(0 0 0)
(0 0 0)
(0 0 0)
(0 0 0)
(0 0 0)
(0 0 0)
(0 0 0)
(0 0 0)
(0 0 0)
(0 0 0)
(0 0 0)
(0 0 0)
(0 0 0)
(0 0 0)
(0 0 0)
(0 0 0)
(0 0 0)
)
;

boundaryField
{
    inlet
    {
        type            fixedValue;
        value           uniform (0 0 0);
    }
    outlet
    {
        type            fixedValue;
        value           uniform (0 0 0);
    }
    repeat_boundary
    {
        type            fixedValue;
        value           uniform (0 0 0);
    }
    procBoundary0to1
    {
        type            processor;
        value           nonuniform List<vector> 
90
(
(0 0 0)
(0 0 0)
(0 0 0)
(0 0 0)
(0 0 0)
(0 0 0)
(0 0 0)
(0 0 0)
(0 0 0)
(0 0 0)
(0 0 0)
(0 0 0)
(0 0 0)
(0 0 0)
(0 0 0)
(0 0 0)
(0 0 0)
(0 0 0)
(0 0 0)
(0 0 0)
(0 0 0)
(0 0 0)
(0 0 0)
(0 0 0)
(0 0 0)
(0 0 0)
(0 0 0)
(0 0 0)
(0 0 0)
(0 0 0)
(0 0 0)
(0 0 0)
(0 0 0)
(0 0 0)
(0 0 0)
(0 0 0)
(0 0 0)
(0 0 0)
(0 0 0)
(0 0 0)
(2.37815e-06 2.83705e-06 2.10429e-07)
(6.713e-06 5.70317e-06 8.23357e-07)
(9.04358e-06 7.4438e-06 6.83896e-07)
(1.27412e-05 9.69179e-06 1.94587e-06)
(1.6071e-05 1.01319e-05 2.34191e-06)
(1.84235e-05 1.16734e-05 1.07201e-06)
(2.24362e-05 1.19032e-05 1.01348e-06)
(2.59813e-05 1.04771e-05 1.64143e-06)
(2.79506e-05 1.03062e-05 5.67046e-07)
(2.86142e-05 1.50282e-05 1.40942e-06)
(2.47819e-05 1.0185e-05 2.559e-06)
(6.29274e-05 -6.37777e-05 -1.95543e-05)
(8.53887e-05 -2.10075e-05 -6.56559e-05)
(0 0 0)
(0 0 0)
(0 0 0)
(0 0 0)
(0 0 0)
(0 0 0)
(0 0 0)
(0 0 0)
(0 0 0)
(0 0 0)
(0 0 0)
(0 0 0)
(0 0 0)
(0 0 0)
(0 0 0)
(0 0 0)
(0 0 0)
(0 0 0)
(0 0 0)
(0 0 0)
(0 0 0)
(0 0 0)
(0 0 0)
(0 0 0)
(0 0 0)
(0 0 0)
(0 0 0)
(0 0 0)
(0 0 0)
(0 0 0)
(0 0 0)
(0 0 0)
(0 0 0)
(0 0 0)
(0 0 0)
(0 0 0)
(0 0 0)
)
;
    }
    procBoundary0to2
    {
        type            processor;
        value           nonuniform List<vector> 
90
(
(0 0 0)
(0 0 0)
(0 0 0)
(0 0 0)
(0 0 0)
(0 0 0)
(0 0 0)
(0 0 0)
(0 0 0)
(0 0 0)
(0 0 0)
(0 0 0)
(0 0 0)
(0 0 0)
(0 0 0)
(0 0 0)
(0 0 0)
(0 0 0)
(0 0 0)
(0 0 0)
(0 0 0)
(0 0 0)
(0 0 0)
(0 0 0)
(0 0 0)
(0 0 0)
(0 0 0)
(0 0 0)
(0 0 0)
(0 0 0)
(0 0 0)
(0 0 0)
(0 0 0)
(0 0 0)
(0 0 0)
(0 0 0)
(0 0 0)
(0 0 0)
(0 0 0)
(0 0 0)
(4.00197e-06 3.00429e-07 -1.82696e-07)
(7.84446e-06 3.1384e-06 2.57359e-07)
(1.13522e-05 6.84247e-06 1.77233e-07)
(1.46634e-05 8.18227e-06 2.32944e-07)
(1.71606e-05 1.00081e-05 4.67393e-07)
(1.89647e-05 9.88575e-06 -4.01211e-07)
(2.18257e-05 1.01791e-05 6.64253e-07)
(2.38352e-05 1.05368e-05 7.82099e-07)
(2.64224e-05 1.29691e-05 2.37565e-06)
(2.31641e-05 1.98393e-05 2.17776e-06)
(-2.14029e-05 -4.06538e-05 -3.74491e-05)
(8.53426e-05 8.05162e-05 -0.000170278)
(3.07805e-05 5.81744e-05 -0.000292022)
(0.000140793 0.000147309 -0.000349218)
(0 0 0)
(0 0 0)
(0 0 0)
(0 0 0)
(0 0 0)
(0 0 0)
(0 0 0)
(0 0 0)
(0 0 0)
(0 0 0)
(0 0 0)
(0 0 0)
(0 0 0)
(0 0 0)
(0 0 0)
(0 0 0)
(0 0 0)
(0 0 0)
(0 0 0)
(0 0 0)
(0 0 0)
(0 0 0)
(0 0 0)
(0 0 0)
(0 0 0)
(0 0 0)
(0 0 0)
(0 0 0)
(0 0 0)
(0 0 0)
(0 0 0)
(0 0 0)
(0 0 0)
(0 0 0)
(0 0 0)
(0 0 0)
)
;
    }
}


// ************************************************************************* //
