FoamFile
{version 2.0; format ascii;class Cloud<passiveParticle>; location 0;object  positions;}
350
(
( -3.38126 1.96381 0.499816 ) 0 
( -2.40599 2.2424 0.499617 ) 0 
( -4.23957 3.81329 0.499974 ) 0 
( -2.25727 4.04582 0.499741 ) 0 
( -2.75331 4.92879 0.49961 ) 0 
( -1.4532 1.4958 0.49957 ) 0 
( -0.599421 2.12631 0.499903 ) 0 
( -0.869589 4.25679 0.499624 ) 0 
( -4.46958 1.09292 0.499975 ) 0 
( -0.311789 3.39037 0.49974 ) 0 
( -2.71286 0.280717 0.499599 ) 0 
( -1.3112 3.3599 0.499723 ) 0 
( -0.504184 1.13005 0.499663 ) 0 
( -4.35582 2.20543 0.499704 ) 0 
( -4.70569 0.121193 0.499638 ) 0 
( -3.75782 4.69802 0.49983 ) 0 
( -4.75024 4.81973 0.499523 ) 0 
( -3.70742 0.177772 0.499854 ) 0 
( -4.61389 1.9102 1.41942 ) 0 
( -2.42115 1.23925 0.499787 ) 0 
( -1.21749 0.689057 1.04368 ) 0 
( -1.74352 0.0355209 0.499785 ) 0 
( -4.88807 3.05202 0.499757 ) 0 
( -1.48628 2.43339 0.845014 ) 0 
( -3.23665 3.84478 0.516129 ) 0 
( -1.67103 4.85617 0.499782 ) 0 
( -0.00726039 4.19921 1.00237 ) 0 
( -3.63954 2.92974 0.499568 ) 0 
( -4.87473 0.659689 1.32493 ) 0 
( -4.46762 4.33809 1.32871 ) 0 
( -3.3309 1.03187 0.858703 ) 0 
( -1.60584 4.19157 1.24399 ) 0 
( -2.19595 3.13484 0.906988 ) 0 
( -1.38808 3.24727 1.49009 ) 0 
( -0.536272 2.77694 1.25655 ) 0 
( -0.575894 0.221217 1.75095 ) 0 
( -2.14356 1.73695 1.32126 ) 0 
( -4.27402 2.8411 1.26691 ) 0 
( -0.728587 4.81652 1.31576 ) 0 
( -3.00161 2.624 1.2059 ) 0 
( -2.1903 0.643963 1.27029 ) 0 
( -0.00918494 3.49455 1.71142 ) 0 
( -0.878034 1.60823 1.30921 ) 0 
( -2.69383 4.40101 1.34651 ) 0 
( -3.62282 1.78344 1.45305 ) 0 
( -4.83913 3.51277 1.75335 ) 0 
( -3.90308 0.454351 1.44055 ) 0 
( -4.27614 1.71282 2.3394 ) 0 
( -3.58799 4.4441 1.79208 ) 0 
( -0.845282 3.10151 2.31705 ) 0 
( -2.49656 2.36596 2.02917 ) 0 
( -2.61404 3.48711 1.74388 ) 0 
( -1.55997 1.13766 1.86869 ) 0 
( -2.86881 1.19868 1.75114 ) 0 
( -0.542166 2.17942 2.05799 ) 0 
( -1.51581 2.31876 1.83793 ) 0 
( -0.856214 3.99985 1.87827 ) 0 
( -4.42249 0.0996071 2.21781 ) 0 
( -2.04694 0.0533858 2.06439 ) 0 
( -4.66983 2.61346 2.15634 ) 0 
( -3.55531 3.52133 1.40876 ) 0 
( -0.497086 1.18326 2.12989 ) 0 
( -2.23837 4.28627 2.22913 ) 0 
( -1.25113 1.73697 2.60682 ) 0 
( -3.61962 2.62599 1.99145 ) 0 
( -0.619131 2.43039 3.02278 ) 0 
( -2.77406 0.601084 2.5471 ) 0 
( -4.00361 3.49499 2.30212 ) 0 
( -2.25876 1.5064 2.48099 ) 0 
( -3.70096 0.895326 2.31466 ) 0 
( -1.50631 4.9043 1.93794 ) 0 
( -4.9223 0.950782 2.37729 ) 0 
( -1.1338 0.529372 2.53752 ) 0 
( -0.403482 4.53265 2.64399 ) 0 
( -4.43836 4.23673 2.81197 ) 0 
( -4.86643 3.33316 2.82195 ) 0 
( -1.87953 1.70802 3.38377 ) 0 
( -4.3189 1.13634 3.15516 ) 0 
( -1.9426 0.755019 3.08044 ) 0 
( -2.44831 3.19628 2.68579 ) 0 
( -1.61322 2.65364 2.77487 ) 0 
( -3.12716 3.92728 2.51352 ) 0 
( -3.28467 1.79602 2.43675 ) 0 
( -1.37443 4.3111 2.7317 ) 0 
( -3.51445 0.546354 3.23284 ) 0 
( -0.217849 3.47743 3.13821 ) 0 
( -3.91655 2.73027 2.94029 ) 0 
( -2.6254 0.0968541 3.39772 ) 0 
( -0.834711 0.312135 3.46636 ) 0 
( -3.8603 4.54774 3.56594 ) 0 
( -1.26245 2.78303 3.70202 ) 0 
( -2.89537 1.33159 3.23178 ) 0 
( -4.47705 0.150901 3.21476 ) 0 
( -2.62135 2.26878 3.01643 ) 0 
( -3.50243 4.87316 2.69105 ) 0 
( -1.75358 3.57757 3.29526 ) 0 
( -2.58105 4.7353 3.05419 ) 0 
( -3.18425 3.26711 3.35877 ) 0 
( -0.690651 1.30405 3.31243 ) 0 
( -0.713521 2.01013 4.01999 ) 0 
( -0.869348 4.66505 3.51857 ) 0 
( -2.25924 2.8443 3.74928 ) 0 
( -4.13712 3.54821 3.47128 ) 0 
( -1.4287 0.984922 3.90663 ) 0 
( -2.61297 3.99364 3.74021 ) 0 
( -4.38347 2.06443 3.52165 ) 0 
( -3.65186 1.29222 3.88449 ) 0 
( -4.65912 4.18121 4.04265 ) 0 
( -0.0427459 0.443106 4.06237 ) 0 
( -0.290862 2.95096 4.00204 ) 0 
( -0.912167 3.71229 3.81812 ) 0 
( -1.974 1.98202 4.34048 ) 0 
( -2.41347 1.057 4.0634 ) 0 
( -1.69422 4.31822 3.96442 ) 0 
( -0.197736 1.26778 4.60606 ) 0 
( -3.40407 2.22894 3.63722 ) 0 
( -4.74851 1.29437 4.04412 ) 0 
( -3.70788 3.89356 4.30637 ) 0 
( -4.88164 2.90689 3.72634 ) 0 
( -3.06249 4.66878 4.32498 ) 0 
( -1.69469 3.39975 4.3597 ) 0 
( -3.95355 2.86545 4.17836 ) 0 
( -3.21075 0.537154 4.36949 ) 0 
( -0.299574 4.75828 4.335 ) 0 
( -1.23368 1.46049 4.76404 ) 0 
( -2.92818 2.22301 4.51649 ) 0 
( -2.98371 3.20486 4.33618 ) 0 
( -4.1002 1.93277 4.50779 ) 0 
( -2.15375 0.570302 4.89711 ) 0 
( -2.41496 3.72751 4.97083 ) 0 
( -0.517982 2.01574 5.18737 ) 0 
( -0.661941 3.74168 4.78557 ) 0 
( -4.10407 0.864784 4.67611 ) 0 
( -1.00236 2.71966 4.66518 ) 0 
( -4.50849 3.48889 4.74807 ) 0 
( -2.12869 4.66879 4.79386 ) 0 
( -0.875516 0.53393 4.65021 ) 0 
( -2.19256 2.75335 4.93784 ) 0 
( -2.02744 1.37796 5.4726 ) 0 
( -2.96332 0.486582 5.47796 ) 0 
( -3.35166 3.95197 5.23873 ) 0 
( -3.58138 2.96575 5.10105 ) 0 
( -0.670066 2.92761 5.58482 ) 0 
( -4.70599 1.44595 5.22368 ) 0 
( -2.58106 4.43737 5.65496 ) 0 
( -1.47977 2.20911 5.37996 ) 0 
( -4.08339 4.77069 4.60889 ) 0 
( -1.38079 0.432646 5.51612 ) 0 
( -0.618511 4.60533 5.28733 ) 0 
( -2.86677 1.30933 4.91813 ) 0 
( -0.401496 0.616047 5.59968 ) 0 
( -4.50441 2.59163 5.18913 ) 0 
( -4.91724 0.137634 4.90108 ) 0 
( -2.46588 2.24043 5.75151 ) 0 
( -1.49021 3.58382 5.32271 ) 0 
( -4.05375 3.50825 5.79537 ) 0 
( -3.75284 0.266567 6.07704 ) 0 
( -4.74861 2.81063 6.13358 ) 0 
( -0.738384 2.16504 6.22771 ) 0 
( -4.42642 4.39335 5.469 ) 0 
( -3.80868 1.13856 5.5911 ) 0 
( -3.39481 2.02324 5.37775 ) 0 
( -1.06464 1.35355 5.74346 ) 0 
( -2.78201 3.18868 5.72869 ) 0 
( -3.33435 4.95195 5.24577 ) 0 
( -2.90442 1.36469 5.95239 ) 0 
( -4.23718 1.97586 5.9302 ) 0 
( -0.0327295 2.88731 6.39697 ) 0 
( -1.00017 0.397976 6.44034 ) 0 
( -1.78214 2.92166 6.01271 ) 0 
( -1.91448 3.89992 6.17114 ) 0 
( -4.49231 4.80003 6.41025 ) 0 
( -0.399626 3.8393 5.8934 ) 0 
( -2.17744 0.733479 6.22221 ) 0 
( -3.62267 4.45101 6.06161 ) 0 
( -3.5827 1.6688 6.62101 ) 0 
( -4.64232 0.623735 5.7893 ) 0 
( -3.55273 2.68136 6.11364 ) 0 
( -0.918717 4.62007 6.24097 ) 0 
( -2.63252 1.97061 6.69982 ) 0 
( -0.439596 1.22274 6.5127 ) 0 
( -0.405932 0.53399 7.23654 ) 0 
( -2.00809 2.70602 6.96245 ) 0 
( -4.17134 2.44052 6.86116 ) 0 
( -2.88416 3.88955 6.43445 ) 0 
( -1.54896 4.36837 6.97524 ) 0 
( -2.98585 0.893284 6.83029 ) 0 
( -0.575722 4.03832 6.97835 ) 0 
( -0.958651 3.25708 6.48371 ) 0 
( -4.48251 0.41639 6.75427 ) 0 
( -1.70827 1.88202 6.29682 ) 0 
( -3.85556 3.42788 6.77195 ) 0 
( -1.71311 0.630356 7.10163 ) 0 
( -0.0758103 2.06918 6.97019 ) 0 
( -4.69882 1.37789 6.58532 ) 0 
( -1.8557 1.69147 7.26724 ) 0 
( -4.68562 2.81867 7.63052 ) 0 
( -0.390864 3.11092 7.30328 ) 0 
( -1.07343 2.39866 7.14029 ) 0 
( -3.3543 2.2471 7.40411 ) 0 
( -3.86556 0.987485 7.29606 ) 0 
( -3.82986 4.3914 7.03794 ) 0 
( -4.47839 1.74723 7.5129 ) 0 
( -2.85462 4.57193 7.16462 ) 0 
( -0.202879 4.96645 7.04566 ) 0 
( -1.34701 3.47599 7.37876 ) 0 
( -0.901376 1.41443 7.37855 ) 0 
( -2.96176 2.98805 6.85963 ) 0 
( -1.84127 2.81398 7.94226 ) 0 
( -0.938294 4.7194 7.68488 ) 0 
( -4.68339 3.87551 7.10984 ) 0 
( -0.0720952 1.88001 7.95185 ) 0 
( -2.30167 3.73508 7.2324 ) 0 
( -4.81031 4.83595 7.35762 ) 0 
( -3.30626 0.585968 8.05809 ) 0 
( -4.52374 0.389196 7.75289 ) 0 
( -1.18747 2.06967 8.07757 ) 0 
( -3.16905 4.90805 8.05219 ) 0 
( -3.73775 3.12455 7.71725 ) 0 
( -2.46035 0.960052 7.67826 ) 0 
( -0.890344 3.02732 8.16539 ) 0 
( -1.135 0.604933 7.91706 ) 0 
( -1.44378 0.312881 8.82203 ) 0 
( -4.0731 4.3715 8.00753 ) 0 
( -2.07446 2.68309 8.90569 ) 0 
( -3.15823 3.92589 7.86478 ) 0 
( -4.07554 2.37593 8.28749 ) 0 
( -1.98937 4.43925 7.87004 ) 0 
( -0.719812 1.29728 8.50712 ) 0 
( -2.48697 1.90155 8.01366 ) 0 
( -3.99057 0.0152453 8.51158 ) 0 
( -2.3901 0.517804 8.57223 ) 0 
( -1.21136 3.96686 8.28398 ) 0 
( -0.098659 4.50346 8.18292 ) 0 
( -2.83598 2.83813 8.04006 ) 0 
( -3.52529 1.56009 8.11006 ) 0 
( -1.75656 1.28151 8.31163 ) 0 
( -3.43398 4.25556 8.76769 ) 0 
( -0.48842 2.32028 8.74713 ) 0 
( -4.32064 3.32046 8.5057 ) 0 
( -3.07256 1.166 8.90978 ) 0 
( -2.33897 3.64312 8.36348 ) 0 
( -1.30749 2.21008 9.33913 ) 0 
( -1.52969 4.83325 8.8293 ) 0 
( -2.22316 0.0127979 9.41898 ) 0 
( -4.7198 2.30235 9.0604 ) 0 
( -4.87375 0.39531 8.7863 ) 0 
( -4.90179 4.67796 8.47562 ) 0 
( -3.07241 2.1958 8.76894 ) 0 
( -0.345843 3.67873 8.69345 ) 0 
( -1.07723 3.16213 9.13837 ) 0 
( -0.35871 0.423592 8.83285 ) 0 
( -4.43084 1.19129 8.34268 ) 0 
( -3.04494 2.48848 9.72466 ) 0 
( -3.10831 0.503179 9.73652 ) 0 
( -1.74766 3.90377 9.12642 ) 0 
( -2.49406 4.59321 8.7193 ) 0 
( -4.39162 4.10295 9.12412 ) 0 
( -3.91221 1.71423 9.01902 ) 0 
( -2.24977 1.71202 9.06739 ) 0 
( -0.513124 1.62704 9.50892 ) 0 
( -2.30559 3.16114 9.75293 ) 0 
( -3.924 0.731996 9.20547 ) 0 
( -0.826433 4.0876 9.46915 ) 0 
( -2.9745 3.16974 8.97316 ) 0 
( -1.39251 1.21851 9.24274 ) 0 
( -1.99991 1.94038 10.0083 ) 0 
( -3.58643 3.68405 9.57387 ) 0 
( -2.87403 1.94797 10.5484 ) 0 
( -3.86146 2.78624 9.23016 ) 0 
( -0.532321 0.873395 10.1658 ) 0 
( -0.465233 2.60947 9.70389 ) 0 
( -4.80121 1.3263 9.26166 ) 0 
( -1.39129 0.399683 9.81672 ) 0 
( -4.07848 0.22394 10.0527 ) 0 
( -2.66539 4.07299 9.55581 ) 0 
( -1.61797 4.15751 10.0848 ) 0 
( -2.2248 0.971357 9.73872 ) 0 
( -1.51853 1.16567 10.4467 ) 0 
( -4.26741 4.97692 9.59375 ) 0 
( -1.38389 2.92442 10.0599 ) 0 
( -3.36147 1.47067 9.81729 ) 0 
( -3.09319 3.29828 10.3535 ) 0 
( -2.43801 4.68962 10.3094 ) 0 
( -4.06292 3.09196 10.2237 ) 0 
( -4.08316 1.31973 10.4928 ) 0 
( -0.970608 4.18871 10.8463 ) 0 
( -1.14724 0.173396 10.7596 ) 0 
( -2.20185 3.60916 10.6833 ) 0 
( -0.365904 3.50312 10.1412 ) 0 
( -1.02362 2.01972 10.2871 ) 0 
( -4.87231 0.827655 10.1254 ) 0 
( -0.0860886 4.41571 10.439 ) 0 
( -4.18869 2.11309 9.89324 ) 0 
( -3.41187 4.53541 10.0685 ) 0 
( -2.14971 2.6119 10.7339 ) 0 
( -4.75131 3.19687 9.50611 ) 0 
( -2.83681 3.15686 11.3096 ) 0 
( -4.97093 2.77863 10.5015 ) 0 
( -3.83801 3.22264 11.1892 ) 0 
( -0.14553 2.57925 10.6508 ) 0 
( -2.78265 0.952387 10.5684 ) 0 
( -4.28779 4.06518 10.1761 ) 0 
( -4.38912 0.37742 10.9907 ) 0 
( -3.52321 1.65515 11.2503 ) 0 
( -2.07947 1.68166 11.0939 ) 0 
( -1.89533 4.4568 11.1163 ) 0 
( -4.15597 2.33038 10.8687 ) 0 
( -3.0254 4.13385 10.8987 ) 0 
( -0.926813 3.19165 10.9082 ) 0 
( -1.31336 2.3159 11.1972 ) 0 
( -0.789407 1.0354 11.1185 ) 0 
( -4.38541 4.0625 11.1712 ) 0 
( -3.50213 0.660895 11.355 ) 0 
( -3.44447 2.50764 11.767 ) 0 
( -3.44826 3.92806 11.7812 ) 0 
( -4.99114 1.16177 11.1398 ) 0 
( -4.60275 4.94369 10.5352 ) 0 
( -2.00653 0.570454 11.085 ) 0 
( -0.129556 3.09717 11.506 ) 0 
( -2.90533 4.76183 11.6811 ) 0 
( -1.65624 3.50719 11.5151 ) 0 
( -0.476038 4.99187 11.5247 ) 0 
( -0.0723215 4.08796 11.3836 ) 0 
( -0.230098 0.207371 11.1566 ) 0 
( -4.46389 2.58457 11.7855 ) 0 
( -4.59198 0.682205 11.9212 ) 0 
( -3.94248 4.7927 11.6914 ) 0 
( -4.24698 1.62061 11.9394 ) 0 
( -2.48373 3.78498 12.003 ) 0 
( -4.33955 3.547 12.0268 ) 0 
( -1.13333 2.61987 12.1327 ) 0 
( -1.37363 1.50552 11.78 ) 0 
( -1.09417 4.26977 11.8353 ) 0 
( -0.163208 2.39106 12.2133 ) 0 
( -0.184022 1.34118 12.1413 ) 0 
( -0.238992 4.14956 12.3677 ) 0 
( -0.738182 0.505206 11.9648 ) 0 
( -2.69214 1.14992 11.6785 ) 0 
( -0.407083 1.92673 11.3619 ) 0 
( -2.01598 4.66009 12.1268 ) 0 
( -1.27703 4.52047 12.7859 ) 0 
( -1.01151 1.36921 12.7021 ) 0 
( -2.09548 2.63544 11.7321 ) 0 
( -4.94807 2.96961 12.5712 ) 0 
( -1.51089 0.506111 12.5995 ) 0 
( -3.49875 3.21071 12.476 ) 0 
( -2.19993 1.79467 12.2633 ) 0 
( -3.51344 4.66414 12.5854 ) 0 
( -1.01665 3.5377 12.5121 ) 0 
)
