/*--------------------------------*- C++ -*----------------------------------*\
| =========                 |                                                 |
| \\      /  F ield         | OpenFOAM: The Open Source CFD Toolbox           |
|  \\    /   O peration     | Version:  5.x                                   |
|   \\  /    A nd           | Web:      www.OpenFOAM.org                      |
|    \\/     M anipulation  |                                                 |
\*---------------------------------------------------------------------------*/
FoamFile
{
    version     2.0;
    format      ascii;
    class       volVectorField;
    location    "400";
    object      stored_U;
}
// * * * * * * * * * * * * * * * * * * * * * * * * * * * * * * * * * * * * * //

dimensions      [0 1 -1 0 0 0 0];

internalField   nonuniform List<vector> 
90
(
(0.0315896 -0.0521858 -4.64692)
(0.0327886 -0.0546485 -4.64415)
(0.0357103 -0.0592971 -4.63592)
(0.0379051 -0.0664111 -4.6348)
(0.0401553 -0.0756702 -4.62999)
(0.0421469 -0.0861839 -4.62485)
(0.0438348 -0.0971451 -4.61728)
(0.045052 -0.109401 -4.60969)
(0.0457216 -0.122024 -4.60012)
(0.0461704 -0.134831 -4.58923)
(0.0464567 -0.147824 -4.57701)
(0.0466096 -0.160837 -4.56343)
(0.046725 -0.173882 -4.54863)
(0.04683 -0.186976 -4.53269)
(0.0469595 -0.200115 -4.51571)
(0.0471014 -0.213353 -4.49777)
(0.0472098 -0.226735 -4.47898)
(0.0472578 -0.240268 -4.45939)
(0.047195 -0.253976 -4.43909)
(0.0469838 -0.267851 -4.41812)
(0.0465772 -0.281881 -4.39655)
(0.045936 -0.296028 -4.37442)
(0.0450574 -0.310226 -4.35179)
(0.0439627 -0.324387 -4.32872)
(0.0426793 -0.338415 -4.30528)
(0.0412862 -0.352164 -4.28154)
(0.039894 -0.365487 -4.25763)
(0.0386338 -0.378221 -4.23368)
(0.0376702 -0.390195 -4.20984)
(0.0371808 -0.401236 -4.18631)
(0.037356 -0.411166 -4.16328)
(0.0383815 -0.419812 -4.14098)
(0.0404275 -0.42701 -4.11966)
(0.0436347 -0.43261 -4.09956)
(0.0481022 -0.436482 -4.08093)
(0.0538781 -0.438519 -4.06401)
(0.0609538 -0.438644 -4.04902)
(0.0692622 -0.436809 -4.03618)
(0.0786809 -0.433002 -4.02566)
(0.0890387 -0.427246 -4.01759)
(0.100126 -0.419602 -4.0121)
(0.111707 -0.410163 -4.00924)
(0.123531 -0.399059 -4.00904)
(0.135347 -0.38645 -4.0115)
(0.146913 -0.37253 -4.01659)
(0.158003 -0.357518 -4.02422)
(0.168412 -0.341659 -4.03429)
(0.177955 -0.325218 -4.04668)
(0.186473 -0.308475 -4.06123)
(0.193819 -0.291722 -4.07776)
(0.19985 -0.275257 -4.09605)
(0.204434 -0.259375 -4.11585)
(0.207449 -0.24435 -4.13683)
(0.208789 -0.230452 -4.15866)
(0.208392 -0.21794 -4.18094)
(0.206262 -0.207033 -4.20324)
(0.202471 -0.197886 -4.22514)
(0.197129 -0.190574 -4.24621)
(0.190338 -0.185073 -4.26606)
(0.182173 -0.181261 -4.28431)
(0.172732 -0.178937 -4.30062)
(0.162163 -0.177836 -4.31469)
(0.150644 -0.177663 -4.32631)
(0.138385 -0.178113 -4.33532)
(0.125608 -0.178907 -4.34161)
(0.112537 -0.179798 -4.34513)
(0.0993927 -0.180581 -4.34586)
(0.0863854 -0.181094 -4.34383)
(0.073712 -0.181217 -4.33907)
(0.0615532 -0.180873 -4.33164)
(0.0500714 -0.180025 -4.32163)
(0.0394086 -0.178672 -4.30911)
(0.0296851 -0.176844 -4.29418)
(0.0209973 -0.174609 -4.27693)
(0.0134109 -0.172071 -4.25747)
(0.00696182 -0.16937 -4.23586)
(0.00165555 -0.166603 -4.21216)
(-0.00253367 -0.163562 -4.18644)
(-0.00562789 -0.159834 -4.15872)
(-0.00762119 -0.155099 -4.12907)
(-0.00848431 -0.149129 -4.09766)
(-0.00817018 -0.141707 -4.06469)
(-0.00661862 -0.132632 -4.03037)
(-0.00376769 -0.121695 -3.99476)
(0.000418625 -0.108716 -3.95803)
(0.00577809 -0.0939455 -3.92142)
(0.0127456 -0.0760296 -3.88713)
(0.0216979 -0.0537329 -3.85583)
(0.0324019 -0.0266995 -3.81514)
(0.0384574 -0.011082 -3.76919)
)
;

boundaryField
{
    inlet
    {
        type            calculated;
        value           uniform (0.0384574 -0.011082 -3.76919);
    }
    outlet
    {
        type            calculated;
        value           uniform (0.0315896 -0.0521858 -4.64692);
    }
    repeat_boundary
    {
        type            calculated;
        value           nonuniform List<vector> 
180
(
(0.0315896 0 -4.64692)
(0.0327886 0 -4.64415)
(0.0357103 0 -4.63592)
(0.0379051 0 -4.6348)
(0.0401553 0 -4.62999)
(0.0421469 0 -4.62485)
(0.0438348 0 -4.61728)
(0.045052 0 -4.60969)
(0.0457216 0 -4.60012)
(0.0461704 0 -4.58923)
(0.0464567 0 -4.57701)
(0.0466096 0 -4.56343)
(0.046725 0 -4.54863)
(0.04683 0 -4.53269)
(0.0469595 0 -4.51571)
(0.0471014 0 -4.49777)
(0.0472098 0 -4.47898)
(0.0472578 0 -4.45939)
(0.047195 0 -4.43909)
(0.0469838 0 -4.41812)
(0.0465772 0 -4.39655)
(0.045936 0 -4.37442)
(0.0450574 0 -4.35179)
(0.0439627 0 -4.32872)
(0.0426793 0 -4.30528)
(0.0412862 0 -4.28154)
(0.039894 0 -4.25763)
(0.0386338 0 -4.23368)
(0.0376702 0 -4.20984)
(0.0371808 0 -4.18631)
(0.037356 0 -4.16328)
(0.0383815 0 -4.14098)
(0.0404275 0 -4.11966)
(0.0436347 0 -4.09956)
(0.0481022 0 -4.08093)
(0.0538781 0 -4.06401)
(0.0609538 0 -4.04902)
(0.0692622 0 -4.03618)
(0.0786809 0 -4.02566)
(0.0890387 0 -4.01759)
(0.100126 0 -4.0121)
(0.111707 0 -4.00924)
(0.123531 0 -4.00904)
(0.135347 0 -4.0115)
(0.146913 0 -4.01659)
(0.158003 0 -4.02422)
(0.168412 0 -4.03429)
(0.177955 0 -4.04668)
(0.186473 0 -4.06123)
(0.193819 0 -4.07776)
(0.19985 0 -4.09605)
(0.204434 0 -4.11585)
(0.207449 0 -4.13683)
(0.208789 0 -4.15866)
(0.208392 0 -4.18094)
(0.206262 0 -4.20324)
(0.202471 0 -4.22514)
(0.197129 0 -4.24621)
(0.190338 0 -4.26606)
(0.182173 0 -4.28431)
(0.172732 0 -4.30062)
(0.162163 0 -4.31469)
(0.150644 0 -4.32631)
(0.138385 0 -4.33532)
(0.125608 0 -4.34161)
(0.112537 0 -4.34513)
(0.0993927 0 -4.34586)
(0.0863854 0 -4.34383)
(0.073712 0 -4.33907)
(0.0615532 0 -4.33164)
(0.0500714 0 -4.32163)
(0.0394086 0 -4.30911)
(0.0296851 0 -4.29418)
(0.0209973 0 -4.27693)
(0.0134109 0 -4.25747)
(0.00696182 0 -4.23586)
(0.00165555 0 -4.21216)
(-0.00253367 0 -4.18644)
(-0.00562789 0 -4.15872)
(-0.00762119 0 -4.12907)
(-0.00848431 0 -4.09766)
(-0.00817018 0 -4.06469)
(-0.00661862 0 -4.03037)
(-0.00376769 0 -3.99476)
(0.000418625 0 -3.95803)
(0.00577809 0 -3.92142)
(0.0127456 0 -3.88713)
(0.0216979 0 -3.85583)
(0.0324019 0 -3.81514)
(0.0384574 0 -3.76919)
(0 -0.0521858 -4.64692)
(0 -0.0546485 -4.64415)
(0 -0.0592971 -4.63592)
(0 -0.0664111 -4.6348)
(0 -0.0756702 -4.62999)
(0 -0.0861839 -4.62485)
(0 -0.0971451 -4.61728)
(0 -0.109401 -4.60969)
(0 -0.122024 -4.60012)
(0 -0.134831 -4.58923)
(0 -0.147824 -4.57701)
(0 -0.160837 -4.56343)
(0 -0.173882 -4.54863)
(0 -0.186976 -4.53269)
(0 -0.200115 -4.51571)
(0 -0.213353 -4.49777)
(0 -0.226735 -4.47898)
(0 -0.240268 -4.45939)
(0 -0.253976 -4.43909)
(0 -0.267851 -4.41812)
(0 -0.281881 -4.39655)
(0 -0.296028 -4.37442)
(0 -0.310226 -4.35179)
(0 -0.324387 -4.32872)
(0 -0.338415 -4.30528)
(0 -0.352164 -4.28154)
(0 -0.365487 -4.25763)
(0 -0.378221 -4.23368)
(0 -0.390195 -4.20984)
(0 -0.401236 -4.18631)
(0 -0.411166 -4.16328)
(0 -0.419812 -4.14098)
(0 -0.42701 -4.11966)
(0 -0.43261 -4.09956)
(0 -0.436482 -4.08093)
(0 -0.438519 -4.06401)
(0 -0.438644 -4.04902)
(0 -0.436809 -4.03618)
(0 -0.433002 -4.02566)
(0 -0.427246 -4.01759)
(0 -0.419602 -4.0121)
(0 -0.410163 -4.00924)
(0 -0.399059 -4.00904)
(0 -0.38645 -4.0115)
(0 -0.37253 -4.01659)
(0 -0.357518 -4.02422)
(0 -0.341659 -4.03429)
(0 -0.325218 -4.04668)
(0 -0.308475 -4.06123)
(0 -0.291722 -4.07776)
(0 -0.275257 -4.09605)
(0 -0.259375 -4.11585)
(0 -0.24435 -4.13683)
(0 -0.230452 -4.15866)
(0 -0.21794 -4.18094)
(0 -0.207033 -4.20324)
(0 -0.197886 -4.22514)
(0 -0.190574 -4.24621)
(0 -0.185073 -4.26606)
(0 -0.181261 -4.28431)
(0 -0.178937 -4.30062)
(0 -0.177836 -4.31469)
(0 -0.177663 -4.32631)
(0 -0.178113 -4.33532)
(0 -0.178907 -4.34161)
(0 -0.179798 -4.34513)
(0 -0.180581 -4.34586)
(0 -0.181094 -4.34383)
(0 -0.181217 -4.33907)
(0 -0.180873 -4.33164)
(0 -0.180025 -4.32163)
(0 -0.178672 -4.30911)
(0 -0.176844 -4.29418)
(0 -0.174609 -4.27693)
(0 -0.172071 -4.25747)
(0 -0.16937 -4.23586)
(0 -0.166603 -4.21216)
(0 -0.163562 -4.18644)
(0 -0.159834 -4.15872)
(0 -0.155099 -4.12907)
(0 -0.149129 -4.09766)
(0 -0.141707 -4.06469)
(0 -0.132632 -4.03037)
(0 -0.121695 -3.99476)
(0 -0.108716 -3.95803)
(0 -0.0939455 -3.92142)
(0 -0.0760296 -3.88713)
(0 -0.0537329 -3.85583)
(0 -0.0266995 -3.81514)
(0 -0.011082 -3.76919)
)
;
    }
    procBoundary0to1
    {
        type            processor;
        value           nonuniform List<vector> 
90
(
(-0.0161416 -0.0504294 -4.61314)
(-0.0169939 -0.0534067 -4.59987)
(-0.0173838 -0.059816 -4.59172)
(-0.0169794 -0.0671937 -4.58064)
(-0.0162935 -0.0752655 -4.56867)
(-0.0151354 -0.084357 -4.55492)
(-0.013654 -0.0945622 -4.53971)
(-0.0120176 -0.105439 -4.5228)
(-0.010213 -0.117472 -4.50415)
(-0.00809933 -0.13091 -4.48337)
(-0.00557187 -0.144465 -4.46007)
(-0.00266667 -0.157749 -4.4342)
(0.000677719 -0.170924 -4.40588)
(0.00443318 -0.184021 -4.37508)
(0.00856918 -0.197062 -4.34188)
(0.0130149 -0.209998 -4.30626)
(0.017677 -0.222783 -4.26826)
(0.022456 -0.235296 -4.22793)
(0.0272526 -0.247433 -4.18535)
(0.0319541 -0.259067 -4.14064)
(0.036442 -0.270108 -4.09396)
(0.0406486 -0.280535 -4.04548)
(0.0445434 -0.290237 -3.9954)
(0.0480736 -0.298981 -3.94393)
(0.0512263 -0.306833 -3.89128)
(0.0540728 -0.313754 -3.83772)
(0.0566555 -0.319669 -3.78336)
(0.0590734 -0.324606 -3.72842)
(0.0614308 -0.328518 -3.67298)
(0.0638498 -0.331416 -3.61713)
(0.0664586 -0.33328 -3.5609)
(0.0693845 -0.334107 -3.50426)
(0.072749 -0.333875 -3.44717)
(0.0766615 -0.332557 -3.38955)
(0.0812154 -0.33011 -3.33128)
(0.086485 -0.326476 -3.27226)
(0.0925231 -0.32158 -3.21237)
(0.0993602 -0.315335 -3.15154)
(0.107004 -0.307643 -3.0897)
(0.115441 -0.298404 -3.02686)
(0.124637 -0.287524 -2.96306)
(0.13454 -0.274929 -2.89838)
(0.145085 -0.260573 -2.83299)
(0.156196 -0.244451 -2.76709)
(0.167793 -0.226612 -2.70093)
(0.179794 -0.207166 -2.63481)
(0.192116 -0.186287 -2.56905)
(0.20468 -0.164222 -2.50398)
(0.217411 -0.141283 -2.43993)
(0.230192 -0.117961 -2.37724)
(0.242904 -0.0947621 -2.3162)
(0.255435 -0.072178 -2.25711)
(0.267653 -0.0507301 -2.20005)
(0.279646 -0.0300133 -2.14523)
(0.291363 -0.0103503 -2.0927)
(0.302743 0.00766594 -2.04255)
(0.313767 0.0234056 -1.99535)
(0.324226 0.0363997 -1.95064)
(0.333771 0.0465294 -1.9076)
(0.342123 0.0539269 -1.86626)
(0.349064 0.0587854 -1.82646)
(0.354446 0.0612846 -1.788)
(0.35817 0.0616052 -1.75078)
(0.360188 0.059909 -1.71471)
(0.360493 0.0563468 -1.67975)
(0.359115 0.0510538 -1.64584)
(0.356112 0.0441436 -1.61296)
(0.351564 0.0357129 -1.58108)
(0.345566 0.0258507 -1.55016)
(0.338229 0.0146528 -1.52017)
(0.32967 0.00223736 -1.49106)
(0.320012 -0.011241 -1.46279)
(0.30938 -0.0255828 -1.43534)
(0.297904 -0.0404994 -1.40869)
(0.28571 -0.0555297 -1.38284)
(0.272907 -0.0700136 -1.35792)
(0.259565 -0.0833636 -1.33418)
(0.245696 -0.0955168 -1.31197)
(0.231277 -0.106852 -1.29162)
(0.21632 -0.117799 -1.27342)
(0.200893 -0.128739 -1.25756)
(0.185129 -0.14001 -1.2442)
(0.169224 -0.151896 -1.23343)
(0.153422 -0.164638 -1.22523)
(0.137951 -0.178472 -1.21943)
(0.122975 -0.193688 -1.21587)
(0.109016 -0.2105 -1.21564)
(0.0968203 -0.229488 -1.22138)
(0.0873194 -0.249172 -1.23081)
(0.0791475 -0.265315 -1.21721)
)
;
    }
    procBoundary0to2
    {
        type            processor;
        value           nonuniform List<vector> 
90
(
(0.0372953 0.00290573 -4.79569)
(0.0395517 0.00322961 -4.79916)
(0.0427672 0.00208289 -4.81978)
(0.0461222 0.00121029 -4.82762)
(0.0538659 -0.00192066 -4.83168)
(0.0618995 -0.0062124 -4.85229)
(0.0699908 -0.0101563 -4.8698)
(0.0780846 -0.0139548 -4.89107)
(0.0858788 -0.0177502 -4.91495)
(0.0931451 -0.0212987 -4.94172)
(0.10092 -0.0243832 -4.97107)
(0.109525 -0.0269594 -5.00362)
(0.118772 -0.0289292 -5.03918)
(0.128661 -0.0303205 -5.07782)
(0.139105 -0.0310491 -5.11985)
(0.150047 -0.0310632 -5.16498)
(0.161401 -0.0303147 -5.2136)
(0.173076 -0.0286962 -5.26549)
(0.184984 -0.0261277 -5.32086)
(0.197018 -0.0225099 -5.37959)
(0.208986 -0.0177571 -5.44173)
(0.220631 -0.0118082 -5.50709)
(0.231784 -0.0045993 -5.57561)
(0.242413 0.00391123 -5.64715)
(0.252147 0.0137087 -5.72144)
(0.260797 0.0247573 -5.79822)
(0.268257 0.0369639 -5.87716)
(0.274358 0.0501884 -5.95793)
(0.279127 0.0642444 -6.04019)
(0.282598 0.0788908 -6.12359)
(0.284959 0.0938407 -6.20781)
(0.286483 0.108762 -6.29258)
(0.287562 0.123292 -6.37768)
(0.288675 0.137047 -6.46297)
(0.290362 0.149636 -6.5484)
(0.29318 0.160683 -6.63399)
(0.297647 0.169841 -6.71988)
(0.304179 0.176802 -6.80627)
(0.313028 0.181317 -6.89343)
(0.324224 0.183201 -6.98167)
(0.337543 0.182338 -7.07132)
(0.352493 0.178689 -7.16268)
(0.36833 0.172284 -7.25601)
(0.384107 0.163221 -7.35149)
(0.398752 0.151654 -7.44919)
(0.411156 0.137785 -7.54906)
(0.420259 0.121849 -7.65097)
(0.425128 0.104101 -7.75466)
(0.425018 0.0847846 -7.85979)
(0.419404 0.0641191 -7.96596)
(0.407989 0.0422734 -8.07273)
(0.3907 0.0193602 -8.17968)
(0.367675 -0.00455575 -8.2864)
(0.339253 -0.0294353 -8.39251)
(0.30595 -0.0552218 -8.49768)
(0.268418 -0.081796 -8.60168)
(0.227398 -0.108935 -8.70429)
(0.183698 -0.136295 -8.80534)
(0.138171 -0.163422 -8.90471)
(0.0916796 -0.1898 -9.00228)
(0.0450252 -0.214913 -9.09795)
(-0.0011144 -0.238316 -9.19162)
(-0.0462067 -0.25968 -9.28316)
(-0.0898865 -0.278812 -9.37247)
(-0.131926 -0.295648 -9.45937)
(-0.172216 -0.310232 -9.54368)
(-0.210727 -0.322686 -9.62525)
(-0.247467 -0.333189 -9.7039)
(-0.282452 -0.341958 -9.77947)
(-0.315671 -0.349231 -9.85184)
(-0.347078 -0.35525 -9.92091)
(-0.376577 -0.36024 -9.98665)
(-0.404027 -0.364399 -10.049)
(-0.429252 -0.367897 -10.1082)
(-0.452025 -0.370892 -10.1645)
(-0.472094 -0.373558 -10.218)
(-0.489425 -0.376099 -10.2686)
(-0.504662 -0.378741 -10.318)
(-0.518464 -0.381405 -10.3662)
(-0.531342 -0.38396 -10.4136)
(-0.543642 -0.38635 -10.4602)
(-0.555625 -0.388518 -10.506)
(-0.567478 -0.390444 -10.5511)
(-0.579318 -0.392064 -10.5955)
(-0.591226 -0.393386 -10.6392)
(-0.603249 -0.394399 -10.6816)
(-0.615512 -0.394771 -10.7211)
(-0.62842 -0.393968 -10.759)
(-0.641971 -0.392355 -10.805)
(-0.648759 -0.392431 -10.8383)
)
;
    }
}


// ************************************************************************* //
