FoamFile
{version 2.0; format ascii;class vectorField; location 0;object  v;}
352
(
( 3.11487e-06 4.09665e-06 1.5498e-06 )  
( 6.67091e-06 8.49597e-06 1.29182e-06 )  
( 5.63971e-07 -4.63233e-06 5.57426e-07 )  
( -2.7862e-06 -8.34292e-06 -4.80737e-09 )  
( 9.42295e-07 3.01383e-06 -5.80351e-07 )  
( 1.68832e-06 2.3866e-06 -1.17915e-06 )  
( 2.81392e-06 3.58851e-06 8.28741e-07 )  
( 2.13811e-06 1.67311e-06 9.97658e-07 )  
( 2.11761e-06 1.95277e-06 5.51714e-07 )  
( 1.24176e-05 1.56598e-05 1.2591e-14 )  
( 2.96227e-06 2.50666e-06 4.3122e-07 )  
( 1.88105e-06 3.17611e-06 -2.84898e-07 )  
( 5.82368e-07 5.70501e-06 1.30514e-06 )  
( 1.32561e-06 1.70707e-06 2.13241e-06 )  
( 3.0406e-07 6.05397e-06 -3.93981e-08 )  
( 8.20024e-06 -5.25301e-06 5.07061e-10 )  
( 5.55798e-06 5.78041e-06 -1.23615e-06 )  
( 4.46613e-06 6.5836e-06 2.92352e-06 )  
( 4.84892e-06 4.84228e-06 2.61987e-07 )  
( 2.50464e-05 1.19978e-05 -7.67913e-15 )  
( 5.37056e-06 8.26001e-06 8.67888e-07 )  
( 2.90377e-06 2.24743e-06 5.01212e-07 )  
( 4.14913e-06 2.99393e-06 1.98722e-06 )  
( 2.85551e-06 1.44066e-06 -7.77943e-08 )  
( 2.06037e-06 3.86695e-06 2.05256e-06 )  
( 1.95345e-06 5.41433e-06 1.44795e-06 )  
( 3.38741e-06 7.24273e-06 -1.90942e-06 )  
( 1.41533e-06 1.1621e-06 1.0533e-06 )  
( 6.91473e-06 4.81611e-06 -2.02121e-06 )  
( 7.75182e-07 4.35014e-06 1.68997e-06 )  
( 3.08626e-06 8.46356e-06 -5.1262e-07 )  
( 4.35598e-06 4.73246e-06 -2.92995e-08 )  
( 6.95979e-06 5.38597e-06 3.70295e-06 )  
( 2.71615e-06 1.03337e-05 6.87748e-06 )  
( 4.28422e-06 -9.1238e-07 6.52955e-06 )  
( 3.99168e-06 4.18145e-06 1.80118e-06 )  
( 5.13236e-06 5.50982e-06 -1.75049e-07 )  
( 8.06613e-06 1.10669e-05 4.76846e-07 )  
( 5.94821e-06 5.21078e-06 2.24823e-06 )  
( 5.94202e-06 4.66104e-06 3.25451e-07 )  
( 5.28955e-06 5.02784e-06 8.37207e-07 )  
( 3.57718e-06 5.51636e-06 2.41986e-06 )  
( 4.03673e-06 7.42388e-06 3.0326e-06 )  
( 6.89634e-06 4.52077e-06 4.80845e-06 )  
( 5.52139e-06 1.62846e-06 5.05215e-06 )  
( 9.34078e-06 6.0083e-07 5.96548e-06 )  
( 6.98536e-06 7.77177e-06 5.4027e-06 )  
( 5.93902e-06 9.65666e-06 6.48918e-06 )  
( 8.28199e-06 1.74051e-06 7.38549e-06 )  
( 5.21482e-06 6.76107e-06 5.5818e-07 )  
( 6.61969e-06 6.6194e-06 1.45341e-06 )  
( 3.26809e-06 4.73245e-06 1.67629e-06 )  
( 4.18692e-06 7.39551e-06 4.13876e-06 )  
( 1.6783e-06 5.9251e-06 -1.03231e-06 )  
( 7.23957e-06 5.17668e-06 2.56009e-06 )  
( 9.69459e-06 5.09396e-06 3.46337e-06 )  
( 7.2264e-06 7.28274e-06 8.94832e-07 )  
( 2.28238e-06 9.35265e-06 2.87209e-06 )  
( 8.30594e-06 6.42055e-06 3.97548e-06 )  
( 8.35677e-06 4.25765e-06 5.86866e-06 )  
( 5.42011e-06 5.91933e-06 5.21649e-06 )  
( 1.77033e-06 1.6213e-06 8.68665e-07 )  
( 9.57972e-06 5.66292e-06 6.48305e-06 )  
( 1.38208e-05 3.99827e-06 -3.73107e-08 )  
( 6.38988e-06 6.22363e-06 1.56673e-06 )  
( 4.99799e-06 2.26878e-06 5.90731e-06 )  
( 7.66434e-06 5.65999e-06 2.30344e-07 )  
( 7.30951e-06 5.98254e-06 4.02301e-06 )  
( 3.36423e-06 5.7073e-06 2.80442e-06 )  
( 7.91451e-06 6.09366e-06 3.27453e-06 )  
( 7.89707e-06 3.26306e-06 5.29868e-06 )  
( 1.01473e-05 1.40467e-05 3.93872e-06 )  
( 9.44339e-06 3.07514e-06 6.45226e-06 )  
( 7.72135e-06 2.09678e-06 2.84943e-06 )  
( 7.11209e-06 6.84191e-06 7.81412e-06 )  
( 4.91176e-06 6.2012e-06 5.62676e-06 )  
( 8.65513e-06 6.03874e-06 2.90205e-06 )  
( 7.27014e-06 4.87492e-06 3.61511e-06 )  
( 5.46895e-06 3.54142e-06 -1.0045e-06 )  
( 5.5422e-06 5.43396e-06 5.77045e-06 )  
( 1.00576e-05 8.69377e-06 8.73376e-06 )  
( 4.58011e-06 5.67166e-06 6.4523e-06 )  
( 1.57775e-05 7.07575e-06 9.38978e-06 )  
( 9.35659e-06 6.54893e-06 6.26421e-06 )  
( 6.37224e-06 6.6272e-06 4.82269e-06 )  
( 7.42602e-06 7.90792e-06 1.04408e-05 )  
( 1.1403e-05 7.08177e-06 9.2591e-06 )  
( 1.20062e-05 3.40708e-06 6.56938e-06 )  
( 8.96905e-06 5.85518e-06 4.72403e-06 )  
( 6.54708e-06 6.15306e-06 6.71328e-06 )  
( 7.25689e-06 5.7242e-06 3.49397e-06 )  
( 7.80433e-06 4.32761e-06 3.0891e-06 )  
( 1.01947e-05 6.10862e-06 8.11781e-06 )  
( 5.67825e-06 4.77282e-06 4.95064e-06 )  
( 5.92837e-06 3.60513e-06 3.54438e-06 )  
( 2.75225e-06 7.94261e-06 1.35573e-06 )  
( 1.13267e-05 7.86454e-06 8.85934e-06 )  
( 1.09006e-05 5.38249e-06 2.40461e-06 )  
( 6.80444e-06 1.05157e-05 8.75569e-06 )  
( 4.50652e-06 5.52321e-06 2.94884e-06 )  
( 8.67359e-06 6.653e-06 7.58099e-06 )  
( 8.38083e-06 5.88938e-06 9.56768e-07 )  
( 1.01941e-05 5.1507e-06 5.17286e-06 )  
( 1.05056e-05 5.67896e-06 9.30594e-06 )  
( 5.54908e-06 1.24202e-05 6.9695e-06 )  
( 9.58061e-06 5.2667e-06 3.71501e-06 )  
( 8.61016e-06 8.60692e-06 9.20803e-06 )  
( 6.93112e-06 4.40825e-06 2.97132e-06 )  
( 8.34364e-06 1.17266e-05 8.7195e-06 )  
( 1.22577e-05 1.02815e-05 1.23072e-05 )  
( 1.88345e-05 5.49395e-06 1.43526e-07 )  
( 1.28758e-05 7.87176e-06 3.31362e-06 )  
( 8.64697e-06 5.36882e-06 5.76828e-06 )  
( 9.77382e-06 5.18938e-06 4.29299e-06 )  
( 1.04197e-05 7.97741e-06 2.39049e-07 )  
( 8.69326e-06 6.89707e-06 1.15473e-05 )  
( 1.22402e-05 5.94179e-06 1.00889e-05 )  
( 1.07628e-05 9.21244e-06 8.54065e-06 )  
( 8.50068e-06 9.6317e-06 1.00612e-05 )  
( 1.98502e-05 5.42608e-06 9.18126e-06 )  
( 5.08665e-06 1.15744e-05 7.70707e-06 )  
( 1.16771e-05 2.9556e-06 1.06018e-06 )  
( 9.86399e-06 5.32438e-06 5.92186e-06 )  
( 7.8275e-06 8.59197e-06 9.97894e-06 )  
( 1.10031e-05 7.003e-06 1.92289e-06 )  
( 1.19353e-05 3.12027e-06 4.94988e-06 )  
( 4.08449e-06 6.57296e-06 1.13627e-05 )  
( 9.45839e-06 4.83952e-06 7.27878e-06 )  
( 1.20739e-05 6.19524e-06 1.44798e-05 )  
( 8.59349e-06 1.45835e-05 7.14358e-06 )  
( 6.7677e-06 4.79206e-06 3.16311e-06 )  
( 1.20457e-05 8.76345e-06 9.3185e-06 )  
( 1.20668e-05 9.75721e-06 7.77866e-06 )  
( 3.33557e-06 4.11789e-06 1.683e-05 )  
( 6.97863e-06 1.04751e-05 1.98166e-05 )  
( 1.05966e-05 6.27476e-06 7.42468e-06 )  
( 9.44985e-06 3.36956e-06 6.44201e-06 )  
( 1.04397e-05 9.14733e-06 4.41996e-06 )  
( 1.22504e-05 8.59664e-06 1.2238e-05 )  
( 1.45212e-05 2.57974e-06 3.71364e-06 )  
( 1.90845e-05 1.35895e-05 4.00538e-06 )  
( 8.14849e-06 4.09538e-06 1.03963e-06 )  
( 1.0616e-05 6.30012e-06 7.85732e-06 )  
( 1.60352e-05 8.16408e-06 1.30051e-05 )  
( 9.38172e-06 6.17986e-06 7.20765e-06 )  
( 1.6357e-05 8.60585e-06 -2.05609e-06 )  
( 2.51841e-05 1.05319e-05 1.73869e-05 )  
( 1.1307e-05 5.73096e-06 1.68494e-06 )  
( 1.465e-05 -2.56214e-06 6.01295e-06 )  
( 1.36713e-05 5.67263e-06 9.53637e-06 )  
( 1.21557e-06 1.0297e-05 1.19204e-05 )  
( 1.96836e-05 7.88512e-06 -2.36184e-06 )  
( 1.8668e-05 1.11493e-05 1.20195e-05 )  
( 1.06821e-05 7.55319e-06 6.65558e-06 )  
( 2.6153e-05 7.04053e-06 3.34223e-06 )  
( 1.16728e-05 1.15765e-05 8.61473e-06 )  
( 2.18301e-05 1.06232e-05 1.57661e-05 )  
( 1.29132e-05 2.06477e-07 2.92803e-06 )  
( 1.09462e-05 2.00632e-06 1.13986e-07 )  
( 3.60279e-05 4.46808e-07 2.04808e-06 )  
( 3.78266e-06 1.06031e-05 1.43101e-05 )  
( 1.79514e-05 -2.28041e-06 9.87717e-06 )  
( 2.61925e-05 -1.34608e-06 1.23291e-05 )  
( 1.70142e-05 1.69283e-05 1.02443e-05 )  
( 2.39143e-05 5.22679e-06 4.19498e-06 )  
( 2.90737e-05 1.56115e-05 1.00062e-05 )  
( 2.19286e-05 9.80931e-06 9.48355e-06 )  
( 1.97762e-05 4.37515e-06 1.57684e-05 )  
( 1.07548e-05 5.48839e-06 6.56589e-06 )  
( 2.94422e-05 5.32213e-06 5.23818e-06 )  
( 1.5719e-05 3.69747e-06 8.29368e-06 )  
( 2.1043e-05 1.06742e-05 7.14136e-06 )  
( 1.73905e-05 1.32646e-05 1.18961e-05 )  
( 1.51409e-05 5.92902e-06 5.85804e-06 )  
( 2.00948e-05 1.60618e-05 6.40717e-06 )  
( 1.96186e-05 1.2715e-05 1.2238e-05 )  
( 1.7898e-05 5.01103e-06 8.83049e-06 )  
( 1.41963e-05 -8.45705e-07 3.59273e-06 )  
( 1.2887e-05 1.03858e-06 1.33392e-05 )  
( 3.37955e-05 1.49432e-05 1.18558e-05 )  
( 1.83847e-05 1.70499e-05 1.23462e-05 )  
( 1.10901e-05 -2.37545e-06 6.32201e-06 )  
( 1.69922e-05 1.25349e-05 7.43383e-06 )  
( 1.47812e-05 1.53696e-05 7.8502e-06 )  
( 3.54005e-05 -2.668e-06 5.24905e-06 )  
( 1.91254e-05 -1.27225e-05 2.22194e-05 )  
( 5.90213e-06 3.72114e-06 3.25919e-06 )  
( 1.41218e-05 1.48441e-05 1.99707e-05 )  
( 1.6865e-05 2.61876e-05 -9.69072e-06 )  
( 6.46822e-06 -7.27027e-06 1.49977e-06 )  
( 9.84527e-06 -1.03979e-06 4.65864e-06 )  
( 1.51296e-05 1.22368e-05 1.24217e-05 )  
( 1.67282e-05 1.14716e-05 4.34259e-06 )  
( 1.58707e-05 6.41809e-06 7.33848e-06 )  
( 2.10715e-05 -5.17444e-06 1.07734e-05 )  
( 2.3679e-05 -7.56204e-06 1.55377e-05 )  
( 1.9408e-05 1.65359e-06 5.45276e-06 )  
( 1.96542e-05 -8.16666e-06 -1.34109e-05 )  
( 2.12405e-05 5.7539e-06 8.32811e-06 )  
( 1.81513e-05 2.73706e-05 1.78295e-05 )  
( 1.98229e-05 1.17325e-05 3.5168e-06 )  
( 7.01859e-06 2.49213e-05 -6.16336e-06 )  
( 1.18346e-05 3.62846e-06 6.23528e-06 )  
( 1.70104e-05 1.48288e-05 -3.27318e-06 )  
( 1.17368e-05 6.28716e-06 1.48218e-05 )  
( 1.85286e-05 9.01936e-06 5.45933e-06 )  
( 1.78109e-05 1.81599e-06 8.50045e-06 )  
( 1.75702e-05 9.85673e-06 5.36882e-06 )  
( 2.2747e-05 5.27038e-06 8.06155e-06 )  
( 1.14545e-05 9.93149e-06 1.20239e-06 )  
( 3.89446e-05 1.83604e-05 -8.31806e-06 )  
( 3.02438e-05 9.58194e-06 2.5052e-05 )  
( 2.3292e-05 7.16802e-06 1.39885e-05 )  
( 2.45422e-05 -1.32853e-06 -1.06212e-05 )  
( 2.03833e-05 5.41945e-06 1.13235e-05 )  
( 2.75419e-05 5.80015e-06 -6.67422e-06 )  
( 6.26381e-06 -3.91589e-06 -1.15437e-05 )  
( 1.44567e-05 4.74597e-06 1.21666e-05 )  
( 1.91271e-05 -2.73611e-06 -2.21479e-06 )  
( 1.52074e-05 6.67548e-06 4.40457e-06 )  
( 3.40889e-05 3.5627e-06 1.24656e-05 )  
( 1.21325e-05 1.82231e-05 7.39901e-06 )  
( 2.10488e-05 6.08024e-06 3.39077e-05 )  
( 4.8861e-06 7.89359e-06 9.55973e-06 )  
( 3.41813e-05 1.27102e-05 3.86303e-06 )  
( 1.41815e-05 1.08516e-05 -6.9096e-06 )  
( 3.37685e-05 -7.05253e-08 1.80807e-05 )  
( 1.84251e-05 2.70132e-06 -1.72037e-05 )  
( -7.98065e-06 4.83024e-05 -7.77645e-06 )  
( 3.13239e-05 6.38596e-06 1.23944e-05 )  
( 2.03937e-05 -2.28701e-06 9.29542e-06 )  
( 2.4577e-05 6.48362e-06 4.51659e-06 )  
( 2.23562e-05 -1.13174e-05 9.0989e-06 )  
( 2.85623e-05 6.02328e-06 3.54651e-06 )  
( 3.02652e-05 5.79209e-06 6.38397e-06 )  
( 3.02359e-05 4.28139e-06 1.44759e-05 )  
( 2.44825e-05 6.05389e-06 9.24926e-06 )  
( 2.35249e-05 -7.41123e-06 1.48772e-05 )  
( 3.49078e-05 7.5697e-06 3.29445e-05 )  
( 3.81009e-05 1.3988e-05 2.57303e-06 )  
( 4.71857e-05 1.26921e-05 -1.4373e-06 )  
( 2.01272e-05 8.27202e-06 5.56391e-06 )  
( 4.95684e-05 9.75514e-06 -2.75031e-05 )  
( 2.23138e-05 -4.95241e-05 -1.29091e-05 )  
( -1.75218e-05 -4.39096e-06 -2.09507e-05 )  
( 4.21659e-05 1.53589e-05 -6.18934e-06 )  
( -9.6785e-06 4.6599e-06 2.54655e-05 )  
( 5.63065e-06 -3.43583e-05 1.98481e-05 )  
( 2.19618e-05 -3.84066e-06 1.18967e-05 )  
( 1.94682e-05 9.07164e-06 2.20852e-05 )  
( 1.66431e-05 1.8708e-05 2.27012e-05 )  
( -0.000196063 -0.000223587 -0.00023743 )  
( 1.32359e-05 1.38149e-06 7.73311e-06 )  
( 9.12786e-06 -5.72484e-06 1.47424e-05 )  
( 3.64068e-05 3.41061e-06 -5.95213e-06 )  
( 2.09509e-05 -3.41633e-06 4.56325e-05 )  
( 4.00825e-05 -4.64365e-06 1.45948e-05 )  
( 4.09383e-06 -2.43205e-05 -2.82538e-06 )  
( 4.02436e-05 3.73238e-06 2.2273e-05 )  
( 4.83683e-05 -6.77486e-06 2.59573e-05 )  
( 4.03072e-05 -1.6352e-05 4.40146e-05 )  
( 9.37699e-05 -4.5588e-05 -1.2166e-05 )  
( 1.47302e-05 2.19087e-05 -1.22021e-06 )  
( 2.75298e-05 -8.73556e-06 2.61329e-05 )  
( 3.16546e-06 2.2579e-05 3.56444e-05 )  
( 4.5777e-05 2.24109e-05 5.32993e-06 )  
( 3.06208e-05 -1.02034e-05 2.65022e-05 )  
( 4.79124e-05 9.95986e-06 1.15466e-05 )  
( -7.08456e-06 -3.71265e-05 -3.53289e-07 )  
( 2.93644e-05 -1.15389e-05 7.59378e-06 )  
( -4.35186e-05 6.25689e-05 2.15869e-05 )  
( 4.20656e-05 3.20702e-06 2.36123e-05 )  
( 5.59571e-05 4.77705e-06 2.07235e-05 )  
( 3.28776e-05 1.6466e-05 3.15603e-05 )  
( 2.72026e-05 2.27312e-05 3.83243e-05 )  
( 4.80076e-05 1.45032e-06 1.39565e-05 )  
( -5.31917e-05 -4.20012e-05 -1.41951e-05 )  
( 1.55985e-05 -1.29978e-05 -1.51788e-05 )  
( -1.13149e-05 -1.96249e-05 -1.05233e-05 )  
( 5.00148e-05 2.42361e-05 5.56306e-08 )  
( 8.05978e-05 -4.40013e-05 4.846e-05 )  
( 3.42339e-05 1.95618e-05 -4.68721e-05 )  
( 6.61144e-06 -9.11128e-05 6.16996e-05 )  
( 3.5114e-05 1.42848e-05 3.90087e-06 )  
( 5.83782e-05 -2.55625e-05 2.52891e-05 )  
( 7.57567e-06 3.66158e-05 -1.04127e-05 )  
( 2.45375e-06 -3.27961e-05 -1.06233e-05 )  
( 4.19997e-05 -2.45034e-05 3.34611e-05 )  
( 6.20156e-05 4.92102e-05 1.62918e-05 )  
( 5.59592e-05 1.55151e-05 1.39384e-05 )  
( -7.98089e-05 -6.08747e-05 -1.27584e-05 )  
( -0.000118909 -4.26306e-05 5.46523e-06 )  
( 2.81475e-05 5.20085e-06 5.00293e-05 )  
( 1.43062e-05 -1.52781e-05 9.88914e-06 )  
( -8.22955e-05 -1.82715e-05 4.47777e-05 )  
( 2.48032e-05 5.42951e-05 -1.88945e-05 )  
( 5.44864e-05 -1.87421e-05 5.94901e-05 )  
( -1.43993e-05 1.42933e-05 -2.41794e-06 )  
( -5.66508e-05 1.11952e-05 8.15978e-05 )  
( -5.0481e-05 -7.83038e-05 7.48128e-05 )  
( 1.19236e-05 4.1994e-06 1.67717e-05 )  
( 3.38599e-05 -5.10829e-06 5.23808e-05 )  
( 0.00010493 2.47627e-05 -2.59567e-05 )  
( 5.98134e-05 1.86878e-05 2.60511e-05 )  
( 1.50802e-05 1.04304e-05 -4.59833e-06 )  
( 0.000422545 -0.000516147 -0.000207637 )  
( 3.28244e-05 2.24791e-05 5.73246e-06 )  
( -4.38568e-05 1.56283e-05 -8.6363e-05 )  
( 0.000127397 -9.97565e-05 6.09666e-05 )  
( -3.11674e-05 8.42042e-05 2.79475e-05 )  
( 0.0022702 0.00127754 -0.00202785 )  
( -2.44117e-05 0.000110724 -5.94045e-05 )  
( 5.12612e-05 1.20257e-06 -6.78705e-06 )  
( -0.000216947 -0.000635795 0.000101202 )  
( 4.35194e-05 -4.78377e-05 2.76921e-05 )  
( 0.000288328 -0.00014306 9.41783e-05 )  
( 3.01922e-05 -9.90804e-05 4.47488e-05 )  
( 7.43651e-05 -0.000121342 -6.57563e-05 )  
( 7.77193e-05 -0.000119 9.18463e-05 )  
( -2.87693e-05 -6.48921e-05 3.5032e-05 )  
( -5.0157e-05 3.78939e-05 -5.33944e-06 )  
( -2.99043e-05 -8.55526e-05 7.03782e-05 )  
( 0.000185951 -4.10016e-05 -1.69493e-05 )  
( -2.28297e-05 2.84496e-05 1.1957e-05 )  
( -6.8721e-06 8.04379e-05 -2.54579e-05 )  
( 1.43944e-05 -3.59162e-05 -2.82882e-06 )  
( 3.4054e-05 -2.23221e-05 -4.2511e-05 )  
( -8.88909e-05 -0.000138481 -5.42218e-06 )  
( -4.29703e-05 -6.02117e-05 5.02241e-05 )  
( 1.4513e-05 -0.000108217 1.9707e-05 )  
( -1.22177e-05 0.000291243 -1.93929e-05 )  
( 3.48463e-05 -0.000265975 1.96888e-05 )  
( -1.06441e-05 -0.000104156 4.29233e-05 )  
( -6.2737e-05 -1.56401e-05 5.04183e-05 )  
( 0.000220825 -7.51664e-05 -2.94343e-05 )  
( -7.18576e-05 -0.000271425 -2.8167e-05 )  
( 0.000239675 0.00039083 2.2129e-05 )  
( 0.000117979 0.000159679 -0.000202811 )  
( -1.28509e-05 -2.81607e-05 1.19219e-05 )  
( -9.53538e-05 -0.000407109 -0.00016911 )  
( -0.000486481 -0.000538813 -0.000323602 )  
( 7.05775e-05 -0.000395116 -5.85278e-05 )  
( 0.000217847 0.000188374 -0.000152377 )  
( 0.000102491 -0.000346034 -0.000251765 )  
( 0.000351146 -0.000516621 -0.00026115 )  
( 0.00017609 -7.00495e-06 -5.45169e-05 )  
( 1.44022e-05 -0.000137001 7.67328e-05 )  
( 0.000103926 0.000896601 -0.000566917 )  
( 0.000213443 -4.19536e-05 5.05966e-05 )  
( 0.000158902 -0.000576751 -0.000378999 )  
( -0.00119384 5.40257e-05 -0.00160074 )  
( 0.000120831 -0.000408929 0.000122511 )  
)
