FoamFile
{version 2.0; format ascii;class vectorField; location 0;object  v;}
350
(
( 2.06592e-06 -1.91351e-06 -9.27128e-08 )  
( 3.70762e-07 -3.79747e-06 -2.44846e-07 )  
( 1.77012e-06 -1.85098e-06 6.29258e-07 )  
( 2.33263e-06 -3.02801e-06 -1.93556e-06 )  
( 1.20497e-06 -3.99792e-06 1.05371e-06 )  
( 1.98166e-06 -3.07672e-06 5.18449e-07 )  
( 1.88676e-06 -3.63381e-06 -1.75142e-06 )  
( 5.51498e-06 -4.48801e-06 -2.81774e-06 )  
( 1.41097e-06 -4.58738e-06 -5.78394e-07 )  
( 1.71209e-06 -2.70299e-06 -2.44944e-06 )  
( 2.96165e-06 -2.16631e-06 5.87384e-07 )  
( 3.61794e-06 -4.79187e-06 3.25974e-07 )  
( 1.77315e-06 -3.20437e-06 -6.95317e-07 )  
( -1.76301e-06 -1.04645e-05 3.12856e-07 )  
( 1.38863e-06 -3.5119e-06 1.33579e-06 )  
( 2.4679e-06 -7.95404e-06 -2.26701e-06 )  
( 8.3194e-07 -2.42456e-06 -1.98341e-07 )  
( 3.84016e-06 -1.03132e-06 2.9329e-07 )  
( 2.07621e-06 -3.49398e-06 4.75794e-07 )  
( 2.23711e-06 -1.78909e-06 5.58246e-08 )  
( 4.88263e-06 -3.04662e-06 -4.71972e-07 )  
( 3.82109e-06 -4.43635e-06 4.92488e-07 )  
( 2.36801e-06 -5.30836e-06 -1.70651e-06 )  
( 9.19048e-07 -2.27671e-06 1.67685e-06 )  
( 3.31246e-06 -1.13848e-06 -1.25039e-06 )  
( 2.88024e-06 -4.54012e-06 9.74078e-07 )  
( 1.58426e-06 -2.96525e-06 -7.80845e-07 )  
( 4.60517e-06 -6.86482e-06 -1.60834e-06 )  
( 4.87435e-06 -5.27161e-06 -4.73507e-06 )  
( 2.0263e-06 -2.18118e-06 8.96183e-07 )  
( 4.18509e-06 -4.37234e-06 1.42343e-06 )  
( 5.03783e-06 -3.61571e-06 1.89513e-06 )  
( 5.24485e-06 -4.24022e-06 2.12233e-06 )  
( 4.34724e-06 -6.94124e-06 -3.02239e-06 )  
( 4.08097e-06 -4.92899e-06 -3.03289e-07 )  
( 4.7673e-06 -4.03337e-06 -1.88467e-07 )  
( 6.21524e-06 -2.77588e-06 7.96266e-07 )  
( 4.35067e-06 -3.53305e-06 -2.70497e-06 )  
( 7.18329e-06 -5.26649e-06 2.72992e-06 )  
( 2.80187e-06 -7.14284e-06 -2.24614e-06 )  
( 4.68622e-06 -7.21561e-06 2.83932e-07 )  
( 3.79247e-06 -1.22381e-05 -9.84872e-07 )  
( 4.65011e-06 -3.11486e-06 6.60127e-07 )  
( 2.49377e-06 -5.1391e-06 -7.94579e-07 )  
( 9.8691e-07 -3.13626e-06 2.94199e-06 )  
( 3.29479e-06 -8.41749e-06 -4.8503e-08 )  
( 7.21491e-06 -5.19487e-06 -5.52799e-06 )  
( 5.64026e-06 -2.71895e-06 -1.85475e-07 )  
( 3.99843e-06 -7.57341e-06 -1.94329e-06 )  
( 4.54601e-06 -3.67998e-06 -1.39883e-07 )  
( 4.49574e-06 -1.56427e-06 9.10887e-07 )  
( 1.20194e-06 -2.38789e-05 -1.26388e-05 )  
( 3.53103e-06 -6.33075e-06 -8.16904e-06 )  
( 5.99031e-06 -4.84581e-06 -9.02425e-07 )  
( 4.69483e-07 -1.2724e-05 -2.02806e-06 )  
( 3.2192e-06 -3.60591e-06 2.38236e-06 )  
( 2.60377e-06 -5.04131e-06 -4.08894e-06 )  
( 5.73438e-06 -3.231e-06 -2.37925e-06 )  
( 5.99775e-06 -4.35649e-06 -5.44875e-06 )  
( 3.04992e-06 -6.33836e-06 -5.16662e-06 )  
( 5.38997e-07 -1.26038e-05 8.20352e-08 )  
( 6.24926e-06 -5.38784e-06 -9.05131e-07 )  
( 5.4418e-06 -4.33578e-06 -1.13226e-06 )  
( 5.13085e-06 -6.03397e-06 -4.37265e-06 )  
( 1.32359e-06 -1.09381e-05 -2.74098e-06 )  
( 1.21927e-06 -9.73304e-06 -4.42126e-06 )  
( 1.72509e-05 1.14194e-05 5.20018e-06 )  
( 6.10638e-06 -4.25421e-06 9.19929e-08 )  
( -6.72174e-07 -2.81893e-06 -3.75636e-06 )  
( 7.96414e-06 -4.68771e-06 -1.5697e-06 )  
( 4.62593e-06 -1.69572e-06 6.96052e-08 )  
( 4.77943e-06 -2.40545e-06 1.33296e-06 )  
( 4.44108e-06 -5.91525e-06 -3.11896e-06 )  
( 1.64569e-06 -1.02993e-05 -6.56148e-06 )  
( 3.20429e-06 -1.52584e-06 -4.48109e-06 )  
( -1.27552e-08 -9.45506e-06 -9.36544e-06 )  
( 6.07195e-06 -3.83162e-06 -8.50325e-08 )  
( 4.56948e-06 -3.52613e-06 2.61779e-06 )  
( 2.26404e-06 -4.12165e-06 -1.53986e-06 )  
( 8.80158e-06 9.75183e-06 1.33626e-07 )  
( 6.20332e-06 -4.15716e-06 -1.24e-06 )  
( 9.65966e-06 -6.90614e-06 3.20388e-06 )  
( 2.36099e-06 -3.92788e-06 -1.12069e-05 )  
( -2.55368e-07 -7.08074e-06 -6.92072e-06 )  
( 1.23129e-06 -1.05153e-05 2.13768e-06 )  
( 4.13989e-06 -6.8605e-06 -8.31551e-06 )  
( 3.65603e-06 -6.94896e-06 -3.89006e-06 )  
( 6.57582e-07 -6.03222e-06 -1.55326e-06 )  
( -2.69752e-06 -1.20784e-05 -4.10224e-06 )  
( 2.40221e-06 -7.82387e-06 -2.44129e-05 )  
( 5.49903e-06 -5.96032e-06 1.70536e-06 )  
( 8.73612e-08 -4.45684e-06 -7.90724e-06 )  
( 6.77588e-06 -7.00569e-06 -1.13445e-05 )  
( -1.09573e-06 -4.11557e-06 -5.35443e-06 )  
( 2.44489e-06 -4.69419e-06 -5.63841e-06 )  
( -2.98069e-07 -6.26094e-06 -8.28645e-06 )  
( 2.81716e-06 -6.17364e-06 -8.0846e-06 )  
( 2.78343e-06 -3.21935e-06 -1.38501e-05 )  
( -1.18001e-06 -6.53341e-06 -1.29047e-05 )  
( -2.53133e-06 -4.53947e-06 -1.21774e-05 )  
( -3.04233e-06 -7.34521e-06 -6.63824e-06 )  
( 1.29078e-05 -4.16557e-06 3.34176e-06 )  
( -1.79601e-06 -6.82897e-06 -8.91564e-06 )  
( -3.88806e-06 -3.74256e-06 -1.95153e-05 )  
( 3.02679e-06 -1.43412e-05 -8.41658e-06 )  
( 1.87843e-08 -8.29445e-06 -1.17782e-05 )  
( -3.34094e-06 -5.32194e-06 -1.46685e-06 )  
( 5.27432e-06 -1.15032e-05 -8.76056e-06 )  
( 7.89792e-07 -3.33972e-06 -1.69958e-05 )  
( 4.40343e-06 -1.09916e-05 -5.7726e-06 )  
( -1.96349e-06 -3.8815e-06 -3.91043e-07 )  
( 3.04923e-07 -2.80261e-06 -7.48672e-06 )  
( -1.63085e-06 -6.68084e-06 -6.9739e-06 )  
( -4.39805e-07 -6.60916e-06 -7.66242e-06 )  
( -2.05714e-06 -1.34258e-05 -2.26855e-05 )  
( -7.1703e-06 -5.70134e-06 -2.08417e-05 )  
( -5.9526e-07 -2.01375e-06 -5.8471e-06 )  
( 4.37161e-06 -5.94311e-06 -1.79367e-05 )  
( -3.8659e-06 -5.69677e-06 -7.05144e-06 )  
( -8.66096e-06 -9.84503e-06 -1.93224e-05 )  
( 1.59945e-05 9.32851e-06 5.8027e-06 )  
( -6.04769e-06 -6.71348e-06 -8.47293e-06 )  
( -1.05554e-05 -6.05361e-06 -1.29444e-05 )  
( -4.98309e-06 -7.37225e-06 -1.47254e-05 )  
( -5.68008e-06 -1.01306e-05 -9.28874e-06 )  
( -2.48168e-06 -2.31802e-06 -3.21283e-05 )  
( -1.65185e-05 -5.74618e-06 -1.66887e-05 )  
( -4.76906e-06 -7.29974e-06 -1.32104e-05 )  
( -2.19886e-06 -5.42271e-07 -1.46387e-05 )  
( -6.60433e-06 -1.32778e-05 -2.47623e-05 )  
( -1.23658e-05 -8.9372e-06 -3.26932e-05 )  
( -2.33365e-05 -7.34157e-06 -2.58648e-05 )  
( -1.09923e-05 -6.75441e-06 -1.04618e-05 )  
( -1.15674e-05 -2.92138e-06 -2.3819e-05 )  
( -7.21896e-06 -6.45251e-06 -2.57028e-05 )  
( -1.12242e-06 5.89057e-07 -1.90981e-05 )  
( -1.38783e-05 -9.99402e-06 -2.20953e-05 )  
( -1.06204e-06 -4.03438e-06 -1.79045e-05 )  
( -1.37832e-05 -6.14818e-06 -3.32731e-05 )  
( -1.72592e-05 -8.22602e-06 -3.72141e-05 )  
( -1.84876e-05 -8.1655e-06 -3.3955e-05 )  
( -4.79199e-06 -4.16428e-06 -8.9814e-06 )  
( -1.88826e-05 -8.69489e-06 -4.14542e-05 )  
( -6.82031e-06 5.71198e-06 -2.38126e-05 )  
( -2.9096e-05 5.14909e-06 -2.76296e-05 )  
( -1.62311e-05 -7.58136e-06 -3.38191e-05 )  
( -3.00775e-05 -6.7828e-06 -3.57897e-05 )  
( -9.99035e-06 -3.88897e-06 -2.28186e-05 )  
( -1.95774e-05 -6.4254e-06 -2.92166e-05 )  
( -9.4847e-07 -1.12311e-05 -3.62289e-05 )  
( -1.71986e-05 -4.2878e-06 -4.22383e-05 )  
( -5.33629e-06 1.00105e-06 -1.93637e-05 )  
( -8.52645e-06 -8.16932e-07 -1.40968e-05 )  
( -1.04228e-05 -6.68249e-06 -1.64523e-05 )  
( -1.72977e-05 -1.72132e-06 -4.88189e-05 )  
( -1.8943e-05 1.26745e-06 -4.22623e-05 )  
( -1.5388e-05 2.94485e-06 -2.47064e-05 )  
( -9.02763e-06 -6.92654e-06 -4.02498e-05 )  
( -1.1879e-05 4.33257e-06 -3.01e-05 )  
( -3.15557e-06 -2.91174e-06 -1.23113e-05 )  
( -1.91368e-05 -5.56068e-06 -4.3194e-05 )  
( -1.40785e-05 -4.63336e-06 -4.15504e-05 )  
( -1.20716e-05 8.92188e-06 -2.88492e-05 )  
( -1.41774e-05 -1.91627e-06 -2.75528e-05 )  
( -1.37011e-05 -2.1166e-05 -4.49317e-05 )  
( -1.05867e-05 1.07364e-06 -1.61587e-05 )  
( -1.56027e-05 -1.15505e-05 -4.71221e-05 )  
( -1.42161e-05 1.99277e-06 -2.41866e-05 )  
( -1.47005e-05 7.46266e-06 -5.04215e-05 )  
( -1.8102e-05 -5.65048e-06 -3.89423e-05 )  
( -2.03111e-05 -1.1737e-06 -4.91282e-05 )  
( -1.61025e-05 -8.01504e-06 -5.45433e-05 )  
( -1.62308e-05 -1.10468e-06 -4.67353e-05 )  
( -1.03952e-05 4.12934e-06 -3.73007e-05 )  
( -9.97727e-06 8.28125e-06 -3.17347e-05 )  
( -2.02257e-05 -7.91951e-06 -5.93322e-05 )  
( -1.5215e-05 -3.23291e-06 -5.59031e-05 )  
( -9.83391e-06 -6.66021e-06 -4.34236e-05 )  
( -7.17533e-06 -2.13356e-06 -4.9558e-05 )  
( -2.13195e-05 1.19814e-05 -6.67428e-05 )  
( -1.4576e-05 -7.89777e-06 -5.8667e-05 )  
( -1.11977e-05 6.22211e-06 -6.07571e-05 )  
( -2.04402e-05 -2.85977e-06 -7.17631e-05 )  
( -3.82202e-05 -9.09775e-07 -2.98737e-05 )  
( -2.3571e-05 1.82415e-05 -1.032e-05 )  
( -5.25079e-06 7.58851e-06 -5.82791e-05 )  
( -1.52125e-05 -9.09187e-06 -6.23441e-05 )  
( -1.29474e-05 -9.89189e-07 -7.74681e-05 )  
( -1.7098e-05 7.0001e-06 -5.76874e-05 )  
( -1.94745e-05 -6.56903e-07 -7.73764e-05 )  
( -2.02136e-05 1.05978e-06 -7.38732e-05 )  
( -1.67527e-05 3.49161e-06 -6.80841e-05 )  
( -4.72477e-06 1.37823e-05 -4.1838e-05 )  
( -4.08411e-08 6.49772e-07 -7.44489e-05 )  
( 6.02786e-06 6.96194e-06 -7.61661e-05 )  
( -1.95931e-05 -6.74938e-07 -5.04206e-05 )  
( -1.53067e-05 -1.90108e-06 -5.9496e-05 )  
( -9.95155e-06 6.46824e-06 -5.80135e-05 )  
( -1.87683e-05 4.25233e-06 -6.12422e-05 )  
( -5.42733e-06 -1.48462e-06 -0.000108988 )  
( -1.16747e-05 2.17694e-06 -7.5636e-05 )  
( -5.33362e-06 3.89639e-06 -8.87656e-05 )  
( -1.61016e-05 1.89211e-05 -7.51263e-05 )  
( -1.26865e-05 2.63941e-06 -2.33747e-05 )  
( 7.60318e-07 -1.47067e-06 -6.13816e-05 )  
( -1.04567e-05 1.55169e-06 -7.52494e-05 )  
( -8.4428e-07 -4.62566e-07 -7.59729e-05 )  
( -2.84613e-05 1.13498e-05 -9.77585e-05 )  
( -2.94381e-05 -1.39655e-05 -0.000100471 )  
( -2.55987e-05 7.72138e-06 -7.32564e-05 )  
( -6.8362e-06 2.07896e-06 -8.18093e-05 )  
( -6.12612e-05 -4.14454e-06 -4.07705e-05 )  
( -2.12823e-05 3.47387e-06 -8.14936e-05 )  
( 9.54606e-09 -4.89925e-06 -7.32156e-05 )  
( 4.00023e-06 1.04969e-06 -8.24256e-05 )  
( -1.63889e-05 -2.97958e-06 -0.000102044 )  
( -2.77671e-05 2.59345e-05 -0.00010671 )  
( -9.43114e-06 2.30164e-05 -9.79757e-05 )  
( 5.3989e-06 1.18332e-06 -0.000124936 )  
( -4.07731e-06 1.58203e-06 -9.13058e-05 )  
( -1.90308e-06 8.13853e-06 -0.000102455 )  
( -1.70895e-05 -4.28477e-06 -9.18685e-05 )  
( -1.98754e-05 1.26761e-06 -0.000119631 )  
( -2.95759e-07 8.57276e-06 -8.08835e-05 )  
( -1.3003e-05 2.1618e-05 -7.11358e-05 )  
( -1.74772e-05 1.15959e-05 -8.29039e-05 )  
( 4.48702e-06 2.1817e-06 -9.73289e-05 )  
( -6.02912e-06 1.55027e-06 -0.000111582 )  
( -2.70088e-05 -1.49077e-06 -0.000103009 )  
( -3.03033e-06 1.17663e-05 -0.00010981 )  
( 4.80139e-07 -5.48179e-06 -0.000104603 )  
( 8.08185e-06 2.04487e-05 -0.000105931 )  
( -2.30884e-05 2.77668e-05 -8.20163e-05 )  
( -2.55535e-05 -1.94383e-05 -6.1804e-05 )  
( 2.30345e-06 1.05706e-05 -0.000107815 )  
( -1.17047e-05 1.13336e-05 -0.000127627 )  
( -3.00012e-05 1.54563e-05 -0.000112188 )  
( -3.36279e-05 -1.52318e-05 -0.000120158 )  
( 2.45174e-06 5.9723e-06 -0.000126213 )  
( -1.39678e-05 -8.44964e-06 -0.000114745 )  
( -1.83483e-06 2.89858e-05 -0.000116116 )  
( -1.04862e-05 -1.40275e-07 -0.000140309 )  
( -1.02791e-05 -7.47343e-06 -0.000136268 )  
( -1.13536e-05 3.03892e-05 -0.000140177 )  
( -5.41551e-06 1.11554e-05 -0.000152641 )  
( 5.49569e-06 -9.92429e-06 -0.00010927 )  
( -1.23394e-05 -1.14512e-06 -0.000139938 )  
( -1.26936e-05 -1.11332e-05 -0.000111245 )  
( -9.13626e-06 -5.46369e-06 -0.000150435 )  
( 2.84583e-05 -3.45616e-06 -8.33479e-05 )  
( -1.70516e-05 -1.03513e-05 -0.000161339 )  
( -3.07123e-06 1.87147e-05 -0.000112206 )  
( -5.04513e-06 6.16988e-06 -0.000160286 )  
( -7.42801e-06 1.16525e-05 -0.000148343 )  
( -3.39056e-06 9.48878e-07 -0.000174288 )  
( 5.47548e-06 1.64117e-05 -0.000128785 )  
( -1.42514e-05 -4.20046e-06 -0.000168487 )  
( -3.91319e-06 3.86726e-07 -0.000144622 )  
( 7.01703e-06 2.18344e-05 -0.000153448 )  
( -2.25386e-06 7.28158e-06 -0.000187713 )  
( 6.3089e-06 2.38222e-05 -0.000134387 )  
( -2.16291e-05 1.21151e-05 -0.000170792 )  
( -3.79909e-06 3.60433e-06 -0.00012019 )  
( -1.71947e-05 -2.3465e-05 -0.000158138 )  
( 1.4933e-05 2.03251e-05 -0.000183494 )  
( -2.19957e-05 -8.86742e-08 -0.00018524 )  
( 2.43984e-06 2.19017e-05 -0.000216952 )  
( 8.35268e-07 3.23757e-05 -0.000166349 )  
( -4.43524e-07 1.71757e-05 -0.0001952 )  
( -1.79061e-06 1.24067e-05 -0.00016665 )  
( -1.04903e-05 -1.02111e-05 -0.00019632 )  
( -4.61744e-06 1.87061e-05 -0.000174963 )  
( -5.99832e-06 7.60679e-06 -0.000201317 )  
( -1.15098e-05 5.91886e-06 -0.00017179 )  
( -1.95317e-06 7.59694e-05 -0.000153497 )  
( -6.90084e-06 6.55693e-07 -0.000149728 )  
( -1.37733e-05 3.16626e-07 -0.000153026 )  
( -1.86802e-05 -6.77378e-06 -0.000164885 )  
( 1.31087e-05 1.06764e-05 -0.000179494 )  
( -1.09099e-05 -7.68024e-06 -0.000187471 )  
( -7.39875e-06 -3.32298e-06 -0.000174854 )  
( -1.12974e-05 -1.4224e-05 -0.000202176 )  
( -2.90587e-06 -2.868e-06 -0.00020345 )  
( -1.09824e-05 2.6631e-05 -0.000205109 )  
( 6.58286e-06 -1.05069e-05 -0.000212309 )  
( 3.37864e-06 6.96258e-06 -0.000147639 )  
( -4.07682e-06 -7.04832e-06 -0.000181588 )  
( 6.46085e-06 1.56691e-05 -0.000183667 )  
( -1.19149e-05 -2.40002e-06 -0.000186688 )  
( 8.83493e-06 -2.06241e-05 -0.000186344 )  
( -2.18233e-06 9.60984e-06 -0.000189098 )  
( 6.06149e-07 -2.52392e-05 -0.000177699 )  
( -6.26868e-07 2.45916e-05 -0.000216387 )  
( -3.29105e-06 -1.35145e-05 -0.000184343 )  
( -6.85551e-06 -4.07163e-06 -0.000195754 )  
( 2.61659e-06 5.53436e-06 -0.000200384 )  
( -4.42803e-06 -1.86179e-05 -0.000206866 )  
( 1.28075e-05 -1.14103e-05 -0.000201791 )  
( -2.05081e-05 -3.60886e-06 -0.00020181 )  
( -2.09747e-05 4.12976e-06 -0.000182589 )  
( -7.73696e-06 -2.05466e-05 -0.000205978 )  
( -1.025e-05 -2.59089e-06 -0.000229975 )  
( -5.93338e-06 -1.49699e-05 -0.000200836 )  
( -1.32356e-05 5.29425e-06 -0.000198464 )  
( 3.56495e-06 4.77148e-06 -0.000207661 )  
( -5.2601e-06 1.74918e-05 -0.000210489 )  
( 8.06297e-06 -2.24182e-05 -0.000217445 )  
( 7.46937e-06 2.12646e-06 -0.000200724 )  
( 5.78548e-06 5.95573e-06 -0.000197992 )  
( -4.36574e-06 1.38859e-05 -0.000216725 )  
( -1.17347e-05 1.91031e-05 -0.000232981 )  
( 6.90236e-06 2.29379e-05 -0.000217658 )  
( -1.09174e-05 -5.2358e-06 -0.000253033 )  
( 1.12512e-06 -1.80424e-05 -0.000237628 )  
( 2.59191e-06 -9.89186e-06 -0.000212174 )  
( 6.85084e-06 2.23424e-05 -0.000203843 )  
( -4.75613e-06 5.81101e-06 -0.000228186 )  
( 8.08523e-06 -8.83153e-06 -0.000203481 )  
( 2.65932e-06 2.67416e-05 -0.000210336 )  
( 1.42033e-05 -9.22135e-06 -0.000187012 )  
( 2.59104e-05 -1.28083e-05 -0.000226537 )  
( -4.24239e-06 -1.9911e-06 -0.000223695 )  
( -1.73179e-06 -4.40529e-06 -0.000220109 )  
( -5.09905e-06 2.49479e-05 -0.000222224 )  
( -5.34981e-06 -4.96817e-05 -0.000210318 )  
( 3.24087e-05 1.62965e-06 -0.000248886 )  
( 2.0793e-05 4.68053e-06 -0.000204459 )  
( 1.1247e-05 1.13235e-05 -0.000212223 )  
( 3.49264e-06 1.80411e-05 -0.00022001 )  
( -3.89085e-06 -2.47368e-05 -0.000221556 )  
( 3.70653e-05 -3.07794e-05 -0.000182515 )  
( 3.6273e-05 -9.94345e-06 -0.000220765 )  
( -2.88529e-06 -1.29338e-05 -0.000230125 )  
( -1.33592e-05 2.38504e-06 -0.000224923 )  
( -3.15762e-06 -1.75463e-05 -0.000222478 )  
( -1.74146e-06 -6.32393e-06 -0.00022592 )  
( 3.7651e-05 -1.61321e-05 -0.000232898 )  
( 2.56095e-05 -3.02582e-05 -0.000217735 )  
( 1.85746e-05 -4.37896e-05 -0.000232067 )  
( 2.35018e-06 6.62727e-06 -0.000206851 )  
( -1.56521e-05 3.966e-06 -0.000251746 )  
( 3.68221e-05 -3.44165e-07 -0.000208062 )  
( 3.39245e-05 1.50801e-05 -0.000236172 )  
( 3.30108e-05 -6.11158e-05 -0.000226794 )  
( 3.37985e-05 -5.19558e-05 -0.000234103 )  
( -1.21281e-06 3.70394e-05 -0.000245757 )  
( 1.30198e-05 1.13946e-05 -0.000240416 )  
( 2.18886e-05 -2.72792e-05 -0.000225478 )  
( 2.05337e-05 3.48767e-05 -0.000196317 )  
( 4.05669e-05 4.01254e-05 -0.000202492 )  
)
