FoamFile
{version 2.0; format ascii;class vectorField; location 0;object  v;}
353
(
( 4.47309e-07 6.16469e-06 -1.38519e-06 )  
( 2.32347e-06 7.3001e-06 7.78899e-07 )  
( 6.03739e-06 1.5652e-05 7.84554e-07 )  
( 4.29238e-07 7.72293e-06 -7.10024e-07 )  
( 1.69201e-06 5.82896e-06 2.55861e-06 )  
( 2.01554e-06 8.5398e-06 -3.29956e-08 )  
( -5.76479e-07 5.97337e-06 1.99902e-06 )  
( 5.31772e-07 7.48109e-06 1.22059e-06 )  
( 5.76044e-07 6.91018e-06 -2.76684e-07 )  
( 3.80832e-06 3.37819e-06 -6.94845e-07 )  
( 1.96549e-06 7.6557e-06 -1.32691e-06 )  
( 5.10903e-08 8.10557e-06 2.11539e-06 )  
( 2.34378e-06 1.13735e-05 -1.62223e-06 )  
( -2.68601e-06 8.93247e-06 -1.17614e-06 )  
( -3.22051e-06 1.95075e-06 -1.57394e-06 )  
( -1.33339e-06 7.32964e-06 -1.28027e-06 )  
( -1.09697e-06 7.37196e-06 -2.23003e-06 )  
( 2.63387e-07 1.26802e-05 2.65612e-06 )  
( -1.04265e-06 7.90977e-06 -1.45797e-06 )  
( 4.67536e-06 1.42544e-06 -3.73507e-07 )  
( 1.00783e-06 7.63194e-06 1.18768e-06 )  
( 7.42783e-07 7.93151e-06 -8.09141e-07 )  
( 5.19969e-06 1.27777e-05 -1.40331e-06 )  
( 6.20635e-07 6.28379e-06 -8.58517e-07 )  
( 1.09927e-06 8.03139e-06 -3.16596e-06 )  
( 1.04237e-06 1.13199e-05 1.31288e-06 )  
( 9.97099e-07 7.62164e-06 8.93626e-07 )  
( 5.80828e-07 1.4737e-05 1.71921e-06 )  
( 2.53607e-06 1.57689e-05 4.18424e-07 )  
( 1.67819e-06 1.90335e-05 1.04943e-06 )  
( 2.84876e-06 1.23052e-05 -1.2689e-06 )  
( 7.58286e-06 1.033e-05 7.52986e-07 )  
( 3.32382e-07 1.27278e-05 -3.36788e-06 )  
( 3.69284e-06 1.04443e-05 -1.78196e-06 )  
( 1.01422e-06 1.16948e-05 1.76474e-06 )  
( 3.96703e-06 1.4601e-05 -1.69915e-06 )  
( 8.69588e-06 1.16409e-05 -5.28882e-06 )  
( 4.15119e-06 1.42458e-05 -8.76191e-07 )  
( 3.85527e-07 1.68836e-05 1.30672e-06 )  
( 8.25593e-07 1.42388e-05 1.46004e-07 )  
( 5.9082e-06 1.49642e-05 -3.55422e-07 )  
( 5.04481e-06 2.00446e-05 4.91498e-07 )  
( 5.32971e-06 2.23785e-05 -2.25944e-06 )  
( 5.51334e-06 1.26064e-05 -3.64955e-06 )  
( 8.10346e-06 1.21044e-05 -1.79623e-06 )  
( 1.44602e-06 1.86104e-05 -1.711e-06 )  
( 4.32917e-06 1.77489e-05 9.96072e-07 )  
( 1.14643e-06 1.73152e-05 9.22968e-07 )  
( 2.24443e-06 1.47694e-05 -5.64036e-07 )  
( -9.04571e-07 1.5265e-05 -6.56201e-06 )  
( 1.30487e-06 1.39442e-05 -4.26188e-07 )  
( 1.78326e-06 1.54745e-05 -5.12093e-07 )  
( 4.65239e-06 2.11551e-05 1.30289e-06 )  
( 2.41774e-06 1.99696e-05 -1.07814e-07 )  
( 4.83364e-06 2.49018e-05 1.17906e-06 )  
( 8.62075e-07 1.98203e-05 -6.19453e-06 )  
( 1.62606e-06 1.77363e-05 -2.69454e-07 )  
( 7.49134e-06 1.75085e-05 2.70836e-07 )  
( 8.1618e-06 2.05167e-05 -6.33084e-07 )  
( 8.1643e-06 2.04975e-05 -1.1758e-06 )  
( -5.17707e-06 1.77627e-05 -4.03358e-07 )  
( 4.96851e-06 2.24927e-05 -3.9316e-06 )  
( 8.34229e-07 1.95087e-05 6.99778e-07 )  
( 4.62453e-06 1.90054e-05 -4.06874e-07 )  
( 7.45314e-06 1.70864e-05 -5.60022e-06 )  
( 4.13984e-06 2.25855e-05 1.00795e-06 )  
( 7.05114e-06 1.66084e-05 -2.37053e-06 )  
( 5.33881e-06 2.27902e-05 -1.02565e-06 )  
( 5.48744e-06 1.36073e-05 -4.25659e-07 )  
( 2.68994e-06 1.97692e-05 5.57085e-07 )  
( 4.72623e-06 1.83236e-05 5.92242e-07 )  
( 1.07501e-06 1.67703e-05 2.87401e-06 )  
( 4.23022e-06 2.58305e-05 -3.05786e-06 )  
( 3.36445e-06 2.41306e-05 -1.9542e-06 )  
( 5.43689e-06 2.22707e-05 4.31946e-07 )  
( 5.57189e-06 2.33083e-05 -4.83002e-07 )  
( 4.93175e-06 2.41941e-05 1.84752e-07 )  
( 6.36922e-06 1.82973e-05 -1.89539e-06 )  
( 4.88305e-06 2.32996e-05 -2.56483e-06 )  
( 5.40297e-06 2.6733e-05 -1.0209e-07 )  
( 6.79497e-06 2.24269e-05 1.46037e-06 )  
( 2.66317e-06 2.23003e-05 -2.65835e-07 )  
( 4.89255e-06 2.82216e-05 1.90255e-06 )  
( 5.08156e-06 2.63706e-05 -1.23745e-06 )  
( 3.60766e-06 2.45115e-05 1.21151e-06 )  
( 4.64918e-06 2.55266e-05 -2.10006e-06 )  
( 5.77863e-06 2.46981e-05 -2.71595e-06 )  
( 1.22438e-06 2.37135e-05 -4.44929e-06 )  
( 6.98008e-06 2.03322e-05 -5.49817e-08 )  
( 1.07287e-05 2.73442e-05 -1.96547e-06 )  
( 7.06176e-06 2.83534e-05 -3.45487e-06 )  
( 7.46196e-06 2.29938e-05 -1.44568e-06 )  
( 4.57942e-06 2.63614e-05 -5.57894e-07 )  
( 4.63649e-06 2.64308e-05 -3.98322e-06 )  
( 5.56168e-06 3.15134e-05 -3.06804e-06 )  
( 3.68699e-06 2.59584e-05 -2.68015e-06 )  
( 6.41547e-06 2.9487e-05 -2.90378e-06 )  
( 5.05392e-06 2.97438e-05 -1.07557e-06 )  
( 8.05477e-06 2.53372e-05 -9.30012e-07 )  
( 5.16507e-06 2.5653e-05 -6.93834e-09 )  
( 5.64072e-06 2.67999e-05 -1.92452e-06 )  
( 5.14521e-06 2.81368e-05 -6.3067e-07 )  
( 8.35932e-06 2.917e-05 1.0773e-06 )  
( 7.14264e-06 2.74753e-05 7.45085e-07 )  
( 6.9396e-06 3.26684e-05 -3.44241e-06 )  
( 6.03581e-06 3.07566e-05 1.81506e-06 )  
( 7.18911e-06 3.14801e-05 1.45711e-06 )  
( 4.70622e-06 3.17399e-05 -4.72531e-07 )  
( 4.94409e-06 3.33957e-05 1.16429e-06 )  
( 8.86589e-06 3.33532e-05 -2.68912e-06 )  
( 8.85604e-06 3.71427e-05 -1.91473e-06 )  
( 5.92579e-06 3.03428e-05 -1.21324e-06 )  
( 6.136e-06 3.18687e-05 -1.61657e-06 )  
( 8.01623e-06 3.13845e-05 -9.99777e-07 )  
( 7.05125e-06 3.30556e-05 -9.57569e-07 )  
( 9.39716e-06 2.54894e-05 -3.66707e-06 )  
( 1.09947e-05 3.57941e-05 9.35008e-07 )  
( 8.87409e-06 3.16912e-05 -3.06474e-07 )  
( 1.15566e-05 3.67952e-05 -2.50497e-06 )  
( 7.24186e-06 3.32305e-05 -7.62401e-07 )  
( 1.13558e-05 3.85912e-05 2.2581e-06 )  
( 9.20593e-06 3.30638e-05 1.33478e-06 )  
( 8.62886e-06 3.16719e-05 -1.67244e-06 )  
( 6.55984e-06 2.8535e-05 -1.76142e-06 )  
( 5.7531e-06 2.84202e-05 6.16135e-07 )  
( 9.17833e-06 3.22757e-05 -7.59404e-07 )  
( 6.07515e-06 3.58323e-05 -1.44555e-06 )  
( 9.83883e-06 3.67267e-05 1.38023e-08 )  
( 7.93334e-06 3.19742e-05 -3.36218e-06 )  
( 1.16279e-05 3.30214e-05 -7.90832e-07 )  
( 8.01672e-06 3.56962e-05 -7.1295e-07 )  
( 9.29471e-06 3.27271e-05 2.42193e-07 )  
( 8.94206e-06 3.64213e-05 5.04679e-07 )  
( 1.13323e-05 3.60428e-05 -3.31872e-06 )  
( 1.23789e-05 4.29504e-05 -1.79755e-06 )  
( 9.48105e-06 3.54396e-05 -1.45386e-06 )  
( 4.90201e-06 3.38974e-05 -1.80754e-06 )  
( 9.37877e-06 3.52393e-05 -4.48918e-07 )  
( 8.81356e-06 3.36895e-05 -1.33411e-06 )  
( 6.65005e-06 3.63218e-05 5.51026e-07 )  
( 8.73061e-06 3.23295e-05 -1.40044e-06 )  
( 1.052e-05 3.63438e-05 -9.5486e-07 )  
( 1.03033e-05 3.49569e-05 1.16043e-06 )  
( 1.04809e-05 4.22699e-05 7.14211e-07 )  
( 1.04742e-05 3.80163e-05 -2.13009e-06 )  
( 9.70948e-06 4.02385e-05 -8.0371e-07 )  
( 1.04983e-05 4.4153e-05 -3.47125e-06 )  
( 8.33577e-06 3.73557e-05 6.94214e-07 )  
( 9.55495e-06 4.01796e-05 -6.72193e-07 )  
( 9.38962e-06 3.79041e-05 -2.19132e-06 )  
( 1.15876e-05 4.01361e-05 -2.08061e-06 )  
( 7.58511e-06 3.50096e-05 -3.64558e-06 )  
( 9.50451e-06 3.45748e-05 7.58263e-07 )  
( 1.24624e-05 3.91564e-05 -2.72768e-06 )  
( 1.29365e-05 3.98853e-05 -2.63908e-06 )  
( 1.46875e-05 3.97266e-05 -7.187e-06 )  
( 1.34781e-05 3.93461e-05 -9.95634e-07 )  
( 8.19e-06 4.18388e-05 -1.4784e-06 )  
( 1.55492e-05 4.42081e-05 -4.24072e-06 )  
( 1.17572e-05 4.34606e-05 -4.07149e-06 )  
( 1.26946e-05 4.62118e-05 -9.80143e-08 )  
( 1.19519e-05 4.30566e-05 3.77521e-07 )  
( 1.28833e-05 3.51642e-05 -1.06086e-06 )  
( 1.17371e-05 4.18811e-05 -2.6971e-06 )  
( 9.44978e-06 3.95095e-05 -1.47813e-06 )  
( 1.07797e-05 4.19027e-05 -4.01544e-07 )  
( 1.07253e-05 3.95625e-05 -9.52302e-07 )  
( 1.32792e-05 4.06776e-05 -1.41013e-06 )  
( 1.13802e-05 4.14666e-05 -5.27021e-07 )  
( 1.36483e-05 4.19152e-05 6.31792e-07 )  
( 1.21248e-05 4.27199e-05 -2.32502e-07 )  
( 1.16821e-05 4.72729e-05 -2.60591e-06 )  
( 1.02798e-05 4.21532e-05 -1.54008e-06 )  
( 1.27003e-05 4.34004e-05 -2.74933e-06 )  
( 8.46851e-06 4.0206e-05 -1.58545e-06 )  
( 1.36868e-05 4.44517e-05 3.94765e-06 )  
( 1.41225e-05 5.10244e-05 1.86491e-06 )  
( 1.54952e-05 5.18067e-05 7.7838e-07 )  
( 1.36654e-05 4.41025e-05 6.29583e-07 )  
( 9.86463e-06 4.02909e-05 9.04382e-08 )  
( 1.20024e-05 4.16976e-05 -8.53408e-06 )  
( 1.29276e-05 4.5053e-05 -1.09207e-06 )  
( 1.46427e-05 4.18647e-05 -2.72002e-06 )  
( 1.32724e-05 4.77029e-05 -5.00002e-06 )  
( 1.02093e-05 4.36836e-05 -6.91924e-07 )  
( 9.93028e-06 4.54154e-05 -8.66207e-07 )  
( 1.26995e-05 5.13835e-05 -2.5221e-06 )  
( 1.37759e-05 5.04482e-05 1.29334e-06 )  
( 1.5431e-05 5.1477e-05 1.00966e-06 )  
( 1.38836e-05 4.76486e-05 -3.15447e-07 )  
( 1.40382e-05 5.16279e-05 -4.4236e-06 )  
( 1.2323e-05 4.206e-05 -7.93377e-07 )  
( 8.48185e-06 4.21736e-05 3.21081e-07 )  
( 1.08739e-05 4.1298e-05 -1.14315e-06 )  
( 1.45344e-05 4.27227e-05 -1.48892e-06 )  
( 1.15256e-05 4.66052e-05 5.25171e-08 )  
( 1.12065e-05 4.62667e-05 -9.35676e-07 )  
( 1.39937e-05 5.13473e-05 1.57651e-09 )  
( 1.56522e-05 4.7148e-05 1.15713e-06 )  
( 1.44848e-05 5.02419e-05 -1.3458e-06 )  
( 1.48599e-05 4.30287e-05 -5.27004e-07 )  
( 2.02939e-05 5.67192e-05 -3.51031e-06 )  
( 1.21508e-05 5.12338e-05 -2.6749e-06 )  
( 1.25358e-05 5.00947e-05 -3.20998e-06 )  
( 1.27576e-05 4.411e-05 -1.42708e-06 )  
( 1.67912e-05 5.40291e-05 -1.03855e-06 )  
( 1.24909e-05 4.8509e-05 -2.18821e-06 )  
( 1.29436e-05 5.36527e-05 -2.91152e-06 )  
( 1.34544e-05 5.57614e-05 -1.34051e-06 )  
( 1.39002e-05 5.25912e-05 1.01111e-06 )  
( 1.71031e-05 4.61216e-05 -1.05333e-06 )  
( 1.36933e-05 5.12081e-05 -3.50267e-06 )  
( 1.4165e-05 4.58208e-05 -4.12263e-06 )  
( 1.68913e-05 4.41321e-05 1.03897e-06 )  
( 1.23949e-05 5.16594e-05 -2.07401e-06 )  
( 1.4136e-05 5.57649e-05 -1.01621e-06 )  
( 1.26142e-05 5.57551e-05 -4.02674e-06 )  
( 1.75113e-05 5.30043e-05 -9.94631e-08 )  
( 1.66205e-05 5.73107e-05 -2.38316e-06 )  
( 1.08781e-05 4.98221e-05 -3.18925e-06 )  
( 1.76475e-05 5.53258e-05 -4.72624e-07 )  
( 1.36508e-05 5.53679e-05 1.15735e-06 )  
( 1.54466e-05 5.48518e-05 8.81244e-07 )  
( 1.54634e-05 5.81541e-05 -1.68935e-06 )  
( 1.3551e-05 5.37323e-05 -1.97015e-07 )  
( 1.52196e-05 5.186e-05 -2.50358e-06 )  
( 1.3722e-05 5.12108e-05 -1.84678e-06 )  
( 1.5415e-05 5.64702e-05 -9.21174e-08 )  
( 1.08862e-05 4.98611e-05 -7.28193e-07 )  
( 1.55083e-05 4.91143e-05 -2.84939e-06 )  
( 1.82981e-05 5.28903e-05 -4.84946e-07 )  
( 1.3795e-05 5.46398e-05 -4.57312e-06 )  
( 1.36119e-05 6.0661e-05 -2.32792e-06 )  
( 1.51366e-05 5.32021e-05 4.76715e-07 )  
( 1.65721e-05 5.89327e-05 -1.78186e-06 )  
( 1.39782e-05 5.45641e-05 7.25799e-08 )  
( 1.89167e-05 6.12063e-05 1.1923e-08 )  
( 1.76277e-05 6.08788e-05 -5.70057e-06 )  
( 1.61295e-05 5.7428e-05 1.78269e-06 )  
( 1.16782e-05 5.40998e-05 8.49375e-07 )  
( 1.39188e-05 5.37619e-05 -3.35102e-06 )  
( 1.58889e-05 5.46037e-05 -4.35325e-06 )  
( 2.04364e-05 5.60467e-05 -1.24073e-06 )  
( 1.44706e-05 6.09422e-05 -5.89965e-06 )  
( 1.31241e-05 6.03719e-05 6.09873e-07 )  
( 1.73409e-05 6.09932e-05 -2.33498e-06 )  
( 1.63467e-05 5.88109e-05 -9.98473e-07 )  
( 1.71487e-05 5.90562e-05 -3.70786e-06 )  
( 1.749e-05 5.92638e-05 4.45951e-07 )  
( 1.92223e-05 5.93347e-05 -1.69598e-07 )  
( 1.82839e-05 5.80022e-05 -4.88177e-06 )  
( 1.34118e-05 5.71968e-05 -3.68421e-06 )  
( 1.72062e-05 5.97968e-05 -3.1036e-06 )  
( 1.72303e-05 5.99893e-05 2.15262e-07 )  
( 1.54113e-05 6.38432e-05 -2.45109e-06 )  
( 1.95823e-05 6.24866e-05 -1.2848e-06 )  
( 1.81578e-05 6.25276e-05 -1.32889e-06 )  
( 1.5386e-05 6.08005e-05 -2.97205e-06 )  
( 2.53239e-05 6.65775e-05 -6.12686e-06 )  
( 1.68937e-05 6.12834e-05 -4.03442e-06 )  
( 1.64378e-05 6.35031e-05 -5.30469e-06 )  
( 1.58287e-05 6.4214e-05 -2.9589e-06 )  
( 1.55539e-05 6.23011e-05 -1.89493e-06 )  
( 1.71753e-05 5.94359e-05 -3.43358e-06 )  
( 1.86106e-05 6.07338e-05 -3.65325e-07 )  
( 1.98475e-05 6.75136e-05 -4.18916e-06 )  
( 1.57259e-05 6.07484e-05 -2.88754e-06 )  
( 1.83989e-05 6.08098e-05 -2.90331e-06 )  
( 2.21083e-05 7.14889e-05 8.94796e-08 )  
( 1.80359e-05 6.59857e-05 -3.31434e-06 )  
( 1.65269e-05 6.46583e-05 -2.75374e-06 )  
( 2.06806e-05 6.54603e-05 -8.74422e-07 )  
( 1.96562e-05 6.17856e-05 -2.96779e-06 )  
( 1.627e-05 6.43764e-05 -6.66156e-06 )  
( 1.71558e-05 6.22102e-05 -4.7003e-06 )  
( 1.70383e-05 6.02781e-05 -7.48614e-07 )  
( 1.82348e-05 6.21903e-05 2.6814e-07 )  
( 2.06643e-05 6.70307e-05 -4.91878e-06 )  
( 1.61466e-05 6.65541e-05 5.29845e-07 )  
( 1.69913e-05 6.13631e-05 -3.14633e-06 )  
( 1.69537e-05 7.08707e-05 -4.03661e-06 )  
( 1.49901e-05 6.3901e-05 -4.35871e-06 )  
( 1.977e-05 6.50905e-05 -3.56654e-06 )  
( 2.75941e-05 7.51525e-05 -6.95217e-06 )  
( 2.07991e-05 6.69803e-05 -9.98811e-07 )  
( 1.90118e-05 6.67595e-05 -2.21385e-06 )  
( 2.06649e-05 6.54478e-05 -6.71716e-06 )  
( 1.78915e-05 6.54365e-05 -2.40892e-06 )  
( 1.66157e-05 6.66051e-05 -4.804e-06 )  
( 1.57258e-05 6.60144e-05 -4.81392e-06 )  
( 1.9878e-05 6.40708e-05 -2.46985e-06 )  
( 2.16759e-05 7.26593e-05 -5.21252e-06 )  
( 2.05763e-05 6.76239e-05 -1.11047e-06 )  
( 1.95589e-05 6.67159e-05 -3.59084e-07 )  
( 2.1018e-05 6.4283e-05 -1.75737e-06 )  
( 1.80429e-05 7.36975e-05 -1.83487e-06 )  
( 2.1237e-05 7.36154e-05 -2.01975e-06 )  
( 1.78043e-05 6.28867e-05 -2.51905e-06 )  
( 1.82794e-05 6.49966e-05 -4.54144e-06 )  
( 3.27401e-05 6.50977e-05 2.0467e-07 )  
( 1.94495e-05 7.94961e-05 -7.18635e-06 )  
( 2.01999e-05 6.49711e-05 -3.96304e-06 )  
( 1.9432e-05 6.63986e-05 -2.71713e-06 )  
( 2.14118e-05 7.30279e-05 -7.31101e-07 )  
( 2.23623e-05 6.98003e-05 -2.66917e-06 )  
( 2.22151e-05 7.12332e-05 -2.29512e-06 )  
( 1.87992e-05 7.06102e-05 -2.33246e-06 )  
( 1.7468e-05 6.83372e-05 4.463e-06 )  
( 2.46989e-05 7.32136e-05 -2.85814e-06 )  
( 2.30069e-05 7.73131e-05 -4.45323e-06 )  
( 1.85869e-05 6.89085e-05 -3.4697e-07 )  
( 2.23086e-05 7.72216e-05 -6.4474e-06 )  
( 1.91676e-05 6.69304e-05 -1.90556e-06 )  
( 2.16029e-05 6.46489e-05 -7.59223e-07 )  
( 1.95921e-05 7.24714e-05 7.11048e-07 )  
( 2.12494e-05 7.87026e-05 -7.54452e-06 )  
( 1.90022e-05 7.24689e-05 3.15762e-07 )  
( 1.90222e-05 7.05872e-05 -3.4262e-06 )  
( 2.52433e-05 8.09821e-05 -4.75963e-06 )  
( 1.89973e-05 7.19543e-05 4.95391e-06 )  
( 1.99627e-05 7.22351e-05 -6.00949e-06 )  
( 1.73676e-05 7.68095e-05 6.69907e-07 )  
( 2.05705e-05 7.3364e-05 -1.20653e-06 )  
( 2.03777e-05 7.43849e-05 3.43538e-07 )  
( 2.07779e-05 7.3282e-05 5.12461e-09 )  
( 2.158e-05 7.49893e-05 5.68296e-07 )  
( 2.19296e-05 7.07669e-05 -3.119e-06 )  
( 2.63775e-05 7.81826e-05 -5.44236e-06 )  
( 2.368e-05 7.11007e-05 5.75372e-07 )  
( 1.03356e-05 7.88884e-05 2.95158e-06 )  
( 1.8279e-05 7.93663e-05 -1.22957e-06 )  
( 2.08474e-05 6.80066e-05 -2.87189e-06 )  
( 2.8436e-05 7.84668e-05 -8.82282e-06 )  
( 1.51098e-05 8.10374e-05 2.34609e-06 )  
( 2.02958e-05 6.80606e-05 -2.2575e-06 )  
( 2.13491e-05 7.02176e-05 -2.95833e-07 )  
( 2.15341e-05 7.38921e-05 -4.87102e-06 )  
( 1.76585e-05 7.36728e-05 -3.29647e-06 )  
( 1.32209e-05 7.69148e-05 -1.57637e-06 )  
( 1.36144e-05 7.7837e-05 -2.26734e-06 )  
( 1.98665e-05 7.03216e-05 -7.77447e-07 )  
( 1.87219e-05 7.21206e-05 -4.12553e-06 )  
( 0.000268306 0.000328551 -0.000169738 )  
( 2.1797e-05 8.22495e-05 -1.56253e-05 )  
( 2.7362e-05 7.92877e-05 -7.84615e-06 )  
( 2.62037e-05 6.81768e-05 -2.40158e-06 )  
( 1.72505e-05 2.26245e-05 1.30173e-06 )  
( 1.71724e-05 7.05798e-05 -2.3694e-06 )  
( -2.32763e-05 0.000137383 -9.31227e-06 )  
( 2.03655e-05 6.99983e-05 -2.34164e-06 )  
( 1.74194e-05 6.84231e-05 -3.34781e-06 )  
( 1.41848e-05 7.9321e-05 -2.59413e-06 )  
( 0.000181825 0.000398838 1.24514e-05 )  
)
