/*--------------------------------*- C++ -*----------------------------------*\
| =========                 |                                                 |
| \\      /  F ield         | OpenFOAM: The Open Source CFD Toolbox           |
|  \\    /   O peration     | Version:  5.x                                   |
|   \\  /    A nd           | Web:      www.OpenFOAM.org                      |
|    \\/     M anipulation  |                                                 |
\*---------------------------------------------------------------------------*/
FoamFile
{
    version     2.0;
    format      ascii;
    class       surfaceScalarField;
    location    "50000";
    object      phi;
}
// * * * * * * * * * * * * * * * * * * * * * * * * * * * * * * * * * * * * * //

dimensions      [0 3 -1 0 0 0 0];

internalField   nonuniform List<scalar> 
5825
(
-0.000176039
8.10106e-05
-999.998
-0.000104272
0.000110115
-999.999
-4.67503e-05
0.000115054
-999.999
-1.83346e-05
0.000122701
-999.999
0.00012398
-999.999
-9.7873e-05
6.88652e-05
-999.998
-5.26091e-05
0.00011508
-999.999
-3.96617e-05
0.000114092
-999.999
-2.3015e-05
0.00011246
-999.999
0.00011212
-999.999
-8.75193e-05
6.88512e-05
-999.998
-5.59097e-05
8.47187e-05
-999.998
-4.08326e-05
8.49066e-05
-999.999
-2.34226e-05
8.31088e-05
-999.999
8.26095e-05
-999.999
-7.43678e-05
4.02909e-05
-999.998
-5.49199e-05
4.66679e-05
-999.998
-4.19996e-05
4.58303e-05
-999.998
-2.39535e-05
4.39633e-05
-999.998
4.33245e-05
-999.998
-7.05335e-05
-999.998
-5.56629e-05
-999.998
-4.37475e-05
-999.998
-2.49558e-05
-999.998
-999.998
-0.000401959
0.000318545
-999.999
-0.000292552
0.000308469
-999.999
-0.000145312
0.000324469
-999.999
-6.45019e-05
0.000345046
-999.999
0.000342168
-999.999
-0.000283002
0.000229759
-999.999
-0.000170606
0.000325348
-999.999
-0.000120637
0.000330758
-999.999
-7.26305e-05
0.000328107
-999.999
0.00032669
-999.999
-0.000256416
0.000210156
-999.998
-0.000168198
0.00025102
-999.998
-0.000120496
0.000251194
-999.999
-7.40304e-05
0.000245112
-999.999
0.000243886
-999.999
-0.000220801
0.000126979
-999.998
-0.000166387
0.000139556
-999.998
-0.00012447
0.000133822
-999.998
-7.47294e-05
0.000128341
-999.998
0.000127175
-999.998
-0.00021386
-999.998
-0.000171955
-999.998
-0.000130841
-999.998
-7.5821e-05
-999.998
-999.998
-0.000414025
0.000664152
-1000
-0.000356546
0.000662953
-999.999
-0.000225495
0.000672502
-1000
-0.000122455
0.000679822
-1000
0.00066886
-1000
-0.000438631
0.000569903
-999.999
-0.000307214
0.000632936
-999.999
-0.000214215
0.000636512
-999.999
-0.00012961
0.00062906
-999.999
0.000623207
-999.999
-0.000419366
0.000456641
-999.998
-0.000309002
0.000484599
-999.998
-0.00022016
0.000478093
-999.999
-0.000132896
0.000467507
-999.999
0.000463717
-999.999
-0.000398014
0.000261372
-999.998
-0.000312659
0.000261268
-999.998
-0.000229319
0.000248879
-999.998
-0.000133579
0.000241781
-999.998
0.000240315
-999.998
-0.000399487
-999.998
-0.000321771
-999.998
-0.000238089
-999.998
-0.000134602
-999.998
-999.998
-0.000405395
0.00137159
-1000
-0.000414218
0.0012446
-1000
-0.000292474
0.00120013
-1000
-0.000169872
0.00118292
-1000
0.00116482
-1000
-0.000532693
0.00109959
-999.999
-0.000431638
0.00109287
-999.999
-0.000309219
0.00106963
-999.999
-0.000178726
0.00104932
-999.999
0.00103597
-999.999
-0.000578989
0.000821395
-999.998
-0.000464156
0.000810961
-999.998
-0.000332117
0.000789109
-999.999
-0.000188815
0.000771846
-999.999
0.00076464
-999.999
-0.00059213
0.000438409
-999.998
-0.000482302
0.000423267
-999.998
-0.000347896
0.000407601
-999.998
-0.000192576
0.000399478
-999.998
0.000398946
-999.998
-0.000608873
-999.997
-0.000495623
-999.998
-0.000356271
-999.998
-0.000193669
-999.998
-999.998
-0.000554161
0.00211514
-999.999
-0.000524812
0.00198702
-1000
-0.000379352
0.00191181
-1000
-0.000212805
0.00187229
-1000
0.00184562
-1000
-0.000677363
0.00174571
-999.999
-0.000571937
0.00170485
-999.999
-0.0004129
0.00165251
-999.999
-0.00022746
0.00161749
-999.999
0.00159717
-999.999
-0.000763248
0.00127818
-999.998
-0.000631063
0.00124261
-999.998
-0.000451443
0.00120608
-999.998
-0.000244054
0.00118246
-999.998
0.00117228
-999.999
-0.000803652
0.00066182
-999.997
-0.00066359
0.000641474
-999.998
-0.000473673
0.000626299
-999.998
-0.000251315
0.000618588
-999.998
0.000618419
-999.998
-0.000827054
-999.997
-0.000677007
-999.997
-0.000479358
-999.997
-0.000251276
-999.998
-999.998
-0.000867406
0.0029222
-1000
-0.000724707
0.00287716
-1000
-0.000507212
0.00282027
-1000
-0.000272795
0.00277712
-1000
0.00274754
-1000
-0.000926985
0.00251139
-999.998
-0.000763723
0.00247607
-999.999
-0.000543039
0.00241571
-999.999
-0.000287765
0.00237517
-999.999
0.00235258
-999.999
-0.000997416
0.00183183
-999.997
-0.00082217
0.0017984
-999.998
-0.000586245
0.00175909
-999.998
-0.000305887
0.00173351
-999.998
0.00172204
-999.998
-0.00103776
0.000950819
-999.997
-0.000860275
0.000933647
-999.997
-0.000611681
0.000921344
-999.997
-0.000314934
0.00091446
-999.997
0.000915041
-999.997
-0.00105332
-999.996
-0.000869452
-999.997
-0.000615155
-999.997
-0.00031308
-999.997
-999.997
-0.00120623
0.00404328
-1000
-0.000964859
0.00403977
-1000
-0.000679191
0.00400894
-1000
-0.000358847
0.00397093
-1000
0.00394208
-1000
-0.00123656
0.00351513
-999.998
-0.00101603
0.00348214
-999.998
-0.000717341
0.00342867
-999.999
-0.00037318
0.00339077
-999.999
0.00336914
-999.999
-0.00129204
0.00255376
-999.997
-0.00106185
0.00253212
-999.997
-0.000754611
0.00249794
-999.997
-0.000387785
0.00247379
-999.998
0.00246107
-999.998
-0.00132142
0.00133574
-999.996
-0.00109592
0.00132674
-999.996
-0.000778542
0.00131705
-999.996
-0.000395571
0.00131052
-999.997
0.00130981
-999.997
-0.00132515
-999.995
-0.00110133
-999.995
-0.000781594
-999.996
-0.000391788
-999.996
-999.996
-0.00151301
0.00572157
-999.999
-0.00126851
0.00566622
-1000
-0.000908221
0.0056169
-1000
-0.000478569
0.00557686
-1000
0.00554588
-1000
-0.00160963
0.00488647
-999.997
-0.0013409
0.00484261
-999.998
-0.000954204
0.00479346
-999.998
-0.000496425
0.00475915
-999.999
0.00473679
-999.999
-0.00167089
0.00354739
-999.995
-0.00138535
0.0035222
-999.996
-0.000987151
0.00349095
-999.996
-0.000508282
0.00346785
-999.997
0.00345309
-999.997
-0.00169862
0.00186257
-999.994
-0.00141528
0.00185766
-999.994
-0.00100917
0.0018457
-999.995
-0.000515722
0.00183676
-999.995
0.00183195
-999.995
-0.00170057
-999.993
-0.00142187
-999.994
-0.00101423
-999.994
-0.000513715
-999.995
-999.995
-0.00195513
0.00800931
-999.999
-0.00171564
0.00788481
-1000
-0.00124504
0.00779562
-1000
-0.000658233
0.00774513
-1000
0.00770588
-1000
-0.00211157
0.0067429
-999.996
-0.00179444
0.0066873
-999.997
-0.00129413
0.00663304
-999.997
-0.000679254
0.00659928
-999.998
0.00657287
-999.998
-0.00220199
0.00489362
-999.993
-0.00185017
0.00485792
-999.994
-0.00132823
0.00482416
-999.995
-0.000692035
0.00480154
-999.995
0.00478395
-999.996
-0.00223811
0.00257681
-999.992
-0.00188063
0.00256526
-999.992
-0.00134962
0.00254889
-999.993
-0.000699602
0.00253687
-999.994
0.00252642
-999.994
-0.0022455
-999.991
-0.0018912
-999.991
-0.00135703
-999.992
-0.000701003
-999.993
-999.993
-0.00276835
0.0109127
-999.998
-0.00240771
0.0108003
-999.999
-0.00175299
0.0107092
-1000
-0.000930593
0.0106571
-1000
0.0106106
-1000
-0.00288835
0.00919225
-999.994
-0.00247352
0.00915667
-999.995
-0.00179699
0.00910014
-999.996
-0.00095008
0.00906935
-999.997
0.00903784
-999.998
-0.00298844
0.00668744
-999.991
-0.00253367
0.0066471
-999.992
-0.00183082
0.00661222
-999.993
-0.000963004
0.00659285
-999.994
0.00657148
-999.994
-0.00303139
0.00352501
-999.988
-0.0025638
0.00350576
-999.99
-0.0018498
0.00348741
-999.991
-0.000970076
0.00347427
-999.991
0.00345827
-999.992
-0.00304493
-999.987
-0.00257496
-999.988
-0.00185729
-999.989
-0.000974662
-999.99
-999.99
-0.00406175
0.0146079
-999.997
-0.00343263
0.0146653
-999.999
-0.0024934
0.0146068
-1000
-0.00132089
0.0145712
-1000
0.0145219
-1000
-0.00407483
0.0124712
-999.992
-0.00346906
0.0124602
-999.994
-0.00252083
0.0124147
-999.995
-0.00133249
0.0123928
-999.996
0.0123555
-999.997
-0.00413296
0.00907618
-999.988
-0.00351286
0.0090464
-999.989
-0.00254573
0.00901902
-999.991
-0.00134235
0.00900545
-999.992
0.00897846
-999.992
-0.00417235
0.00478376
-999.984
-0.00353646
0.00476448
-999.986
-0.00255932
0.0047491
-999.987
-0.00134872
0.00473647
-999.988
0.00471622
-999.989
-0.00418341
-999.983
-0.0035417
-999.984
-0.00256449
-999.986
-0.00135396
-999.987
-999.987
-0.00583804
0.0197114
-999.997
-0.00484118
0.0198727
-999.999
-0.00350371
0.0198662
-1000
-0.00184325
0.019855
-1000
0.0198012
-1000
-0.00573474
0.0169024
-999.99
-0.00484228
0.0169196
-999.992
-0.00351146
0.0168959
-999.994
-0.00184939
0.016883
-999.995
0.0168374
-999.996
-0.00573321
0.0123041
-999.983
-0.00486268
0.0122898
-999.986
-0.0035248
0.0122754
-999.987
-0.0018565
0.0122658
-999.989
0.0122308
-999.99
-0.00575376
0.00647829
-999.979
-0.00487499
0.00646637
-999.981
-0.00353385
0.00645561
-999.983
-0.00186294
0.00644449
-999.984
0.00642171
-999.985
-0.0057531
-999.976
-0.00487252
-999.979
-0.00353539
-999.981
-0.00186592
-999.982
-999.983
-0.00805615
0.0268062
-999.996
-0.00669541
0.026986
-999.999
-0.00483353
0.027008
-1000
-0.00253096
0.0270112
-1000
0.0269425
-1000
-0.00792652
0.0229436
-999.986
-0.00667267
0.0229885
-999.989
-0.00483026
0.0229805
-999.991
-0.00253688
0.022971
-999.993
0.0229111
-999.994
-0.00788882
0.0167009
-999.978
-0.00667648
0.0167029
-999.981
-0.0048385
0.0166959
-999.983
-0.00254325
0.0166858
-999.985
0.0166397
-999.986
-0.00788985
0.00878716
-999.971
-0.00668212
0.00878319
-999.974
-0.00484686
0.00877416
-999.977
-0.00254959
0.00876531
-999.979
0.00873854
-999.98
-0.00787471
-999.968
-0.00667446
-999.971
-0.00484321
-999.974
-0.0025494
-999.975
-999.976
-0.01086
0.0365948
-999.995
-0.00910763
0.036721
-999.999
-0.00658049
0.0367304
-1000
-0.00344234
0.0367272
-1000
0.0366318
-1000.01
-0.0107844
0.0312234
-999.981
-0.00909291
0.0312674
-999.985
-0.00658247
0.0312572
-999.988
-0.00345281
0.0312421
-999.991
0.0311594
-999.992
-0.0107523
0.0227169
-999.97
-0.00909956
0.0227206
-999.974
-0.00659503
0.0227081
-999.977
-0.00346147
0.0226933
-999.979
0.0226312
-999.981
-0.0107516
0.011949
-999.961
-0.00911021
0.0119463
-999.965
-0.00660641
0.0119347
-999.969
-0.00346886
0.0119264
-999.971
0.0118912
-999.972
-0.0107286
-999.957
-0.00909969
-999.961
-0.00659891
-999.964
-0.00346836
-999.967
-999.968
-0.0145572
0.0499785
-999.993
-0.0122951
0.0500119
-999.998
-0.00890651
0.0499747
-1000
-0.00466491
0.0499445
-1000.01
0.0498087
-1000.01
-0.0145632
0.0425583
-999.975
-0.0123249
0.0425564
-999.98
-0.00893316
0.0425216
-999.984
-0.0046854
0.0424916
-999.988
0.0423752
-999.989
-0.0145789
0.0309464
-999.959
-0.0123568
0.0309257
-999.964
-0.00895903
0.0308941
-999.969
-0.00470118
0.0308692
-999.972
0.0307839
-999.974
-0.0146031
0.0162762
-999.947
-0.0123849
0.0162653
-999.953
-0.00897924
0.016247
-999.957
-0.00471266
0.0162328
-999.961
0.0161848
-999.963
-0.0145805
-999.941
-0.0123744
-999.947
-0.00897269
-999.951
-0.0047125
-999.955
-999.956
-0.0196221
0.0681187
-999.99
-0.0166125
0.0680965
-999.998
-0.0120526
0.0680062
-1000
-0.00632456
0.0679348
-1000.01
0.0677414
-1000.01
-0.0196783
0.0580061
-999.965
-0.0167006
0.0579304
-999.973
-0.012119
0.0578539
-999.979
-0.00635992
0.0577995
-999.983
0.0576364
-999.986
-0.0197619
0.0421692
-999.944
-0.0167741
0.0421032
-999.951
-0.0121684
0.0420414
-999.957
-0.00638705
0.0419981
-999.962
0.0418804
-999.964
-0.0198289
0.0221811
-999.928
-0.0168318
0.0221521
-999.936
-0.0122067
0.0221196
-999.942
-0.00640544
0.0220926
-999.947
0.0220282
-999.949
-0.0198136
-999.92
-0.0168259
-999.927
-0.0122046
-999.934
-0.00640382
-999.938
-999.941
-0.0266504
0.0926807
-999.987
-0.0225418
0.0926615
-999.997
-0.0163469
0.0925338
-1000
-0.00858798
0.092417
-1000.01
0.0921481
-1000.01
-0.0266995
0.0789942
-999.953
-0.0226719
0.0788479
-999.963
-0.0164582
0.07872
-999.971
-0.00864063
0.0786289
-999.977
0.0784024
-999.98
-0.026846
0.0574331
-999.924
-0.0227981
0.0573145
-999.934
-0.0165435
0.0572113
-999.942
-0.00868295
0.0571381
-999.948
0.056974
-999.952
-0.0269624
0.0302184
-999.903
-0.022898
0.0301572
-999.913
-0.016611
0.0301007
-999.921
-0.00871241
0.0300576
-999.927
0.02997
-999.931
-0.0269623
-999.891
-0.0229019
-999.901
-0.0166136
-999.91
-0.00871022
-999.916
-999.919
-0.0362649
0.126095
-999.982
-0.0306494
0.126059
-999.996
-0.0222032
0.125891
-1000.01
-0.0116664
0.125723
-1000.01
0.125355
-1000.02
-0.0363228
0.107522
-999.936
-0.0308212
0.107302
-999.949
-0.0223638
0.107106
-999.961
-0.0117409
0.106959
-999.969
0.106642
-999.973
-0.0365381
0.0781805
-999.896
-0.0310179
0.0780004
-999.91
-0.0225031
0.0778394
-999.921
-0.0118067
0.0777212
-999.93
0.0774881
-999.934
-0.0367144
0.0411451
-999.867
-0.0311769
0.0410343
-999.881
-0.0226136
0.0409442
-999.893
-0.0118567
0.0408802
-999.901
0.0407578
-999.906
-0.036741
-999.852
-0.0311957
-999.866
-0.0226226
-999.877
-0.0118579
-999.886
-999.891
-0.0491747
0.171744
-999.976
-0.0416121
0.171538
-999.994
-0.0301405
0.171262
-1000.01
-0.0158373
0.171012
-1000.02
0.170501
-1000.03
-0.049396
0.146373
-999.913
-0.0418953
0.146018
-999.931
-0.0303797
0.145706
-999.946
-0.0159469
0.145469
-999.958
0.145018
-999.964
-0.0497445
0.106412
-999.859
-0.0422086
0.106131
-999.877
-0.0306056
0.105881
-999.893
-0.0160561
0.105694
-999.904
0.105361
-999.91
-0.0500213
0.0560084
-999.82
-0.0424572
0.0558277
-999.838
-0.0307824
0.0556882
-999.854
-0.0161413
0.0555888
-999.866
0.0554118
-999.872
-0.0500875
-999.799
-0.0425007
-999.818
-0.0308077
-999.833
-0.0161536
-999.845
-999.851
-0.0665038
0.234044
-999.968
-0.056369
0.233477
-999.992
-0.0408586
0.232964
-1000.01
-0.0214719
0.232567
-1000.03
0.23184
-1000.04
-0.0670822
0.199312
-999.882
-0.0568959
0.198701
-999.906
-0.0412435
0.198186
-999.927
-0.0216517
0.1978
-999.942
0.197152
-999.951
-0.0676842
0.144878
-999.808
-0.0574139
0.144408
-999.833
-0.0416149
0.144008
-999.855
-0.0218359
0.143708
-999.87
0.143226
-999.878
-0.0681486
0.0762536
-999.755
-0.0578132
0.0759696
-999.78
-0.0419018
0.0757445
-999.802
-0.0219791
0.0755775
-999.817
0.0753172
-999.826
-0.0682784
-999.726
-0.0579091
-999.752
-0.0419697
-999.774
-0.0220152
-999.789
-999.798
-0.0900242
0.318761
-999.957
-0.0763071
0.317738
-999.99
-0.0553318
0.31685
-1000.02
-0.0290771
0.316202
-1000.04
0.315152
-1000.05
-0.0910615
0.271393
-999.839
-0.0772132
0.270383
-999.873
-0.055964
0.26953
-999.901
-0.029384
0.268899
-999.922
0.267961
-999.933
-0.0920676
0.197317
-999.739
-0.0780726
0.196516
-999.773
-0.0565773
0.195851
-999.802
-0.0296898
0.195356
-999.823
0.194652
-999.835
-0.0928632
0.103853
-999.666
-0.0787376
0.103398
-999.701
-0.0570558
0.103018
-999.731
-0.0299322
0.102732
-999.752
0.102352
-999.764
-0.0931124
-999.628
-0.0789449
-999.663
-0.0572097
-999.692
-0.0300073
-999.714
-999.726
-0.122039
0.433863
-999.942
-0.103311
0.432274
-999.986
-0.0748707
0.430852
-1000.02
-0.0393316
0.429804
-1000.05
0.428278
-1000.07
-0.123646
0.369524
-999.782
-0.104752
0.367895
-999.827
-0.0758969
0.366494
-999.866
-0.039845
0.365461
-999.893
0.36409
-999.909
-0.125287
0.268795
-999.646
-0.106168
0.26745
-999.692
-0.0769107
0.266325
-999.731
-0.0403535
0.265496
-999.76
0.264457
-999.776
-0.126634
0.141488
-999.546
-0.107295
0.140734
-999.594
-0.0777221
0.140088
-999.634
-0.0407641
0.139612
-999.663
0.139052
-999.679
-0.127116
-999.493
-0.107712
-999.541
-0.0780228
-999.582
-0.0409114
-999.611
-999.628
-0.165313
0.590507
-999.922
-0.13977
0.587974
-999.981
-0.101179
0.585723
-1000.03
-0.0531222
0.584032
-1000.07
0.581802
-1000.09
-0.167876
0.503209
-999.704
-0.142046
0.500524
-999.766
-0.102842
0.498212
-999.817
-0.0539717
0.496507
-999.855
0.494479
-999.875
-0.170591
0.366222
-999.518
-0.144387
0.36398
-999.582
-0.104529
0.36208
-999.635
-0.0548274
0.360684
-999.674
0.359132
-999.695
-0.172848
0.192831
-999.383
-0.146301
0.191557
-999.448
-0.105906
0.19047
-999.503
-0.0555269
0.189676
-999.542
0.188824
-999.564
-0.173767
-999.31
-0.147087
-999.377
-0.106468
-999.432
-0.0558197
-999.472
-999.495
-0.22344
0.803869
-999.895
-0.188725
0.799631
-999.975
-0.136457
0.795977
-1000.04
-0.0715987
0.793219
-1000.09
0.789922
-1000.12
-0.227731
0.685396
-999.599
-0.192423
0.680881
-999.682
-0.139182
0.677024
-999.752
-0.0730132
0.674179
-999.802
0.671129
-999.83
-0.232312
0.49908
-999.346
-0.196338
0.495329
-999.432
-0.142016
0.492121
-999.505
-0.074469
0.489765
-999.557
0.487399
-999.586
-0.236107
0.262937
-999.161
-0.199582
0.260771
-999.25
-0.144358
0.258935
-999.325
-0.0756748
0.257581
-999.379
0.25627
-999.409
-0.237813
-999.062
-0.201027
-999.153
-0.145411
-999.229
-0.0762296
-999.284
-999.315
-0.301266
1.09428
-999.86
-0.25409
1.08718
-999.967
-0.183517
1.08112
-1000.06
-0.0962292
1.07656
-1000.12
1.07162
-1000.15
-0.308465
0.933689
-999.458
-0.260226
0.926066
-999.569
-0.188038
0.919565
-999.663
-0.0986025
0.914759
-999.73
0.910085
-999.767
-0.316232
0.68047
-999.113
-0.266842
0.674102
-999.23
-0.192853
0.668655
-999.328
-0.101111
0.664636
-999.399
0.660967
-999.438
-0.322702
0.358801
-998.859
-0.272371
0.355097
-998.982
-0.196874
0.351956
-999.084
-0.103204
0.349634
-999.158
0.347599
-999.199
-0.325819
-998.723
-0.275016
-998.848
-0.198812
-998.953
-0.104217
-999.029
-999.071
-0.404957
1.48911
-999.815
-0.34078
1.47735
-999.956
-0.245862
1.46722
-1000.07
-0.128867
1.45961
-1000.16
1.4521
-1000.2
-0.41691
1.27216
-999.269
-0.351042
1.25923
-999.417
-0.253432
1.24817
-999.542
-0.132872
1.23993
-999.631
1.23262
-999.68
-0.430134
0.92855
-998.798
-0.36234
0.917577
-998.956
-0.261721
0.908216
-999.089
-0.137253
0.901285
-999.185
0.895482
-999.238
-0.44133
0.490193
-998.45
-0.371874
0.483811
-998.617
-0.268693
0.478387
-998.757
-0.140916
0.474387
-998.859
0.471146
-998.916
-0.446991
-998.263
-0.376685
-998.435
-0.27221
-998.579
-0.142777
-998.684
-998.743
-0.541811
2.02537
-999.758
-0.454676
2.00587
-999.94
-0.327753
1.9889
-1000.09
-0.171828
1.97613
-1000.2
1.96451
-1000.26
-0.561686
1.73385
-999.017
-0.471882
1.71169
-999.213
-0.340483
1.69262
-999.377
-0.178652
1.67832
-999.495
1.66656
-999.561
-0.584449
1.26861
-998.373
-0.491415
1.24954
-998.587
-0.354964
1.23329
-998.766
-0.186433
1.22121
-998.896
1.21181
-998.97
-0.603977
0.670951
-997.895
-0.508014
0.659891
-998.124
-0.36716
0.650465
-998.316
-0.192915
0.64348
-998.456
0.638185
-998.535
-0.614194
-997.635
-0.516715
-997.873
-0.37356
-998.072
-0.196345
-998.218
-998.301
-0.719727
2.75271
-999.689
-0.602256
2.7201
-999.92
-0.434165
2.69159
-1000.11
-0.227939
2.67015
-1000.25
2.65172
-1000.33
-0.753018
2.36427
-998.687
-0.631154
2.32573
-998.941
-0.455549
2.2924
-999.153
-0.239718
2.26708
-999.308
2.24748
-999.397
-0.79277
1.73637
-997.806
-0.665455
1.70309
-998.092
-0.481359
1.67472
-998.333
-0.253954
1.65351
-998.51
1.63793
-998.615
-0.826945
0.921065
-997.142
-0.694492
0.901819
-997.455
-0.502813
0.885343
-997.718
-0.265486
0.873021
-997.912
0.864201
-998.027
-0.845281
-996.777
-0.710182
-997.106
-0.514469
-997.383
-0.27178
-997.588
-997.709
-0.945489
3.73666
-999.615
-0.789667
3.6822
-999.894
-0.570747
3.63421
-1000.13
-0.300998
3.59871
-1000.31
3.56882
-1000.42
-1.00112
3.22644
-998.267
-0.838074
3.15833
-998.58
-0.605904
3.09903
-998.85
-0.321211
3.05287
-999.047
3.01833
-999.167
-1.07182
2.38358
-997.057
-0.899603
2.3252
-997.431
-0.653455
2.27569
-997.755
-0.348611
2.23841
-998.001
2.21217
-998.157
-1.13183
1.27033
-996.127
-0.950267
1.23671
-996.548
-0.691029
1.20781
-996.909
-0.369021
1.18597
-997.182
1.17084
-997.354
-1.16462
-995.607
-0.978485
-996.055
-0.712209
-996.441
-0.380696
-996.733
-996.919
-1.21962
5.06135
-999.566
-1.02172
4.97333
-999.866
-0.744546
4.89303
-1000.16
-0.397843
4.83817
-1000.39
4.78948
-1000.55
-1.30914
4.40891
-997.771
-1.10112
4.28563
-998.1
-0.797149
4.1774
-998.439
-0.430397
4.08846
-998.664
4.02173
-998.83
-1.43848
3.28745
-996.097
-1.21513
3.18445
-996.553
-0.890379
3.09923
-997.002
-0.487761
3.03469
-997.35
2.9903
-997.613
-1.54404
1.7651
-994.773
-1.30185
1.70615
-995.312
-0.954321
1.65536
-995.813
-0.522545
1.61633
-996.195
1.58946
-996.476
-1.60252
-994.013
-1.35259
-994.599
-0.993106
-995.145
-0.544718
-995.565
-995.874
-1.52085
6.8266
-999.652
-1.30499
6.70407
-999.856
-0.969196
6.57073
-1000.25
-0.536266
6.50626
-1000.59
6.42854
-1000.88
-1.645
6.03979
-997.322
-1.42725
5.80634
-997.42
-1.0185
5.60079
-997.877
-0.575719
5.40636
-998.007
5.25728
-998.235
-1.89378
4.56752
-994.964
-1.64994
4.38464
-995.375
-1.22509
4.24458
-996.071
-0.713021
4.13808
-996.593
4.06554
-997.135
-2.07805
2.48056
-993.043
-1.78911
2.37759
-993.594
-1.32304
2.2878
-994.322
-0.763648
2.21683
-994.834
2.16643
-995.341
-2.18168
-991.896
-1.88162
-992.522
-1.39625
-993.343
-0.808126
-993.937
-994.516
-1.77657
9.11885
-1000.25
-1.67892
9.05923
-999.957
-1.29319
8.81879
-1000.71
-0.776158
8.83764
-1001.32
8.7052
-1001.98
-1.87435
8.31905
-997.412
-1.82672
7.8291
-996.238
-1.17152
7.41798
-997.132
-0.751848
6.9422
-996.531
6.61505
-996.896
-2.38643
6.41446
-993.925
-2.30761
6.08785
-993.713
-1.73112
5.88596
-995.115
-1.14232
5.73045
-995.971
5.61967
-997.282
-2.68964
3.54253
-991.098
-2.48977
3.36853
-991.074
-1.81959
3.20534
-992.312
-1.16901
3.06978
-992.823
2.96206
-993.852
-2.86902
-989.3
-2.66822
-989.354
-1.96939
-990.836
-1.26968
-991.567
-992.823
-1.89876
11.9068
-1002.37
-2.29924
12.4422
-1000.5
-1.87852
11.8125
-1002.33
-1.28897
12.2436
-1003.52
11.8708
-1005.05
-1.74589
11.6121
-999.408
-2.17386
10.3853
-993.753
-0.980664
9.66894
-996.181
-0.897912
8.6219
-992.993
8.00515
-993.929
-2.8855
9.12606
-993.563
-3.47819
8.55885
-991.294
-2.61726
8.35355
-994.661
-2.09204
8.14323
-996.017
7.93624
-999.305
-3.30392
5.16486
-989.463
-3.56246
4.90852
-987.165
-2.39485
4.57766
-989.703
-1.89495
4.28612
-989.466
4.06997
-991.881
-3.61207
-986.464
-3.9582
-984.099
-2.75154
-987.465
-2.17104
-987.861
-990.924
-1.87575
14.7889
-1007.9
-3.36988
17.4881
-1002.25
-3.08004
15.4514
-1006.24
-2.40757
17.0526
-1008.51
15.873
-1011.82
-0.777974
16.7251
-1006.66
-1.59492
13.5475
-988.995
-0.133294
12.613
-994.805
-0.732394
10.5487
-985.89
9.29281
-988.081
-3.61825
13.1073
-994.322
-5.59478
12.2756
-988.045
-4.40587
12.1698
-995.406
-4.28125
11.7982
-997.391
11.2769
-1005.57
-4.02501
7.74832
-988.973
-4.95545
7.5142
-981.474
-2.95714
6.66476
-986.197
-3.30777
6.24934
-983.567
5.94754
-989.859
-4.58425
-983.359
-6.00387
-975.165
-3.90331
-982.901
-4.08139
-981.434
-989.058
-1.66458
16.2008
-1019.72
-4.98835
24.6279
-1006.48
-5.59771
19.1476
-1013.52
-4.73053
23.4751
-1018.3
20.4554
-1024.99
2.35324
25.6644
-1028.34
2.11963
17.8856
-982.019
2.74882
16.6491
-992.935
0.481332
12.9031
-973.05
9.79397
-976.938
-5.10821
18.9063
-995.579
-9.23285
17.8735
-983.908
-8.20211
18.0715
-997.859
-9.33922
17.4106
-1000.76
15.9737
-1021.09
-5.03485
12.1787
-991.307
-5.70578
12.4706
-975.4
-3.64033
10.0499
-980.24
-6.36104
10.0801
-973.515
9.62071
-989.867
-6.07642
-978.937
-8.75059
-960.02
-5.90307
-975.699
-8.15582
-969.101
-987.593
-1.09287
11.0289
-1042.53
-6.52227
33.7072
-1016.71
-10.7969
21.4839
-1023.88
-9.27797
31.9788
-1036.97
25.217
-1048.92
15.5135
43.9981
-1096
10.2953
24.194
-967.288
10.9681
22.9607
-995.085
2.77561
16.0792
-948.958
7.54007
-956.486
-8.58283
29.5931
-994.951
-15.3999
25.703
-978.6
-16.2251
27.7703
-1001.84
-21.2498
26.7312
-1006.39
22.6299
-1057.43
-6.68875
20.5023
-998.511
-2.55196
23.2612
-977.094
-4.65479
15.9723
-966.339
-14.0516
18.2909
-955.678
17.8266
-999.116
-8.5395
-969.249
-11.7847
-933.514
-9.32232
-962.189
-16.8477
-943.284
-986.614
2.43237
-15.2498
-1107.1
-2.97073
45.7215
-1044.99
-22.969
15.192
-1028.89
-18.0937
42.43
-1072.51
29.2021
-1087.94
58.4319
95.2716
-1319.03
35.6737
31.4417
-930.249
29.5806
38.9549
-1012.76
8.35282
21.3479
-906.648
-3.19941
-915.731
-13.2199
57.4323
-985.557
-23.5039
31.8189
-968.694
-32.7306
45.0501
-998.712
-49.7962
42.2099
-1010.19
29.7338
-1140.16
-8.71033
36.9137
-1010.82
10.008
47.8132
-1011.81
-6.2936
26.2862
-931.274
-36.002
35.8402
-919.6
39.4643
-1044.85
-10.1504
-942.275
-12.7424
-883.109
-14.8791
-933.766
-35.8125
-886.511
-982.962
-38.5134
0.754439
-1115.87
-58.4634
60.3412
-1056.33
-52.3285
35.8396
-1099.54
-47.4776
57.6573
-1130.37
31.4598
-1200.37
73.3406
121.576
-1559.23
57.9907
20.5964
-875.155
47.9192
38.1159
-1004.96
17.8262
11.2723
-830.17
-40.37
-826.075
-67.6313
68.8715
-903.763
-72.2599
31.8048
-975.273
-75.2703
67.9664
-1025.55
-99.9715
51.1781
-1025.39
32.3497
-1312.85
-32.8336
45.9149
-991.822
20.5117
58.8925
-1092.24
-13.1163
26.4494
-856.129
-49.1509
43.7047
-876.092
28.0389
-1089.69
-45.3714
-865.198
-37.2296
-832.358
-43.8544
-900.691
-84.0089
-802.651
-1038.93
79.3766
-439.201
-1620.37
186.588
93.0684
-1470.02
-67.9202
-129.845
-871.669
-28.2578
113.996
-1377.63
41.5852
-1230.23
489.758
646.751
-3633.51
284.685
26.8112
-603.824
165.358
185.489
-1200.97
73.6416
87.5845
-712.042
-194.369
-516.48
-38.9616
349.674
-746.948
11.9592
26.8843
-1026.27
-133.686
161.341
-855.759
-294.896
199.459
-976.055
80.4009
-1882.52
-64.9977
160.685
-981.377
199.427
342.122
-1671.9
-8.63371
91.3556
-578.082
-311.488
295.754
-669.533
426.715
-1747.49
-33.1665
-650.088
53.4033
-576.807
73.7335
-829.666
-80.8852
-352.279
-693.103
-331.224
422.319
-1091.97
-544.615
153.986
-1016.31
-151.833
221.864
-1565.1
-252.615
24.7648
-1229.58
71.3153
-1804.04
-51.0231
-222.647
-2539.51
-56.9444
-95.2372
-348.68
63.8306
57.6681
-1157.55
34.5725
-118.338
-539.682
-26.3683
-384.224
-270.345
-148.186
-519.239
-307.087
-11.0556
-1073.71
-181.164
124.202
-1048.22
-249.543
-79.5612
-946.453
-146.299
-2012.13
-33.5056
15.2781
-937.649
-19.1726
-65.5808
-1631.71
-33.6287
19.8171
-459.242
51.1161
-140.574
-693.264
-576.275
-1266.4
24.9329
-437.996
-179.116
-438.339
-455.911
-533.054
-614.486
-334.278
-1883.86
-0.748524
-1.17951
-1192.45
113.68
6.2419
-1342.42
12.4164
-198.274
-1329.72
119.678
21.0445
-1381.72
109.602
-1678.84
77.4258
42.3893
-3105.24
9.58034
-78.6237
-195.969
30.2313
98.6785
-1475.15
7.59389
3.87909
-499.879
-99.9817
-167.046
-6.21577
-3.59039
-475.647
28.3162
-106.933
-1079.93
-25.1379
48.8615
-944.946
-124.759
8.86844
-851.821
-84.9248
-2151.94
-39.4195
-23.2765
-931.317
84.6407
121.76
-1984.46
-15.1805
-23.6631
-286.896
-65.505
21.5353
-655.606
283.789
-1700.62
-12.4265
-370.901
-26.3711
-302.634
44.0386
-627.126
91.9602
-360.664
-1508.11
846.466
-140.511
-2309.64
790.531
25.3034
-1441.3
-140.394
-35.8251
-137.963
152.427
156.284
-1829.05
-118.435
-1482.36
-246.725
554.603
-4293.22
-5.62868
-0.524012
-411.237
-38.8771
84.5408
-1562.27
-76.1465
-18.2877
-288.038
8.27202
-369.899
265.232
229.735
-463.77
222.516
138.389
-1176.13
-119.822
-47.5756
-470.49
-150.693
-89.819
-749.419
-444.515
-1849.85
118.931
-104.115
-532.186
-51.6098
33.8836
-1709.42
-56.6714
35.6563
-365.066
-211.767
-43.8604
-546.47
-211.477
-2145.42
48.8424
-534.458
-69.7146
-150.193
-129.765
-531.42
-0.711158
-533.579
-1720.3
-63.1891
980.503
-1541.34
-18.0618
-38.2175
-1163.65
-12.021
-42.1405
-2.58316
373.474
17.5289
-2272.53
-279.589
-850.336
-9.53353
-322.086
-2766.01
43.0797
-122.67
-379.398
-49.5351
-153.352
-1358.44
-73.9065
-101.554
-144.584
-88.5515
-634.843
-66.3049
-12.7514
-457.853
-58.523
29.3493
-1335.93
-20.7583
-33.9859
-627.621
193.259
-54.4329
-1010.56
-195.413
-1549.73
-35.0848
-69.9885
-275.83
-143.092
-96.0926
-1475.97
-0.840232
-6.15313
-535.151
193.528
-4.7984
-790.473
-736.151
-1411.16
26.2225
-842.312
-0.372733
-219.691
-102.943
-435.003
-188.266
-453.054
-2644.72
-265.952
-742.392
-30.2241
-194.657
-1.25998
-1133.95
139.802
-5.16499
-326.785
52.8167
-43.923
-2063.08
-79.4441
-300.189
40.402
-810.015
-2514.84
-64.2618
-150.79
-125.204
-193.883
-546.645
-687.341
78.4993
-116.522
-344.368
-177.432
-458.356
370.856
14.5839
-2106.64
197.37
-258.487
-1054.74
-9.4231
-445.915
-521.558
389.582
-66.5963
-1459.49
-326.559
-1011.02
301.161
-57.3849
-568.535
11.8145
-190.112
-1255
167.565
-6.66662
-1130.15
181.279
23.1974
-893.98
-326.657
-1229.78
125.894
-1865.11
27.9709
-311.879
35.9902
-449.689
-119.743
-274.123
-3091.12
18.6774
106.244
-706.369
97.1455
-59.4612
-1183.12
133.009
-13.9078
-430.842
-369.908
157.928
-996.896
124.21
-547.576
-271.945
-1147.19
-1008.31
27.9778
189.073
-673.661
-23.3342
6.23868
-656.176
98.816
33.3175
-341.908
80.469
-315.799
654.082
-440.797
-3499.12
113.727
50.6635
-375.98
-10.3559
-155.07
-236.166
158.432
-82.5324
-1512.43
-307.579
-464.54
87.3196
-471.919
-621.417
-79.9771
-26.0132
-1011.03
-184.39
-12.2472
-1168.56
321.367
60.9842
-1543.25
-830.673
-385.317
64.482
-3214.88
169.591
-443.001
-31.6915
-260.654
45.2765
-290.107
-3876.52
-237.824
152.589
-633.011
-144.973
51.8895
-993.819
-2.0928
-4.07616
-569.274
-225.906
-5.60656
-16.0055
-67.5654
-584.272
-292.265
-83.9734
-258.348
-47.0124
117.159
-984.183
6.2424
70.7876
-784.295
-4.00392
161.818
-499.086
0.999411
-388.368
56.6329
29.6523
-3924.26
-23.1428
55.2697
-234.315
122.773
203.738
-515.032
-5.23011
151.048
-1373.65
6.29012
-475.061
260.199
-403.995
-428.535
420.637
-8.82194
-1107.37
199.611
13.6758
-757.471
474.883
28.2808
-1695.76
125.141
-29.2853
268.521
-4128.16
87.0946
-270.397
-3.33226
-156.552
1088.34
-1353.49
-2663.04
-1.49621
-13.1176
-679.796
-44.0818
31.2814
-918.499
-13.2979
-66.0425
-794.369
-19.6927
-67.8648
-16.023
15.7502
-659.119
200.073
1066.08
-1874.38
33.1046
128.167
-914.101
-192.214
68.7772
-693.796
-385.189
76.1276
-450.103
107.427
-865.233
-156.175
1274.79
-4496.32
-116.029
51.1297
-197.423
-146.874
188.599
-604.009
-259.773
133.129
-1317.76
-34.5223
-592.884
172.378
1338.27
-448.409
-24.7911
0.128918
-859.202
-108.331
12.9572
-498.29
-113.446
121.484
-1679
5.53904
-182.793
219.624
-2768.03
-11.4588
-39.1847
-19.4051
-135.648
12.853
-1264.27
-2644.65
434.738
2225.61
-3789
157.747
-4.51708
-902.779
-56.4055
-71.786
-555.327
309.309
4.98872
-468.783
-93.308
-977.315
107.041
2614.81
-2311.89
-99.7796
23.0699
-734.867
4.24645
-96.0334
-773.574
71.7027
-115.784
-396.787
-203.052
-683.786
23.7891
-141.682
-1468.09
-5.0955
-65.6738
-79.7947
199.252
47.4259
-951.816