/*--------------------------------*- C++ -*----------------------------------*\
| =========                 |                                                 |
| \\      /  F ield         | OpenFOAM: The Open Source CFD Toolbox           |
|  \\    /   O peration     | Version:  5.x                                   |
|   \\  /    A nd           | Web:      www.OpenFOAM.org                      |
|    \\/     M anipulation  |                                                 |
\*---------------------------------------------------------------------------*/
FoamFile
{
    version     2.0;
    format      ascii;
    class       volVectorField;
    location    "2000";
    object      stored_U;
}
// * * * * * * * * * * * * * * * * * * * * * * * * * * * * * * * * * * * * * //

dimensions      [0 1 -1 0 0 0 0];

internalField   nonuniform List<vector> 
180
(
(-1.06434e-10 1.08104e-09 -0.00100017)
(-7.03791e-10 7.53046e-10 -0.00100015)
(-1.22269e-09 9.45734e-10 -0.00100014)
(-1.94706e-09 1.05165e-09 -0.00100013)
(-3.0616e-09 8.00412e-10 -0.00100013)
(-4.69928e-09 4.54616e-11 -0.00100012)
(-6.97756e-09 -1.32912e-09 -0.00100012)
(-1.00301e-08 -3.45374e-09 -0.00100011)
(-1.3998e-08 -6.46552e-09 -0.0010001)
(-1.90276e-08 -1.05059e-08 -0.0010001)
(-2.52709e-08 -1.57213e-08 -0.00100009)
(-3.28859e-08 -2.22626e-08 -0.00100007)
(-4.20368e-08 -3.02854e-08 -0.00100006)
(-5.28973e-08 -3.99496e-08 -0.00100004)
(-6.56622e-08 -5.14235e-08 -0.00100002)
(-8.05645e-08 -6.48987e-08 -0.000999991)
(-9.77402e-08 -8.05213e-08 -0.000999961)
(-1.17254e-07 -9.84081e-08 -0.000999926)
(-1.39299e-07 -1.18746e-07 -0.000999885)
(-1.64073e-07 -1.41726e-07 -0.000999837)
(-1.9175e-07 -1.67535e-07 -0.000999783)
(-2.22553e-07 -1.9639e-07 -0.000999721)
(-2.56727e-07 -2.28529e-07 -0.00099965)
(-2.94527e-07 -2.64211e-07 -0.000999571)
(-3.36227e-07 -3.03726e-07 -0.000999482)
(-3.82135e-07 -3.47392e-07 -0.000999383)
(-4.32598e-07 -3.95556e-07 -0.000999273)
(-4.8801e-07 -4.48602e-07 -0.000999151)
(-5.48819e-07 -5.06965e-07 -0.000999017)
(-6.15538e-07 -5.71138e-07 -0.000998869)
(-6.88756e-07 -6.41684e-07 -0.000998706)
(-7.69146e-07 -7.19241e-07 -0.000998527)
(-8.57478e-07 -8.04522e-07 -0.000998329)
(-9.54625e-07 -8.98332e-07 -0.00099811)
(-1.06158e-06 -1.00155e-06 -0.000997869)
(-1.17945e-06 -1.11516e-06 -0.000997602)
(-1.30948e-06 -1.2402e-06 -0.000997306)
(-1.45307e-06 -1.37785e-06 -0.000996978)
(-1.61177e-06 -1.52937e-06 -0.000996614)
(-1.78727e-06 -1.69613e-06 -0.000996208)
(-1.98147e-06 -1.87957e-06 -0.000995757)
(-2.19641e-06 -2.08123e-06 -0.000995255)
(-2.43433e-06 -2.3027e-06 -0.000994697)
(-2.69766e-06 -2.54559e-06 -0.000994076)
(-2.98899e-06 -2.81153e-06 -0.000993386)
(-3.3111e-06 -3.10208e-06 -0.000992622)
(-3.66684e-06 -3.41868e-06 -0.000991778)
(-4.05922e-06 -3.76259e-06 -0.000990847)
(-4.49127e-06 -4.13475e-06 -0.000989825)
(-4.96611e-06 -4.53575e-06 -0.000988705)
(-5.4868e-06 -4.9656e-06 -0.000987483)
(-6.05632e-06 -5.42361e-06 -0.000986155)
(-6.67749e-06 -5.90816e-06 -0.000984717)
(-7.35288e-06 -6.41649e-06 -0.000983166)
(-8.08467e-06 -6.94435e-06 -0.000981501)
(-8.8745e-06 -7.48569e-06 -0.000979721)
(-9.72333e-06 -8.03218e-06 -0.000977827)
(-1.06313e-05 -8.57273e-06 -0.000975823)
(-1.15975e-05 -9.09298e-06 -0.000973712)
(-1.262e-05 -9.57456e-06 -0.000971496)
(-1.3696e-05 -9.99456e-06 -0.000969175)
(-1.4823e-05 -1.03249e-05 -0.00096674)
(-1.59989e-05 -1.05318e-05 -0.000964234)
(-1.72119e-05 -1.05691e-05 -0.000961728)
(-1.84454e-05 -1.03795e-05 -0.000959277)
(-1.96774e-05 -9.89188e-06 -0.000956952)
(-2.08786e-05 -9.01874e-06 -0.000954844)
(-2.20108e-05 -7.65233e-06 -0.000953075)
(-2.30246e-05 -5.6605e-06 -0.000951794)
(-2.38569e-05 -2.88144e-06 -0.000951197)
(-2.44276e-05 8.82749e-07 -0.000951525)
(-2.46355e-05 5.8735e-06 -0.000953075)
(-2.43537e-05 1.23853e-05 -0.000956234)
(-2.34107e-05 2.07833e-05 -0.000961555)
(-2.15789e-05 3.15258e-05 -0.000970394)
(-1.85622e-05 4.5196e-05 -0.000986517)
(-1.39759e-05 6.23675e-05 -0.00101138)
(-7.76789e-06 8.33351e-05 -0.00103787)
(-4.98401e-06 0.000109764 -0.000719603)
(-2.884e-05 0.000172623 -0.0024789)
(-0.0011542 -0.000246509 0.000155571)
(-0.00118763 -0.000226856 -0.0035179)
(-0.00145721 -0.000167328 -0.00328725)
(-0.0027656 -0.000716724 -0.00268656)
(-0.00266376 -0.000654 -0.00188157)
(-0.00137851 0.000189521 0.000670538)
(-6.06597e-05 0.000789972 -0.00495057)
(0.000712891 0.000792085 -0.00105329)
(0.000945264 0.000949038 -0.00555074)
(0.0015336 0.000993876 -4.41735e-05)
(0.00222422 0.00132341 -0.00433529)
(0.0024869 0.000929478 -0.00306627)
(0.00120938 0.000262511 -0.00545835)
(0.000213694 -0.000753265 -0.00379683)
(-0.00083362 -0.00124939 0.000859305)
(-0.00145133 -0.00170649 -0.00494026)
(-0.00123869 -0.00180568 -0.00521011)
(-7.91745e-05 -0.000273149 0.00875251)
(-0.00111569 -0.000220766 -0.010768)
(0.00157043 0.00175777 0.00513583)
(0.00434261 0.000388253 0.00644805)
(0.00178935 -0.000379349 -0.00780932)
(0.000573364 0.0006821 -0.0168741)
(0.000729975 0.00140554 0.00817406)
(0.00101772 0.00173761 -0.00158051)
(0.00033978 0.000197701 -0.000599729)
(0.000158113 -1.22815e-05 -0.000945113)
(0.000112804 -3.67351e-05 -0.00103829)
(9.11386e-05 -3.82155e-05 -0.00105157)
(7.57689e-05 -3.63974e-05 -0.00105157)
(6.37401e-05 -3.37596e-05 -0.00104944)
(5.4124e-05 -3.0792e-05 -0.00104637)
(4.63719e-05 -2.77165e-05 -0.00104248)
(4.00797e-05 -2.46743e-05 -0.00103813)
(3.49345e-05 -2.17583e-05 -0.00103364)
(3.06932e-05 -1.90262e-05 -0.00102922)
(2.7167e-05 -1.651e-05 -0.00102504)
(2.42088e-05 -1.4224e-05 -0.00102098)
(2.16678e-05 -1.2188e-05 -0.00101703)
(1.94419e-05 -1.04018e-05 -0.00101342)
(1.74704e-05 -8.84887e-06 -0.00101029)
(1.57133e-05 -7.50716e-06 -0.00100765)
(1.41415e-05 -6.35318e-06 -0.00100545)
(1.27331e-05 -5.36396e-06 -0.00100366)
(1.14695e-05 -4.51869e-06 -0.00100219)
(1.03342e-05 -3.7988e-06 -0.00100101)
(9.31257e-06 -3.18783e-06 -0.00100007)
(8.39175e-06 -2.6711e-06 -0.000999331)
(7.56078e-06 -2.23571e-06 -0.000998765)
(6.81024e-06 -1.8702e-06 -0.00099835)
(6.13225e-06 -1.56393e-06 -0.000998065)
(5.51998e-06 -1.30747e-06 -0.00099789)
(4.9674e-06 -1.09272e-06 -0.000997805)
(4.46906e-06 -9.12775e-07 -0.000997792)
(4.02007e-06 -7.6179e-07 -0.000997835)
(3.61595e-06 -6.34836e-07 -0.000997919)
(3.25258e-06 -5.27805e-07 -0.000998031)
(2.92616e-06 -4.37303e-07 -0.000998161)
(2.63316e-06 -3.60556e-07 -0.000998299)
(2.3703e-06 -2.95317e-07 -0.000998437)
(2.13454e-06 -2.39792e-07 -0.00099857)
(1.92303e-06 -1.92562e-07 -0.000998693)
(1.73315e-06 -1.52501e-07 -0.000998804)
(1.56253e-06 -1.1866e-07 -0.000998902)
(1.409e-06 -9.02713e-08 -0.000998986)
(1.27055e-06 -6.67663e-08 -0.000999056)
(1.14541e-06 -4.76959e-08 -0.000999114)
(1.03195e-06 -3.26811e-08 -0.000999162)
(9.2879e-07 -2.13787e-08 -0.000999201)
(8.34713e-07 -1.34523e-08 -0.000999235)
(7.48695e-07 -8.56328e-09 -0.000999266)
(6.69886e-07 -6.35523e-09 -0.000999297)
(5.97596e-07 -6.45314e-09 -0.000999328)
(5.31277e-07 -8.46377e-09 -0.000999362)
(4.7051e-07 -1.19778e-08 -0.0009994)
(4.14989e-07 -1.65777e-08 -0.000999443)
(3.64484e-07 -2.18505e-08 -0.00099949)
(3.18738e-07 -2.73936e-08 -0.000999542)
(2.77547e-07 -3.28212e-08 -0.000999598)
(2.4075e-07 -3.77786e-08 -0.000999657)
(2.08203e-07 -4.19564e-08 -0.000999719)
(1.79766e-07 -4.50979e-08 -0.000999781)
(1.55291e-07 -4.70018e-08 -0.000999842)
(1.34612e-07 -4.75306e-08 -0.000999901)
(1.17533e-07 -4.6622e-08 -0.000999957)
(1.03821e-07 -4.42863e-08 -0.00100001)
(9.32145e-08 -4.05962e-08 -0.00100005)
(8.54208e-08 -3.56804e-08 -0.00100009)
(8.01177e-08 -2.97253e-08 -0.00100012)
(7.69537e-08 -2.29759e-08 -0.00100015)
(7.55855e-08 -1.56639e-08 -0.00100016)
(7.57018e-08 -7.96466e-09 -0.00100017)
(7.68702e-08 -2.24383e-10 -0.00100017)
(7.87535e-08 7.29647e-09 -0.00100017)
(8.10678e-08 1.43553e-08 -0.00100015)
(8.34642e-08 2.0689e-08 -0.00100014)
(8.5676e-08 2.60927e-08 -0.00100011)
(8.73941e-08 3.03092e-08 -0.00100009)
(8.92365e-08 3.39811e-08 -0.00100005)
(8.85835e-08 3.43894e-08 -0.00100002)
)
;

boundaryField
{
    inlet
    {
        type            calculated;
        value           uniform (8.85835e-08 3.43894e-08 -0.00100002);
    }
    outlet
    {
        type            calculated;
        value           uniform (-1.06434e-10 1.08104e-09 -0.00100017);
    }
    repeat_boundary
    {
        type            calculated;
        value           nonuniform List<vector> 
360
(
(-1.06434e-10 0 -0.00100017)
(-7.03791e-10 0 -0.00100015)
(-1.22269e-09 0 -0.00100014)
(-1.94706e-09 0 -0.00100013)
(-3.0616e-09 0 -0.00100013)
(-4.69928e-09 0 -0.00100012)
(-6.97756e-09 0 -0.00100012)
(-1.00301e-08 0 -0.00100011)
(-1.3998e-08 0 -0.0010001)
(-1.90276e-08 0 -0.0010001)
(-2.52709e-08 0 -0.00100009)
(-3.28859e-08 0 -0.00100007)
(-4.20368e-08 0 -0.00100006)
(-5.28973e-08 0 -0.00100004)
(-6.56622e-08 0 -0.00100002)
(-8.05645e-08 0 -0.000999991)
(-9.77402e-08 0 -0.000999961)
(-1.17254e-07 0 -0.000999926)
(-1.39299e-07 0 -0.000999885)
(-1.64073e-07 0 -0.000999837)
(-1.9175e-07 0 -0.000999783)
(-2.22553e-07 0 -0.000999721)
(-2.56727e-07 0 -0.00099965)
(-2.94527e-07 0 -0.000999571)
(-3.36227e-07 0 -0.000999482)
(-3.82135e-07 0 -0.000999383)
(-4.32598e-07 0 -0.000999273)
(-4.8801e-07 0 -0.000999151)
(-5.48819e-07 0 -0.000999017)
(-6.15538e-07 0 -0.000998869)
(-6.88756e-07 0 -0.000998706)
(-7.69146e-07 0 -0.000998527)
(-8.57478e-07 0 -0.000998329)
(-9.54625e-07 0 -0.00099811)
(-1.06158e-06 0 -0.000997869)
(-1.17945e-06 0 -0.000997602)
(-1.30948e-06 0 -0.000997306)
(-1.45307e-06 0 -0.000996978)
(-1.61177e-06 0 -0.000996614)
(-1.78727e-06 0 -0.000996208)
(-1.98147e-06 0 -0.000995757)
(-2.19641e-06 0 -0.000995255)
(-2.43433e-06 0 -0.000994697)
(-2.69766e-06 0 -0.000994076)
(-2.98899e-06 0 -0.000993386)
(-3.3111e-06 0 -0.000992622)
(-3.66684e-06 0 -0.000991778)
(-4.05922e-06 0 -0.000990847)
(-4.49127e-06 0 -0.000989825)
(-4.96611e-06 0 -0.000988705)
(-5.4868e-06 0 -0.000987483)
(-6.05632e-06 0 -0.000986155)
(-6.67749e-06 0 -0.000984717)
(-7.35288e-06 0 -0.000983166)
(-8.08467e-06 0 -0.000981501)
(-8.8745e-06 0 -0.000979721)
(-9.72333e-06 0 -0.000977827)
(-1.06313e-05 0 -0.000975823)
(-1.15975e-05 0 -0.000973712)
(-1.262e-05 0 -0.000971496)
(-1.3696e-05 0 -0.000969175)
(-1.4823e-05 0 -0.00096674)
(-1.59989e-05 0 -0.000964234)
(-1.72119e-05 0 -0.000961728)
(-1.84454e-05 0 -0.000959277)
(-1.96774e-05 0 -0.000956952)
(-2.08786e-05 0 -0.000954844)
(-2.20108e-05 0 -0.000953075)
(-2.30246e-05 0 -0.000951794)
(-2.38569e-05 0 -0.000951197)
(-2.44276e-05 0 -0.000951525)
(-2.46355e-05 0 -0.000953075)
(-2.43537e-05 0 -0.000956234)
(-2.34107e-05 0 -0.000961555)
(-2.15789e-05 0 -0.000970394)
(-1.85622e-05 0 -0.000986517)
(-1.39759e-05 0 -0.00101138)
(-7.76789e-06 0 -0.00103787)
(-4.98401e-06 0 -0.000719603)
(-2.884e-05 0 -0.0024789)
(-0.0011542 0 0.000155571)
(-0.00118763 0 -0.0035179)
(-0.00145721 0 -0.00328725)
(-0.0027656 0 -0.00268656)
(-0.00266376 0 -0.00188157)
(-0.00137851 0 0.000670538)
(-6.06597e-05 0 -0.00495057)
(0.000712891 0 -0.00105329)
(0.000945264 0 -0.00555074)
(0.0015336 0 -4.41735e-05)
(0.00222422 0 -0.00433529)
(0.0024869 0 -0.00306627)
(0.00120938 0 -0.00545835)
(0.000213694 0 -0.00379683)
(-0.00083362 0 0.000859305)
(-0.00145133 0 -0.00494026)
(-0.00123869 0 -0.00521011)
(-7.91745e-05 0 0.00875251)
(-0.00111569 0 -0.010768)
(0.00157043 0 0.00513583)
(0.00434261 0 0.00644805)
(0.00178935 0 -0.00780932)
(0.000573364 0 -0.0168741)
(0.000729975 0 0.00817406)
(0.00101772 0 -0.00158051)
(0.00033978 0 -0.000599729)
(0.000158113 0 -0.000945113)
(0.000112804 0 -0.00103829)
(9.11386e-05 0 -0.00105157)
(7.57689e-05 0 -0.00105157)
(6.37401e-05 0 -0.00104944)
(5.4124e-05 0 -0.00104637)
(4.63719e-05 0 -0.00104248)
(4.00797e-05 0 -0.00103813)
(3.49345e-05 0 -0.00103364)
(3.06932e-05 0 -0.00102922)
(2.7167e-05 0 -0.00102504)
(2.42088e-05 0 -0.00102098)
(2.16678e-05 0 -0.00101703)
(1.94419e-05 0 -0.00101342)
(1.74704e-05 0 -0.00101029)
(1.57133e-05 0 -0.00100765)
(1.41415e-05 0 -0.00100545)
(1.27331e-05 0 -0.00100366)
(1.14695e-05 0 -0.00100219)
(1.03342e-05 0 -0.00100101)
(9.31257e-06 0 -0.00100007)
(8.39175e-06 0 -0.000999331)
(7.56078e-06 0 -0.000998765)
(6.81024e-06 0 -0.00099835)
(6.13225e-06 0 -0.000998065)
(5.51998e-06 0 -0.00099789)
(4.9674e-06 0 -0.000997805)
(4.46906e-06 0 -0.000997792)
(4.02007e-06 0 -0.000997835)
(3.61595e-06 0 -0.000997919)
(3.25258e-06 0 -0.000998031)
(2.92616e-06 0 -0.000998161)
(2.63316e-06 0 -0.000998299)
(2.3703e-06 0 -0.000998437)
(2.13454e-06 0 -0.00099857)
(1.92303e-06 0 -0.000998693)
(1.73315e-06 0 -0.000998804)
(1.56253e-06 0 -0.000998902)
(1.409e-06 0 -0.000998986)
(1.27055e-06 0 -0.000999056)
(1.14541e-06 0 -0.000999114)
(1.03195e-06 0 -0.000999162)
(9.2879e-07 0 -0.000999201)
(8.34713e-07 0 -0.000999235)
(7.48695e-07 0 -0.000999266)
(6.69886e-07 0 -0.000999297)
(5.97596e-07 0 -0.000999328)
(5.31277e-07 0 -0.000999362)
(4.7051e-07 0 -0.0009994)
(4.14989e-07 0 -0.000999443)
(3.64484e-07 0 -0.00099949)
(3.18738e-07 0 -0.000999542)
(2.77547e-07 0 -0.000999598)
(2.4075e-07 0 -0.000999657)
(2.08203e-07 0 -0.000999719)
(1.79766e-07 0 -0.000999781)
(1.55291e-07 0 -0.000999842)
(1.34612e-07 0 -0.000999901)
(1.17533e-07 0 -0.000999957)
(1.03821e-07 0 -0.00100001)
(9.32145e-08 0 -0.00100005)
(8.54208e-08 0 -0.00100009)
(8.01177e-08 0 -0.00100012)
(7.69537e-08 0 -0.00100015)
(7.55855e-08 0 -0.00100016)
(7.57018e-08 0 -0.00100017)
(7.68702e-08 0 -0.00100017)
(7.87535e-08 0 -0.00100017)
(8.10678e-08 0 -0.00100015)
(8.34642e-08 0 -0.00100014)
(8.5676e-08 0 -0.00100011)
(8.73941e-08 0 -0.00100009)
(8.92365e-08 0 -0.00100005)
(8.85835e-08 0 -0.00100002)
(0 1.08104e-09 -0.00100017)
(0 7.53046e-10 -0.00100015)
(0 9.45734e-10 -0.00100014)
(0 1.05165e-09 -0.00100013)
(0 8.00412e-10 -0.00100013)
(0 4.54616e-11 -0.00100012)
(0 -1.32912e-09 -0.00100012)
(0 -3.45374e-09 -0.00100011)
(0 -6.46552e-09 -0.0010001)
(0 -1.05059e-08 -0.0010001)
(0 -1.57213e-08 -0.00100009)
(0 -2.22626e-08 -0.00100007)
(0 -3.02854e-08 -0.00100006)
(0 -3.99496e-08 -0.00100004)
(0 -5.14235e-08 -0.00100002)
(0 -6.48987e-08 -0.000999991)
(0 -8.05213e-08 -0.000999961)
(0 -9.84081e-08 -0.000999926)
(0 -1.18746e-07 -0.000999885)
(0 -1.41726e-07 -0.000999837)
(0 -1.67535e-07 -0.000999783)
(0 -1.9639e-07 -0.000999721)
(0 -2.28529e-07 -0.00099965)
(0 -2.64211e-07 -0.000999571)
(0 -3.03726e-07 -0.000999482)
(0 -3.47392e-07 -0.000999383)
(0 -3.95556e-07 -0.000999273)
(0 -4.48602e-07 -0.000999151)
(0 -5.06965e-07 -0.000999017)
(0 -5.71138e-07 -0.000998869)
(0 -6.41684e-07 -0.000998706)
(0 -7.19241e-07 -0.000998527)
(0 -8.04522e-07 -0.000998329)
(0 -8.98332e-07 -0.00099811)
(0 -1.00155e-06 -0.000997869)
(0 -1.11516e-06 -0.000997602)
(0 -1.2402e-06 -0.000997306)
(0 -1.37785e-06 -0.000996978)
(0 -1.52937e-06 -0.000996614)
(0 -1.69613e-06 -0.000996208)
(0 -1.87957e-06 -0.000995757)
(0 -2.08123e-06 -0.000995255)
(0 -2.3027e-06 -0.000994697)
(0 -2.54559e-06 -0.000994076)
(0 -2.81153e-06 -0.000993386)
(0 -3.10208e-06 -0.000992622)
(0 -3.41868e-06 -0.000991778)
(0 -3.76259e-06 -0.000990847)
(0 -4.13475e-06 -0.000989825)
(0 -4.53575e-06 -0.000988705)
(0 -4.9656e-06 -0.000987483)
(0 -5.42361e-06 -0.000986155)
(0 -5.90816e-06 -0.000984717)
(0 -6.41649e-06 -0.000983166)
(0 -6.94435e-06 -0.000981501)
(0 -7.48569e-06 -0.000979721)
(0 -8.03218e-06 -0.000977827)
(0 -8.57273e-06 -0.000975823)
(0 -9.09298e-06 -0.000973712)
(0 -9.57456e-06 -0.000971496)
(0 -9.99456e-06 -0.000969175)
(0 -1.03249e-05 -0.00096674)
(0 -1.05318e-05 -0.000964234)
(0 -1.05691e-05 -0.000961728)
(0 -1.03795e-05 -0.000959277)
(0 -9.89188e-06 -0.000956952)
(0 -9.01874e-06 -0.000954844)
(0 -7.65233e-06 -0.000953075)
(0 -5.6605e-06 -0.000951794)
(0 -2.88144e-06 -0.000951197)
(0 8.82749e-07 -0.000951525)
(0 5.8735e-06 -0.000953075)
(0 1.23853e-05 -0.000956234)
(0 2.07833e-05 -0.000961555)
(0 3.15258e-05 -0.000970394)
(0 4.5196e-05 -0.000986517)
(0 6.23675e-05 -0.00101138)
(0 8.33351e-05 -0.00103787)
(0 0.000109764 -0.000719603)
(0 0.000172623 -0.0024789)
(0 -0.000246509 0.000155571)
(0 -0.000226856 -0.0035179)
(0 -0.000167328 -0.00328725)
(0 -0.000716724 -0.00268656)
(0 -0.000654 -0.00188157)
(0 0.000189521 0.000670538)
(0 0.000789972 -0.00495057)
(0 0.000792085 -0.00105329)
(0 0.000949038 -0.00555074)
(0 0.000993876 -4.41735e-05)
(0 0.00132341 -0.00433529)
(0 0.000929478 -0.00306627)
(0 0.000262511 -0.00545835)
(0 -0.000753265 -0.00379683)
(0 -0.00124939 0.000859305)
(0 -0.00170649 -0.00494026)
(0 -0.00180568 -0.00521011)
(0 -0.000273149 0.00875251)
(0 -0.000220766 -0.010768)
(0 0.00175777 0.00513583)
(0 0.000388253 0.00644805)
(0 -0.000379349 -0.00780932)
(0 0.0006821 -0.0168741)
(0 0.00140554 0.00817406)
(0 0.00173761 -0.00158051)
(0 0.000197701 -0.000599729)
(0 -1.22815e-05 -0.000945113)
(0 -3.67351e-05 -0.00103829)
(0 -3.82155e-05 -0.00105157)
(0 -3.63974e-05 -0.00105157)
(0 -3.37596e-05 -0.00104944)
(0 -3.0792e-05 -0.00104637)
(0 -2.77165e-05 -0.00104248)
(0 -2.46743e-05 -0.00103813)
(0 -2.17583e-05 -0.00103364)
(0 -1.90262e-05 -0.00102922)
(0 -1.651e-05 -0.00102504)
(0 -1.4224e-05 -0.00102098)
(0 -1.2188e-05 -0.00101703)
(0 -1.04018e-05 -0.00101342)
(0 -8.84887e-06 -0.00101029)
(0 -7.50716e-06 -0.00100765)
(0 -6.35318e-06 -0.00100545)
(0 -5.36396e-06 -0.00100366)
(0 -4.51869e-06 -0.00100219)
(0 -3.7988e-06 -0.00100101)
(0 -3.18783e-06 -0.00100007)
(0 -2.6711e-06 -0.000999331)
(0 -2.23571e-06 -0.000998765)
(0 -1.8702e-06 -0.00099835)
(0 -1.56393e-06 -0.000998065)
(0 -1.30747e-06 -0.00099789)
(0 -1.09272e-06 -0.000997805)
(0 -9.12775e-07 -0.000997792)
(0 -7.6179e-07 -0.000997835)
(0 -6.34836e-07 -0.000997919)
(0 -5.27805e-07 -0.000998031)
(0 -4.37303e-07 -0.000998161)
(0 -3.60556e-07 -0.000998299)
(0 -2.95317e-07 -0.000998437)
(0 -2.39792e-07 -0.00099857)
(0 -1.92562e-07 -0.000998693)
(0 -1.52501e-07 -0.000998804)
(0 -1.1866e-07 -0.000998902)
(0 -9.02713e-08 -0.000998986)
(0 -6.67663e-08 -0.000999056)
(0 -4.76959e-08 -0.000999114)
(0 -3.26811e-08 -0.000999162)
(0 -2.13787e-08 -0.000999201)
(0 -1.34523e-08 -0.000999235)
(0 -8.56328e-09 -0.000999266)
(0 -6.35523e-09 -0.000999297)
(0 -6.45314e-09 -0.000999328)
(0 -8.46377e-09 -0.000999362)
(0 -1.19778e-08 -0.0009994)
(0 -1.65777e-08 -0.000999443)
(0 -2.18505e-08 -0.00099949)
(0 -2.73936e-08 -0.000999542)
(0 -3.28212e-08 -0.000999598)
(0 -3.77786e-08 -0.000999657)
(0 -4.19564e-08 -0.000999719)
(0 -4.50979e-08 -0.000999781)
(0 -4.70018e-08 -0.000999842)
(0 -4.75306e-08 -0.000999901)
(0 -4.6622e-08 -0.000999957)
(0 -4.42863e-08 -0.00100001)
(0 -4.05962e-08 -0.00100005)
(0 -3.56804e-08 -0.00100009)
(0 -2.97253e-08 -0.00100012)
(0 -2.29759e-08 -0.00100015)
(0 -1.56639e-08 -0.00100016)
(0 -7.96466e-09 -0.00100017)
(0 -2.24383e-10 -0.00100017)
(0 7.29647e-09 -0.00100017)
(0 1.43553e-08 -0.00100015)
(0 2.0689e-08 -0.00100014)
(0 2.60927e-08 -0.00100011)
(0 3.03092e-08 -0.00100009)
(0 3.39811e-08 -0.00100005)
(0 3.43894e-08 -0.00100002)
)
;
    }
    procBoundary0to1
    {
        type            processor;
        value           nonuniform List<vector> 
180
(
(-1.09157e-10 -6.02877e-09 -0.00100018)
(-7.0425e-10 -1.3052e-08 -0.00100016)
(-1.2285e-09 -2.14391e-08 -0.00100015)
(-1.94992e-09 -3.0137e-08 -0.00100015)
(-3.06269e-09 -3.89069e-08 -0.00100016)
(-4.6994e-09 -4.77301e-08 -0.00100016)
(-6.97758e-09 -5.66293e-08 -0.00100017)
(-1.00301e-08 -6.56241e-08 -0.00100018)
(-1.3998e-08 -7.4739e-08 -0.00100019)
(-1.90276e-08 -8.40077e-08 -0.00100021)
(-2.52709e-08 -9.34759e-08 -0.00100022)
(-3.28859e-08 -1.03204e-07 -0.00100024)
(-4.20368e-08 -1.13269e-07 -0.00100026)
(-5.28973e-08 -1.23771e-07 -0.00100028)
(-6.56622e-08 -1.34815e-07 -0.0010003)
(-8.05645e-08 -1.46537e-07 -0.00100031)
(-9.77402e-08 -1.59155e-07 -0.00100033)
(-1.17254e-07 -1.72951e-07 -0.00100034)
(-1.39299e-07 -1.88213e-07 -0.00100035)
(-1.64073e-07 -2.05286e-07 -0.00100036)
(-1.9175e-07 -2.24565e-07 -0.00100037)
(-2.22553e-07 -2.4648e-07 -0.00100037)
(-2.56728e-07 -2.71513e-07 -0.00100037)
(-2.94527e-07 -3.0022e-07 -0.00100037)
(-3.36227e-07 -3.33225e-07 -0.00100036)
(-3.82135e-07 -3.71223e-07 -0.00100035)
(-4.32599e-07 -4.14995e-07 -0.00100034)
(-4.88011e-07 -4.65417e-07 -0.00100032)
(-5.4882e-07 -5.23468e-07 -0.0010003)
(-6.15539e-07 -5.90234e-07 -0.00100027)
(-6.88757e-07 -6.66925e-07 -0.00100025)
(-7.69147e-07 -7.54881e-07 -0.00100022)
(-8.57479e-07 -8.55596e-07 -0.00100019)
(-9.54626e-07 -9.70739e-07 -0.00100016)
(-1.06158e-06 -1.10217e-06 -0.00100012)
(-1.17945e-06 -1.25199e-06 -0.00100009)
(-1.30948e-06 -1.42252e-06 -0.00100005)
(-1.45308e-06 -1.61639e-06 -0.00100001)
(-1.61177e-06 -1.83652e-06 -0.000999967)
(-1.78727e-06 -2.08623e-06 -0.000999918)
(-1.98147e-06 -2.36923e-06 -0.000999862)
(-2.19642e-06 -2.68971e-06 -0.000999799)
(-2.43434e-06 -3.05244e-06 -0.000999726)
(-2.69767e-06 -3.46278e-06 -0.000999641)
(-2.989e-06 -3.92684e-06 -0.000999541)
(-3.31111e-06 -4.45156e-06 -0.000999424)
(-3.66686e-06 -5.04485e-06 -0.000999285)
(-4.05924e-06 -5.71576e-06 -0.00099912)
(-4.4913e-06 -6.47456e-06 -0.000998925)
(-4.96615e-06 -7.33302e-06 -0.000998695)
(-5.48685e-06 -8.30455e-06 -0.000998424)
(-6.05638e-06 -9.40448e-06 -0.000998105)
(-6.67756e-06 -1.06503e-05 -0.00099773)
(-7.35297e-06 -1.2062e-05 -0.00099729)
(-8.08477e-06 -1.36623e-05 -0.000996774)
(-8.87463e-06 -1.54772e-05 -0.000996169)
(-9.72349e-06 -1.75364e-05 -0.000995463)
(-1.06315e-05 -1.98737e-05 -0.000994638)
(-1.15977e-05 -2.25273e-05 -0.000993678)
(-1.26203e-05 -2.5541e-05 -0.000992569)
(-1.36964e-05 -2.89639e-05 -0.000991299)
(-1.48235e-05 -3.28511e-05 -0.000989869)
(-1.59995e-05 -3.72644e-05 -0.00098823)
(-1.72126e-05 -4.22775e-05 -0.000986308)
(-1.84463e-05 -4.79751e-05 -0.000984054)
(-1.96785e-05 -5.44546e-05 -0.000981412)
(-2.08801e-05 -6.18274e-05 -0.000978312)
(-2.20126e-05 -7.02223e-05 -0.000974674)
(-2.3027e-05 -7.97875e-05 -0.000970399)
(-2.38601e-05 -9.06943e-05 -0.000965372)
(-2.44318e-05 -0.000103141 -0.000959455)
(-2.46412e-05 -0.000117359 -0.000952476)
(-2.43613e-05 -0.000133617 -0.000944121)
(-2.34211e-05 -0.000152234 -0.000933947)
(-2.15922e-05 -0.000173593 -0.00092214)
(-1.85708e-05 -0.000198174 -0.000911396)
(-1.39136e-05 -0.000226463 -0.000906368)
(-6.8752e-06 -0.000257907 -0.000933431)
(4.05174e-06 -0.000280618 -0.000506754)
(6.70254e-05 -0.000271645 -0.00214762)
(0.00113731 0.000894412 8.56504e-05)
(0.000627439 0.000906485 -0.00304063)
(0.000345802 0.00124064 -0.00232647)
(0.000523475 0.00134449 -0.000967787)
(9.51792e-05 0.00108807 -0.00337867)
(0.000109649 0.000871975 -0.00576416)
(0.000265713 0.00120261 0.000822616)
(0.000281793 0.00160256 -0.005582)
(0.0010163 0.00116543 -0.00461347)
(0.000842574 0.00113934 -0.000311503)
(0.000580087 0.000901175 -0.0064382)
(0.000434649 0.000636319 -0.00067022)
(-0.000447305 0.000215101 -0.00686332)
(-0.0010632 0.00047971 0.000435581)
(-0.00151027 0.000853594 -0.00407858)
(-0.002286 0.00148136 -0.0086651)
(-0.00321317 -0.000433846 -0.00229937)
(-0.00334214 -0.00017787 -0.00426664)
(-0.00230896 0.00034597 -0.00175602)
(-0.00202324 0.00115201 -0.00635427)
(-0.00375531 0.00413283 0.00295262)
(-0.00136336 0.000592869 -0.014828)
(8.61451e-05 -0.000785651 -0.00830236)
(-0.000907815 -0.000445865 -0.00115868)
(-0.000220288 0.000424518 -0.00200541)
(0.000131679 -0.000320729 -0.00170177)
(0.000123892 -0.000320957 -0.00153662)
(0.000107841 -0.000267887 -0.00145843)
(9.0476e-05 -0.000221428 -0.00139016)
(7.56595e-05 -0.000183131 -0.00132284)
(6.37011e-05 -0.000151638 -0.00126639)
(5.40982e-05 -0.00012569 -0.00122077)
(4.63522e-05 -0.000104286 -0.00118357)
(4.00644e-05 -8.66135e-05 -0.00115307)
(3.49228e-05 -7.20092e-05 -0.00112799)
(3.06842e-05 -5.99299e-05 -0.00110732)
(2.716e-05 -4.99313e-05 -0.00109025)
(2.42035e-05 -4.16489e-05 -0.00107629)
(2.16637e-05 -3.47655e-05 -0.00106498)
(1.94387e-05 -2.90286e-05 -0.00105564)
(1.7468e-05 -2.42403e-05 -0.00104779)
(1.57114e-05 -2.02407e-05 -0.00104112)
(1.414e-05 -1.6899e-05 -0.00103542)
(1.2732e-05 -1.41072e-05 -0.00103052)
(1.14687e-05 -1.17753e-05 -0.00102631)
(1.03336e-05 -9.82792e-06 -0.00102269)
(9.31207e-06 -8.2015e-06 -0.00101959)
(8.39137e-06 -6.84274e-06 -0.00101693)
(7.56048e-06 -5.70745e-06 -0.00101465)
(6.81002e-06 -4.75898e-06 -0.0010127)
(6.13207e-06 -3.96675e-06 -0.00101102)
(5.51984e-06 -3.3054e-06 -0.00100959)
(4.96729e-06 -2.75373e-06 -0.00100836)
(4.46898e-06 -2.29408e-06 -0.0010073)
(4.02001e-06 -1.91162e-06 -0.0010064)
(3.6159e-06 -1.59395e-06 -0.00100562)
(3.25254e-06 -1.3306e-06 -0.00100495)
(2.92613e-06 -1.11276e-06 -0.00100438)
(2.63313e-06 -9.3295e-07 -0.00100388)
(2.37029e-06 -7.8484e-07 -0.00100344)
(2.13453e-06 -6.63037e-07 -0.00100306)
(1.92302e-06 -5.62957e-07 -0.00100272)
(1.73315e-06 -4.80693e-07 -0.00100242)
(1.56253e-06 -4.12932e-07 -0.00100215)
(1.40899e-06 -3.56865e-07 -0.00100191)
(1.27055e-06 -3.10132e-07 -0.0010017)
(1.1454e-06 -2.70763e-07 -0.00100151)
(1.03195e-06 -2.37137e-07 -0.00100133)
(9.28789e-07 -2.07941e-07 -0.00100118)
(8.34711e-07 -1.82136e-07 -0.00100104)
(7.48694e-07 -1.58926e-07 -0.00100092)
(6.69886e-07 -1.37731e-07 -0.00100081)
(5.97595e-07 -1.18157e-07 -0.00100072)
(5.31276e-07 -9.99735e-08 -0.00100064)
(4.70509e-07 -8.30911e-08 -0.00100057)
(4.14988e-07 -6.75407e-08 -0.0010005)
(3.64484e-07 -5.34112e-08 -0.00100045)
(3.18737e-07 -4.0659e-08 -0.00100041)
(2.77547e-07 -2.93023e-08 -0.00100038)
(2.4075e-07 -1.93992e-08 -0.00100035)
(2.08203e-07 -1.1022e-08 -0.00100033)
(1.79766e-07 -4.2401e-09 -0.00100031)
(1.55291e-07 8.93619e-10 -0.00100029)
(1.34612e-07 4.35371e-09 -0.00100028)
(1.17533e-07 6.15013e-09 -0.00100027)
(1.03821e-07 6.33301e-09 -0.00100025)
(9.32144e-08 4.99369e-09 -0.00100024)
(8.54207e-08 2.26428e-09 -0.00100022)
(8.01178e-08 -1.68615e-09 -0.00100021)
(7.69543e-08 -6.65673e-09 -0.00100019)
(7.55871e-08 -1.24237e-08 -0.00100018)
(7.57036e-08 -1.87443e-08 -0.00100016)
(7.68728e-08 -2.5293e-08 -0.00100014)
(7.87547e-08 -3.17536e-08 -0.00100012)
(8.10679e-08 -3.78548e-08 -0.00100011)
(8.3464e-08 -4.33101e-08 -0.00100009)
(8.56759e-08 -4.78929e-08 -0.00100007)
(8.7394e-08 -5.13193e-08 -0.00100005)
(8.92365e-08 -5.42456e-08 -0.00100003)
(8.85835e-08 -5.42895e-08 -0.00100002)
)
;
    }
    procBoundary0to2
    {
        type            processor;
        value           nonuniform List<vector> 
180
(
(-7.21583e-09 1.07852e-09 -0.00100016)
(-1.45115e-08 7.56152e-10 -0.00100014)
(-2.36076e-08 9.3873e-10 -0.00100014)
(-3.31358e-08 1.04868e-09 -0.00100014)
(-4.2769e-08 7.99384e-10 -0.00100014)
(-5.24749e-08 4.53472e-11 -0.00100014)
(-6.22777e-08 -1.32913e-09 -0.00100015)
(-7.22005e-08 -3.45374e-09 -0.00100016)
(-8.22714e-08 -6.46552e-09 -0.00100017)
(-9.25294e-08 -1.0506e-08 -0.00100019)
(-1.03026e-07 -1.57213e-08 -0.0010002)
(-1.13827e-07 -2.22626e-08 -0.00100022)
(-1.2502e-07 -3.02854e-08 -0.00100024)
(-1.36719e-07 -3.99497e-08 -0.00100025)
(-1.49054e-07 -5.14235e-08 -0.00100027)
(-1.62203e-07 -6.48987e-08 -0.00100028)
(-1.76374e-07 -8.05213e-08 -0.0010003)
(-1.91796e-07 -9.84081e-08 -0.00100031)
(-2.08767e-07 -1.18746e-07 -0.00100032)
(-2.27633e-07 -1.41726e-07 -0.00100033)
(-2.4878e-07 -1.67535e-07 -0.00100033)
(-2.72643e-07 -1.9639e-07 -0.00100033)
(-2.99712e-07 -2.28529e-07 -0.00100033)
(-3.30536e-07 -2.64211e-07 -0.00100032)
(-3.65725e-07 -3.03726e-07 -0.00100031)
(-4.05965e-07 -3.47393e-07 -0.0010003)
(-4.52037e-07 -3.95556e-07 -0.00100029)
(-5.04825e-07 -4.48602e-07 -0.00100027)
(-5.65322e-07 -5.06965e-07 -0.00100024)
(-6.34634e-07 -5.71138e-07 -0.00100022)
(-7.13996e-07 -6.41685e-07 -0.00100019)
(-8.04787e-07 -7.19241e-07 -0.00100016)
(-9.08551e-07 -8.04523e-07 -0.00100012)
(-1.02703e-06 -8.98332e-07 -0.00100008)
(-1.1622e-06 -1.00155e-06 -0.00100004)
(-1.31628e-06 -1.11516e-06 -0.000999991)
(-1.4918e-06 -1.2402e-06 -0.000999936)
(-1.69161e-06 -1.37785e-06 -0.000999873)
(-1.91892e-06 -1.52937e-06 -0.0009998)
(-2.17737e-06 -1.69613e-06 -0.000999714)
(-2.47112e-06 -1.87957e-06 -0.000999612)
(-2.80489e-06 -2.08124e-06 -0.000999491)
(-3.18407e-06 -2.30271e-06 -0.000999345)
(-3.61484e-06 -2.5456e-06 -0.00099917)
(-4.1043e-06 -2.81153e-06 -0.000998957)
(-4.66057e-06 -3.10209e-06 -0.000998701)
(-5.29301e-06 -3.41869e-06 -0.000998391)
(-6.01237e-06 -3.7626e-06 -0.000998017)
(-6.83106e-06 -4.13477e-06 -0.000997566)
(-7.76336e-06 -4.53578e-06 -0.000997024)
(-8.82572e-06 -4.96563e-06 -0.000996374)
(-1.00372e-05 -5.42365e-06 -0.000995594)
(-1.14196e-05 -5.90821e-06 -0.00099466)
(-1.29983e-05 -6.41655e-06 -0.000993543)
(-1.48025e-05 -6.94443e-06 -0.000992209)
(-1.6866e-05 -7.48578e-06 -0.000990617)
(-1.92275e-05 -8.03229e-06 -0.000988717)
(-2.19321e-05 -8.57287e-06 -0.000986451)
(-2.50316e-05 -9.09314e-06 -0.000983751)
(-2.85861e-05 -9.57477e-06 -0.000980533)
(-3.2665e-05 -9.9948e-06 -0.0009767)
(-3.73488e-05 -1.03252e-05 -0.000972134)
(-4.27309e-05 -1.05322e-05 -0.000966697)
(-4.89194e-05 -1.05696e-05 -0.000960225)
(-5.604e-05 -1.038e-05 -0.000952523)
(-6.42388e-05 -9.89254e-06 -0.000943359)
(-7.36856e-05 -9.01954e-06 -0.00093246)
(-8.45785e-05 -7.65329e-06 -0.000919497)
(-9.71486e-05 -5.66166e-06 -0.000904081)
(-0.000111666 -2.88284e-06 -0.000885749)
(-0.000128447 8.81047e-07 -0.000863946)
(-0.000147862 5.8714e-06 -0.000838002)
(-0.000170347 1.23826e-05 -0.000807069)
(-0.000196415 2.07796e-05 -0.000770081)
(-0.000226673 3.15191e-05 -0.000726287)
(-0.000261859 4.51793e-05 -0.000677836)
(-0.00030267 6.23171e-05 -0.000630312)
(-0.000347901 8.29458e-05 -0.000576275)
(-0.000387288 0.000107349 -2.06868e-05)
(-0.000404332 0.000160751 -0.00229472)
(0.000631031 0.000161557 0.00289963)
(0.00039886 0.000244821 -0.00293033)
(0.00018287 0.000897954 -0.0013178)
(0.000293649 0.000499001 0.00230739)
(0.000105352 0.000256501 -0.00268708)
(-0.000312054 0.00109019 -0.000477318)
(0.000304843 0.00162579 -0.000804364)
(-0.000227012 0.00174776 -0.00381208)
(0.000899407 0.000986739 0.00898706)
(0.000919389 -0.000315721 -0.00463754)
(0.000815612 -0.00114619 0.00221665)
(0.00137192 -0.00143368 -0.00172603)
(0.00161827 -0.0010785 0.00230304)
(0.00214629 -0.00103815 -0.00404368)
(0.00238184 -0.000241967 -0.0012876)
(0.00291337 -1.87994e-05 0.000213333)
(0.00341678 -0.000376379 -0.00459215)
(0.00152777 -0.00166878 0.00513577)
(0.000586152 0.000219711 -0.00738781)
(0.000311949 0.00150625 0.000522311)