/*--------------------------------*- C++ -*----------------------------------*\
| =========                 |                                                 |
| \\      /  F ield         | OpenFOAM: The Open Source CFD Toolbox           |
|  \\    /   O peration     | Version:  5.x                                   |
|   \\  /    A nd           | Web:      www.OpenFOAM.org                      |
|    \\/     M anipulation  |                                                 |
\*---------------------------------------------------------------------------*/
FoamFile
{
    version     2.0;
    format      ascii;
    class       surfaceScalarField;
    location    "2000";
    object      phi;
}
// * * * * * * * * * * * * * * * * * * * * * * * * * * * * * * * * * * * * * //

dimensions      [0 3 -1 0 0 0 0];

internalField   nonuniform List<scalar> 
179
(
-250.196
-250.171
-250.172
-250.171
-250.172
-250.173
-250.174
-250.175
-250.176
-250.178
-250.179
-250.181
-250.182
-250.184
-250.186
-250.189
-250.192
-250.195
-250.199
-250.203
-250.208
-250.214
-250.222
-250.23
-250.24
-250.252
-250.265
-250.28
-250.298
-250.318
-250.341
-250.367
-250.396
-250.429
-250.465
-250.506
-250.551
-250.601
-250.657
-250.719
-250.788
-250.865
-250.95
-251.046
-251.153
-251.273
-251.408
-251.56
-251.732
-251.925
-252.145
-252.393
-252.673
-252.99
-253.349
-253.754
-254.21
-254.725
-255.306
-255.961
-256.702
-257.541
-258.483
-259.541
-260.727
-262.056
-263.545
-265.212
-267.078
-269.166
-271.498
-274.103
-277.001
-280.213
-283.769
-287.705
-291.98
-296.849
-302.632
-311.465
-315.644
-316.491
-334.18
-361.866
-392.114
-409.279
-439.599
-455.156
-459.633
-481.587
-486.898
-510.788
-602.188
-746.145
-866.492
-984.846
-1073.99
-1158.98
-1189.93
-1195.17
-1186.05
-1182.39
-1153.81
-1111.94
-1027.42
-921.463
-828.907
-748.882
-680.106
-621.016
-570.199
-526.492
-488.896
-456.553
-428.725
-404.743
-384.035
-366.041
-350.48
-337.022
-325.379
-315.307
-306.593
-299.056
-292.534
-286.907
-282.047
-277.847
-274.214
-271.068
-268.341
-265.976
-263.921
-262.135
-260.581
-259.227
-258.048
-257.02
-256.124
-255.344
-254.663
-254.071
-253.556
-253.109
-252.72
-252.383
-252.09
-251.836
-251.616
-251.425
-251.258
-251.112
-250.984
-250.872
-250.772
-250.684
-250.606
-250.536
-250.473
-250.416
-250.364
-250.318
-250.276
-250.239
-250.205
-250.175
-250.149
-250.125
-250.104
-250.086
-250.071
-250.057
-250.045
-250.035
-250.026
-250.018
-250.011
-250.005
-250
)
;

boundaryField
{
    inlet
    {
        type            calculated;
        value           uniform -250.002;
    }
    outlet
    {
        type            calculated;
        value           uniform 250.225;
    }
    repeat_boundary
    {
        type            calculated;
        value           uniform 0;
    }
    procBoundary1to0
    {
        type            processor;
        value           nonuniform List<scalar> 
180
(
0.00037909
0.000998838
0.00154118
0.00208112
0.00260408
0.00311071
0.00359502
0.004053
0.00448192
0.00488054
0.00524942
0.00559126
0.00591151
0.00622031
0.00654294
0.00680201
0.00699492
0.00732811
0.00770882
0.00811537
0.00866592
0.00934136
0.0101594
0.0111561
0.0123674
0.0138306
0.0155853
0.0176732
0.020139
0.0230302
0.0263978
0.0302969
0.0347871
0.0399333
0.0458068
0.0524865
0.0600597
0.0686239
0.0782864
0.0891668
0.101398
0.115128
0.130522
0.147761
0.167045
0.188513
0.212463
0.239159
0.26889
0.301967
0.338763
0.37971
0.42525
0.475879
0.532151
0.594709
0.664312
0.7419
0.828693
0.926391
1.03759
1.16469
1.29852
1.44745
1.61307
1.79715
2.00165
2.22869
2.48062
2.76
3.06961
3.41225
3.78289
4.18407
4.62564
5.10863
5.62841
6.18192
6.8038
7.26934
1.3361
0.217706
18.3769
23.35
22.2775
12.508
12.2316
1.86135
-11.047
-2.92583
-4.40002
5.82743
28.6679
46.7507
29.5588
25.6699
22.7463
11.6168
-13.1983
1.37154
14.7238
8.84302
-21.369
-24.2152
-40.0488
-41.5425
-33.9971
-28.8619
-24.6543
-21.0296
-17.9361
-15.2912
-13.0264
-11.0837
-9.42173
-8.03727
-6.88703
-6.01131
-5.16862
-4.44677
-3.82839
-3.29848
-2.84418
-2.45448
-2.12004
-1.81825
-1.56304
-1.3471
-1.16337
-1.00644
-0.871997
-0.756533
-0.657161
-0.571476
-0.497465
-0.433432
-0.377944
-0.329789
-0.287937
-0.251515
-0.219774
-0.192081
-0.167891
-0.146734
-0.128165
-0.111837
-0.0974812
-0.084862
-0.0737751
-0.0640428
-0.0555098
-0.0480394
-0.041511
-0.0358178
-0.0308647
-0.0265674
-0.0228503
-0.0196448
-0.0168878
-0.0145383
-0.0125867
-0.0109956
-0.00972173
-0.0087149
-0.00792007
-0.00728824
-0.00679536
-0.00645124
-0.00627825
-0.00623149
-0.00620271
-0.00617531
-0.00624139
-0.00631107
-0.00631951
-0.00636632
-0.00643257
-0.00652031
-0.00662748
-0.00680144
)
;
    }
    procBoundary1to3
    {
        type            processor;
        value           nonuniform List<scalar> 
180
(
0.000151641
0.000479726
0.000697007
0.000894391
0.00105108
0.00116256
0.00121659
0.00120294
0.00111288
0.000939259
0.000676519
0.00032064
-0.000130976
-0.000659494
-0.00128818
-0.00203111
-0.00288234
-0.00383388
-0.00486897
-0.00598383
-0.00717617
-0.00844232
-0.00979165
-0.011214
-0.0127037
-0.0142584
-0.0158858
-0.0175872
-0.0193657
-0.0212263
-0.0231757
-0.0252225
-0.0273775
-0.0296543
-0.0320686
-0.0346395
-0.0373889
-0.0403417
-0.0435262
-0.0469741
-0.0507203
-0.0548035
-0.0592661
-0.0641541
-0.0695178
-0.0754115
-0.081894
-0.0890286
-0.0968835
-0.105532
-0.115054
-0.125534
-0.137064
-0.149743
-0.16368
-0.178995
-0.195819
-0.214299
-0.234598
-0.256898
-0.281395
-0.308288
-0.337771
-0.370115
-0.405622
-0.444632
-0.487524
-0.53473
-0.586733
-0.644088
-0.707432
-0.777496
-0.855139
-0.941428
-1.03777
-1.14719
-1.27747
-1.38909
-0.959795
1.58096
2.77176
0.649005
-0.686178
4.33597
7.96845
4.64737
18.0844
13.699
15.5175
24.8827
9.7111
18.0623
62.7389
97.2056
90.7877
92.6912
66.3582
73.4144
44.1318
3.8767
-23.7924
-12.5398
-7.07303
-17.6758
-44.5384
-64.5307
-58.7228
-50.8843
-43.9876
-38.0224
-32.8753
-28.4339
-24.6002
-21.2901
-18.4306
-15.9591
-13.8219
-11.9727
-10.3733
-8.98946
-7.79168
-6.75476
-5.85691
-5.07932
-4.40575
-3.82206
-3.31612
-2.8776
-2.49739
-2.16762
-1.88156
-1.63334
-1.41792
-1.2309
-1.06855
-0.927613
-0.805264
-0.699032
-0.606771
-0.526623
-0.45698
-0.396449
-0.343826
-0.298073
-0.258288
-0.223694
-0.193616
-0.167472
-0.144756
-0.125029
-0.107912
-0.0930716
-0.080222
-0.0691133
-0.0595296
-0.0512601
-0.0439656
-0.0375113
-0.0325686
-0.0282165
-0.0245094
-0.0213617
-0.0186776
-0.0163559
-0.014431
-0.0128462
-0.0115534
-0.0105118
-0.00965134
-0.00890043
-0.00835248
-0.00799494
-0.0076886
-0.00747698
-0.00733805
-0.00725805
-0.00722687
-0.00724355
-0.00730397
-0.00746597
)
;
    }
}


// ************************************************************************* //
