# vtk DataFile Version 4.0
Generated by LIGGGHTS
ASCII
DATASET POLYDATA
POINTS 1400 float
-4.94384 -4.19956 0.499988 -2.84327 -4.07691 0.500004 -1.82888 -4.15042 0.499997 
-0.823897 -4.61469 0.499942 0.119413 -4.94648 0.499967 1.18827 -4.06905 0.499996 
1.58842 -4.98547 0.499985 2.3832 -4.4527 0.79063 3.2364 -4.8858 0.499988 
-4.38436 -3.37517 0.617343 -3.39972 -3.24603 0.499963 -2.37098 -3.19547 0.499992 
-0.976527 -3.62426 0.499938 0.184615 -3.76814 0.499996 1.32075 -3.07788 0.500003 
2.86172 -3.62414 0.499947 3.65666 -3.0175 0.499936 4.07722 -3.98607 0.499997 
4.64693 -3.15654 0.500016 -3.98232 -2.40131 0.499982 -2.92776 -2.36444 0.499943 
-1.48886 -2.80866 0.768732 -0.91453 -2.03545 0.499953 -0.316965 -2.85768 0.499998 
0.627385 -2.35732 0.499961 2.33535 -2.61897 0.499942 3.20495 -2.12529 0.50002 
-4.74491 -1.75444 0.499996 -3.48414 -1.54943 0.661459 -1.96778 -1.97301 0.499939 
-0.689945 -1.06101 0.499996 0.267005 -1.42451 0.499993 1.28296 -1.54506 0.499997 
2.9702 -1.15327 0.499974 2.22377 -1.70184 0.882468 4.25518 -1.76959 0.499972 
-4.06965 -0.755066 0.499953 -3.07447 -0.651235 0.502309 -2.00773 -0.962276 0.499992 
-0.751675 -0.0665564 0.584824 0.952189 -0.601347 0.499996 1.96658 -0.814452 0.499949 
2.74311 -0.179424 0.499959 3.92261 -0.826515 0.499969 4.92624 -0.809748 0.499997 
-4.70517 0.120411 0.499959 -3.70679 0.176783 0.500011 -2.71225 0.280813 0.49995 
-1.74282 0.0354715 0.499989 0.154997 0.346591 0.499961 1.15446 0.378051 0.499957 
2.10803 0.553222 0.744669 3.02009 0.882154 0.499966 3.69921 0.14818 0.499988 
4.50757 0.737013 0.499975 -4.38596 1.12342 0.499997 -3.32731 1.03086 0.860186 
-3.38289 1.96206 0.499966 -2.41883 1.24265 0.499975 -1.45109 1.49451 0.499946 
-0.503849 1.12995 0.499961 0.480367 1.30679 0.499984 1.43628 1.29235 0.793159 
2.3377 1.6134 0.499977 3.81945 1.54725 0.499941 -4.35662 2.20508 0.499997 
-3.63849 2.92883 0.499934 -2.40403 2.24487 0.499948 -1.48617 2.42979 0.852023 
-0.601137 2.1252 0.499982 0.286093 2.58653 0.499997 1.21781 2.22335 0.499996 
2.14559 2.59651 0.499994 3.11643 2.35688 0.499963 4.62106 2.15716 0.499983 
4.05765 2.9866 0.499997 -4.23488 3.81208 0.499997 -4.88946 3.05575 0.499989 
-3.23561 3.84379 0.523066 -1.31075 3.35957 0.499965 -0.311175 3.38858 0.500002 
1.56099 3.4078 0.499958 2.56071 3.50681 0.499997 3.66769 3.90754 0.499997 
4.70797 3.97849 0.499966 -4.74993 4.81943 0.499933 -3.75756 4.69643 0.499967 
-2.75354 4.92713 0.499973 -2.25614 4.04391 0.499979 -1.67203 4.85557 0.499965 
-0.870385 4.25735 0.499967 0.843877 4.34698 0.499975 2.44645 4.501 0.499989 
4.20124 4.85141 0.499934 -4.38928 -4.60039 1.23018 -3.35492 -4.75952 1.23604 
-2.18775 -4.73746 1.25383 -1.27734 -4.32494 1.34273 -0.201789 -4.33184 1.23002 
0.761818 -4.75418 1.24176 1.55683 -4.17557 1.42358 2.50973 -4.04617 1.69777 
2.94292 -4.96654 1.45252 3.38164 -4.0976 1.21084 3.9447 -4.65756 1.81852 
4.57997 -4.03341 1.36348 -4.61695 -3.49519 1.61912 -3.74287 -3.83745 1.22962 
-2.79061 -3.97759 1.50078 -1.92568 -3.50129 1.34269 -0.940033 -3.39251 1.47195 
0.822754 -3.51887 1.25078 1.55532 -3.01669 1.83941 2.07554 -3.39542 1.07398 
3.91144 -3.3047 1.51199 -4.84863 -2.60383 1.16341 -4.447 -2.0962 1.92907 
-3.90154 -2.83215 1.39876 -2.90158 -2.94368 1.31458 -1.82185 -2.28951 1.55877 
-0.835937 -2.39897 1.42816 0.21839 -2.72659 1.33439 0.763384 -2.08163 1.8701 
1.40128 -2.30903 1.13433 2.23916 -2.30472 1.68014 2.98385 -2.85854 1.22241 
3.8667 -2.35079 1.21497 -4.25085 -1.36034 1.27504 -3.5024 -1.89041 1.67349 
-2.61138 -1.76656 1.23682 -2.62235 -1.01047 1.89113 -1.42551 -1.44548 1.15388 
-0.088631 -1.73616 1.38113 0.727617 -1.15914 1.34699 1.69855 -1.21423 1.57988 
3.06317 -1.79489 1.43318 3.94427 -1.32693 1.36544 4.86709 -1.39221 1.745 
-4.45922 -0.369485 1.33628 -3.46803 -0.482112 1.40592 -2.35659 -0.338772 1.19964 
-1.37678 -0.247412 1.38654 -0.657347 -0.927073 1.52959 0.0521858 -0.548991 0.932796 
0.14827 -0.487022 1.92623 1.59476 -0.194962 1.19121 2.51122 -0.688161 1.32903 
3.67054 -0.209587 1.61469 4.49308 -0.0932467 1.05804 -4.87332 0.66016 1.32486 
-3.90172 0.454016 1.4409 -2.18996 0.644658 1.27111 -1.21684 0.689396 1.04537 
-0.586802 0.238608 1.76032 0.0194925 0.901348 1.32081 0.662024 0.135291 1.33573 
1.43686 0.647485 1.70622 2.87566 0.334984 1.34714 3.71979 0.854226 1.21386 
4.33441 0.479881 1.90812 -4.61332 1.90986 1.42036 -3.62197 1.78335 1.45434 
-2.14141 1.73982 1.32205 -2.86565 1.20177 1.75378 -1.55994 1.13871 1.87019 
-0.876398 1.60715 1.31045 0.0758336 1.89266 1.20226 1.21444 1.92917 1.53151 
2.30516 1.12603 1.57577 3.0767 1.61897 1.17364 4.52623 1.45012 1.20074 
-4.27208 2.8397 1.26837 -3.00122 2.62302 1.20725 -1.5164 2.31899 1.84539 
-0.535122 2.77466 1.25747 0.560587 2.68461 1.57341 1.5507 2.8489 1.32908 
2.21433 2.09935 1.36518 3.06416 2.39902 1.79924 3.84226 2.27705 1.18314 
4.74515 2.67357 1.34876 -4.83907 3.51347 1.75629 -3.55397 3.52016 1.41406 
-2.1944 3.13337 0.909734 -2.61133 3.48864 1.74631 -1.38637 3.24483 1.49054 
-0.0103317 3.49411 1.71236 0.706776 3.49893 1.01179 1.93714 3.91769 1.27357 
2.42118 3.15972 1.71074 3.27047 3.11761 1.13043 4.27463 3.55429 1.29507 
-4.46903 4.33932 1.33089 -3.58914 4.44439 1.79427 -2.69458 4.40264 1.3493 
-1.60366 4.1893 1.24368 -0.856141 4.00037 1.88044 -0.728754 4.81647 1.31682 
-0.00784225 4.19836 1.00243 0.191452 4.68045 1.85555 1.0434 4.31621 1.47943 
1.95145 4.90563 1.42756 2.94189 4.05504 1.24537 3.85091 4.45839 1.35008 
4.72888 4.94215 1.34445 -4.90465 -4.50693 2.09416 -4.45465 -4.77267 2.9467 
-3.83801 -4.43487 2.04917 -2.78096 -4.88454 2.04527 -2.75243 -4.09659 2.66024 
-1.95194 -4.20946 2.07174 -1.73862 -4.76204 2.8783 -0.588239 -4.6251 2.13432 
0.374552 -4.3615 2.07587 1.25895 -4.84432 2.10477 2.92895 -4.62911 2.39375 
2.1031 -4.10808 2.60925 4.27753 -4.86889 2.73745 -4.39774 -3.77843 2.55485 
-3.56432 -3.43062 2.12546 -2.47189 -3.28284 2.15134 -1.06862 -3.7841 2.383 
-1.90676 -3.62159 2.90353 -0.0652766 -3.47234 1.94978 -0.587072 -3.08797 2.91563 
0.0660383 -3.84413 2.87409 1.19585 -3.83324 2.29105 1.87493 -3.1517 2.79165 
2.59967 -3.13635 2.10282 3.56371 -3.85248 2.27312 3.15107 -3.22314 2.93248 
4.56144 -3.68661 2.30123 -4.8343 -2.89375 2.39156 -3.7524 -2.52551 2.50681 
-2.68714 -2.30946 2.07314 -2.07078 -2.62753 2.79346 -1.26861 -2.81662 2.22712 
-1.22156 -2.12253 2.94805 -0.179258 -2.4943 2.22199 0.69844 -2.96795 2.35253 
0.725949 -2.13362 2.903 1.62366 -2.23995 2.4656 3.37664 -2.50758 2.07238 
4.48109 -2.27863 2.00059 4.07453 -2.89666 2.67392 -4.76194 -1.62153 2.75671 
-3.4567 -1.20038 2.40855 -2.12471 -1.62547 2.53762 -0.799124 -1.70259 2.14481 
0.448216 -1.30547 2.4162 1.63851 -1.24633 2.57756 2.74024 -1.80234 2.38475 
4.1438 -1.09417 2.36785 4.29607 -1.91753 2.91453 -4.38211 -0.896052 2.18286 
-3.31319 -0.23359 2.61999 -2.36455 -0.667149 2.79422 -1.53317 -0.991519 2.03839 
-0.333388 -0.0476836 2.68449 -0.723256 -0.960885 2.81115 0.585872 -0.395093 2.86949 
1.17773 -0.444883 2.06503 1.71489 -0.301634 2.89656 2.13866 -0.0697559 2.02096 
2.69781 -0.49311 2.73379 3.18018 -0.986344 2.00984 3.72728 -0.30701 2.82268 
4.76336 -0.421721 1.96302 4.93513 -0.681396 2.91325 -4.42402 0.102432 2.21778 
-4.92202 0.954447 2.37909 -3.69453 0.895495 2.31388 -2.04714 0.053955 2.0657 
-2.76764 0.601322 2.54739 -1.1347 0.533564 2.54312 0.863347 0.496353 2.51132 
2.32311 0.780611 2.51405 3.20182 0.358014 2.29208 3.91392 0.933792 2.69366 
-4.27256 1.71376 2.33981 -3.28128 1.7971 2.44134 -2.25655 1.50752 2.48554 
-1.25108 1.73409 2.61183 -0.494719 1.18209 2.13115 0.588153 1.32591 2.02534 
0.0488081 1.7377 2.76019 1.5871 1.42825 2.31264 3.19961 1.34504 2.12747 
4.13859 1.69763 2.08866 -4.66978 2.61316 2.15746 -3.61831 2.62546 1.99406 
-3.90533 2.73111 2.9461 -2.49659 2.37695 2.03478 -1.6123 2.65052 2.78395 
-0.545186 2.1792 2.06079 0.105258 2.83074 2.45163 0.877853 2.19284 2.43546 
1.83766 2.39652 2.24254 2.70849 2.41733 2.73363 3.69495 2.45135 2.57348 
4.83037 2.24281 2.94036 -4.00433 3.49335 2.30648 -4.86234 3.33004 2.82752 
-3.12816 3.92597 2.51891 -2.44498 3.19582 2.68785 -0.849371 3.10362 2.32286 
0.394351 3.95038 2.5081 1.07138 3.44635 1.9719 1.80257 3.31305 2.64086 
2.79725 3.40863 2.60329 3.525 3.62617 1.95294 4.3652 3.08029 2.17954 
4.12733 3.89718 2.70501 -4.4395 4.2362 2.81507 -3.50466 4.87589 2.6924 
-2.2429 4.29418 2.23486 -1.50895 4.90434 1.93629 -1.37697 4.3166 2.73446 
-0.40524 4.53499 2.64523 0.538733 4.92794 2.76006 1.58182 4.23358 2.31802 
1.76317 4.98842 2.95203 2.55848 4.33114 2.12674 3.51661 4.56904 2.28599 
4.81987 4.36455 2.15561 -4.81886 -4.84729 3.87504 -3.65412 -4.18903 3.08249 
-2.83469 -4.08738 3.65671 -2.27348 -4.86915 3.92871 -0.796509 -4.43319 3.09333 
0.109187 -4.59859 3.5294 0.994435 -4.27815 3.16368 2.01071 -4.59986 3.8514 
3.50037 -4.432 3.19036 4.80425 -4.14322 3.18009 4.1652 -4.43489 3.9376 
-4.0794 -3.33973 3.39516 -3.16097 -3.22314 3.01663 -2.38143 -3.13466 3.63664 
-1.85992 -3.96279 3.84231 -0.502396 -3.69771 3.70365 0.488716 -3.65702 3.8301 
1.65025 -3.68316 3.67914 1.02504 -3.00265 3.29706 2.60203 -3.88251 3.44598 
4.91867 -3.23548 3.58358 4.00112 -3.59677 3.41736 -4.54059 -2.46506 3.24598 
-3.60093 -2.5262 3.72552 -2.96344 -2.19934 3.02786 -2.15323 -2.02588 3.58792 
-1.41135 -2.96081 3.46732 0.107475 -2.65543 3.49058 1.14345 -2.15331 3.81144 
2.02109 -2.75616 3.73488 3.01699 -2.76304 3.82581 3.36177 -2.25144 3.03883 
4.0633 -2.62519 3.64555 -4.72004 -1.12459 3.74063 -3.84922 -1.74951 3.14648 
-3.01059 -1.22994 3.30979 -1.6038 -1.24104 3.29972 -0.223038 -1.81498 2.95449 
-0.707884 -1.38923 3.71843 0.933582 -1.23426 3.28764 0.241503 -1.71216 3.83402 
1.87571 -1.03548 3.55744 2.2071 -1.9176 3.22285 3.00801 -1.69199 3.7883 
3.35237 -1.25464 2.95761 4.52887 -1.77072 3.87585 -4.02595 -0.740765 3.1045 
-3.45779 -0.260772 3.82381 -1.45425 -0.302266 2.98943 -1.73209 -0.0422497 3.91415 
-0.138768 -0.587102 3.53129 2.26049 -0.1356 3.76268 3.13551 -0.61486 3.69488 
3.93224 -0.0226466 3.81504 4.14823 -0.937697 3.47454 -4.47324 0.156211 3.2151 
[...]
POINT_DATA 1400
FIELD FieldData 7
id 1 1400 int
48 62 69 126 50 115 30 89 31 
120 60 12 7 23 28 51 64 29 
24 49 79 129 104 11 56 59 14 
20 99 45 1 18 22 78 82 109 
27 15 19 105 26 4 86 43 67 
54 65 37 80 16 35 110 2 114 
46 33 108 3 71 21 42 55 119 
53 97 52 94 8 84 25 13 6 
63 47 36 41 9 81 87 40 34 
44 5 76 38 58 57 17 10 88 
32 39 72 112 161 165 151 214 77 
106 168 213 198 136 231 123 166 127 
284 210 220 100 157 93 197 103 212 
194 172 174 132 83 180 102 160 70 
135 164 217 155 191 61 85 150 207 
159 66 196 139 258 117 169 147 98 
227 91 158 309 130 101 167 143 73 
125 113 124 171 215 137 193 68 153 
133 190 187 146 74 131 186 163 128 
134 142 203 122 173 154 138 175 95 
211 162 222 118 185 121 144 96 116 
235 92 170 107 178 152 111 206 141 
90 148 75 156 149 192 145 260 291 
189 263 321 244 380 195 199 221 316 
322 336 333 280 266 281 348 140 303 
255 253 318 245 233 319 205 262 272 
225 312 248 324 249 289 298 228 247 
223 282 234 274 283 204 285 279 241 
313 302 224 359 264 184 188 257 230 
177 355 181 269 179 369 270 295 208 
271 265 216 250 277 238 273 256 331 
176 326 259 232 226 218 311 239 261 
236 219 243 353 183 315 200 276 240 
201 297 293 379 252 296 325 314 182 
237 209 275 327 242 278 306 292 376 
229 267 328 290 320 268 398 202 332 
251 431 349 404 484 310 377 343 428 
341 346 396 422 350 448 455 371 399 
405 342 339 389 344 288 400 375 384 
420 330 402 433 432 287 356 503 335 
323 360 254 419 329 378 440 305 391 
354 453 368 415 317 474 337 407 383 
470 401 373 338 358 308 414 361 301 
421 387 334 424 435 509 304 429 372 
299 393 347 294 340 412 367 300 352 
479 418 489 461 374 403 366 246 362 
286 459 430 388 406 390 416 381 345 
445 423 392 357 409 413 385 425 363 
382 451 397 410 307 364 365 351 386 
477 468 558 542 513 426 446 443 516 
539 457 514 501 456 553 500 492 557 
478 465 482 505 481 518 507 544 460 
411 529 581 555 488 417 370 458 442 
595 548 439 490 528 462 498 472 556 
510 549 471 427 515 535 434 506 550 
534 444 527 408 537 525 493 614 541 
499 522 552 437 480 475 554 469 601 
463 521 449 609 512 447 452 524 504 
450 531 617 497 519 559 543 394 438 
454 483 473 546 486 395 562 545 466 
520 523 496 530 487 532 491 590 495 
511 436 604 494 547 502 464 441 602 
467 540 615 476 672 626 616 611 536 
576 669 631 572 608 589 570 709 718 
571 648 633 569 632 588 587 485 579 
649 655 582 533 563 586 618 508 634 
538 670 665 580 610 564 625 658 568 
607 675 654 651 719 664 676 594 660 
647 627 596 517 593 561 685 711 573 
605 612 600 621 574 567 641 577 673 
591 674 653 671 560 662 599 629 551 
721 622 695 613 656 584 619 598 526 
585 566 583 714 666 578 639 628 575 
663 620 693 650 657 623 565 652 667 
597 606 603 701 592 659 688 804 728 
642 741 643 727 686 831 680 774 661 
822 636 732 733 750 722 745 699 668 
738 825 696 700 780 703 767 720 764 
697 724 702 717 752 769 740 775 682 
713 802 698 690 729 683 823 766 706 
815 716 772 795 746 646 739 677 624 
737 743 811 768 630 710 694 761 679 
759 773 687 640 762 787 708 725 778 
726 635 707 771 784 637 756 715 748 
845 689 644 783 754 678 786 684 753 
785 779 758 691 765 751 730 776 704 
757 692 705 760 723 763 638 790 681 
747 749 731 645 899 886 837 826 879 
800 854 880 798 929 865 950 832 851 
807 808 876 828 735 744 957 833 844 
884 791 897 874 835 777 834 869 846 
849 821 947 810 914 836 818 794 770 
742 755 905 848 901 856 863 891 829 
878 712 842 864 788 866 820 873 872 
890 781 896 734 805 857 858 843 907 
736 806 867 827 809 923 792 841 855 
812 906 813 782 889 789 882 793 803 
847 801 814 819 1003 877 839 816 852 
888 911 861 840 796 893 859 953 799 
871 797 958 904 868 824 887 830 920 
850 838 894 883 817 935 898 986 1005 
862 1029 926 951 1012 938 990 1020 937 
969 941 909 915 903 925 1000 1043 934 
1010 860 968 940 881 997 875 995 984 
948 1067 943 961 981 949 960 971 959 
870 853 932 1006 1034 955 966 924 998 
892 939 921 913 1018 1009 942 993 928 
930 900 1007 974 946 1011 1059 967 1016 
954 979 1049 956 922 1004 992 910 1047 
976 917 977 912 999 944 908 885 965 
919 1008 1013 918 970 927 973 1064 980 
933 895 1001 1037 916 931 983 994 996 
963 1046 987 936 945 1015 964 902 1114 
1098 1121 1187 1119 1014 1039 1104 989 1099 
1127 1024 1045 1180 1108 1032 1158 972 1077 
1125 1027 1054 1041 1076 1122 1103 1073 1126 
1030 1021 1071 975 1090 1058 1026 1142 1097 
1023 1081 1066 1089 1028 978 982 952 1084 
1128 1052 1088 1065 988 1025 1118 1056 1101 
1022 1070 1038 1063 1085 1061 1035 1112 1095 
1110 1086 1050 1117 1040 1093 1120 1053 1068 
1069 1055 1017 1123 1111 991 1175 1079 1019 
985 1115 1087 1106 1096 1051 1124 1116 1140 
1188 1075 1057 1036 1002 1031 962 1060 1083 
1094 1033 1177 1048 1102 1105 1062 1091 1130 
1044 1074 1161 1042 1129 1168 1221 1242 1170 
1244 1184 1182 1211 1245 1236 1147 1229 1218 
1156 1154 1107 1133 1198 1225 1139 1202 1072 
1179 1162 1217 1206 1146 1171 1181 1169 1150 
1152 1141 1080 1138 1224 1167 1189 1155 1205 
1164 1160 1214 1144 1092 1134 1183 1166 1100 
1223 1209 1149 1082 1157 1194 1136 1178 1220 
1153 1204 1145 1078 1113 1165 1219 1172 1207 
1173 1241 1186 1203 1131 1227 1185 1195 1137 
1132 1159 1163 1246 1234 1109 1208 1212 1176 
1243 1135 1148 1174 1151 1235 1143 1230 1272 
1293 1191 1294 1299 1291 1253 1269 1233 1213 
1254 1215 1261 1300 1238 1222 1252 1281 1301 
1239 1262 1197 1282 1201 1192 1226 1285 1297 
1255 1270 1196 1274 1247 1302 1237 1290 1292 
1251 1288 1264 1276 1296 1275 1256 1240 1263 
1271 1228 1231 1250 1257 1284 1258 1193 1298 
1267 1190 1248 1359 1249 1286 1216 1278 1200 
1268 1289 1277 1279 1210 1266 1259 1232 1280 
1295 1199 1260 1283 1342 1337 1304 1344 1351 
1331 1312 1323 1335 1347 1273 1308 1265 1317 
1310 1325 1305 1320 1328 1353 1339 1287 1307 
1348 1318 1315 1356 1350 1343 1303 1346 1334 
1355 1333 1358 1314 1357 1327 1319 1340 1349 
1316 1326 1332 1322 1352 1330 1313 1329 1345 
1336 1369 1382 1374 1392 1354 1376 1341 1306 
1309 1338 1324 1397 1377 1400 1311 1321 1394 
1362 1360 1399 1371 1363 1365 1364 1378 1368 
1389 1375 1370 1383 1381 1398 1366 1386 1388 
1384 1391 1372 1395 1373 1390 1380 1393 1361 
1379 1387 1396 1367 1385 
type 1 1400 int
1 1 1 1 1 1 1 1 1 
1 1 1 1 1 1 1 1 1 
1 1 1 1 1 1 1 1 1 
1 1 1 1 1 1 1 1 1 
1 1 1 1 1 1 1 1 1 
1 1 1 1 1 1 1 1 1 
1 1 1 1 1 1 1 1 1 
1 1 1 1 1 1 1 1 1 
1 1 1 1 1 1 1 1 1 
1 1 1 1 1 1 1 1 1 
1 1 1 1 1 1 1 1 1 
1 1 1 1 1 1 1 1 1 
1 1 1 1 1 1 1 1 1 
1 1 1 1 1 1 1 1 1 
1 1 1 1 1 1 1 1 1 
1 1 1 1 1 1 1 1 1 
1 1 1 1 1 1 1 1 1 
1 1 1 1 1 1 1 1 1 
1 1 1 1 1 1 1 1 1 
1 1 1 1 1 1 1 1 1 
1 1 1 1 1 1 1 1 1 
1 1 1 1 1 1 1 1 1 
1 1 1 1 1 1 1 1 1 
1 1 1 1 1 1 1 1 1 
1 1 1 1 1 1 1 1 1 
1 1 1 1 1 1 1 1 1 
1 1 1 1 1 1 1 1 1 
1 1 1 1 1 1 1 1 1 
1 1 1 1 1 1 1 1 1 
1 1 1 1 1 1 1 1 1 
1 1 1 1 1 1 1 1 1 
1 1 1 1 1 1 1 1 1 
1 1 1 1 1 1 1 1 1 
1 1 1 1 1 1 1 1 1 
1 1 1 1 1 1 1 1 1 
1 1 1 1 1 1 1 1 1 
1 1 1 1 1 1 1 1 1 
1 1 1 1 1 1 1 1 1 
1 1 1 1 1 1 1 1 1 
1 1 1 1 1 1 1 1 1 
1 1 1 1 1 1 1 1 1 
1 1 1 1 1 1 1 1 1 
1 1 1 1 1 1 1 1 1 
1 1 1 1 1 1 1 1 1 
1 1 1 1 1 1 1 1 1 
1 1 1 1 1 1 1 1 1 
1 1 1 1 1 1 1 1 1 
1 1 1 1 1 1 1 1 1 
1 1 1 1 1 1 1 1 1 
1 1 1 1 1 1 1 1 1 
1 1 1 1 1 1 1 1 1 
1 1 1 1 1 1 1 1 1 
1 1 1 1 1 1 1 1 1 
1 1 1 1 1 1 1 1 1 
1 1 1 1 1 1 1 1 1 
1 1 1 1 1 1 1 1 1 
1 1 1 1 1 1 1 1 1 
1 1 1 1 1 1 1 1 1 
1 1 1 1 1 1 1 1 1 
1 1 1 1 1 1 1 1 1 
1 1 1 1 1 1 1 1 1 
1 1 1 1 1 1 1 1 1 
1 1 1 1 1 1 1 1 1 
1 1 1 1 1 1 1 1 1 
1 1 1 1 1 1 1 1 1 
1 1 1 1 1 1 1 1 1 
1 1 1 1 1 1 1 1 1 
1 1 1 1 1 1 1 1 1 
1 1 1 1 1 1 1 1 1 
1 1 1 1 1 1 1 1 1 
1 1 1 1 1 1 1 1 1 
1 1 1 1 1 1 1 1 1 
1 1 1 1 1 1 1 1 1 
1 1 1 1 1 1 1 1 1 
1 1 1 1 1 1 1 1 1 
1 1 1 1 1 1 1 1 1 
1 1 1 1 1 1 1 1 1 
1 1 1 1 1 1 1 1 1 
1 1 1 1 1 1 1 1 1 
1 1 1 1 1 1 1 1 1 
1 1 1 1 1 1 1 1 1 
1 1 1 1 1 1 1 1 1 
1 1 1 1 1 1 1 1 1 
1 1 1 1 1 1 1 1 1 
1 1 1 1 1 1 1 1 1 
1 1 1 1 1 1 1 1 1 
1 1 1 1 1 1 1 1 1 
1 1 1 1 1 1 1 1 1 
1 1 1 1 1 1 1 1 1 
1 1 1 1 1 1 1 1 1 
1 1 1 1 1 1 1 1 1 
1 1 1 1 1 1 1 1 1 
1 1 1 1 1 1 1 1 1 
1 1 1 1 1 1 1 1 1 
1 1 1 1 1 1 1 1 1 
1 1 1 1 1 1 1 1 1 
1 1 1 1 1 1 1 1 1 
1 1 1 1 1 1 1 1 1 
1 1 1 1 1 1 1 1 1 
1 1 1 1 1 1 1 1 1 
1 1 1 1 1 1 1 1 1 
1 1 1 1 1 1 1 1 1 
1 1 1 1 1 1 1 1 1 
1 1 1 1 1 1 1 1 1 
1 1 1 1 1 1 1 1 1 
1 1 1 1 1 1 1 1 1 
1 1 1 1 1 1 1 1 1 
1 1 1 1 1 1 1 1 1 
1 1 1 1 1 1 1 1 1 
1 1 1 1 1 1 1 1 1 
1 1 1 1 1 1 1 1 1 
1 1 1 1 1 1 1 1 1 
1 1 1 1 1 1 1 1 1 
1 1 1 1 1 1 1 1 1 
1 1 1 1 1 1 1 1 1 
1 1 1 1 1 1 1 1 1 
1 1 1 1 1 1 1 1 1 
1 1 1 1 1 1 1 1 1 
1 1 1 1 1 1 1 1 1 
1 1 1 1 1 1 1 1 1 
1 1 1 1 1 1 1 1 1 
1 1 1 1 1 1 1 1 1 
1 1 1 1 1 1 1 1 1 
1 1 1 1 1 1 1 1 1 
1 1 1 1 1 1 1 1 1 
1 1 1 1 1 1 1 1 1 
1 1 1 1 1 1 1 1 1 
1 1 1 1 1 1 1 1 1 
1 1 1 1 1 1 1 1 1 
1 1 1 1 1 1 1 1 1 
1 1 1 1 1 1 1 1 1 
1 1 1 1 1 1 1 1 1 
1 1 1 1 1 1 1 1 1 
1 1 1 1 1 1 1 1 1 
1 1 1 1 1 1 1 1 1 
1 1 1 1 1 1 1 1 1 
1 1 1 1 1 1 1 1 1 
1 1 1 1 1 1 1 1 1 
1 1 1 1 1 1 1 1 1 
1 1 1 1 1 1 1 1 1 
1 1 1 1 1 1 1 1 1 
1 1 1 1 1 1 1 1 1 
1 1 1 1 1 1 1 1 1 
1 1 1 1 1 1 1 1 1 
1 1 1 1 1 1 1 1 1 
1 1 1 1 1 1 1 1 1 
1 1 1 1 1 1 1 1 1 
1 1 1 1 1 1 1 1 1 
1 1 1 1 1 1 1 1 1 
1 1 1 1 1 1 1 1 1 
1 1 1 1 1 1 1 1 1 
1 1 1 1 1 1 1 1 1 
1 1 1 1 1 1 1 1 1 
1 1 1 1 1 1 1 1 1 
1 1 1 1 1 1 1 1 1 
1 1 1 1 1 
i 3 1400 int
0 0 0 0 0 0 0 0 0 
0 0 0 0 0 0 0 0 0 
0 1 0 0 0 0 0 0 0 
0 0 0 0 0 0 0 0 0 
0 0 0 0 0 0 0 0 0 
0 0 0 0 0 0 0 0 0 
0 0 0 0 0 0 0 0 0 
0 0 0 0 0 0 0 0 0 
0 0 0 0 0 0 0 0 0 
1 0 0 0 0 0 0 0 0 
0 0 0 0 0 0 0 0 0 
0 0 0 0 0 0 0 0 0 
0 0 0 0 0 0 0 0 0 
0 0 0 0 0 0 0 0 0 
0 0 0 0 0 0 -1 0 0 
0 0 0 0 0 0 0 0 0 
0 0 0 0 0 0 0 0 0 
0 0 0 0 0 0 0 0 0 
0 0 0 0 0 0 0 0 0 
0 0 0 0 0 0 0 0 0 
0 0 0 0 0 0 0 0 0 
0 0 0 0 0 0 0 0 0 
0 0 0 0 0 0 0 0 0 
0 0 0 0 0 0 0 0 0 
0 0 0 0 0 0 0 0 0 
0 0 0 0 0 0 1 0 0 
0 0 0 0 0 0 0 0 0 
0 0 0 0 0 0 0 0 0 
0 0 0 0 0 0 0 0 0 
0 -1 0 0 0 0 0 -1 0 
0 0 0 0 0 0 0 0 0 
0 -1 0 0 0 0 0 1 0 
0 0 0 0 0 0 0 0 0 
0 0 0 0 0 0 0 0 0 
0 0 0 0 0 0 0 0 0 
0 0 0 0 0 0 0 0 0 
0 0 0 0 0 0 0 0 0 
0 0 0 0 0 0 0 0 0 
0 0 0 0 0 0 0 0 0 
0 0 0 0 0 0 0 0 0 
0 0 0 0 0 0 0 0 0 
0 0 0 0 0 0 0 0 0 
0 0 0 0 0 0 0 0 0 
0 0 0 0 0 0 0 0 0 
0 0 0 0 0 0 0 0 0 
0 0 0 0 0 0 0 0 0 
0 0 0 0 0 0 0 0 0 
0 0 0 0 0 0 0 0 0 
0 0 0 0 0 0 0 0 0 
0 0 0 0 0 0 0 0 0 
0 0 0 0 0 0 0 0 0 
0 0 0 0 0 0 0 0 0 
0 0 0 0 0 0 0 0 0 
0 0 0 0 0 0 0 0 0 
0 0 0 0 0 0 0 0 0 
0 0 0 0 0 0 0 0 0 
0 0 0 0 0 0 0 0 0 
0 0 0 0 0 0 0 0 0 
0 0 0 0 0 0 0 0 0 
0 0 0 0 0 0 0 0 0 
0 0 0 0 0 0 0 0 0 
0 0 0 0 0 0 0 0 0 
0 0 0 0 0 0 0 0 0 
0 0 0 0 0 0 0 0 0 
0 0 0 0 0 0 0 0 0 
0 0 0 0 0 0 0 0 0 
0 0 0 0 -1 0 0 0 0 
0 0 0 0 0 0 0 0 0 
0 0 0 0 0 0 0 0 0 
0 0 0 0 1 0 0 0 0 
0 0 0 0 0 0 0 0 0 
0 0 0 0 0 0 0 0 0 
0 0 0 0 0 0 0 0 0 
0 0 0 0 0 0 0 0 0 
0 0 0 0 0 0 0 0 0 
0 0 0 0 0 0 0 0 0 
0 0 0 0 0 0 0 0 0 
0 0 0 0 0 0 0 0 0 
0 0 0 0 0 0 0 0 0 
0 0 0 0 0 0 0 0 0 
0 0 0 0 0 0 0 0 0 
0 0 0 0 0 0 0 0 0 
0 0 0 0 0 0 0 0 0 
0 0 0 0 0 0 0 0 0 
0 0 0 0 0 0 0 0 0 
0 0 0 0 0 0 0 0 0 
0 0 0 0 0 0 0 0 0 
0 0 0 0 0 0 0 0 0 
0 0 0 0 0 0 0 0 0 
0 0 0 -1 0 0 0 0 0 
0 0 0 0 0 0 0 0 0 
0 0 0 0 0 0 0 0 0 
0 0 0 0 0 0 0 0 0 
0 0 0 0 0 0 0 0 0 
0 0 0 0 0 0 0 0 0 
0 0 0 0 0 0 0 0 0 
0 0 0 0 0 0 0 0 0 
0 0 0 0 0 0 0 0 0 
0 0 0 0 0 0 0 0 0 
0 0 0 0 0 0 0 0 0 
-1 0 0 0 0 0 0 0 0 
0 0 0 0 0 0 0 0 0 
0 0 0 0 0 0 0 0 0 
0 0 0 0 0 0 0 0 0 
0 0 0 0 0 0 0 0 0 
0 0 0 0 0 0 0 0 0 
0 0 0 0 -1 0 0 0 0 
0 -1 0 0 0 0 0 0 0 
-1 0 0 0 0 0 0 0 0 
0 0 0 0 0 0 0 0 0 
0 0 0 0 0 0 0 0 0 
0 0 0 -1 0 0 0 0 0 
0 0 0 0 0 0 0 0 0 
0 0 0 0 0 0 0 0 0 
0 0 0 0 0 0 0 0 0 
-1 0 0 0 0 0 0 0 0 
0 0 0 0 0 0 0 0 0 
0 0 0 0 0 0 0 0 0 
0 0 0 0 0 0 0 0 0 
0 0 0 0 0 0 0 0 0 
0 0 0 0 0 0 0 0 0 
0 0 0 0 0 0 0 0 0 
0 0 0 0 0 0 0 0 0 
0 0 0 0 0 0 0 0 0 
0 0 0 0 0 0 0 0 0 
0 0 0 0 0 0 0 0 0 
0 0 0 0 0 0 0 0 0 
0 0 0 0 0 0 0 0 0 
0 0 0 0 0 0 0 0 0 
0 0 0 0 0 0 0 0 0 
0 0 0 0 0 0 0 0 0 
0 0 0 0 0 0 0 0 0 
0 0 0 0 0 0 0 0 0 
0 0 0 0 0 0 0 0 0 
0 0 0 0 0 0 0 0 0 
0 0 0 0 0 0 0 0 0 
0 0 0 0 0 0 0 0 0 
0 0 0 0 0 0 0 0 0 
0 0 0 0 0 0 0 0 0 
0 0 0 0 0 0 0 0 0 
0 0 0 0 0 0 0 0 0 
0 0 0 0 0 0 0 0 0 
0 0 0 0 0 0 0 0 0 
0 0 0 0 0 0 0 0 0 
0 0 0 0 0 0 0 0 0 
0 0 0 0 0 0 0 -1 0 
0 0 0 0 0 0 0 0 0 
1 0 0 0 0 0 0 0 0 
0 0 0 0 0 0 0 0 0 
0 0 0 0 0 0 0 1 0 
0 0 0 0 0 0 0 0 0 
0 0 0 0 0 0 0 0 0 
0 0 0 0 0 0 0 0 0 
0 0 0 0 0 0 0 0 0 
0 0 0 0 0 0 0 0 0 
0 0 0 0 0 0 0 0 0 
0 0 0 0 0 0 0 0 0 
0 0 0 0 0 0 -1 0 0 
0 0 0 0 0 0 0 0 0 
0 0 0 0 0 0 0 0 0 
0 0 0 0 0 0 0 0 0 
0 0 0 0 0 0 0 0 0 
0 0 0 0 0 0 0 0 0 
0 0 0 0 0 0 0 0 0 
0 0 0 0 0 0 0 0 0 
0 0 0 0 0 0 0 0 0 
0 0 0 0 0 0 0 0 0 
0 0 0 0 0 0 0 0 0 
0 0 0 0 0 0 0 0 0 
0 0 0 0 0 0 0 0 0 
0 0 0 0 0 0 0 0 0 
0 0 0 0 0 0 0 0 0 
0 0 0 0 0 0 0 0 0 
0 0 0 0 0 0 0 0 0 
0 0 0 0 0 0 0 0 0 
0 0 0 0 0 0 0 0 0 
0 0 0 0 0 0 0 0 0 
0 0 0 0 0 0 0 0 0 
0 0 0 0 0 0 0 0 0 
0 0 0 0 0 0 0 0 0 
0 0 0 0 0 0 0 0 0 
0 0 0 0 0 0 0 0 0 
0 0 0 0 0 0 0 0 0 
0 0 0 0 0 0 0 0 0 
0 0 0 0 0 0 0 0 0 
0 0 0 0 0 0 0 0 0 
0 0 0 0 0 0 0 0 0 
0 0 0 0 0 0 0 0 0 
0 0 0 0 0 0 0 0 0 
0 0 0 0 0 0 0 0 0 
0 0 0 0 0 0 0 0 0 
0 0 0 0 0 0 0 0 0 
0 0 0 0 0 0 0 0 0 
0 0 0 0 0 0 0 0 0 
0 0 0 0 0 0 0 0 0 
0 0 0 0 0 0 0 0 0 
0 0 0 0 0 0 0 0 0 
0 0 0 0 0 0 0 0 0 
0 0 0 0 0 0 0 0 0 
0 0 0 0 0 0 0 0 0 
0 0 0 0 0 0 0 0 0 
0 0 0 0 0 0 0 0 0 
0 0 0 0 0 0 0 0 0 
0 0 0 0 0 0 0 0 0 
0 0 0 0 0 0 0 0 0 
0 0 0 0 0 0 0 0 0 
0 0 0 0 0 0 0 0 0 
0 0 0 0 0 0 0 0 0 
0 0 0 0 0 0 0 0 0 
0 0 0 0 0 0 0 0 0 
0 0 0 0 0 0 0 0 0 
0 0 0 0 0 0 0 0 0 
0 0 0 0 0 0 0 0 0 
0 0 0 0 0 0 0 0 0 
0 0 0 0 0 0 0 0 0 
0 0 0 0 0 0 0 0 0 
0 0 0 0 0 0 0 0 0 
0 0 0 0 0 0 0 0 0 
0 0 0 0 0 0 0 0 0 
0 0 0 0 0 0 0 0 0 
0 0 0 0 0 0 0 0 0 
0 0 0 0 0 0 0 0 0 
0 0 0 0 0 0 0 0 0 
0 0 0 0 0 0 0 0 0 
0 0 0 0 0 0 0 0 0 
0 0 0 0 0 0 0 0 0 
0 0 0 0 0 0 0 0 0 
0 0 0 0 0 0 0 0 0 
0 0 0 0 0 0 0 0 0 
0 0 0 0 0 0 0 0 0 
0 0 0 0 0 0 0 0 0 
0 0 0 0 0 0 0 0 0 
0 0 0 0 0 0 0 0 0 
0 0 0 0 0 0 0 0 0 
0 0 0 0 0 0 0 0 0 
0 0 0 0 0 0 0 0 0 
0 0 0 0 0 0 0 0 0 
0 0 0 0 0 0 0 0 0 
0 0 0 0 0 0 0 0 0 
0 0 0 0 0 0 0 0 0 
0 0 0 0 0 0 0 0 0 
0 0 0 0 0 0 0 0 0 
0 0 0 0 0 0 0 0 0 
0 0 0 0 0 0 0 0 0 
0 0 0 0 0 0 0 0 0 
0 0 0 0 0 0 0 0 0 
0 0 0 0 0 0 0 0 0 
0 0 0 0 0 0 0 0 0 
0 0 0 0 0 0 0 0 0 
0 0 0 0 0 0 0 0 0 
0 0 0 0 0 0 1 0 0 
0 0 0 0 0 0 0 0 0 
0 0 0 0 0 0 0 0 0 
0 0 0 0 0 0 0 0 0 
0 0 0 0 0 0 0 0 0 
0 0 0 0 0 0 0 0 0 
0 0 0 0 0 0 0 0 0 
0 0 0 0 0 0 0 0 0 
0 0 0 0 -1 0 0 0 0 
0 0 0 0 0 0 0 0 0 
0 0 0 0 0 0 0 0 0 
0 0 0 0 0 0 -1 0 0 
0 0 0 0 0 0 0 0 0 
0 0 0 0 1 0 0 0 0 
0 0 0 0 0 0 0 0 0 
0 0 0 0 0 0 0 0 0 
0 0 0 0 0 0 0 0 0 
0 0 0 0 0 0 0 0 0 
0 0 0 0 0 0 0 0 0 
0 0 0 0 0 0 0 0 0 
0 0 0 0 0 0 0 0 0 
0 0 0 0 0 0 0 0 0 
0 0 0 0 0 0 0 0 0 
0 0 0 0 0 0 0 0 0 
0 0 0 0 0 0 0 0 0 
0 0 0 0 0 0 0 0 0 
0 0 0 0 0 0 0 0 0 
0 0 0 0 0 0 0 0 0 
1 0 0 0 0 0 0 0 0 
0 0 0 0 0 0 0 0 0 
0 0 0 0 0 0 0 0 0 
0 0 0 0 0 0 0 0 0 
0 0 0 0 0 0 0 0 0 
0 0 0 0 0 0 0 0 0 
0 0 0 0 0 0 0 0 0 
0 0 0 0 0 0 0 0 0 
0 0 0 0 0 0 0 0 0 
0 0 0 0 0 0 0 0 0 
0 0 0 0 0 0 0 0 0 
0 0 0 0 0 0 0 0 0 
0 0 0 0 0 0 0 0 0 
0 0 0 0 0 0 0 0 0 
0 0 0 0 0 0 0 0 0 
0 0 0 0 0 0 0 0 0 
0 0 0 0 0 0 0 0 0 
0 0 0 0 0 0 0 0 0 
0 0 0 0 0 0 0 0 0 
0 0 0 0 0 0 0 0 0 
0 0 0 1 0 0 0 0 0 
0 0 0 0 0 0 0 0 0 
0 0 0 0 0 0 0 0 0 
0 0 0 0 0 0 0 0 0 
0 0 0 0 0 0 0 0 0 
0 0 0 0 0 0 0 0 0 
0 0 0 0 0 0 0 0 0 
0 0 0 0 0 0 0 0 0 
0 0 0 0 0 0 0 0 0 
0 0 0 0 0 0 0 0 0 
0 0 0 0 0 0 0 0 0 
0 0 0 0 0 0 0 0 0 
0 0 0 0 0 0 0 0 0 
0 0 0 0 0 0 0 0 0 
0 0 0 0 0 0 0 0 0 
0 0 0 0 0 0 0 0 0 
0 0 0 0 0 0 0 0 0 
0 0 0 0 0 0 0 0 0 
0 0 0 0 0 0 0 0 0 
0 0 0 0 0 0 0 0 0 
0 0 0 0 0 0 0 0 0 
0 0 0 0 0 0 0 0 0 
0 0 0 1 0 0 0 0 0 
0 0 0 0 0 0 0 0 0 
0 0 0 0 0 0 0 0 0 
0 0 0 0 0 0 0 0 0 
0 0 0 0 0 0 0 0 0 
0 0 0 0 0 0 0 0 0 
0 0 0 0 0 0 0 0 0 
0 0 0 0 0 0 0 0 0 
0 0 0 0 0 0 0 0 0 
0 0 0 0 0 0 0 0 0 
0 0 0 0 0 0 0 0 0 
0 0 0 0 0 0 0 0 0 
0 0 0 0 0 0 0 0 0 
0 0 0 0 0 0 0 0 0 
0 0 0 0 0 0 0 0 0 
0 0 0 0 0 0 1 0 0 
0 0 0 0 0 0 0 -1 0 
0 0 0 0 0 0 0 0 0 
0 0 0 0 0 0 0 1 0 
0 0 0 0 0 0 0 0 0 
0 0 0 0 0 0 0 0 0 
0 0 0 0 0 0 0 0 0 
0 0 0 -1 0 0 0 0 0 
0 0 0 0 0 0 0 0 0 
0 0 0 0 0 0 0 0 0 
0 0 0 0 0 0 0 0 0 
0 0 0 0 0 0 0 0 0 
0 0 0 0 0 0 0 0 0 
0 0 0 0 0 0 0 0 0 
0 0 0 0 0 0 0 0 0 
0 0 0 0 0 0 0 0 0 
0 0 0 0 0 0 0 0 0 
0 0 0 0 0 0 0 0 0 
0 0 0 0 0 0 0 0 0 
0 0 0 0 0 0 0 0 0 
0 0 0 0 0 0 0 0 0 
0 0 0 0 0 0 0 0 0 
0 0 0 0 0 0 0 0 0 
0 0 0 0 0 0 0 0 0 
0 0 0 0 0 0 0 0 0 
0 0 0 0 0 0 0 0 0 
0 0 0 0 0 0 0 0 0 
0 0 0 0 0 0 0 0 0 
0 0 0 0 0 0 0 0 0 
0 0 0 0 0 0 0 0 0 
0 0 0 0 0 0 0 0 0 
0 0 0 0 0 0 0 0 0 
0 0 0 0 0 0 0 0 0 
0 0 0 0 0 0 0 0 0 
0 0 0 0 0 0 0 0 0 
0 0 0 0 0 0 0 0 0 
0 0 0 0 0 0 0 0 0 
0 0 0 0 0 0 0 0 0 
0 0 0 0 0 0 0 0 0 
0 0 0 0 0 0 0 0 0 
0 0 0 0 -1 0 0 0 0 
0 0 0 0 0 0 0 0 0 
0 0 0 0 0 0 0 0 0 
0 0 0 0 0 0 0 0 0 
0 0 0 0 0 0 0 0 0 
0 0 0 0 0 0 0 0 0 
0 0 0 0 0 0 0 0 0 
0 0 0 0 0 0 0 0 0 
0 0 0 0 0 0 0 0 0 
0 0 0 0 0 0 0 0 0 
0 0 0 0 0 0 0 0 0 
0 0 0 0 0 0 0 0 0 
0 0 0 0 0 0 0 0 0 
0 0 0 0 0 0 0 0 0 
0 0 0 0 0 0 0 0 0 
0 0 0 0 0 0 0 0 0 
0 0 0 0 0 0 0 0 0 
0 0 0 0 0 0 0 0 0 
0 0 0 0 0 0 0 0 0 
0 0 0 0 0 0 0 0 0 
0 0 0 0 0 0 0 0 0 
0 0 0 0 0 0 0 0 0 
0 0 0 0 0 0 0 0 0 
0 0 0 0 0 0 0 0 0 
0 0 0 0 0 0 0 0 0 
0 0 0 0 0 0 0 0 0 
0 0 0 0 0 0 0 0 0 
0 0 0 0 0 0 0 0 0 
0 0 0 0 0 0 0 0 0 
0 0 0 0 0 0 0 0 0 
0 0 0 0 0 0 0 0 0 
0 0 0 0 0 0 0 0 0 
0 0 0 0 0 0 0 0 0 
0 0 0 0 0 0 0 0 0 
0 0 0 0 0 0 0 0 0 
0 0 0 0 0 0 0 0 0 
0 0 0 0 0 0 0 0 0 
0 0 0 0 0 0 0 0 0 
0 0 0 0 0 0 0 0 0 
0 0 0 0 0 0 0 0 0 
0 0 0 0 0 0 0 0 0 
0 0 0 0 0 0 0 0 0 
0 0 0 0 0 0 0 0 0 
0 0 0 0 0 0 0 0 0 
0 0 0 0 0 0 0 0 0 
0 0 0 0 0 0 0 0 0 
0 0 0 0 0 0 0 0 0 
0 0 0 0 0 0 0 0 0 
0 0 0 0 0 0 0 0 0 
0 0 0 0 0 0 0 0 0 
0 0 0 0 0 0 0 0 0 
0 0 0 0 0 0 0 0 0 
0 0 0 0 0 0 0 0 0 
0 0 0 0 0 0 0 0 0 
0 0 0 0 0 0 0 0 0 
0 0 0 0 0 0 0 0 0 
0 0 0 0 0 0 0 0 0 
0 0 0 0 0 0 0 0 0 
0 0 0 0 0 0 0 0 0 
0 0 0 0 0 0 0 0 0 
0 0 0 0 0 0 0 0 0 
0 0 0 0 0 0 0 0 0 
0 0 0 0 0 0 0 0 0 
0 0 0 0 0 0 0 0 0 
0 0 0 0 0 0 0 0 0 
0 0 0 0 0 0 0 0 0 
0 0 0 0 0 0 0 0 0 
0 0 0 0 0 0 0 0 0 
0 0 0 0 0 0 0 0 0 
0 0 0 0 0 0 0 0 0 
0 0 0 0 0 0 0 0 0 
0 0 0 0 0 0 0 0 0 
0 0 0 0 0 0 0 0 0 
0 0 0 0 0 0 0 0 0 
0 0 0 0 0 0 0 0 0 
0 0 0 0 0 0 0 0 0 
0 0 0 0 0 0 0 0 0 
0 0 0 0 0 0 0 0 0 
0 0 0 0 0 0 0 0 0 
0 0 0 0 0 0 0 0 0 
0 0 0 0 0 0 0 0 0 
0 0 0 0 0 0 0 0 0 
0 0 0 0 0 0 0 0 0 
0 0 0 0 0 0 0 0 0 
0 0 0 0 0 0 0 0 0 
0 0 0 0 0 0 0 0 0 
0 0 0 0 0 0 0 0 0 
0 0 0 0 0 0 0 0 0 
0 0 0 0 0 0 0 0 0 
0 0 0 0 0 0 0 0 0 
0 0 0 0 0 0 0 0 0 
0 0 0 0 0 0 
v 3 1400 double
4.19645e-05 7.24314e-05 1.615e-06 1.53796e-05 2.30897e-05 6.21715e-06 5.82402e-05 -6.41942e-05 -9.21884e-16 
9.50443e-06 -1.34596e-05 -6.16836e-06 -1.7152e-06 -1.27503e-05 -1.0675e-05 -1.05084e-05 -1.56387e-05 -5.46915e-06 
-7.11921e-07 -7.35404e-06 9.00988e-07 1.15981e-05 -1.31361e-05 -5.46688e-06 -1.77436e-05 4.60051e-05 -1.19591e-06 
-2.1331e-05 -7.16259e-06 -1.60856e-05 -2.93113e-05 5.59351e-07 -1.02665e-05 -3.45358e-05 5.93809e-05 2.64841e-06 
4.24946e-06 -2.15511e-05 -6.04607e-06 -3.33756e-05 0.000124634 -1.60039e-06 2.40317e-05 -2.03739e-05 -2.02653e-05 
-2.29766e-05 8.72791e-06 -8.26868e-06 -1.2785e-05 -6.47841e-06 1.14028e-05 5.29011e-05 4.63566e-05 -5.50959e-14 
-1.64694e-05 2.7577e-06 1.00558e-05 -4.78613e-05 -5.68652e-06 -5.67918e-06 -4.56475e-05 3.94643e-06 1.99104e-06 
1.14326e-05 -1.90196e-05 3.78249e-06 4.00769e-05 -3.63002e-05 -5.51781e-06 -4.58906e-05 8.35006e-05 -8.08995e-08 
7.97916e-06 -2.31026e-05 3.43361e-06 -3.37474e-05 1.9495e-06 3.92823e-06 -2.85143e-05 -2.81715e-05 4.36468e-05 
-4.00762e-05 -3.70918e-06 -1.16688e-06 -5.97107e-05 -3.73703e-06 6.18091e-06 1.5526e-05 -7.48435e-06 7.3111e-06 
-9.45619e-07 -2.88732e-05 4.64774e-06 -2.09912e-05 -1.19078e-06 2.78074e-06 -2.42773e-07 -4.52704e-06 -1.43215e-06 
-2.98876e-05 -1.91047e-05 -2.39318e-08 -4.42986e-05 -1.02756e-06 2.19899e-06 -1.00085e-05 -2.87026e-06 7.02335e-06 
-4.67871e-05 7.95192e-06 -2.63118e-06 -5.13333e-05 -1.67466e-05 -2.79067e-05 -2.37909e-06 -2.17381e-05 -1.03139e-05 
-1.52811e-06 -1.46025e-05 -5.13406e-05 -6.01083e-06 -6.85301e-06 -1.13836e-06 -1.44727e-06 1.28613e-05 5.39965e-06 
-6.08572e-06 -2.61198e-06 -1.93477e-06 -5.30703e-05 3.48854e-06 4.81424e-06 -8.50997e-06 7.21382e-06 -9.45605e-12 
-5.16002e-05 1.03421e-05 -1.0109e-05 -4.12708e-05 -1.08856e-05 5.36109e-06 -2.9954e-05 -3.0646e-05 -1.67032e-05 
-3.00795e-06 5.27044e-06 -1.24078e-06 -1.22124e-06 1.6217e-05 4.72075e-06 7.48617e-06 1.31017e-05 -4.94892e-06 