/*--------------------------------*- C++ -*----------------------------------*\
| =========                 |                                                 |
| \\      /  F ield         | OpenFOAM: The Open Source CFD Toolbox           |
|  \\    /   O peration     | Version:  5.x                                   |
|   \\  /    A nd           | Web:      www.OpenFOAM.org                      |
|    \\/     M anipulation  |                                                 |
\*---------------------------------------------------------------------------*/
FoamFile
{
    version     2.0;
    format      ascii;
    class       surfaceScalarField;
    location    "30000";
    object      phi;
}
// * * * * * * * * * * * * * * * * * * * * * * * * * * * * * * * * * * * * * //

dimensions      [0 3 -1 0 0 0 0];

internalField   nonuniform List<scalar> 
5825
(
-0.000195367
-3.21903e-05
-999.998
-0.000164414
5.0182e-05
-999.999
-0.000124621
0.000128948
-999.999
-6.07063e-05
0.00018492
-999.999
0.000209975
-999.999
-9.95617e-05
-2.62046e-05
-999.998
-9.43668e-05
3.98559e-05
-999.999
-6.8326e-05
0.000101866
-999.999
-2.96151e-05
0.000143629
-999.999
0.000161668
-999.999
-3.26216e-05
-2.48938e-05
-999.998
-3.23541e-05
2.87983e-05
-999.998
-2.35874e-05
7.24698e-05
-999.998
-9.17996e-06
9.8871e-05
-999.998
0.000109735
-999.999
1.89695e-05
-7.11688e-06
-999.998
1.01931e-05
2.26175e-05
-999.998
5.19278e-06
4.15118e-05
-999.998
1.86374e-06
5.1238e-05
-999.998
5.39647e-05
-999.998
4.54369e-05
-999.998
2.92693e-05
-999.998
1.48692e-05
-999.998
3.66088e-06
-999.998
-999.998
-0.000504897
-5.05526e-05
-999.999
-0.000408853
0.000202123
-999.999
-0.000293107
0.00039826
-999.999
-0.000135846
0.000531537
-999.999
0.000585037
-999.999
-0.000262429
-7.28282e-06
-999.999
-0.000225877
0.000173696
-999.999
-0.000161106
0.000321436
-999.999
-6.82682e-05
0.000414824
-999.999
0.000451229
-999.999
-8.11345e-05
4.68291e-07
-999.998
-7.78857e-05
0.000132695
-999.998
-6.11772e-05
0.000230637
-999.998
-2.91997e-05
0.000285073
-999.998
0.000305504
-999.998
5.14109e-05
2.46039e-05
-999.998
1.81839e-05
9.52279e-05
-999.998
-1.18529e-06
0.00013088
-999.998
-1.07977e-05
0.000144434
-999.998
0.000147188
-999.998
0.000112093
-999.998
5.37166e-05
-999.998
1.29069e-05
-999.998
-1.42661e-05
-999.998
-999.998
-0.000673962
0.000229168
-999.999
-0.000524162
0.000536554
-999.999
-0.000360786
0.000751751
-999.999
-0.000159821
0.000888722
-999.999
0.00093679
-999.999
-0.000368738
0.000238056
-999.999
-0.00030256
0.000460268
-999.999
-0.000219767
0.00062235
-999.999
-0.000107394
0.000715983
-999.999
0.000748817
-999.999
-0.00015195
0.000205163
-999.998
-0.000146681
0.000347666
-999.998
-0.000118285
0.000447843
-999.998
-7.38629e-05
0.000498541
-999.998
0.000514124
-999.998
-2.78248e-07
0.000153425
-999.998
-4.6394e-05
0.000219712
-999.998
-6.44643e-05
0.000244615
-999.998
-6.05516e-05
0.000249314
-999.998
0.000247215
-999.998
6.24964e-05
-999.997
-1.99378e-05
-999.998
-6.10476e-05
-999.998
-6.89445e-05
-999.998
-999.998
-0.000648586
0.000867736
-999.999
-0.000548613
0.00109063
-999.999
-0.000376999
0.00121586
-999.999
-0.00019287
0.00130111
-999.999
0.00132081
-1000
-0.000466874
0.00074153
-999.998
-0.000384239
0.000926451
-999.999
-0.000286881
0.00102936
-999.999
-0.000164301
0.00108414
-999.999
0.00109632
-999.999
-0.000320668
0.000590373
-999.998
-0.000292331
0.000689383
-999.998
-0.000234108
0.000744514
-999.998
-0.000149737
0.000766934
-999.998
0.000768439
-999.999
-0.000221469
0.000364642
-999.997
-0.000234535
0.000392662
-999.997
-0.000210873
0.00039226
-999.998
-0.000147568
0.00038357
-999.998
0.000374967
-999.998
-0.000192156
-999.997
-0.000233573
-999.997
-0.000222459
-999.998
-0.000156978
-999.998
-999.998
-0.000738133
0.00167686
-999.999
-0.000615717
0.00182743
-999.999
-0.000440871
0.00184308
-1000
-0.000246953
0.00185264
-1000
0.00183618
-1000
-0.000675706
0.00146437
-999.998
-0.000557907
0.00155436
-999.999
-0.00041831
0.00157181
-999.999
-0.000247767
0.00156958
-999.999
0.00155573
-999.999
-0.000626306
0.00112482
-999.997
-0.000550099
0.00114391
-999.998
-0.000423584
0.0011379
-999.998
-0.000257753
0.00112299
-999.998
0.00110815
-999.999
-0.000612057
0.000630665
-999.997
-0.000553583
0.000609514
-999.997
-0.000437981
0.000584413
-999.998
-0.000268835
0.000564346
-999.998
0.000552127
-999.998
-0.000633911
-999.996
-0.000577086
-999.997
-0.000457897
-999.997
-0.000279765
-999.998
-999.998
-0.00101971
0.00265565
-999.999
-0.000817022
0.00271827
-1000
-0.000586866
0.00266891
-1000
-0.000326861
0.00261769
-1000
0.00257081
-1000
-0.00102753
0.00235806
-999.998
-0.000860702
0.00233045
-999.998
-0.000627666
0.00227342
-999.999
-0.000355687
0.00222268
-999.999
0.0021856
-999.999
-0.00108199
0.00174996
-999.997
-0.000917482
0.00169764
-999.997
-0.000680946
0.00164377
-999.998
-0.000387163
0.00160039
-999.998
0.0015736
-999.998
-0.00114083
0.00092764
-999.996
-0.000970994
0.000871719
-999.997
-0.000724707
0.000836994
-999.997
-0.000409519
0.000814259
-999.998
0.000802814
-999.998
-0.00119243
-999.996
-0.00100352
-999.996
-0.000745577
-999.997
-0.000417
-999.997
-999.997
-0.00154042
0.00373894
-999.999
-0.00118648
0.00379686
-1000
-0.000840111
0.00373514
-1000
-0.000450443
0.00365271
-1000
0.00358802
-1000
-0.00154016
0.00335787
-999.997
-0.00128915
0.00326442
-999.998
-0.000923594
0.00317095
-999.999
-0.000498184
0.00309494
-999.999
0.00304603
-999.999
-0.0016446
0.002448
-999.996
-0.00137377
0.00236503
-999.997
-0.000998875
0.00229243
-999.997
-0.000538906
0.00223894
-999.998
0.00220931
-999.998
-0.0017335
0.0012616
-999.995
-0.00144644
0.00120735
-999.996
-0.00105237
0.00117746
-999.997
-0.000563104
0.00116033
-999.997
0.00115333
-999.997
-0.00178281
-999.995
-0.00147262
-999.996
-0.00106644
-999.996
-0.000565053
-999.997
-999.997
-0.0022134
0.00512058
-999.998
-0.0017445
0.00517353
-999.999
-0.00122997
0.00511524
-1000
-0.000646787
0.00503377
-1000
0.00497168
-1000
-0.00220075
0.00449963
-999.997
-0.00183651
0.00442371
-999.998
-0.00131924
0.00433473
-999.998
-0.000694023
0.00426123
-999.999
0.00421683
-999.999
-0.00229252
0.00327479
-999.995
-0.00192119
0.00320412
-999.996
-0.00139168
0.00314058
-999.997
-0.000728874
0.00309533
-999.997
0.0030718
-999.998
-0.00236309
0.00168677
-999.994
-0.00198378
0.00165819
-999.995
-0.00143611
0.00163901
-999.996
-0.000746473
0.00162958
-999.996
0.00162654
-999.996
-0.00238727
-999.994
-0.00199682
-999.994
-0.00144019
-999.995
-0.000742599
-999.995
-999.996
-0.00304051
0.00695782
-999.998
-0.00251216
0.00698799
-999.999
-0.00179626
0.00694266
-1000
-0.000944996
0.00688744
-1000
0.00684964
-1000
-0.00302212
0.0059724
-999.996
-0.00254523
0.00594865
-999.997
-0.00185061
0.00588454
-999.998
-0.000967371
0.00583515
-999.999
0.00580732
-999.999
-0.00308156
0.00435007
-999.994
-0.00261159
0.00431617
-999.995
-0.00190041
0.00427473
-999.996
-0.000984145
0.00424875
-999.996
0.00423447
-999.997
-0.00311501
0.0022701
-999.992
-0.00265048
0.0022636
-999.993
-0.00192551
0.00225416
-999.994
-0.000990721
0.00225217
-999.995
0.00225377
-999.995
-0.00311411
-999.991
-0.00265106
-999.992
-0.00192009
-999.993
-0.000980105
-999.994
-999.994
-0.00414229
0.00939173
-999.998
-0.00351242
0.00942478
-999.999
-0.00255551
0.00941408
-1000
-0.00135371
0.00940022
-1000
0.00939266
-1000
-0.00410047
0.00797961
-999.994
-0.00349448
0.00802272
-999.996
-0.0025617
0.00798893
-999.997
-0.00133756
0.00797289
-999.998
0.0079611
-999.999
-0.00413532
0.0058302
-999.992
-0.00353309
0.00582787
-999.993
-0.00258061
0.00580958
-999.994
-0.0013341
0.00580494
-999.995
0.00579776
-999.996
-0.00414092
0.00306787
-999.99
-0.00354729
0.00306984
-999.991
-0.00258499
0.00306888
-999.992
-0.00132982
0.00307612
-999.993
0.00308486
-999.994
-0.00412981
-999.988
-0.00353706
-999.99
-0.0025693
-999.991
-0.00130984
-999.992
-999.992
-0.0056548
0.012619
-999.998
-0.00481296
0.0127764
-1000
-0.0035323
0.0127875
-1000
-0.00186951
0.0128095
-1000
0.0128179
-1000
-0.00558787
0.0108127
-999.993
-0.00477461
0.0108705
-999.995
-0.00350122
0.0108638
-999.997
-0.00182737
0.0108763
-999.998
0.0108703
-999.998
-0.00558497
0.00787797
-999.989
-0.00478046
0.00789442
-999.991
-0.00349151
0.00789645
-999.993
-0.00181028
0.00790921
-999.994
0.00790499
-999.995
-0.0055798
0.00414655
-999.986
-0.0047751
0.00415178
-999.988
-0.00347892
0.00416088
-999.99
-0.00179695
0.00417914
-999.991
0.0041918
-999.992
-0.00556306
-999.985
-0.0047525
-999.987
-0.00345119
-999.988
-0.00176944
-999.989
-999.99
-0.00772033
0.01719
-999.997
-0.00651689
0.0173637
-1000
-0.00477336
0.0173969
-1000
-0.00251351
0.0174341
-1000
0.0174321
-1000
-0.00760648
0.0147282
-999.991
-0.00647919
0.0147793
-999.993
-0.00473199
0.0147941
-999.996
-0.00247205
0.0148198
-999.997
0.0148064
-999.998
-0.00756969
0.0107047
-999.985
-0.00646244
0.0107283
-999.988
-0.00470699
0.010745
-999.99
-0.00245163
0.0107669
-999.992
0.0107579
-999.993
-0.00755274
0.00562198
-999.981
-0.00644402
0.0056322
-999.984
-0.00468496
0.00565
-999.986
-0.00243546
0.0056729
-999.988
0.00567745
-999.989
-0.00752646
-999.979
-0.00641003
-999.982
-0.00465025
-999.984
-0.00241103
-999.986
-999.987
-0.0104549
0.0234653
-999.997
-0.00878675
0.0236566
-1000
-0.00638607
0.0236939
-1000
-0.00334774
0.0237198
-1000.01
0.023682
-1000.01
-0.0103151
0.0200837
-999.988
-0.00875333
0.0201451
-999.992
-0.00636158
0.0201629
-999.995
-0.00332949
0.0201821
-999.997
0.0201461
-999.998
-0.0102561
0.014596
-999.98
-0.00873247
0.0146235
-999.984
-0.00634159
0.0146414
-999.987
-0.00331799
0.0146581
-999.99
0.0146309
-999.991
-0.0102304
0.00766468
-999.975
-0.00871369
0.00767813
-999.979
-0.00632384
0.00769487
-999.982
-0.0033104
0.007707
-999.984
0.00769213
-999.985
-0.0101935
-999.972
-0.0086764
-999.976
-0.00629616
-999.979
-0.00329939
-999.981
-999.983
-0.0140567
0.0321238
-999.996
-0.0118252
0.0322885
-1000
-0.0085498
0.032293
-1000.01
-0.00447456
0.0322782
-1000.01
0.0321864
-1000.01
-0.0139469
0.0274432
-999.984
-0.0118206
0.0274918
-999.989
-0.00856655
0.0274833
-999.993
-0.00449213
0.027473
-999.996
0.0273977
-999.998
-0.0139057
0.0199487
-999.974
-0.0118259
0.0199624
-999.979
-0.00857501
0.0199617
-999.983
-0.00450215
0.0199549
-999.986
0.0198966
-999.988
-0.0138929
0.0104844
-999.966
-0.0118257
0.0104928
-999.971
-0.0085796
0.0104937
-999.976
-0.00451282
0.0104822
-999.979
0.0104436
-999.981
-0.0138518
-999.962
-0.0117975
-999.967
-0.00857121
-999.972
-0.00451701
-999.975
-999.977
-0.0188723
0.0440479
-999.995
-0.0159525
0.0440806
-1000
-0.0115305
0.0440078
-1000.01
-0.00604193
0.0439304
-1000.01
0.0437749
-1000.01
-0.0188866
0.0375261
-999.978
-0.01602
0.037508
-999.985
-0.011607
0.0374432
-999.991
-0.00609689
0.0373847
-999.995
0.0372588
-999.998
-0.0189175
0.0272686
-999.964
-0.016082
0.0272444
-999.971
-0.0116631
0.0272056
-999.977
-0.00613472
0.0271618
-999.982
0.027066
-999.984
-0.0189442
0.014339
-999.954
-0.016119
0.0143326
-999.961
-0.011704
0.0143062
-999.967
-0.0061661
0.0142684
-999.972
0.0142077
-999.974
-0.0189068
-999.949
-0.0161088
-999.956
-0.0117154
-999.962
-0.00617992
-999.966
-999.969
-0.0255472
0.0602245
-999.993
-0.0216531
0.0601088
-1000
-0.0156818
0.0599448
-1000.01
-0.00823876
0.0597999
-1000.02
0.0595783
-1000.02
-0.0257024
0.0512545
-999.97
-0.0218157
0.0511355
-999.98
-0.0158244
0.0509962
-999.988
-0.00832228
0.0508813
-999.994
0.0506999
-999.997
-0.025829
0.0372383
-999.951
-0.0219526
0.0371555
-999.961
-0.0159368
0.037063
-999.969
-0.0083851
0.0369774
-999.975
0.0368415
-999.978
-0.025913
0.0195875
-999.938
-0.022043
0.0195518
-999.947
-0.0160195
0.0194921
-999.956
-0.00843416
0.019433
-999.962
0.0193588
-999.965
-0.0258892
-999.93
-0.0220528
-999.94
-0.0160417
-999.948
-0.00844441
-999.954
-999.958
-0.0348324
0.0821337
-999.99
-0.0295391
0.0819036
-1000
-0.0214331
0.0816485
-1000.01
-0.0112792
0.0814388
-1000.02
0.0811446
-1000.03
-0.035095
0.0699254
-999.96
-0.0298011
0.0696909
-999.973
-0.0216415
0.0694655
-999.984
-0.0113844
0.0692916
-999.992
0.0690464
-999.996
-0.0353268
0.0508162
-999.934
-0.0300254
0.0506511
-999.947
-0.0218123
0.0504902
-999.958
-0.0114684
0.0503606
-999.967
0.0501823
-999.971
-0.0354891
0.026736
-999.915
-0.0301847
0.0266489
-999.929
-0.0219387
0.026553
-999.94
-0.0115289
0.0264805
-999.948
0.026398
-999.953
-0.0354943
-999.905
-0.0302119
-999.919
-0.0219602
-999.93
-0.011524
-999.938
-999.943
-0.0475667
0.11197
-999.987
-0.0403677
0.111599
-1000
-0.0293123
0.111233
-1000.02
-0.0154221
0.110947
-1000.03
0.110554
-1000.04
-0.0479544
0.0953464
-999.946
-0.0407429
0.0949729
-999.963
-0.0295959
0.0946423
-999.979
-0.0155581
0.0943983
-999.989
0.0940681
-999.995
-0.0483193
0.0693126
-999.91
-0.041074
0.0690333
-999.928
-0.0298355
0.0687854
-999.944
-0.0156677
0.0686049
-999.955
0.0683717
-999.961
-0.0485937
0.0364705
-999.885
-0.041321
0.0363094
-999.903
-0.0300119
0.0361732
-999.919
-0.0157409
0.0360869
-999.93
0.0359769
-999.936
-0.0486431
-999.871
-0.0413632
-999.89
-0.0300281
-999.905
-0.0157317
-999.916
-999.922
-0.0649375
0.152596
-999.982
-0.0551307
0.152045
-1000.01
-0.0400171
0.151528
-1000.03
-0.0210332
0.151129
-1000.04
0.150588
-1000.05
-0.0654978
0.12996
-999.926
-0.0556563
0.129405
-999.95
-0.0404116
0.128925
-999.971
-0.0212216
0.128577
-999.986
0.12812
-999.994
-0.0660457
0.094499
-999.878
-0.0561376
0.0940611
-999.903
-0.0407533
0.0936941
-999.924
-0.0213781
0.0934388
-999.939
0.0931088
-999.947
-0.0664791
0.0497185
-999.844
-0.0565045
0.0494635
-999.868
-0.0410032
0.0492717
-999.889
-0.0214906
0.0491465
-999.905
0.0489735
-999.913
-0.0665829
-999.825
-0.0565685
-999.85
-0.0410318
-999.871
-0.0215014
-999.887
-999.895
-0.0885675
0.207902
-999.976
-0.0751556
0.20709
-1000.01
-0.0545231
0.206333
-1000.04
-0.0286421
0.205752
-1000.06
0.204998
-1000.07
-0.0893852
0.177102
-999.9
-0.0759235
0.176269
-999.933
-0.0550982
0.175549
-999.961
-0.0289144
0.175029
-999.981
0.174371
-999.992
-0.0902105
0.128793
-999.835
-0.0766452
0.128124
-999.868
-0.0556094
0.127575
-999.897
-0.0291637
0.127186
-999.917
0.126691
-999.928
-0.0908754
0.0677535
-999.787
-0.0771953
0.067374
-999.821
-0.055991
0.0670841
-999.85
-0.0293606
0.0668757
-999.871
0.066615
-999.882
-0.0910492
-999.763
-0.0773108
-999.797
-0.0560698
-999.825
-0.0294006
-999.846
-999.858
-0.120585
0.283269
-999.968
-0.102289
0.281975
-1000.01
-0.0741966
0.280808
-1000.05
-0.0389754
0.279933
-1000.08
0.278861
-1000.09
-0.121882
0.241325
-999.864
-0.10347
0.240033
-999.909
-0.0750649
0.238923
-999.947
-0.0393923
0.238116
-999.975
0.237146
-999.99
-0.123167
0.175515
-999.776
-0.104585
0.174487
-999.821
-0.0758617
0.173634
-999.86
-0.0398026
0.173013
-999.888
0.172284
-999.903
-0.124191
0.0923308
-999.711
-0.105438
0.0917589
-999.757
-0.0764738
0.0912955
-999.797
-0.0401235
0.0909559
-999.825
0.0905804
-999.84
-0.124484
-999.677
-0.105666
-999.724
-0.0766405
-999.763
-0.0401984
-999.792
-999.807
-0.163991
0.385968
-999.958
-0.139096
0.383854
-1000.02
-0.100888
0.382007
-1000.07
-0.0529889
0.380645
-1000.11
0.379074
-1000.12
-0.166112
0.328847
-999.816
-0.140956
0.326809
-999.877
-0.102239
0.325062
-999.929
-0.0536682
0.323781
-999.967
0.322361
-999.987
-0.168155
0.239224
-999.695
-0.142711
0.23761
-999.758
-0.103508
0.236252
-999.81
-0.0543265
0.235258
-999.849
0.234202
-999.869
-0.169768
0.125861
-999.607
-0.144071
0.124966
-999.67
-0.104491
0.124216
-999.724
-0.0548287
0.123675
-999.763
0.123117
-999.784
-0.170287
-999.56
-0.144503
-999.624
-0.104797
-999.679
-0.0549778
-999.718
-999.739
-0.22288
0.525923
-999.944
-0.189017
0.522491
-1000.03
-0.137059
0.519539
-1000.09
-0.0719572
0.517374
-1000.14
0.515035
-1000.17
-0.226328
0.448208
-999.751
-0.191985
0.444939
-999.834
-0.139209
0.442149
-999.905
-0.0730788
0.440102
-999.956
0.438017
-999.983
-0.229614
0.326173
-999.586
-0.194791
0.323587
-999.671
-0.141246
0.321397
-999.743
-0.0741301
0.3198
-999.796
0.318233
-999.824
-0.232208
0.171649
-999.465
-0.196987
0.17021
-999.552
-0.142832
0.168995
-999.626
-0.0749458
0.168114
-999.679
0.167258
-999.708
-0.23314
-999.402
-0.197775
-999.49
-0.143393
-999.564
-0.0752456
-999.618
-999.647
-0.302724
0.716687
-999.926
-0.256641
0.71115
-1000.04
-0.185998
0.706423
-1000.13
-0.0976167
0.702947
-1000.2
0.699463
-1000.23
-0.30829
0.611079
-999.662
-0.261394
0.605782
-999.776
-0.189457
0.601268
-999.871
-0.0994411
0.597957
-999.941
0.594835
-999.978
-0.313625
0.444928
-999.437
-0.265939
0.440725
-999.554
-0.192763
0.437153
-999.652
-0.101159
0.434539
-999.724
0.432154
-999.762
-0.31785
0.23424
-999.272
-0.26953
0.231896
-999.392
-0.19537
0.229903
-999.493
-0.102521
0.228446
-999.566
0.227132
-999.606
-0.319515
-999.185
-0.270947
-999.306
-0.196398
-999.409
-0.10308
-999.483
-999.523
-0.410913
0.976549
-999.902
-0.348068
0.967728
-1000.05
-0.252101
0.960159
-1000.18
-0.132297
0.954549
-1000.27
0.949338
-1000.31
-0.419787
0.833372
-999.543
-0.35568
0.824745
-999.697
-0.257692
0.81736
-999.827
-0.135248
0.811925
-999.921
0.807163
-999.971
-0.428497
0.60727
-999.235
-0.363127
0.600365
-999.395
-0.263131
0.594464
-999.53
-0.138098
0.590121
-999.627
0.586451
-999.68
-0.435458
0.319929
-999.01
-0.369075
0.316054
-999.174
-0.267474
0.312752
-999.313
-0.140378
0.310316
-999.414
0.308296
-999.468
-0.438428
-998.89
-0.37161
-999.057
-0.269339
-999.198
-0.141374
-999.301
-999.356
-0.557012
1.33045
-999.871
-0.471286
1.31636
-1000.07
-0.341173
1.30415
-1000.24
-0.179029
1.29505
-1000.36
1.28716
-1000.42
-0.571208
1.13688
-999.383
-0.483559
1.12272
-999.591
-0.350253
1.11052
-999.767
-0.183839
1.10151
-999.894
1.09414
-999.962
-0.585545
0.829507
-998.962
-0.495882
0.818032
-999.18
-0.359299
0.808179
-999.364
-0.188611
0.8009
-999.498
0.795161
-999.57
-0.597152
0.437475
-998.652
-0.505835
0.430997
-998.878
-0.366602
0.425452
-999.069
-0.192462
0.42134
-999.208
0.418183
-999.284
-0.602437
-998.487
-0.510367
-998.718
-0.369955
-998.913
-0.194229
-999.055
-999.132
-0.753167
1.8124
-999.833
-0.636556
1.78953
-1000.1
-0.460683
1.76961
-1000.32
-0.24172
1.75471
-1000.48
1.74257
-1000.57
-0.776249
1.55163
-999.169
-0.656591
1.52812
-999.449
-0.475562
1.50778
-999.686
-0.249664
1.49264
-999.858
1.48099
-999.95
-0.800106
1.13443
-998.592
-0.677187
1.11513
-998.89
-0.490786
1.0985
-999.141
-0.257782
1.08614
-999.324
1.07698
-999.424
-0.819685
0.599234
-998.166
-0.694021
0.588293
-998.477
-0.503215
0.578866
-998.741
-0.264382
0.571881
-998.933
0.566822
-999.038
-0.829078
-997.937
-0.70212
-998.257
-0.509202
-998.527
-0.267555
-998.725
-998.833
-1.01483
2.4682
-999.789
-0.856776
2.43071
-1000.14
-0.620047
2.39789
-1000.43
-0.325456
2.37316
-1000.65
2.35407
-1000.76
-1.05273
2.11914
-998.885
-0.889832
2.07965
-999.261
-0.644761
2.04527
-999.578
-0.338813
2.01941
-999.81
2.00053
-999.935
-1.09291
1.55425
-998.095
-0.924707
1.52145
-998.5
-0.670819
1.49307
-998.843
-0.352901
1.47183
-999.095
1.45686
-999.233
-1.12629
0.822988
-997.503
-0.953498
0.804343
-997.933
-0.692222
0.788221
-998.297
-0.364367
0.776226
-998.565
0.767911
-998.713
-1.14296
-997.184
-0.967912
-997.628
-0.702918
-998.004
-0.370114
-998.282
-998.435
-1.36067
3.35929
-999.74
-1.1476
3.29747
-1000.2
-0.831167
3.24296
-1000.58
-0.436941
3.20141
-1000.86
3.17066
-1001.01
-1.42328
2.89725
-998.517
-1.20256
2.83003
-999.015
-0.872657
2.77107
-999.436
-0.459767
2.72603
-999.747
2.69444
-999.919
-1.49187
2.13529
-997.429
-1.26254
2.0791
-997.978
-0.918166
2.03026
-998.447
-0.484856
1.99334
-998.795
1.9683
-998.991
-1.54918
1.13494
-996.601
-1.31218
1.10306
-997.194
-0.95539
1.07535
-997.699
-0.505071
1.05443
-998.077
1.0404
-998.291
-1.57863
-996.149
-1.33776
-996.765
-0.974623
-997.292
-0.51557
-997.686
-997.91
-1.81105
4.56738
-999.702
-1.52706
4.46483
-1000.28
-1.10928
4.37392
-1000.77
-0.585384
4.30415
-1001.14
4.25358
-1001.35
-1.91502
3.96725
-998.051
-1.61857
3.85116
-998.697
-1.17867
3.74832
-999.251
-0.624577
3.66784
-999.665
3.61234
-999.902
-2.03398
2.94597
-996.545
-1.72369
2.84919
-997.287
-1.26036
2.76475
-997.926
-0.671274
2.70005
-998.417
2.65714
-998.707
-2.13287
1.57523
-995.372
-1.80958
1.52065
-996.188
-1.32551
1.47268
-996.891
-0.707246
1.43585
-997.431
1.41166
-997.752
-2.18456
-994.717
-1.85497
-995.574
-1.36018
-996.314
-0.726505
-996.884
-997.225
-2.38381
6.19875
-999.714
-2.01441
6.02924
-1000.41
-1.47474
5.87896
-1001.04
-0.785605
5.76507
-1001.53
5.68171
-1001.83
-2.55532
5.4462
-997.501
-2.1645
5.24115
-998.3
-1.58637
5.05756
-999.007
-0.85076
4.90729
-999.543
4.8016
-999.873
-2.76678
4.09153
-995.394
-2.35389
3.92368
-996.382
-1.74031
3.77826
-997.261
-0.944519
3.66515
-997.97
3.59072
-998.441
-2.93821
2.20876
-993.696
-2.50157
2.11496
-994.816
-1.85328
2.03168
-995.793
-1.00777
1.96647
-996.577
1.9234
-997.093
-3.0286
-992.715
-2.58202
-993.906
-1.91589
-994.948
-1.04373
-995.789
-996.346
-3.08108
8.3861
-999.9
-2.63125
8.11602
-1000.66
-1.96204
7.87729
-1001.47
-1.06985
7.71172
-1002.19
7.58088
-1002.7
-3.3514
7.51116
-996.979
-2.86246
7.13219
-997.805
-2.11384
6.79193
-998.671
-1.16101
6.48435
-999.269
6.25063
-999.703
-3.74671
5.74243
-993.951
-3.21983
5.44739
-995.224
-2.4326
5.20353
-996.459
-1.37542
5.01149
-997.554
4.88451
-998.45
-4.04595
3.14712
-991.421
-3.46484
2.98493
-992.935
-2.61832
2.84
-994.276
-1.47812
2.72336
-995.429
2.64302
-996.329
-4.20368
-989.879
-3.60796
-991.516
-2.7331
-992.983
-1.5481
-994.251
-995.251
-3.84998
11.2762
-1000.68
-3.42816
10.9096
-1001.2
-2.66757
10.5681
-1002.46
-1.53722
10.4219
-1003.76
10.2425
-1004.88
-4.2008
10.4602
-996.972
-3.70876
9.68671
-997.074
-2.70897
9.01195
-998.115
-1.55603
8.28056
-998.28
7.71493
-998.732
-5.0189
8.19275
-992.322
-4.4373
7.65641
-993.775
-3.49825
7.28342
-995.67
-2.15494
6.98599
-997.603
6.78723
-999.678
-5.55052
4.59598
-988.409
-4.79299
4.3114
-990.347
-3.74068
4.05657
-992.101
-2.26283
3.84301
-993.764
3.67997
-995.485
-5.827
-985.824
-5.05545
-987.976
-3.96213
-990.02
-2.4126
-991.958
-993.983
-4.52978
14.9465
-1003.43
-4.64177
14.796
-1002.53
-3.92645
14.3351
-1005.25
-2.50316
14.5039
-1007.95
14.1763
-1010.6
-4.65044
14.9145
-999.33
-4.6093
12.9889
-995.308
-2.93759
11.6458
-997.098
-1.91089
10.0133
-994.816
8.85354
-995.32
-6.55366
11.9818
-991.011
-6.2999
10.9234
-991.963
-5.38692
10.5209
-995.458
-3.83301
10.1238
-999.268
9.791
-1004.45
-7.49769
6.95822
-984.826
-6.54899
6.44736
-986.82
-5.35926
5.9818
-988.752
-3.65066
5.55635
-990.905
5.16026
-994.505
-7.98311
-980.153
-7.08358
-982.428
-5.84283
-985.279
-4.03621
-988.208
-992.859
-5.03352
19.0058
-1011.55
-6.96471
20.6529
-1005.66
-6.55898
19.3682
-1012.02
-4.67396
20.5696
-1017.52
19.4638
-1023.37
-3.89164
22.4737
-1009.56
-4.80656
16.6806
-990.421
-1.96282
15.0492
-995.622
-1.8976
11.7326
-986.044
9.42924
-987.183
-8.40375
18.0655
-990.866
-9.66631
15.7389
-989.759
-9.15313
15.9557
-996.878
-7.7341
15.2112
-1004.17
14.3691
-1017.12
-9.74497
11.0404
-981.753
-8.55763
10.1557
-982.424
-7.47413
9.16706
-983.046
-6.26351
8.27623
-985.181
7.63251
-994.032
-10.5316
-972.525
-9.93276
-972.872
-8.742
-977.303
-7.42832
-981.245
-992.655
-5.44555
21.1255
-1031.03
-11.0559
29.5498
-1012.51
-11.9977
24.859
-1025.1
-9.26863
29.0532
-1036.43
25.7487
-1048.43
-0.0520571
37.2687
-1043.47
-0.139999
20.783
-981.566
1.51985
20.5627
-992.985
-0.0173232
13.6328
-969.087
8.39018
-969.842
-11.5812
27.69
-990.633
-16.0011
22.5268
-987.083
-16.6859
25.4702
-1001.1
-16.9073
23.3176
-1013.63
20.9133
-1046.55
-12.4889
18.5102
-981.56
-9.88584
17.4232
-979.923
-9.89808
14.5254
-972.089
-12.0464
13.705
-973.42
12.9483
-998.113
-13.643
-960.758
-14.3455
-954.746
-13.3341
-963.789
-14.9459
-965.928
-994.653
-6.0973
14.4947
-1070.74
-17.4471
41.3677
-1026.53
-23.4163
29.4148
-1045.56
-18.6871
40.3167
-1071.5
32.9892
-1094.86
20.2393
69.6081
-1154.1
11.0072
25.9903
-956.957
13.1909
29.5403
-995.294
4.04411
16.0689
-935.692
2.82034
-935.629
-18.4172
44.8043
-983.414
-27.795
30.373
-982.088
-31.8911
42.4169
-1009.88
-38.79
36.9818
-1027.64
29.6261
-1112.15
-17.0673
32.7589
-986.082
-6.91765
33.5452
-993.245
-13.0209
23.6492
-947.218
-26.5422
25.3976
-948.314
24.8097
-1019.84
-18.591
-935.311
-21.264
-918.528
-20.8185
-940.585
-32.0113
-929.338
-1001.85
-25.5553
18.2772
-1097.32
-51.032
56.0939
-1035.37
-47.2322
38.9532
-1110.09
-39.94
57.552
-1136.34
38.2474
-1199.54
31.4639
93.484
-1292.1
23.9356
22.2057
-915.54
31.4755
36.9806
-1000.86
11.5877
15.1087
-873.361
-23.9286
-861.865
-51.052
58.9312
-943.049
-58.8364
33.7505
-985.848
-62.461
72.4829
-1041.76
-82.2986
59.9806
-1052.68
45.4128
-1263.79
-34.7168
53.7507
-989.33
4.37291
61.511
-1060.09
-17.694
35.2087
-887.877
-45.2637
47.4107
-908.175
35.6075
-1055.3
-38.5892
-872.913
-33.6553
-861.951
-35.396
-903.636
-70.4274
-846.896
-1036.67
55.575
-240.565
-1551.65
103.223
90.1565
-1328.22
-78.1179
-49.5837
-998.883
-37.9226
97.8123
-1345.12
59.8515
-1283.5
314.018
456.648
-2651.97
158.106
36.8753
-706.347
111.927
147.842
-1152.11
53.3762
66.2821
-783.28
-138.312
-610.326
-30.0366
241.411
-851.868
-10.5993
42.5678
-1010.98
-109.804
138.433
-933.144
-232.081
159.74
-1023.86
58.2338
-1692.41
-45.4664
144.873
-1002.48
110.489
243.83
-1417.31
-25.8332
88.9152
-702.037
-240.451
215.921
-749.739
292.838
-1530.35
-18.3432
-700.376
21.9993
-658.463
-0.250487
-792.471
-117.914
-513.312
-861.75
-296.716
300.722
-1091.08
-489.961
127.41
-913.875
-162.441
171.091
-1610.41
-228.351
49.2116
-1287.17
54.8157
-1805.58
7.15599
-73.8791
-1980.08
-1.74593
-85.1617
-484.874
79.1648
69.8512
-1131.78
46.6255
-95.8882
-605.641
-67.4294
-441.455
-276.185
-48.9393
-618.82
-276.822
-13.3523
-1082.15
-193.612
177.313
-1123.82
-260.623
-30.0242
-1022.71
-80.3289
-1940.14
-72.8081
66.5315
-947.89
27.2863
9.3777
-1540.14
-21.4361
48.6038
-524.605
4.10601
-62.242
-743.063
-441.724
-1164.85
-15.9201
-433.827
-137.483
-527.522
-391.989
-489.361
-544.76
-422.783
-1848.23
1.47006
-0.22842
-1268.36
103.027
38.4361
-1294.29
-22.9691
-225.522
-1305.34
92.6687
25.4035
-1437.31
129.201
-1676.9
112.186
64.0161
-2606.97
29.5362
-82.4612
-281.327
29.9707
114.531
-1472.27
6.95123
15.9905
-573.209
-133.336
-171.968
-1.79194
17.0487
-599.319
37.2235
-107.81
-1095.82
-47.4129
57.4187
-982.067
-189.868
40.7414
-905.007
-95.001
-2168.34
-49.5833
-1.45719
-962.885
109.656
153.604
-1960.79
-12.004
-21.0978
-324.428
-89.6295
57.902
-682.599
365.455
-1714.94
25.7595
-349.132
-18.0162
-330.143
68.814
-597.289
71.1794
-367.246
-1411.6
757.373
-160.059
-2351.7
756.937
18.9132
-1421.79
-135.845
-20.6605
-153.801
123.67
152.918
-1837.2
-90.941
-1465.64
-221.164
611.028
-3852.47
6.53805
8.35676
-498.473
-36.802
113.897
-1563.48
-74.2661
-6.24752
-376.579
26.7811
-363.956
267.643
224.809
-520.804
217.043
160.686
-1197.54
-118.797
-33.7775
-498.553
-167
-84.1904
-778.86
-433.974
-1874.59
137.841
-146.04
-566.874
-32.707
49.7883
-1679.35
-65.8104
59.2524
-384.355
-214.938
-14.8407
-602.821
-139.366
-2224.48
65.0521
-538.171
-53.1512
-162.151
-103.868
-487.32
0.281152
-486.236
-1550.68
-122.087
704.409
-1512.61
-12.8549
-70.236
-1128.55
6.79185
-46.7301
-8.1302
415.294
36.1538
-2305.73
-318.825
-689.414
-38.8038
-239.639
-2642.2
66.7828
-110.615
-563.681
-32.6838
-133.043
-1377.7
-74.5027
-86.1064
-212.5
-108.467
-648.817
-98.7232
-3.31199
-388.312
-57.0296
28.3232
-1378.18
-13.0824
-10.4662
-665.078
198.386
-59.7904
-1016.64
-239.934
-1544.73
-25.9364
-55.6797
-313.085
-140.39
-88.6653
-1447.9
-2.67543
19.2443
-551.78
200.81
-53.492
-812.604
-799.019
-1464.59
37.5055
-847.414
17.8893
-231.201
-110.979
-339.208
-192.223
-458.484
-2541.93
-198.889
-584.433
-141.125
-136.677
3.92102
-1090.94
168.618
-6.16437
-302.358
101.72
-46.365
-2096.72
-29.2568
-186.917
66.8465
-642.907
-2418.69
-71.7008
-147.515
-273.698
-168.258
-520.508
-766.804
60.9101
-125.603
-362.43
-171.018
-446.146
367.027
27.6745
-1785.45
178.041
-238.111
-1098.59
-13.1536
-469.592
-524.798
375.387
-77.1456
-1453.64
-340.393
-999.97
309.437
-43.7308
-615.177
13.8823
-178.698
-1211.76
149.925
-48.9162
-1108.5
176.379
40.4481
-956.652
-326.841
-1301.76
117.912
-1869.8
3.41478
-295.401
59.154
-443.863
-107.701
-251.182
-2976.47
60.3087
95.2472
-741.305
114.772
-54.6646
-1127.96
121.127
-13.5806
-371.849
-463.099
143.016
-891.285
131.464
-546.306
-205.393
-1055.34
-1074
27.5043
167.03
-728.289
-10.7276
9.81056
-751.964
93.2873
2.12051
-325.549
85.491
-306.886
701.265
-395.501
-3190.9
147.914
60.8237
-439.036
-0.196672
-121.986
-244.892
163.917
-120.519
-1495.12
-320.379
-430.183
108.042
-428.589
-686.673
-19.1514
-17.5259
-1006.22
-95.8635
12.339
-1166.11
395.291
67.2112
-1635.54
-763.921
-462.933
45.8014
-3200.46
163.334
-430.458
-25.3501
-242.841
37.6847
-247.005
-3702.7
-232.988
145.155
-675.205
-117.163
-21.2482
-904.577
5.87163
6.34986
-483.286
-168.941
-8.00526
-19.7313
-62.473
-587.178
-265.046
-95.8095
-379.217
-28.3683
81.7247
-1067.94
0.939433
45.899
-820.821
0.585972
155.245
-488.446
2.1525
-370.926
87.1334
18.906
-3654.6
-11.7731
51.13
-309.535
114.526
220.452
-545.744
17.1722
149.163
-1391.68
8.47995
-419.338
248.521
-394.722
-494.386
394.466
-9.97122
-1091.06
212.517
17.7752
-781.488
520.393
51.7925
-1846.04
97.4822
-31.5431
268.983
-4083.39
86.3695
-257.816
0.210338
-138.907
1028.76
-1223.76
-2576.46
3.00457
-3.10893
-769.926
-47.3037
27.7546
-829.641
3.35744
-44.3441
-774.021
-20.7291
-65.1873
-14.9384
14.4251
-687.223
170.237
833.749
-1802.92
12.8641
134.513
-1017.33
-214.582
48.8656
-686.585
-404.59
103.104
-466.73
116.118
-877.21
-136.462
1060.1
-4241.8
-139.683
57.3396
-229.14
-133.687
194.496
-697.37
-302.672
154.038
-1273.63
-8.59175
-597.3
155.802
1164.43
-523.992
-41.1646
4.09804
-840.855
-134.714
19.3132
-512.757
-140.271
103.652
-1790.1
27.3944
-207.8
204.071
-2832.87
-11.112
-38.5347
11.2083
-141.914
71.7415
-1180.64
-2477.33
403.231
1961.49
-3642.51
174.662
35.7545
-904.662
-56.3959
-68.3776
-521.661
300.479
4.78478
-467.029
-80.8307
-1008.15
95.0808
2310.13
-2196.45
-116.967
26.702
-796.226
11.1027
-88.4443
-794.587
40.6857
-97.4578
-394.071
-225.71
-691.645
32.8895
-109.437
-1555.13
-2.65898
-74.6129
-92.277
187.599
56.7759
-1032.85
-24.1651
-118.246
-1041.08
-30.6093
-816.566
-4.22028
602.931
-1170.17
13.032
-37.3222
-895.398
-229.084
10.1394