/*--------------------------------*- C++ -*----------------------------------*\
| =========                 |                                                 |
| \\      /  F ield         | OpenFOAM: The Open Source CFD Toolbox           |
|  \\    /   O peration     | Version:  5.x                                   |
|   \\  /    A nd           | Web:      www.OpenFOAM.org                      |
|    \\/     M anipulation  |                                                 |
\*---------------------------------------------------------------------------*/
FoamFile
{
    version     2.0;
    format      ascii;
    class       volScalarField;
    location    "50000";
    object      p;
}
// * * * * * * * * * * * * * * * * * * * * * * * * * * * * * * * * * * * * * //

dimensions      [0 2 -2 0 0 0 0];

internalField   nonuniform List<scalar> 
2250
(
-2.03907e-10
-2.41221e-10
-2.68007e-10
-2.72208e-10
-2.06558e-10
-2.10779e-10
-2.35054e-10
-2.3973e-10
-2.33085e-10
-1.87895e-10
-2.22469e-10
-2.29725e-10
-2.01912e-10
-1.54914e-10
-9.48702e-11
-2.22488e-10
-2.16939e-10
-1.6474e-10
-8.65444e-11
-9.72506e-12
-2.17927e-10
-2.02812e-10
-1.37314e-10
-4.48297e-11
4.1155e-11
-6.1947e-10
-7.03177e-10
-7.51309e-10
-7.47315e-10
-5.74215e-10
-6.01354e-10
-6.44389e-10
-6.29353e-10
-5.80446e-10
-4.37684e-10
-6.16457e-10
-6.18937e-10
-5.27952e-10
-3.9305e-10
-2.28013e-10
-6.05613e-10
-5.72783e-10
-4.20724e-10
-2.17948e-10
-3.02458e-11
-5.79828e-10
-5.16956e-10
-3.35216e-10
-1.07507e-10
8.67931e-11
-9.38855e-10
-1.00892e-09
-1.05346e-09
-1.09294e-09
-1.01692e-09
-8.9212e-10
-9.11717e-10
-8.51099e-10
-7.58766e-10
-6.14912e-10
-8.96463e-10
-8.66317e-10
-7.09764e-10
-5.07725e-10
-3.09839e-10
-8.60811e-10
-7.79794e-10
-5.49504e-10
-2.7916e-10
-6.1072e-11
-7.98117e-10
-6.75434e-10
-4.21126e-10
-1.41152e-10
6.66927e-11
-1.03541e-09
-1.06335e-09
-1.08747e-09
-1.17017e-09
-1.32672e-09
-1.01822e-09
-1.00774e-09
-9.10184e-10
-7.88231e-10
-7.68064e-10
-1.00702e-09
-9.42342e-10
-7.53822e-10
-5.35657e-10
-4.07658e-10
-9.36228e-10
-8.17375e-10
-5.74657e-10
-3.23853e-10
-1.68328e-10
-8.38761e-10
-6.89899e-10
-4.48627e-10
-2.16164e-10
-7.80583e-11
-9.56187e-10
-9.70839e-10
-9.60585e-10
-9.9044e-10
-1.22104e-09
-9.82827e-10
-9.60919e-10
-8.51488e-10
-7.16876e-10
-7.86853e-10
-9.41259e-10
-8.67184e-10
-7.0328e-10
-5.34044e-10
-5.14811e-10
-8.38293e-10
-7.29486e-10
-5.55873e-10
-4.04834e-10
-3.6789e-10
-7.33575e-10
-6.2528e-10
-4.78917e-10
-3.63396e-10
-3.38639e-10
-7.60193e-10
-7.76351e-10
-7.17891e-10
-6.31615e-10
-7.53921e-10
-7.67912e-10
-7.46042e-10
-6.52809e-10
-5.42584e-10
-6.09255e-10
-6.97222e-10
-6.51771e-10
-5.69815e-10
-5.06565e-10
-5.67843e-10
-6.03067e-10
-5.61873e-10
-5.14327e-10
-5.0232e-10
-5.74626e-10
-5.36872e-10
-5.19603e-10
-5.03406e-10
-5.20117e-10
-5.93325e-10
-2.80233e-10
-2.76992e-10
-2.16315e-10
-1.58714e-10
-2.26261e-10
-2.63782e-10
-2.52356e-10
-2.19899e-10
-2.072e-10
-2.90301e-10
-2.36726e-10
-2.52518e-10
-2.87636e-10
-3.62195e-10
-4.94003e-10
-2.2889e-10
-2.80748e-10
-3.66204e-10
-4.93479e-10
-6.55043e-10
-2.36968e-10
-3.08111e-10
-4.09358e-10
-5.494e-10
-7.1307e-10
6.86519e-10
6.95865e-10
6.60424e-10
5.14235e-10
2.3236e-10
5.98816e-10
5.72775e-10
4.92422e-10
3.42286e-10
9.05292e-11
4.68541e-10
3.84078e-10
2.24646e-10
-4.59209e-13
-2.70173e-10
3.29305e-10
2.0646e-10
6.8219e-12
-2.59846e-10
-5.52981e-10
2.42598e-10
1.19455e-10
-8.42724e-11
-3.5981e-10
-6.6869e-10
2.0236e-09
1.97998e-09
1.78648e-09
1.4154e-09
8.10121e-10
1.71137e-09
1.62135e-09
1.39426e-09
1.05572e-09
5.37817e-10
1.37268e-09
1.23314e-09
9.48608e-10
5.61585e-10
8.44255e-11
1.08404e-09
9.19996e-10
6.09252e-10
1.90448e-10
-2.8727e-10
9.29474e-10
7.69146e-10
4.54819e-10
2.67871e-11
-4.63214e-10
3.38446e-09
3.25022e-09
2.89367e-09
2.36141e-09
1.56499e-09
2.85505e-09
2.68748e-09
2.29373e-09
1.75663e-09
1.02503e-09
2.34079e-09
2.14476e-09
1.72189e-09
1.16402e-09
4.93853e-10
1.93159e-09
1.71859e-09
1.28562e-09
7.17512e-10
6.77415e-11
1.7095e-09
1.49064e-09
1.06176e-09
4.97171e-10
-1.4429e-10
4.55633e-09
4.31461e-09
3.76732e-09
3.04563e-09
2.16384e-09
3.85279e-09
3.58336e-09
3.00383e-09
2.2502e-09
1.37589e-09
3.2013e-09
2.91665e-09
2.34638e-09
1.6156e-09
7.75839e-10
2.69107e-09
2.39824e-09
1.84834e-09
1.1416e-09
3.2342e-10
2.40368e-09
2.11023e-09
1.58371e-09
8.93817e-10
8.72848e-11
5.55566e-09
5.17093e-09
4.39696e-09
3.41584e-09
2.37934e-09
4.65908e-09
4.25981e-09
3.50258e-09
2.52419e-09
1.45663e-09
3.87516e-09
3.48062e-09
2.77834e-09
1.86194e-09
7.88438e-10
3.2802e-09
2.90257e-09
2.24926e-09
1.37401e-09
3.09236e-10
2.95615e-09
2.60042e-09
1.97466e-09
1.10841e-09
4.30479e-11
6.54913e-09
6.01505e-09
5.05121e-09
3.80922e-09
2.49701e-09
5.42686e-09
4.90898e-09
4.00621e-09
2.79474e-09
1.42693e-09
4.50194e-09
4.01627e-09
3.18576e-09
2.03571e-09
6.41955e-10
3.83777e-09
3.39146e-09
2.60277e-09
1.47731e-09
8.33641e-11
3.50449e-09
3.08625e-09
2.29888e-09
1.162e-09
-2.32685e-10
7.87125e-09
7.22567e-09
6.09403e-09
4.55562e-09
2.84048e-09
6.49391e-09
5.88119e-09
4.80098e-09
3.28166e-09
1.52046e-09
5.38678e-09
4.81569e-09
3.77955e-09
2.2902e-09
5.01783e-10
4.61955e-09
4.07683e-09
3.04086e-09
1.54626e-09
-2.47913e-10
4.24551e-09
3.70556e-09
2.63963e-09
1.12375e-09
-6.66276e-10
9.92558e-09
9.14243e-09
7.70986e-09
5.69858e-09
3.38817e-09
8.19363e-09
7.43957e-09
6.0247e-09
4.0107e-09
1.67156e-09
6.78437e-09
6.05186e-09
4.63436e-09
2.61805e-09
2.46364e-10
5.79395e-09
5.05215e-09
3.59729e-09
1.55915e-09
-8.21292e-10
5.2868e-09
4.52148e-09
3.03089e-09
9.75893e-10
-1.41401e-09
1.29787e-08
1.19338e-08
9.95673e-09
7.19667e-09
3.98574e-09
1.0701e-08
9.67201e-09
7.67837e-09
4.87863e-09
1.60116e-09
8.78921e-09
7.74831e-09
5.72063e-09
2.90331e-09
-4.03231e-10
7.40286e-09
6.32831e-09
4.25763e-09
1.42202e-09
-1.8884e-09
6.66829e-09
5.57178e-09
3.48171e-09
6.34496e-10
-2.71667e-09
1.72159e-08
1.57475e-08
1.29362e-08
9.04627e-09
4.46562e-09
1.41124e-08
1.26288e-08
9.77149e-09
5.80893e-09
1.13096e-09
1.1449e-08
9.93904e-09
7.04997e-09
3.08282e-09
-1.59129e-09
9.50069e-09
7.96771e-09
5.05346e-09
1.07967e-09
-3.6015e-09
8.47278e-09
6.9331e-09
4.01625e-09
2.94243e-11
-4.71403e-09
2.29097e-08
2.08013e-08
1.67967e-08
1.12763e-08
4.73521e-09
1.86099e-08
1.64768e-08
1.24334e-08
6.84764e-09
2.52686e-10
1.49332e-08
1.27947e-08
8.7414e-09
3.1749e-09
-3.39728e-09
1.22644e-08
1.01237e-08
6.06162e-09
4.92608e-10
-6.10896e-09
1.08643e-08
8.72072e-09
4.66527e-09
-9.16115e-10
-7.56497e-09
3.04996e-08
2.75064e-08
2.19054e-08
1.41748e-08
5.04774e-09
2.46081e-08
2.1627e-08
1.59964e-08
8.20031e-09
-9.72591e-10
1.96173e-08
1.66448e-08
1.10079e-08
3.23097e-09
-5.96538e-09
1.59945e-08
1.30197e-08
7.38246e-09
-3.99913e-10
-9.64921e-09
1.40804e-08
1.11019e-08
5.47725e-09
-2.30669e-09
-1.15679e-08
4.08441e-08
3.67451e-08
2.89984e-08
1.82684e-08
5.73052e-09
3.28572e-08
2.87595e-08
2.09597e-08
1.01586e-08
-2.49598e-09
2.60672e-08
2.19525e-08
1.41474e-08
3.35317e-09
-9.39802e-09
2.11059e-08
1.69832e-08
9.1905e-09
-1.607e-09
-1.44225e-08
1.84758e-08
1.4362e-08
6.58193e-09
-4.20839e-09
-1.70076e-08
5.527e-08
4.96657e-08
3.88857e-08
2.40384e-08
6.83537e-09
4.43187e-08
3.86673e-08
2.78855e-08
1.30231e-08
-4.32396e-09
3.49813e-08
2.93075e-08
1.85553e-08
3.6984e-09
-1.37835e-08
2.81651e-08
2.24959e-08
1.1766e-08
-3.08867e-09
-2.06305e-08
2.45738e-08
1.89261e-08
8.19461e-09
-6.65585e-09
-2.41512e-08
7.51226e-08
6.73378e-08
5.24406e-08
3.20777e-08
8.44409e-09
6.00347e-08
5.22571e-08
3.7457e-08
1.71027e-08
-6.64951e-09
4.72274e-08
3.94611e-08
2.47041e-08
4.34258e-09
-1.95571e-08
3.79206e-08
3.01626e-08
1.5413e-08
-4.94138e-09
-2.88582e-08
3.30383e-08
2.52926e-08
1.0526e-08
-9.81822e-09
-3.36577e-08
1.01947e-07
9.12763e-08
7.10054e-08
4.31884e-08
1.06593e-08
8.14003e-08
7.07878e-08
5.05502e-08
2.26742e-08
-9.95809e-09
6.39602e-08
5.33499e-08
3.31078e-08
5.20752e-09
-2.75545e-08
5.12931e-08
4.06709e-08
2.04165e-08
-7.45997e-09
-4.01514e-08
4.46429e-08
3.40214e-08
1.37618e-08
-1.40865e-08
-4.6717e-08
1.38316e-07
1.23856e-07
9.6267e-08
5.81995e-08
1.35156e-08
1.10441e-07
9.59475e-08
6.82601e-08
3.01082e-08
-1.46953e-08
8.66981e-08
7.21742e-08
4.44513e-08
6.27722e-09
-3.85706e-08
6.94491e-08
5.49141e-08
2.71827e-08
-1.09653e-08
-5.57271e-08
6.03855e-08
4.58614e-08
1.81433e-08
-1.99948e-08
-6.48002e-08
1.87822e-07
1.68065e-07
1.30356e-07
7.83683e-08
1.72722e-08
1.49855e-07
1.30018e-07
9.22049e-08
4.01262e-08
-2.11194e-08
1.17513e-07
9.76623e-08
5.98136e-08
7.70567e-09
-5.35162e-08
9.40312e-08
7.41962e-08
3.6337e-08
-1.58e-08
-7.70889e-08
8.16863e-08
6.18634e-08
2.39982e-08
-2.81774e-08
-8.959e-08
2.55103e-07
2.28093e-07
1.76672e-07
1.05721e-07
2.21879e-08
2.03416e-07
1.76349e-07
1.24797e-07
5.3726e-08
-2.98861e-08
1.59381e-07
1.32309e-07
8.07015e-08
9.59486e-09
-7.40441e-08
1.27381e-07
1.00336e-07
4.86983e-08
-2.24786e-08
-1.06283e-07
1.10526e-07
8.34641e-08
3.17998e-08
-3.9404e-08
-1.23242e-07
3.46841e-07
3.10058e-07
2.39912e-07
1.42903e-07
2.87281e-08
2.76497e-07
2.3959e-07
1.69243e-07
7.21565e-08
-4.2145e-08
2.16443e-07
1.79521e-07
1.09119e-07
1.20214e-08
-1.02391e-07
1.72725e-07
1.35835e-07
6.5416e-08
-3.16811e-08
-1.46125e-07
1.49641e-07
1.12727e-07
4.23057e-08
-5.4746e-08
-1.69116e-07
4.72205e-07
4.21942e-07
3.26037e-07
1.93497e-07
3.75753e-08
3.76348e-07
3.25948e-07
2.2988e-07
9.72348e-08
-5.91423e-08
2.94335e-07
2.43981e-07
1.47905e-07
1.53035e-08
-1.41188e-07
2.34513e-07
1.84233e-07
8.8191e-08
-4.42593e-08
-2.00654e-07
2.02857e-07
1.52598e-07
5.65878e-08
-7.57503e-08
-2.3209e-07
6.43373e-07
5.7455e-07
4.43532e-07
2.62461e-07
4.90782e-08
5.12822e-07
4.43994e-07
3.12831e-07
1.3158e-07
-8.24226e-08
4.0078e-07
3.32151e-07
2.01016e-07
2.00335e-08
-1.94102e-07
3.18807e-07
2.50389e-07
1.19338e-07
-6.11968e-08
-2.75314e-07
2.75335e-07
2.07054e-07
7.60498e-08
-1.04197e-07
-3.18391e-07
8.77372e-07
7.83107e-07
6.04579e-07
3.56752e-07
6.45488e-08
6.9957e-07
6.05542e-07
4.26619e-07
1.79006e-07
-1.14306e-07
5.46249e-07
4.52771e-07
2.7377e-07
2.72622e-08
-2.66637e-07
4.33652e-07
3.40863e-07
1.61845e-07
-8.31588e-08
-3.7764e-07
3.73833e-07
2.81587e-07
1.02425e-07
-1.41514e-07
-4.36615e-07
1.19845e-06
1.06864e-06
8.26577e-07
4.8636e-07
8.56514e-08
9.55556e-07
8.2673e-07
5.83162e-07
2.45342e-07
-1.59097e-07
7.44933e-07
6.17823e-07
3.73215e-07
3.97138e-08
-3.67983e-07
5.89666e-07
4.65017e-07
2.18983e-07
-1.08663e-07
-5.20468e-07
5.0717e-07
3.84566e-07
1.36565e-07
-1.86677e-07
-6.01769e-07
1.6437e-06
1.46114e-06
1.1378e-06
6.66568e-07
1.13377e-07
1.30737e-06
1.12946e-06
7.99225e-07
3.41102e-07
-2.27023e-07
1.01621e-06
8.44108e-07
5.07506e-07
6.62204e-08
-5.17542e-07
8.00616e-07
6.37896e-07
2.90658e-07
-1.27247e-07
-7.30601e-07
6.86207e-07
5.31567e-07
1.72318e-07
-2.28058e-07
-8.45741e-07
2.27639e-06
2.00715e-06
1.59272e-06
9.25774e-07
1.50769e-07
1.79154e-06
1.5408e-06
1.0956e-06
4.87727e-07
-3.43563e-07
1.38602e-06
1.15547e-06
6.81596e-07
1.28788e-07
-7.55831e-07
1.08247e-06
8.86841e-07
3.64288e-07
-1.10553e-07
-1.05922e-06
9.21555e-07
7.53065e-07
1.87363e-07
-2.34638e-07
-1.22709e-06
3.1936e-06
2.77939e-06
2.28285e-06
1.31853e-06
2.01722e-07
2.45159e-06
2.08852e-06
1.48888e-06
7.14478e-07
-5.4687e-07
1.88748e-06
1.5857e-06
8.95857e-07
2.50624e-07
-1.13648e-06
1.45105e-06
1.24841e-06
4.23722e-07
-2.05488e-08
-1.57048e-06
1.22241e-06
1.08854e-06
1.58155e-07
-1.66058e-07
-1.81897e-06
4.50536e-06
3.85843e-06
3.32674e-06
1.89841e-06
2.69678e-07
3.34386e-06
2.80092e-06
2.00988e-06
1.04979e-06
-8.8204e-07
2.56435e-06
2.17027e-06
1.1802e-06
4.27655e-07
-1.71875e-06
1.92647e-06
1.75599e-06
4.69777e-07
1.95163e-07
-2.33419e-06
1.60131e-06
1.58786e-06
7.15018e-08
2.76096e-08
-2.70781e-06
6.40168e-06
5.36539e-06
5.02544e-06
2.7108e-06
3.91716e-07
4.63352e-06
3.76221e-06
2.82095e-06
1.63395e-06
-1.39383e-06
3.5386e-06
2.99112e-06
1.69203e-06
6.90407e-07
-2.5776e-06
2.57042e-06
2.48343e-06
5.47851e-07
6.85831e-07
-3.43663e-06
2.08157e-06
2.36031e-06
-5.96931e-08
4.99591e-07
-4.0164e-06
1.16428e-05
9.12655e-06
9.08901e-06
5.62042e-06
1.00179e-06
9.3376e-06
6.99231e-06
5.44096e-06
4.40523e-06
-1.97566e-06
6.49782e-06
5.1824e-06
3.46541e-06
2.52099e-06
-3.75353e-06
3.85687e-06
4.18034e-06
1.19119e-06
2.61734e-06
-4.81912e-06
2.69647e-06
3.90008e-06
-1.34025e-09
3.27408e-06
-5.59111e-06
3.13783e-06
6.41503e-07
2.85098e-06
-4.60777e-06
-4.43759e-06
5.9021e-07
-2.33656e-06
-1.94225e-06
-5.2553e-06
-6.43901e-06
-3.96566e-07
-1.28343e-06
-2.22598e-06
-7.03991e-06
-8.19303e-06
-7.5576e-07
-1.61835e-06
-3.87458e-06
-5.21363e-06
-8.98465e-06
-1.59075e-07
-7.93099e-07
-3.12209e-06
-5.36293e-06
-8.00011e-06
3.68731e-05
2.57966e-05
3.68008e-05
2.41605e-05
7.30807e-06
3.71511e-05
2.11586e-05
2.46923e-05
2.26949e-05
-4.58046e-06
2.08984e-05
1.49142e-05
1.51566e-05
1.10443e-05
-6.45639e-06
1.19538e-05
1.51849e-05
6.57622e-06
1.74925e-05
-8.73879e-06
8.43111e-06
1.68087e-05
1.73179e-06
2.70816e-05
-1.56453e-05
-8.4979e-06
-9.64965e-06
-1.24229e-05
-2.38585e-05
-1.41496e-05
-1.48646e-05
-1.49701e-05
-1.77061e-05
-2.4194e-05
-9.32451e-06
-7.26469e-06
-7.93181e-06
-1.04007e-05
-2.31237e-05
-1.38228e-05
-5.85943e-06
-1.11774e-05
-1.36116e-05
-1.53758e-05
-1.70116e-05
-3.17378e-06
-8.7203e-06
-4.67561e-06
-2.2478e-05
7.55589e-06
7.4499e-05
1.27823e-05
0.000132318
6.51199e-05
-1.10445e-05
0.000150352
1.35679e-06
8.88775e-05
5.12214e-05
-5.82305e-05
4.26187e-05
4.62516e-06
2.84405e-05
-1.15625e-05
-5.9608e-05
2.91638e-05
1.78739e-05
6.86475e-07
8.91731e-06
-4.08623e-05
3.22144e-05
2.1641e-05
-2.74806e-05
0.000140881
-6.72498e-05
0.00132725
0.000707664
0.000541565
0.000663384
0.00105222
0.00108439
0.00108422
0.000612405
0.00077638
0.000494851
0.00113111
0.000824771
0.000695506
0.000807443
0.000685699
0.000821023
0.00115892
0.00102068
0.001024
0.000884801
0.00140449
0.000648818
0.000867584
0.000979324
0.000762012
0.00207204
0.0018263
0.00141053
0.00121488
0.00142887
0.00172337
0.00158356
0.00129929
0.00165962
0.00165065
0.00228061
0.00172971
0.00141998
0.0013906
0.00191655
0.00171519
0.00190469
0.00173875
0.00187568
0.00180359
0.0015749
0.0015138
0.00155983
0.00134714
0.00203115
0.00251422
0.00280194
0.0028194
0.002649
0.00297184
0.00247439
0.00222622
0.0023222
0.00235103
0.00220421
0.00250549
0.00253737
0.00217533
0.00259346
0.00228893
0.00249258
0.00225133
0.00223142
0.00218055
0.00216489
0.00201103
0.00254565
0.00243972
0.00232401
0.00223825
0.00292337
0.00314124
0.00274664
0.00329144
0.00331937
0.00310067
0.00305668
0.00323038
0.00283069
0.00311079
0.00300815
0.00349345
0.00288863
0.00304683
0.00288745
0.00343057
0.00305947
0.00336431
0.0025569
0.00299375
0.00335222
0.00326139
0.0039973
0.00254485
0.00262227
0.00368047
0.00418825
0.00346514
0.00397971
0.00323912
0.00368584
0.00364597
0.0039327
0.00376476
0.0038529
0.00386611
0.00398628
0.00385343
0.0036835
0.00356671
0.00396152
0.00399649
0.00398954
0.00389827
0.00390667
0.00382465
0.00379601
0.00404738
0.00383965
0.00335006
0.00451817
0.00432414
0.00436452
0.00434387
0.00459953
0.00369969
0.00440696
0.00435894
0.00446208
0.00410368
0.00425365
0.00474254
0.00472789
0.00454618
0.00401647
0.00430585
0.00433159
0.00453241
0.00440305
0.00454821
0.00459687
0.00446426
0.00464563
0.00453135
0.00401948
0.00556531
0.00450919
0.00474174
0.00520793
0.0051385
0.00545064
0.00489865
0.00477559
0.00493797
0.00493845
0.00539179
0.00491573
0.00517247
0.00503277
0.00487742
0.00456378
0.00478722
0.0049856
0.00462171
0.00534344
0.00552682
0.00485357
0.00511524
0.00486218
0.00543384
0.00591059
0.0060247
0.0056686
0.00605091
0.00526657
0.00603992
0.00599807
0.00537476
0.00555327
0.00546942
0.00588827
0.00503945
0.00552698
0.00536215
0.00557002
0.00657567
0.00590711
0.00538105
0.00548816
0.00566777
0.00614889
0.0060298
0.00524054
0.00535488
0.0056709
0.00608534
0.00639364
0.00615782
0.00584055
0.00609754
0.00611826
0.0063758
0.00615436
0.00630935
0.00588466
0.00622202
0.00653989
0.00633652
0.00642825
0.00639251
0.0062905
0.00632324
0.00625066
0.0061759
0.0059
0.00644156
0.00643825
0.006675
0.00677477
0.006082
0.00639031
0.00668728
0.0064977
0.00674352
0.00683561
0.00664223
0.00665589
0.00660921
0.00675016
0.00662441
0.00672475
0.00670039
0.00667751
0.00673181
0.00678663
0.00647976
0.00661561
0.00682315
0.00676338
0.00668787
0.00671686
0.00681856
0.00693126
0.00684959
0.00684887
0.00683048
0.00683727
0.00683858
0.00688604
0.00684995
0.00683027
0.00686065
0.00685064
0.00680714
0.00685208
0.00684656
0.00683302
0.00681699
0.0068451
0.00682408
0.00684577
0.00686259
0.00685302
0.00685857
0.00688141
0.00680095
0.00685424
0.00683091
0.0068698
0.00686449
0.00680748
0.00679398
0.00681358
0.00676978
0.00680639
0.00682214
0.0068163
0.00680837
0.00680854
0.0068061
0.00680242
0.00681889
0.00681831
0.00680907
0.00679804
0.00681128
0.00682005
0.00682481
0.0068224
0.0068138
0.00682545
0.0068272
0.00683229
0.00683495
0.00682197
0.00680411
0.00679981
0.00680579
0.00680321
0.00680271
0.00681265
0.00681087
0.00681122
0.00679887
0.00680544
0.00680892
0.00680613
0.00680405
0.00680156
0.00680058
0.00681635
0.00681653
0.00681509
0.00681381
0.00681004
0.00680896
0.00681604
0.00681125
0.00681541
0.00681171
0.00680451
0.00680082
0.00680427
0.00679688
0.00680116
0.00680912
0.00680723
0.00680781
0.00680197
0.00680334
0.0068064
0.00680666
0.00680655
0.00680425
0.00680343
0.00681056
0.00681094
0.00680994
0.00680833
0.00680581
0.00680963
0.00681119
0.00680915
0.00681017
0.00680658
0.00680254
0.00680078
0.00680232
0.00679814
0.0067998
0.00680605
0.00680468
0.00680484
0.00680107
0.00680148
0.00680455
0.00680428
0.00680402
0.00680235
0.00680174
0.0068073
0.00680704
0.00680625
0.00680491
0.00680324
0.00680666
0.00680716
0.00680577
0.00680583
0.00680357
0.00680148
0.00680043
0.00680103
0.00679847
0.00679899
0.00680374
0.0068028
0.00680276
0.00680036
0.00680017
0.00680298
0.00680269
0.00680235
0.00680124
0.00680052
0.0068047
0.00680436
0.00680377
0.00680269
0.00680148
0.0068044
0.00680445
0.00680356
0.0068032
0.00680169
0.00680055
0.00679993
0.00680007
0.00679854
0.00679843
0.00680199
0.00680139
0.00680117
0.0067997
0.00679923
0.00680171
0.00680146
0.00680113
0.00680034
0.00679965
0.00680273
0.00680244
0.00680197
0.00680116
0.00680025
0.00680262
0.00680254
0.00680192
0.00680147
0.00680044
0.00679982
0.00679946
0.00679936
0.00679846
0.00679806
0.00680068
0.00680032
0.00680003
0.00679915
0.00679862
0.0068007
0.0068005
0.0068002
0.00679962
0.00679902
0.00680127
0.00680106
0.00680068
0.00680009
0.00679941
0.00680128
0.00680115
0.00680074
0.00680029
0.00679958
0.00679925
0.00679904
0.00679884
0.00679829
0.00679783
0.00679975
0.00679953
0.00679925
0.00679871
0.00679823
0.0067999
0.00679975
0.00679948
0.00679905
0.00679856
0.00680021
0.00680005
0.00679976
0.00679933
0.00679883
0.00680028
0.00680015
0.00679986
0.00679947
0.00679896
0.0067988
0.00679867
0.00679845
0.00679809
0.00679769
0.00679909
0.00679895
0.00679872
0.00679837
0.00679798
0.00679927
0.00679915
0.00679893
0.00679861
0.00679823
0.00679945
0.00679933
0.00679911
0.00679879
0.00679842
0.00679952
0.00679941
0.00679919
0.00679889
0.00679852
0.00679844
0.00679834
0.00679816
0.0067979
0.0067976
0.00679863
0.00679853
0.00679835
0.0067981
0.00679781
0.00679878
0.00679869
0.00679851
0.00679827
0.00679799
0.0067989
0.00679881
0.00679864
0.0067984
0.00679812
0.00679896
0.00679887
0.0067987
0.00679847
0.00679819
0.00679816
0.00679809
0.00679795
0.00679776
0.00679753
0.00679829
0.00679822
0.00679809
0.0067979
0.00679768
0.0067984
0.00679834
0.00679821
0.00679803
0.00679781
0.00679849
0.00679842
0.0067983
0.00679812
0.00679791
0.00679853
0.00679847
0.00679834
0.00679817
0.00679796
0.00679795
0.00679789
0.00679779
0.00679765
0.00679748
0.00679804
0.00679799
0.00679789
0.00679776
0.00679759
0.00679813
0.00679808
0.00679798
0.00679785
0.00679769
0.00679819
0.00679814
0.00679804
0.00679791
0.00679776
0.00679822
0.00679817
0.00679808
0.00679795
0.00679779
0.00679779
0.00679775
0.00679767
0.00679757
0.00679745
0.00679786
0.00679782
0.00679775
0.00679765
0.00679753
0.00679792
0.00679788
0.00679781
0.00679771
0.0067976
0.00679797
0.00679793
0.00679786
0.00679776
0.00679765
0.00679799
0.00679795
0.00679788
0.00679779
0.00679767
0.00679767
0.00679764
0.00679759
0.00679751
0.00679742
0.00679772
0.00679769
0.00679764
0.00679757
0.00679748
0.00679777
0.00679774
0.00679769
0.00679761
0.00679753
0.0067978
0.00679777
0.00679772
0.00679765
0.00679756
0.00679782
0.00679779
0.00679774
0.00679767
0.00679758
0.00679758
0.00679756
0.00679752
0.00679747
0.0067974
0.00679762
0.0067976
0.00679756
0.00679751
0.00679744
0.00679766
0.00679764
0.0067976
0.00679754
0.00679748
0.00679768
0.00679766
0.00679762
0.00679757
0.00679751
0.00679769
0.00679767
0.00679764
0.00679758
0.00679752
0.00679752
0.0067975
0.00679747
0.00679743
0.00679738
0.00679755
0.00679753
0.0067975
0.00679746
0.00679742
0.00679757
0.00679756
0.00679753
0.00679749
0.00679744
0.00679759
0.00679758
0.00679755
0.00679751
0.00679746
0.0067976
0.00679759
0.00679756
0.00679752
0.00679747
0.00679747
0.00679746
0.00679744
0.00679741
0.00679737
0.00679749
0.00679748
0.00679746
0.00679743
0.0067974
0.00679751
0.0067975
0.00679748
0.00679745
0.00679742
0.00679753
0.00679752
0.00679749
0.00679747
0.00679743
0.00679753
0.00679752
0.0067975
0.00679747
0.00679744
0.00679744
0.00679743
0.00679741
0.00679739
0.00679737
0.00679745
0.00679745
0.00679743
0.00679741
0.00679738
0.00679747
0.00679746
0.00679744
0.00679742
0.0067974
0.00679748
0.00679747
0.00679746
0.00679743
0.00679741
0.00679748
0.00679748
0.00679746
0.00679744
0.00679741
0.00679741
0.00679741
0.0067974
0.00679738
0.00679736
0.00679743
0.00679742
0.00679741
0.00679739
0.00679737
0.00679744
0.00679743
0.00679742
0.0067974
0.00679738
0.00679744
0.00679744
0.00679743
0.00679741
0.00679739
0.00679745
0.00679744
0.00679743
0.00679741
0.0067974
0.0067974
0.00679739
0.00679738
0.00679737
0.00679736
0.0067974
0.0067974
0.00679739
0.00679738
0.00679737
0.00679741
0.00679741
0.0067974
0.00679739
0.00679737
0.00679742
0.00679741
0.0067974
0.00679739
0.00679738
0.00679742
0.00679742
0.00679741
0.0067974
0.00679738
0.00679738
0.00679738
0.00679737
0.00679736
0.00679735
0.00679739
0.00679739
0.00679738
0.00679737
0.00679736
0.00679739
0.00679739
0.00679739
0.00679738
0.00679737
0.0067974
0.0067974
0.00679739
0.00679738
0.00679737
0.0067974
0.0067974
0.00679739
0.00679738
0.00679737
0.00679737
0.00679737
0.00679737
0.00679736
0.00679735
0.00679738
0.00679738
0.00679737
0.00679736
0.00679736
0.00679738
0.00679738
0.00679737
0.00679737
0.00679736
0.00679738
0.00679738
0.00679738
0.00679737
0.00679736
0.00679739
0.00679738
0.00679738
0.00679737
0.00679737
0.00679737
0.00679736
0.00679736
0.00679736
0.00679735
0.00679737
0.00679737
0.00679736
0.00679736
0.00679735
0.00679737
0.00679737
0.00679737
0.00679736
0.00679736
0.00679737
0.00679737
0.00679737
0.00679736
0.00679736
0.00679738
0.00679737
0.00679737
0.00679737
0.00679736
0.00679736
0.00679736
0.00679736
0.00679735
0.00679735
0.00679736
0.00679736
0.00679736
0.00679736
0.00679735
0.00679737
0.00679736
0.00679736
0.00679736
0.00679735
0.00679737
0.00679737
0.00679736
0.00679736
0.00679736
0.00679737
0.00679737
0.00679736
0.00679736
0.00679736
0.00679736
0.00679736
0.00679735
0.00679735
0.00679735
0.00679736
0.00679736
0.00679736
0.00679735
0.00679735
0.00679736
0.00679736
0.00679736
0.00679735
0.00679735
0.00679736
0.00679736
0.00679736
0.00679736
0.00679735
0.00679736
0.00679736
0.00679736
0.00679736
0.00679735
0.00679735
0.00679735
0.00679735
0.00679735
0.00679735
0.00679736
0.00679735
0.00679735
0.00679735
0.00679735
0.00679736
0.00679736
0.00679735
0.00679735
0.00679735
0.00679736
0.00679736
0.00679735
0.00679735
0.00679735
0.00679736
0.00679736
0.00679735
0.00679735
0.00679735
0.00679735
0.00679735
0.00679735
0.00679735
0.00679735
0.00679735
0.00679735
0.00679735
0.00679735
0.00679735
0.00679735
0.00679735
0.00679735
0.00679735
0.00679735
0.00679735
0.00679735
0.00679735
0.00679735
0.00679735
0.00679735
0.00679735
0.00679735
0.00679735
0.00679735
0.00679735
0.00679735
0.00679735
0.00679735
0.00679735
0.00679735
0.00679735
0.00679735
0.00679735
0.00679735
0.00679735
0.00679735
0.00679735
0.00679735
0.00679735
0.00679735
0.00679735
0.00679735
0.00679735
0.00679735
0.00679735
0.00679735
0.00679735
0.00679735
0.00679735
0.00679735
0.00679735
0.00679735
0.00679735
0.00679735
0.00679735
0.00679735
0.00679735
0.00679735
0.00679735
0.00679735
0.00679735
0.00679735
0.00679735
0.00679735
0.00679735
0.00679735
0.00679735
0.00679735
0.00679735
0.00679735
0.00679735
0.00679735
0.00679735
0.00679735
0.00679735
0.00679735
0.00679735
0.00679734
0.00679734
0.00679735
0.00679735
0.00679735
0.00679735
0.00679734
0.00679735
0.00679735
0.00679735
0.00679735
0.00679735
0.00679735
0.00679735
0.00679735
0.00679735
0.00679735
0.00679735
0.00679735
0.00679735
0.00679735
0.00679735
0.00679734
0.00679734
0.00679734
0.00679734
0.00679734
0.00679734
0.00679734
0.00679734
0.00679734
0.00679734
0.00679734
0.00679734
0.00679734
0.00679734
0.00679734
0.00679735
0.00679735
0.00679735
0.00679735
0.00679734
0.00679735
0.00679735
0.00679735
0.00679735
0.00679735
0.00679734
0.00679734
0.00679734
0.00679734
0.00679734
0.00679734
0.00679734
0.00679734
0.00679734
0.00679734
0.00679734
0.00679734
0.00679734
0.00679734
0.00679734
0.00679734
0.00679734
0.00679734
0.00679734
0.00679734
0.00679734
0.00679734
0.00679734
0.00679734
0.00679734
0.00679734
0.00679734
0.00679734
0.00679734
0.00679734
0.00679734
0.00679734
0.00679734
0.00679734
0.00679734
0.00679734
0.00679734
0.00679734
0.00679734
0.00679734
0.00679734
0.00679734
0.00679734
0.00679734
0.00679734
0.00679734
0.00679734
0.00679734
0.00679734
0.00679734
0.00679734
0.00679734
0.00679734
0.00679734
0.00679734
0.00679734
0.00679734
0.00679734
0.00679734
0.00679734
0.00679734
0.00679734
0.00679734
0.00679734
0.00679734
0.00679734
0.00679734
0.00679734
0.00679734
0.00679734
0.00679734
0.00679734
0.00679734
0.00679734
0.00679734
0.00679734
0.00679734
0.00679734
0.00679734
0.00679734
0.00679734
0.00679734
0.00679734
0.00679734
0.00679734
0.00679734
0.00679734
0.00679734
0.00679734
0.00679734
0.00679734
0.00679734
0.00679734
0.00679734
0.00679734
0.00679734
0.00679734
0.00679734
0.00679734
0.00679734
0.00679734
0.00679734
0.00679734
0.00679734
0.00679734
0.00679734
0.00679734
0.00679734
0.00679734
0.00679734
0.00679734
0.00679734
0.00679734
0.00679734
0.00679734
0.00679734
0.00679734
0.00679734
0.00679734
0.00679734
0.00679734
0.00679734
0.00679734
0.00679734
0.00679734
0.00679734
0.00679734
0.00679734
0.00679734
0.00679734
0.00679734
0.00679734
0.00679734
0.00679734
0.00679734
0.00679734
0.00679734
0.00679734
0.00679734
0.00679734
0.00679734
0.00679734
0.00679734
0.00679734
0.00679734
0.00679734
0.00679734
0.00679734
0.00679734
0.00679734
0.00679734
0.00679734
0.00679734
0.00679734
0.00679734
0.00679734
0.00679734
0.00679734
0.00679734
0.00679734
0.00679734
0.00679734
0.00679734
0.00679734
0.00679734
0.00679734
0.00679734
0.00679734
0.00679734
0.00679734
0.00679734
0.00679734
0.00679734
0.00679734
0.00679734
)
;

boundaryField
{
    inlet
    {
        type            zeroGradient;
    }
    outlet
    {
        type            fixedValue;
        value           uniform 0;
    }
    repeat_boundary
    {
        type            zeroGradient;
    }
    procBoundary2to0
    {
        type            processor;
        value           nonuniform List<scalar> 
450
(
-2.09742e-10
-2.48967e-10
-3.03709e-10
-3.79498e-10
-4.57653e-10
-6.15054e-10
-6.92449e-10
-7.88042e-10
-9.17587e-10
-1.09693e-09
-8.93386e-10
-9.41605e-10
-9.90444e-10
-1.02593e-09
-1.09703e-09
-9.50407e-10
-9.72022e-10
-9.96393e-10
-9.52171e-10
-7.65022e-10
-8.3569e-10
-8.77637e-10
-9.17591e-10
-8.72335e-10
-5.9534e-10
-6.13746e-10
-6.66058e-10
-6.80595e-10
-6.45987e-10
-5.0891e-10
-1.23102e-10
-1.28475e-10
-8.13516e-11
-3.63146e-11
-2.71228e-11
8.51592e-10
8.79951e-10
9.09295e-10
9.26252e-10
9.7818e-10
2.22916e-09
2.20202e-09
2.08325e-09
1.95529e-09
2.03382e-09
3.70027e-09
3.56355e-09
3.23099e-09
2.82117e-09
2.6183e-09
5.06506e-09
4.81299e-09
4.25028e-09
3.47728e-09
2.69206e-09
6.32749e-09
5.938e-09
5.14831e-09
4.04525e-09
2.70126e-09
7.63961e-09
7.10506e-09
6.13258e-09
4.78719e-09
3.06581e-09
9.33839e-09
8.68916e-09
7.54026e-09
5.91923e-09
3.83449e-09
1.18544e-08
1.10635e-08
9.60438e-09
7.52117e-09
4.8983e-09
1.55148e-08
1.44641e-08
1.24639e-08
9.65586e-09
6.20879e-09
2.06013e-08
1.91302e-08
1.62964e-08
1.23665e-08
7.59018e-09
2.74959e-08
2.53792e-08
2.13385e-08
1.57463e-08
8.94751e-09
3.67468e-08
3.3733e-08
2.80914e-08
2.0264e-08
1.07734e-08
4.93516e-08
4.5225e-08
3.74621e-08
2.66564e-08
1.37049e-08
6.68494e-08
6.12188e-08
5.04546e-08
3.55726e-08
1.79788e-08
9.08847e-08
8.30833e-08
6.82118e-08
4.78407e-08
2.38755e-08
1.23407e-07
1.1275e-07
9.24992e-08
6.46871e-08
3.19142e-08
1.67545e-07
1.53148e-07
1.25591e-07
8.75487e-08
4.27547e-08
2.27641e-07
2.07976e-07
1.70339e-07
1.18433e-07
5.73469e-08
3.09323e-07
2.82387e-07
2.3108e-07
1.60342e-07
7.6879e-08
4.20575e-07
3.83864e-07
3.13877e-07
2.17279e-07
1.03297e-07
5.7233e-07
5.22218e-07
4.26604e-07
2.94663e-07
1.39207e-07
7.79117e-07
7.10554e-07
5.80132e-07
3.99854e-07
1.8743e-07
1.06076e-06
9.66839e-07
7.89431e-07
5.42648e-07
2.52618e-07
1.44369e-06
1.31447e-06
1.07459e-06
7.35369e-07
3.40648e-07
1.96115e-06
1.78043e-06
1.46168e-06
9.90054e-07
4.5773e-07
2.64713e-06
2.38721e-06
1.97598e-06
1.30919e-06
6.09599e-07
3.5331e-06
3.15645e-06
2.6321e-06
1.68373e-06
7.88896e-07
4.67895e-06
4.13675e-06
3.47037e-06
2.11676e-06
9.86503e-07
6.26135e-06
5.48677e-06
4.60634e-06
2.68775e-06
1.25514e-06
1.05685e-05
9.40889e-06
6.99479e-06
3.99575e-06
1.74822e-06
3.2887e-06
1.61893e-06
1.91232e-06
-1.64479e-06
-7.92485e-07
2.66993e-05
2.68968e-05
1.72846e-05
1.21048e-05
8.53941e-06
1.99617e-06
-1.04144e-06
-2.51719e-07
-8.74557e-06
7.89678e-06
2.99479e-05
6.49794e-05
3.09734e-06
5.40619e-06
1.24586e-06
0.00102215
0.00089524
0.000890263
0.000609363
0.000607835
0.00166474
0.00138762
0.0014462
0.00168743
0.00172675
0.00311267
0.00249347
0.00216907
0.0028931
0.00205244
0.00285462
0.00284115
0.00364232
0.00333157
0.00301524
0.0036126
0.00356788
0.00378229
0.00339854
0.00474688
0.00442316
0.00452208
0.00408197
0.00464766
0.00456708
0.00447032