# vtk DataFile Version 4.0
Generated by LIGGGHTS
ASCII
DATASET POLYDATA
POINTS 13 float
-126.131 -354.452 1145.65 138.855 227.547 1064.32 -85.5993 -94.9301 1288.03 
309.254 40.3266 1456.26 294.782 367.894 1257.13 -348.93 195.614 1673.2 
-271.486 -318.942 1821.85 -285.15 -79.9255 1810.89 -278.063 383.223 1741.88 
-10.0007 -285.847 2049.14 328.485 -198.368 1976.33 -3.47712 40.5222 1943.43 
-398.929 255.091 2091.73 
VERTICES 13 26
1 0 
1 1 
1 2 
1 3 
1 4 
1 5 
1 6 
1 7 
1 8 
1 9 
1 10 
1 11 
1 12 

POINT_DATA 13
FIELD FieldData 7
id 1 13 int
6 5 1 2 4 3 9 11 7 
8 10 13 12 
type 1 13 int
1 1 1 1 1 1 1 1 1 
1 1 1 1 
i 3 13 int
0 0 0 0 0 0 0 0 0 
0 0 0 0 0 0 0 0 0 
0 0 0 0 0 0 0 0 0 
0 0 0 0 0 0 0 0 0 
0 0 0 
v 3 13 double
0 0 -0.131005 0 0 -0.13696 0 0 -0.119871 
0 0 -0.105205 0 0 -0.122372 0 0 -0.0825338 
0 0 -0.0624135 0 0 -0.0641107 0 0 -0.0739207 
-0 -0 -0.02 0 0 -0.0294029 0 0 -0.0388597 
-0 -0 -0.02 
f 3 13 double
0 0 -102.73 0 0 -102.73 0 0 -102.73 
0 0 -102.73 0 0 -102.73 0 0 -102.73 
0 0 -102.73 0 0 -102.73 0 0 -102.73 
0 0 0 0 0 -102.73 0 0 -102.73 
0 0 0 
radius 1 13 double
100 100 100 100 100 100 100 100 100 
100 100 100 100 
omega 3 13 double
0 0 0 0 0 0 0 0 0 
0 0 0 0 0 0 0 0 0 
0 0 0 0 0 0 0 0 0 
0 0 0 0 0 0 0 0 0 
0 0 0 
