# vtk DataFile Version 4.0
Generated by LIGGGHTS
ASCII
DATASET POLYDATA
POINTS 126 float
-415.091 -403.986 271.109 -489.091 -331.887 99.9359 -235.962 -434.148 99.9355 
-135.383 -421.476 285.039 -66.6085 -327.934 99.9782 42.0655 -330.928 267.803 
115.102 -411.299 99.9228 289.019 -312.108 99.9056 385.249 -487.397 99.9652 
398.327 -319.66 267.116 -344.146 -138.95 99.957 -243.501 -269.457 213.1 
-138.703 -141.456 99.9553 96.4487 -212.192 99.9712 0.692655 -104.254 238.442 
217.16 -234.377 269.497 269.233 -111.538 99.958 461.188 -143.782 145.561 
-451.131 29.9298 99.8727 -436.501 -43.6952 285.187 -240.222 -68.2392 255.878 
-90.1801 52.5113 99.9568 102.251 -1.61297 99.9811 200.111 -35.2142 271.714 
374.275 28.6899 197.24 -444.42 154.094 256.463 -338.884 297.694 99.9932 
-275.198 113.522 144.579 -142.629 256.374 99.9521 -272.45 250.724 289.997 
-139.845 101.069 291.183 59.5512 106.752 278.423 48.913 196.156 99.9235 
-27.7351 286.716 260.883 241.376 141.998 99.9569 170.876 269.184 243.651 
435.818 194.843 99.9468 359.778 217.134 283.529 -417.234 481.606 99.909 
-499.044 342.561 217.93 -282.804 447.08 253.834 -86.0876 442.249 147.221 
230.328 480.241 222.129 100.809 389.25 99.9361 293.305 335.076 99.9302 
-492.154 -403.062 455.62 -281.176 -327.584 400.702 -23.7394 -388.527 447.647 
193.535 -400.449 378.288 -450.109 -228.497 360.33 -305.862 -115.651 440.497 
-106.924 -228.579 353.339 83.2061 -201.604 414.651 335.124 -276.345 451.826 
375.106 -125.056 325.085 -313.641 76.838 386.936 -143.964 -0.559399 463.33 
55.4182 -6.3457 448.89 238.235 -86.0181 465.584 427.152 60.4279 387.831 
-450.69 208.598 448.879 -108.167 204.406 459.421 84.3311 243.612 422.111 
234.832 113.738 400.469 -428.276 405.593 393.987 -278.847 306.094 482.042 
-135.57 403.662 382.069 44.6735 470.796 295.831 30.6578 424.2 491.975 
208.32 399.392 403.633 392.323 332.322 443.924 405.681 487.128 318.036 
-325.691 -365.321 702.655 -176.606 -348.511 570.282 -296.779 -495.722 507.812 
-16.2288 -450.474 646.976 161.646 -393.46 575.544 329.208 -477.956 505.301 
420.654 -331.044 624.126 -396.362 -255.406 551.265 -246.236 -144.164 629.263 
-68.4564 -178.556 543.389 52.33 -264.42 682.205 250.529 -220.357 624.175 
455.896 -127.127 507.984 -430.223 33.3886 543.477 -436.622 -98.3601 702.717 
-45.0174 71.4139 621.473 105.123 -79.1228 628.362 338.487 54.2447 566.905 
-395.524 256.436 636.981 -255.658 128.587 571.164 7.28027 266.103 612.239 
143.847 120.852 578.348 241.624 295.098 570.953 408.328 220.843 652.668 
-317.945 432.367 693.577 -142.985 405.906 589.568 150.372 435.969 679.627 
497.818 437.627 577.247 275.039 -405.125 739.837 466.703 -328.093 834.619 
-136.075 -268.623 749.225 -276.043 23.653 740.14 -60.3112 -83.5676 746.891 
201.178 -78.3641 819.491 351.281 42.4608 766.073 -459.437 106.682 753.52 
-158.129 223.108 717.969 180.476 221.787 747.049 -17.4661 395.378 780.48 
339.274 343.791 806.64 -229.6 -347.986 908.499 -377.679 385.939 1205.25 
158.155 308.549 1251.26 -159.971 -183.404 1661.13 270.757 -163.567 1580.76 
208.912 86.8461 1581.5 -199.528 -393.961 1849.28 -355.099 -38.615 1769.06 
-80.6322 78.7906 1820.96 27.2609 -237.534 1975.32 289.036 -263.637 2049.41 
-277.454 -67.7666 2098.01 -341.928 226.357 2078.86 17.1626 218.003 2045.47 

VERTICES 126 252
1 0 
1 1 
1 2 
1 3 
1 4 
1 5 
1 6 
1 7 
1 8 
1 9 
1 10 
1 11 
1 12 
1 13 
1 14 
1 15 
1 16 
1 17 
1 18 
1 19 
1 20 
1 21 
1 22 
1 23 
1 24 
1 25 
1 26 
1 27 
1 28 
1 29 
1 30 
1 31 
1 32 
1 33 
1 34 
1 35 
1 36 
1 37 
1 38 
1 39 
1 40 
1 41 
1 42 
1 43 
1 44 
1 45 
1 46 
1 47 
1 48 
1 49 
1 50 
1 51 
1 52 
1 53 
1 54 
1 55 
1 56 
1 57 
1 58 
1 59 
1 60 
1 61 
1 62 
1 63 
1 64 
1 65 
1 66 
1 67 
1 68 
1 69 
1 70 
1 71 
1 72 
1 73 
1 74 
1 75 
1 76 
1 77 
1 78 
1 79 
1 80 
1 81 
1 82 
1 83 
1 84 
1 85 
1 86 
1 87 
1 88 
1 89 
1 90 
1 91 
1 92 
1 93 
1 94 
1 95 
1 96 
1 97 
1 98 
1 99 
1 100 
1 101 
1 102 
1 103 
1 104 
1 105 
1 106 
1 107 
1 108 
1 109 
1 110 
1 111 
1 112 
1 113 
1 114 
1 115 
1 116 
1 117 
1 118 
1 119 
1 120 
1 121 
1 122 
1 123 
1 124 
1 125 

POINT_DATA 126
FIELD FieldData 7
id 1 126 int
32 15 7 51 1 34 9 11 6 
20 19 30 14 10 38 36 29 26 
3 23 47 24 16 35 21 37 17 
33 28 44 42 43 13 46 2 31 
12 39 4 25 27 18 22 8 5 
62 65 58 41 52 53 40 50 67 
56 57 60 55 73 49 66 80 64 
61 63 78 68 48 86 59 69 45 
106 82 71 96 81 77 79 70 90 
54 89 98 72 76 111 85 83 87 
88 92 95 74 91 93 97 75 103 
84 105 110 94 109 99 112 101 104 
102 100 108 107 113 115 117 116 114 
119 126 118 123 124 121 125 120 122 

type 1 126 int
1 1 1 1 1 1 1 1 1 
1 1 1 1 1 1 1 1 1 
1 1 1 1 1 1 1 1 1 
1 1 1 1 1 1 1 1 1 
1 1 1 1 1 1 1 1 1 
1 1 1 1 1 1 1 1 1 
1 1 1 1 1 1 1 1 1 
1 1 1 1 1 1 1 1 1 
1 1 1 1 1 1 1 1 1 
1 1 1 1 1 1 1 1 1 
1 1 1 1 1 1 1 1 1 
1 1 1 1 1 1 1 1 1 
1 1 1 1 1 1 1 1 1 
1 1 1 1 1 1 1 1 1 

i 3 126 int
0 0 0 0 0 0 0 1 0 
0 0 0 0 0 0 0 0 0 
-1 0 0 -1 0 0 0 0 0 
0 0 0 0 0 0 0 0 0 
0 0 0 0 0 0 0 0 0 
-1 0 0 0 0 0 -1 0 0 
0 0 0 0 0 0 0 0 0 
1 0 0 0 0 0 -1 0 0 
0 -1 0 0 0 0 0 -1 0 
0 0 0 0 0 0 0 0 0 
0 0 0 0 0 0 0 0 0 
0 0 0 0 0 0 0 0 0 
-1 0 0 0 0 0 1 0 0 
1 0 0 0 -1 0 0 -1 0 
0 0 0 0 -1 0 0 0 0 
1 0 0 0 0 0 0 0 0 
0 0 0 0 0 0 0 0 0 
0 0 0 0 0 0 0 0 0 
0 0 0 1 0 0 0 0 0 
0 0 0 0 0 0 0 0 0 
0 0 0 0 0 0 0 0 0 
0 0 0 0 0 0 1 0 0 
0 0 0 0 0 0 0 -1 0 
0 0 0 0 0 0 0 0 0 
0 0 0 0 0 0 0 1 0 
0 0 0 0 0 0 0 0 0 
-1 0 0 0 0 0 0 0 0 
0 0 0 0 0 0 -1 0 0 
0 0 0 0 0 0 1 0 0 
0 0 0 0 0 0 0 0 0 
0 0 0 0 0 0 0 0 0 
0 0 0 0 0 0 0 0 0 
0 -1 0 0 0 0 0 0 0 
-1 0 0 0 0 0 0 0 0 
0 0 0 0 0 0 0 0 0 
0 0 0 0 0 0 0 0 0 
0 0 0 0 0 0 0 0 0 
0 0 0 0 0 0 0 0 0 
0 0 0 0 0 0 0 0 0 
0 0 0 0 0 0 0 0 0 
0 0 0 0 0 0 0 0 0 
0 0 0 0 0 0 0 0 0 

v 3 126 double
0.00061929 -0.000363829 -0.000366063 0.000175538 5.45909e-05 6.86677e-05 0.000229834 -9.8694e-05 -6.21115e-05 
0.0005978 -0.000355762 0.000296096 0.00021924 -3.70044e-06 8.62189e-05 0.000595253 -0.000868568 0.000266086 
0.000332579 0.000155193 0.000162859 8.28619e-05 -0.000374358 0.000191975 0.000272565 3.08631e-05 7.36267e-05 
0.000723357 -0.000712082 -0.000178549 0.000141887 -0.000349853 1.09561e-06 0.000881979 -0.00014528 0.00018308 
-0.000195035 -0.000103473 -7.54964e-05 0.000118242 0.00018523 -4.18214e-05 0.000140602 0.000251809 -0.000404346 
8.71438e-05 -0.000629751 0.000551707 4.77869e-05 1.36985e-05 6.17107e-05 8.26171e-05 4.65044e-05 0.000220611 
8.88278e-05 2.10563e-05 0.000154079 -0.0001382 -6.57829e-05 0.000278608 -0.000136474 -0.000143187 0.000101659 
6.09396e-05 -9.055e-05 1.68886e-05 6.39261e-06 -4.90323e-05 -3.18719e-05 1.08111e-05 -0.000537665 -5.40038e-05 
-1.65711e-05 -1.96381e-05 0.000135564 0.000297995 0.000152108 0.000247366 0.000193719 0.000103782 2.41999e-05 
0.000135641 3.8647e-05 5.48994e-05 0.000253354 -0.000145988 4.94971e-05 0.000461159 -3.55169e-05 -1.35645e-05 
-2.7423e-05 -0.000214185 -7.57268e-05 0.00010584 -0.000148429 2.05072e-05 8.4123e-05 -2.82131e-05 4.45323e-05 
0.000331087 0.00068533 -0.000464724 -1.15178e-05 0.00010352 0.000104822 0.000196648 -1.46955e-06 0.0001428 
5.45202e-05 7.90504e-05 5.98476e-05 0.000198211 0.00018284 -6.41976e-06 0.000170307 9.66861e-05 -3.81942e-05 
0.000351636 0.000123529 -7.03502e-05 0.000484096 -0.000285266 -0.000279793 7.96774e-05 -0.000111145 -1.32545e-05 
0.000382282 -7.10552e-05 0.000195174 0.000136919 8.17622e-05 0.000167845 0.000103107 8.83999e-05 6.52584e-05 
0.00152896 -0.000697402 -2.52545e-05 0.000116816 -0.00138685 -0.000213329 0.000443664 0.0013632 0.000472414 
-0.000580714 -0.000847127 0.00081031 0.000468274 -0.000513199 6.60663e-05 -0.000479086 0.000441757 0.000782743 
0.00239438 0.00276609 -0.00229858 -0.000201529 -0.00142182 0.00129679 -0.000906568 0.000536914 -0.00103121 
-0.000200456 0.000175645 0.000337662 -0.000267519 0.000159762 -0.000246216 0.00049627 -0.000407994 -0.000450673 
-6.67783e-05 -6.19508e-05 -0.00718509 -0.000710741 0.000447545 -0.000220555 0.00018146 0.000545599 -0.000245208 
0.00109738 0.00171503 8.43965e-05 -8.32577e-05 -0.000426718 -7.21376e-05 -0.000218391 -0.000191758 -0.00017802 
5.31588e-05 -0.000403345 -0.000195324 0.00115121 0.000352908 -0.000401326 7.88311e-05 -0.000557261 0.000120528 
0.000705898 -0.000294114 0.000241515 7.61273e-05 0.000674174 -0.000357232 -8.40712e-05 0.00120867 -0.000185736 
2.38129e-05 -0.000395323 0.000134328 0.000610924 0.00102905 0.000491832 0.000699926 -0.000484476 -0.000359557 
7.55124e-05 -0.00199566 0.000228107 -0.00148108 0.00254391 -0.00229003 0.000688514 -0.000656685 0.00121973 
-0.00153794 0.00211621 -0.00098094 0.000661244 -0.000407339 0.00116703 0.00121751 -0.00069864 -0.00151856 
0.00303079 0.00268284 -0.0022168 0.000459781 -0.000669264 0.000668915 0.000726535 0.00395432 3.30583e-05 
-0.00255055 0.0018363 -0.00613986 0.000521308 0.00300162 -0.00495368 -0.000269038 0.00239748 -0.00134578 
-0.000278142 0.00010366 0.000357679 -0.000766476 0.00042158 -0.000278437 0.0178333 -0.00510722 -0.000755593 
0.000579164 -0.000447774 -0.0003083 0.0022649 0.00182477 -0.00891142 0.000694036 0.00014143 -0.000481895 
0.00134733 0.000180088 -0.00393643 -0.000118504 -0.000749514 -0.000587808 0.00160593 -0.00145888 -0.00330917 
0.00174219 -0.00275204 0.000691785 -0.000735099 -0.00137642 -0.000420067 0.00138156 0.00132944 -0.00260429 
0.002311 -0.0021718 -0.000282066 0.00103738 -0.000461344 -0.000904462 0.000329249 -0.000176822 -0.00130817 
0.00223395 0.00131694 -0.00127378 0.00699923 -0.00604878 -0.0031731 0.0387753 0.00855812 -0.0440275 
0.00232675 -0.00146437 -0.00356327 0.00956888 0.0092952 0.00588731 0.000593227 -0.000451405 -1.6864e-05 
0.00573758 -0.0144943 -0.00264074 -0.00031502 -0.00423358 -0.000485146 -0.00151808 -0.00445381 -0.009754 
-0.0019535 0.00803458 -0.00443093 0.0119737 -0.00977445 0.00267266 0.000270145 -0.000818359 -0.00121818 
-0.0119512 0.0445074 -0.0292684 -0.0238606 -0.0256581 -0.0264612 0 0 -0.126463 
0 0 -0.122843 0 0 -0.0839563 0 0 -0.0928736 
0 0 -0.0927951 0 0 -0.0579402 0 0 -0.0702223 
0 0 -0.0625509 0 0 -0.0297364 -0 -0 -0.02 
-0 -0 -0.02 -0 -0 -0.02 -0 -0 -0.02 

f 3 126 double
12.4963 50.3715 10.2722 -36.0717 -15.8794 9.05534 -12.3678 0.584592 4.6412 
-29.9981 32.4228 -12.0545 -2.94367 -2.00936 1.92687 -62.1469 74.7062 -20.4602 
23.4354 -8.45137 -6.94012 -73.5474 -8.95851 -35.4975 -23.1539 -46.506 -12.6092 
-56.3821 -4.24713 -13.2233 1.17183 -17.8603 -10.9995 -26.1786 -3.33566 -3.62763 
12.6107 0.555958 -15.941 -10.1544 -1.28828 1.27534 14.968 26.4061 11.0188 
-20.5848 4.34612 -39.3296 1.14203 -8.5381 -11.5999 -34.9579 -38.9111 -9.1979 
-25.1048 -25.5275 10.3828 7.99731 14.4516 -36.8407 -23.4949 -25.6311 -9.25911 
-11.2746 -21.62 -8.5792 15.3942 -0.426452 10.0495 10.4756 10.645 7.76929 
25.0649 2.9485 11.9124 -38.1663 6.19504 32.4989 -8.0415 -21.2559 -4.76267 
-2.38863 -21.8757 -14.5861 3.86669 -33.562 -38.0204 -55.1915 3.08642 -29.7101 
-56.2931 -41.9874 0.86581 -47.7461 -0.202413 -38.878 5.13086 -18.7227 -14.2579 
-6.28496 -58.0262 67.3583 6.57769 13.8784 2.45963 -43.0771 -10.2562 -16.983 
-57.7035 -13.5069 -5.02495 -90.7643 -15.5373 -40.324 -14.1474 -19.848 -13.5712 
-48.5524 -39.3233 -41.5974 -75.3568 55.2155 -36.635 9.18608 29.289 -4.28668 
-5.37306 22.9689 -78.6179 6.5776 25.3273 -8.45253 -14.67 -20.3871 -11.9535 
-16.177 6.06529 -11.085 139.788 56.5138 12.2366 -31.3708 -67.8669 12.5804 
154.163 -180.662 12.9053 6.7677 13.2576 28.3242 97.6428 -36.4123 100.416 
-78.9753 23.4656 89.2823 -86.804 168.878 -43.7546 2.98017 3.11662 -42.3185 
7.12733 -63.4872 4.12652 37.6359 -90.478 5.26927 36.872 -17.0448 46.5441 
-73.6118 -57.3097 -716.162 29.8475 -2.18213 -49.6976 -62.5356 -70.6435 -95.1354 
29.1502 -95.5736 -70.1787 5.68823 37.6755 -3.3663 -38.6079 -41.4414 -24.0561 
-38.865 -19.6747 24.216 -64.9893 -43.1883 36.6325 -21.0472 79.4013 50.498 
-26.5339 37.5698 -40.1206 -76.6045 -21.2233 3.89165 -117.456 -13.0373 25.6424 
-22.2306 10.8764 -22.7299 65.0741 -50.5564 -22.2984 -144.934 -38.9188 -14.5962 
-0.892592 -9.34986 -93.74 0 0 -102.73 38.4746 -38.9278 -21.481 
70.9692 38.8936 -83.4677 176.958 -113.807 -86.2599 -74.3235 -2.4855 52.4933 
-0.576565 -7.96672 -70.3549 -0.766764 -25.7046 -73.4142 0 0 -102.73 
0 0 -102.73 -378.37 163.702 169.948 -15.9706 13.0095 -75.0967 
42.8052 -56.6428 91.0543 -24.2076 0.175459 26.3041 0 0 -102.73 
-74.2336 -2.69803 37.9195 112.676 52.57 526.538 -26.189 13.2507 70.1644 
164.822 10.4578 -71.3081 14.0675 27.289 -50.5727 0 0 -102.73 
-32.0879 30.3221 86.2517 86.8165 79.0193 35.5938 145.829 53.3809 -55.7207 
0 0 -102.73 11.6928 109.169 5.42933 -24.1616 160.411 25.0193 
8.23784 55.8834 -45.5975 131.767 -31.4954 -60.6827 0 0 -102.73 
2.94568 -61.8715 -91.7444 -35.2411 -157.985 264.114 -72.9648 -66.3609 31.8331 
-48.2712 -39.8269 -46.2783 -125.234 -94.7924 305.225 0 0 -102.73 
-9.6319 -21.8721 -114.962 -34.4222 56.9457 -9.64518 -75.3587 6.29216 -47.1757 
0 0 -102.73 0 0 -102.73 0 0 -102.73 
0 0 -102.73 0 0 -102.73 0 0 -102.73 
0 0 -102.73 0 0 -102.73 0 0 -102.73 
0 0 -102.73 0 0 -102.73 0 0 0 
0 0 0 0 0 0 0 0 0 

radius 1 126 double
100 100 100 100 100 100 100 100 100 
100 100 100 100 100 100 100 100 100 
100 100 100 100 100 100 100 100 100 
100 100 100 100 100 100 100 100 100 
100 100 100 100 100 100 100 100 100 
100 100 100 100 100 100 100 100 100 
100 100 100 100 100 100 100 100 100 
100 100 100 100 100 100 100 100 100 
100 100 100 100 100 100 100 100 100 
100 100 100 100 100 100 100 100 100 
100 100 100 100 100 100 100 100 100 
100 100 100 100 100 100 100 100 100 
100 100 100 100 100 100 100 100 100 
100 100 100 100 100 100 100 100 100 

omega 3 126 double
1.14823e-07 8.11786e-06 -1.19646e-05 6.65172e-07 1.89028e-06 5.92703e-07 1.40846e-06 1.1625e-06 -2.89219e-06 
2.59493e-06 2.92464e-06 -1.28207e-05 -2.88914e-06 -2.31028e-06 4.05001e-06 7.76149e-06 4.26779e-07 4.67614e-06 
-1.99705e-06 2.95979e-06 -5.02728e-07 4.02488e-06 1.4391e-06 5.46168e-06 1.15818e-06 9.36518e-07 -9.18026e-08 
-3.34739e-06 6.19085e-06 -1.01349e-05 3.03123e-06 1.15695e-06 -2.0514e-06 -6.62197e-06 2.80673e-06 7.02426e-06 
1.57554e-06 -2.26886e-06 -1.16016e-06 -1.01754e-06 -5.95272e-07 -5.12091e-07 -2.21981e-06 3.50832e-07 7.66228e-08 
-2.94425e-06 1.26204e-06 1.73281e-06 1.13067e-07 -4.84544e-07 -1.16394e-07 -5.44596e-07 -7.99296e-07 3.87802e-07 
-5.78304e-07 4.6252e-07 3.67898e-07 -1.3204e-06 -2.96128e-06 -3.89764e-06 -3.00358e-06 5.6542e-06 4.72558e-06 
6.09642e-08 8.75885e-07 -7.08688e-07 1.079e-07 -4.89147e-07 8.03325e-07 -3.94779e-06 4.28022e-06 -1.70417e-06 
2.04496e-06 -9.82894e-07 1.45945e-07 5.37731e-07 -6.43356e-07 -4.91001e-06 -1.43456e-06 2.89808e-06 1.01168e-07 
-1.29919e-07 1.80646e-07 -1.094e-06 1.97382e-06 2.20193e-06 -1.14552e-06 -3.28988e-07 -4.93073e-06 -8.56429e-06 
4.95973e-06 -1.26388e-06 1.98411e-06 1.96585e-07 -6.37886e-08 -1.47841e-06 3.08226e-07 1.05762e-06 7.52206e-08 
-5.7781e-06 -5.99914e-06 -1.03216e-05 7.89846e-07 -1.11324e-06 4.60305e-07 2.08139e-06 4.7016e-07 1.2762e-06 
-1.43781e-06 7.57099e-07 2.44677e-07 1.10893e-06 5.38258e-08 1.50379e-07 -4.89703e-07 5.45425e-07 2.19666e-07 
1.24123e-06 3.25299e-06 -1.78806e-06 -1.36347e-06 -7.97799e-06 1.14111e-05 -2.09389e-06 -1.67993e-06 2.85291e-06 
3.61729e-06 2.02094e-07 -2.10965e-06 -1.04045e-06 8.0669e-07 -7.56107e-07 -9.63008e-07 8.43694e-07 -1.10243e-06 
3.86585e-06 1.58169e-06 1.05549e-05 1.90739e-05 -3.74923e-06 -1.86434e-05 -1.41804e-06 -2.73375e-06 3.03797e-05 
8.74961e-07 -1.85963e-05 1.80773e-06 4.76582e-06 -8.2334e-06 1.38715e-05 -8.40999e-07 2.6201e-06 9.88162e-07 
-2.35591e-05 2.40384e-05 6.41568e-06 1.25872e-06 -6.40422e-06 3.8901e-06 -1.73954e-05 -1.92999e-05 2.948e-05 
-6.45665e-06 -4.83354e-06 2.20022e-07 -1.0202e-05 -1.20157e-07 -2.60814e-06 3.7313e-07 1.35124e-05 -1.28296e-05 
-5.32675e-05 -3.63243e-05 2.19522e-06 -1.57272e-05 1.65928e-05 1.21247e-05 -3.04865e-06 5.76499e-07 -1.01949e-06 
-1.43888e-05 2.57167e-05 -7.82256e-06 -2.53295e-06 5.55428e-06 5.85723e-06 -1.54715e-08 -4.73101e-06 -2.18684e-06 
4.11505e-06 -1.51487e-06 3.46496e-06 -8.36763e-06 4.93607e-07 -1.02333e-05 4.68614e-06 -4.64729e-06 -5.59727e-06 
5.08205e-07 8.95491e-06 9.60753e-06 -9.6243e-06 -2.10512e-06 -4.21071e-06 1.86007e-06 -3.03349e-06 -1.44302e-05 
-9.23119e-07 -2.04302e-06 -2.9162e-06 -2.25912e-05 7.95611e-06 1.39487e-05 4.42175e-06 5.53835e-06 5.88476e-06 
2.10387e-05 6.95863e-06 -3.18452e-05 -7.60434e-05 1.01915e-05 6.65171e-06 2.17664e-05 -1.40862e-05 5.76389e-06 
-3.39097e-05 -5.76085e-05 1.44598e-05 -1.47189e-06 2.94736e-05 -3.99222e-05 3.84035e-06 -1.55445e-05 -1.19563e-05 
-7.78099e-06 4.88336e-05 -2.87328e-05 -6.54581e-06 -1.14359e-05 3.01177e-05 -1.92666e-05 5.43371e-05 -2.85994e-05 
-6.63006e-05 -6.75562e-05 -6.87015e-07 -1.5831e-05 -0.000111775 -2.1852e-05 -3.94715e-05 4.99559e-05 4.30998e-05 
-5.64056e-06 5.29074e-06 -2.98983e-05 -1.22681e-05 -1.13929e-05 2.64118e-05 8.66003e-05 0.000220706 0.000133694 
-3.92483e-05 -4.3926e-05 -5.23898e-05 -4.07763e-05 4.94286e-05 1.76748e-05 1.68471e-05 5.02615e-06 -1.60308e-05 
2.41637e-05 -2.39771e-05 -4.04561e-05 1.82853e-05 -1.14646e-06 -6.15186e-06 3.68852e-05 2.72863e-05 4.01335e-06 
9.38673e-07 2.29505e-05 3.51328e-05 4.67133e-06 -7.27849e-07 -7.96405e-06 -2.90101e-05 3.69793e-05 2.85568e-05 
-3.10595e-05 1.61681e-05 6.27886e-06 -8.61764e-07 2.30222e-05 9.31059e-06 -4.54271e-06 -1.80474e-05 -2.19967e-05 
-6.41555e-07 -3.83988e-06 -3.35761e-05 0.000120358 4.49095e-05 0.000110208 -5.46834e-05 -6.48443e-05 9.20476e-07 
5.44017e-05 0.000134527 7.59867e-07 -0.000138621 4.71158e-05 0.000116066 3.53501e-05 3.64319e-05 6.02176e-05 
-5.75271e-05 0.000102526 0.000107127 2.51067e-05 -1.83112e-05 9.96389e-06 7.20416e-05 9.00692e-05 -6.25878e-06 
-0.000152765 -5.62782e-05 -4.54164e-05 0.000102588 0.000149583 5.44658e-05 5.80487e-05 3.09702e-05 -2.10112e-06 
-0.0003169 -0.000105167 2.93259e-05 0.000267397 -0.000479979 -4.52359e-05 0 0 0 
0 0 0 0 0 0 0 0 0 
0 0 0 0 0 0 0 0 0 
0 0 0 0 0 0 0 0 0 
0 0 0 0 0 0 0 0 0 

