# vtk DataFile Version 4.0
Generated by LIGGGHTS
ASCII
DATASET POLYDATA
POINTS 153 float
-412.775 -404.422 271.31 -486.238 -332.542 99.8755 -236.426 -433.779 99.8859 
-135.862 -423.205 282.8 -67.4428 -327.132 99.8762 40.763 -330.56 267.828 
114.456 -410.234 99.8811 288.711 -312.11 99.8875 386.246 -486.581 99.8523 
399.681 -324.424 265.709 -342.932 -138.319 99.9718 -241.83 -268.826 212.653 
-138.247 -140.183 99.9144 94.9293 -210.496 99.9799 0.609489 -101.123 238.408 
218.648 -239.463 272.449 269.557 -113.148 99.9249 461.688 -144.917 144.92 
-451.596 29.4405 99.8115 -436.409 -45.0037 284.829 -239.691 -63.34 254.082 
-88.1362 53.3882 99.8707 104.258 -0.779246 99.9654 202.256 -40.2654 273.488 
374.532 27.7481 198.359 -447.248 152.777 257.041 -339.853 295.372 99.9918 
-274.474 111.309 143.021 -141.569 254.4 99.9882 -274.548 248.608 288.299 
-135.627 104.836 287.076 63.9569 104.013 276.56 51.1906 196.822 99.9363 
-26.878 286.611 260.642 243.646 142.545 99.9843 171.662 268.962 242.762 
436.552 195.098 99.9216 360.103 215.781 283.527 -416.714 480.002 99.9415 
-499.039 342.174 219.046 -282.97 444.841 251.683 -86.4361 441.541 144 
44.1875 471.021 292.549 230.9 482.203 221.601 101.824 390.208 99.8726 
294.431 335.917 99.9592 -493.364 -404.5 454.241 -279.195 -328.956 399.642 
-24.6243 -383.257 449.22 188.078 -404.714 380.706 -451.829 -229.573 360.109 
-304.309 -117.54 435.345 -106.344 -225.211 353.071 91.7204 -220.285 426.644 
329.477 -280.54 447.978 377.144 -129.627 325.43 -309.332 75.2553 381.414 
-136.339 -10.2148 450.583 62.2773 -22.4785 431.351 243.399 -97.5859 470.507 
427.725 58.7349 388.551 -452.201 206.512 449.5 -108.195 203.363 458.944 
84.3533 241.165 420.538 235.092 111.402 399.535 -422.688 410.754 390.636 
-280.054 303.248 480.534 -137.026 401.815 381.42 30.0598 428.299 488.018 
207.432 397.454 401.007 389.361 328.41 446.948 403.959 483.69 321.75 
-330.676 -388.361 687.172 -176.321 -337.08 570.918 -284.772 -498.411 505.661 
-25.5398 -451.136 637.699 155.606 -391.776 577.469 327.67 -479.246 502.893 
430.866 -318.681 618.16 -391.77 -257.602 548.746 -440.02 -112.126 677.627 
-244.873 -144.874 624.282 -64.9563 -173.267 541.682 39.9574 -267.873 683.424 
254.636 -224.38 624.645 453.609 -136.765 510.118 -430.531 24.6317 532.101 
-57.4225 65.9435 617.767 104.45 -91.7616 614.147 333.693 53.8222 564.924 
-386.25 233.972 636.202 -246.38 108.352 568.164 -157.355 226.251 703.118 
14.3868 261.082 606.735 133.87 101.376 571.68 231.103 275.455 557.408 
414.511 227.85 621.038 -311.653 412.544 686.116 -484.401 439.259 578.68 
-137.478 390.182 590.344 140.214 424.488 654.957 339.119 407.321 667.136 
-328.852 -417.486 884.993 -170.617 -476.254 773.826 85.4747 -453.579 803.98 
286.131 -408.608 727.946 476.18 -466.526 750.571 -465.717 -278.475 785.48 
-301.309 -169.635 818.596 -144.559 -278.586 759.449 11.0795 -246.485 880.796 
-59.3631 -100.213 729.052 167.34 -158.664 791.724 342.313 -247.079 831.526 
-485.032 78.7481 716.72 -442.183 -38.6037 872.854 -296.665 13.9238 737.026 
-135.182 49.1749 849.497 45.8425 -28.6895 883.438 238.651 16.7041 856.321 
365.051 -80.6488 709.498 -314.142 193.942 823.343 58.4211 145.741 764.02 
253.579 163.415 721.381 405.905 180.674 849.749 -343.405 383.087 881.393 
-499.625 335.645 765.911 -158.573 306.839 886.26 -27.1117 385.415 757.7 
163.528 330.815 830.132 225.098 -378.705 925.991 -180.521 -267.619 955.83 
-286.076 -105.227 1007.3 232.638 -145.566 979.227 -94.359 -48.2465 1024.64 
139.072 80.1445 1022.97 390.222 -22.5387 980.698 -285.241 248.211 1029.47 
-16.3087 179.777 946.34 339.591 295.588 1000.48 236.002 -175.267 1176.11 
-113.526 129.418 1114.45 355.581 -362.217 1262.76 -53.1973 394.857 1238.3 
271.01 102.914 1508.54 -348.119 -330.26 1756.33 65.1769 -21.0278 1677.57 
205.34 352.583 1824.83 204.912 -319.568 2005.7 -78.9489 -201.962 2039.38 
-49.7817 56.0938 2046.31 -278.731 135.157 1952.69 -284.312 381.733 1995.53 

VERTICES 153 306
1 0 
1 1 
1 2 
1 3 
1 4 
1 5 
1 6 
1 7 
1 8 
1 9 
1 10 
1 11 
1 12 
1 13 
1 14 
1 15 
1 16 
1 17 
1 18 
1 19 
1 20 
1 21 
1 22 
1 23 
1 24 
1 25 
1 26 
1 27 
1 28 
1 29 
1 30 
1 31 
1 32 
1 33 
1 34 
1 35 
1 36 
1 37 
1 38 
1 39 
1 40 
1 41 
1 42 
1 43 
1 44 
1 45 
1 46 
1 47 
1 48 
1 49 
1 50 
1 51 
1 52 
1 53 
1 54 
1 55 
1 56 
1 57 
1 58 
1 59 
1 60 
1 61 
1 62 
1 63 
1 64 
1 65 
1 66 
1 67 
1 68 
1 69 
1 70 
1 71 
1 72 
1 73 
1 74 
1 75 
1 76 
1 77 
1 78 
1 79 
1 80 
1 81 
1 82 
1 83 
1 84 
1 85 
1 86 
1 87 
1 88 
1 89 
1 90 
1 91 
1 92 
1 93 
1 94 
1 95 
1 96 
1 97 
1 98 
1 99 
1 100 
1 101 
1 102 
1 103 
1 104 
1 105 
1 106 
1 107 
1 108 
1 109 
1 110 
1 111 
1 112 
1 113 
1 114 
1 115 
1 116 
1 117 
1 118 
1 119 
1 120 
1 121 
1 122 
1 123 
1 124 
1 125 
1 126 
1 127 
1 128 
1 129 
1 130 
1 131 
1 132 
1 133 
1 134 
1 135 
1 136 
1 137 
1 138 
1 139 
1 140 
1 141 
1 142 
1 143 
1 144 
1 145 
1 146 
1 147 
1 148 
1 149 
1 150 
1 151 
1 152 

POINT_DATA 153
FIELD FieldData 7
id 1 153 int
32 15 7 51 1 34 9 11 6 
20 19 30 14 10 38 36 29 26 
3 23 47 24 16 35 21 37 17 
33 28 44 42 43 13 46 2 31 
12 39 4 25 27 18 48 22 8 
5 62 65 58 41 52 53 40 50 
67 56 57 60 55 73 49 66 80 
64 61 63 78 68 86 59 69 45 
106 82 71 96 81 77 79 70 111 
90 54 89 98 72 76 85 83 87 
88 92 102 95 74 91 93 97 84 
75 103 107 131 126 117 105 113 110 
116 94 124 99 112 114 104 118 109 
125 127 119 101 120 123 100 130 138 
115 122 108 133 121 129 135 132 139 
137 134 140 128 141 142 136 145 144 
143 146 147 148 150 151 152 149 153 

type 1 153 int
1 1 1 1 1 1 1 1 1 
1 1 1 1 1 1 1 1 1 
1 1 1 1 1 1 1 1 1 
1 1 1 1 1 1 1 1 1 
1 1 1 1 1 1 1 1 1 
1 1 1 1 1 1 1 1 1 
1 1 1 1 1 1 1 1 1 
1 1 1 1 1 1 1 1 1 
1 1 1 1 1 1 1 1 1 
1 1 1 1 1 1 1 1 1 
1 1 1 1 1 1 1 1 1 
1 1 1 1 1 1 1 1 1 
1 1 1 1 1 1 1 1 1 
1 1 1 1 1 1 1 1 1 
1 1 1 1 1 1 1 1 1 
1 1 1 1 1 1 1 1 1 
1 1 1 1 1 1 1 1 1 

i 3 153 int
0 0 0 0 0 0 0 1 0 
0 0 0 0 0 0 0 0 0 
-1 0 0 -1 0 0 0 0 0 
0 0 0 0 0 0 0 0 0 
0 0 0 0 0 0 0 0 0 
-1 0 0 0 0 0 -1 0 0 
0 0 0 0 0 0 0 0 0 
1 0 0 0 0 0 -1 0 0 
0 -1 0 0 0 0 0 -1 0 
0 0 0 0 0 0 0 0 0 
0 0 0 0 0 0 0 0 0 
0 0 0 0 0 0 0 0 0 
-1 0 0 0 0 0 1 0 0 
1 0 0 0 -1 0 0 -1 0 
0 0 0 0 0 0 0 -1 0 
0 0 0 1 0 0 0 0 0 
0 0 0 0 0 0 0 0 0 
0 0 0 0 0 0 0 0 0 
0 0 0 0 0 0 1 0 0 
0 0 0 0 0 0 0 0 0 
0 0 0 0 0 0 0 0 0 
0 0 0 0 0 0 0 0 0 
1 0 0 0 0 0 0 -1 0 
0 0 0 0 0 0 0 0 0 
0 0 0 0 0 0 0 1 0 
0 0 0 0 0 0 0 0 0 
-1 0 0 0 0 0 1 0 0 
0 0 0 0 0 0 0 0 0 
-1 0 0 0 0 0 0 0 0 
0 0 0 0 0 0 0 0 0 
0 0 0 0 0 0 0 0 0 
0 0 0 0 0 0 0 0 0 
0 0 0 0 -1 0 0 0 0 
0 0 0 0 0 0 0 0 0 
0 0 0 0 0 0 0 1 0 
0 0 0 -1 0 0 1 0 0 
0 0 0 0 0 0 0 0 0 
0 0 0 0 0 0 0 0 0 
0 0 0 0 0 0 0 0 0 
0 0 0 0 0 0 0 0 0 
0 0 0 0 0 0 0 0 0 
0 0 0 0 0 0 0 0 0 
0 0 0 0 0 0 0 0 0 
0 0 0 0 0 0 0 1 0 
0 0 0 0 0 0 0 0 0 
0 0 0 0 0 0 0 0 0 
0 0 0 0 0 0 0 0 0 
0 0 0 0 0 0 0 0 0 
0 0 0 0 0 0 0 0 0 
0 0 0 0 0 0 0 0 0 
0 0 0 0 0 0 0 0 0 

v 3 153 double
0.000285283 -0.000431411 0.000262145 0.000766061 6.48135e-05 3.09276e-05 -1.78038e-05 0.000407441 0.000329748 
0.000180669 -0.000447546 -0.000498615 0.00037047 -0.000139531 0.000254411 0.000602928 -0.000746109 0.000587331 
0.000834463 0.000228609 0.000218668 0.000493093 4.32206e-05 0.000473476 0.000699386 -0.000162448 7.12799e-05 
0.000784595 -0.000365197 0.000802926 0.00083222 0.000631932 0.000258656 0.00125688 0.000770583 0.00034594 
0.000569106 0.000441111 0.000106651 0.00043296 -0.000431197 0.000303929 5.91608e-05 0.00130615 0.000582944 
0.000868875 0.000144571 0.00104786 0.000228447 9.35589e-05 0.000411035 0.000712017 0.000205537 0.000227627 
0.000108083 0.000276915 0.000211703 -1.93882e-05 -5.52335e-05 0.000746786 0.000478892 0.000471968 0.000583462 
8.27275e-05 0.00052763 -1.5281e-05 0.000219564 0.000580643 0.000316682 0.000418716 0.000101494 0.00124183 
-3.72212e-05 0.000796135 0.00044119 0.000225136 0.00018682 0.000216439 0.000418002 0.000279032 -0.000126302 
0.000484615 0.00020394 9.93094e-06 0.000346185 -0.000142255 0.000387893 0.000812405 -0.000234106 0.000385861 
-0.000219194 -0.000725568 0.000761224 -0.000231341 -0.000435941 0.000827026 0.0002598 -0.000403212 0.000159958 
0.00059697 -0.00112148 0.00117368 0.000324805 -0.000114068 -0.000121144 -1.4423e-05 -0.000490695 7.64737e-05 
-6.64799e-05 0.000100109 0.000174349 9.07625e-05 0.000166491 0.000479856 0.000528369 0.000120873 -4.65835e-05 
0.000405358 -0.000104322 0.000186322 0.000491272 -0.000138477 0.000485884 2.82687e-05 0.000195805 -0.00134201 
-9.7719e-05 -0.000171503 -0.00120935 0.00119821 -5.94849e-05 0.000420369 0.000750072 -5.45199e-05 0.00041659 
0.000539079 -0.000381396 0.000245093 -0.000569064 0.000719167 0.000122292 -0.000518155 -5.20234e-05 -0.000207718 
-0.000723074 -0.00287164 0.000267941 0.000165876 -0.000445862 0.000632149 0.000462529 -0.00033381 0.000554777 
-0.000292489 0.000130928 0.000848189 0.0010736 0.000355553 0.000503154 0.000466538 -0.000779414 0.00114391 
0.00161806 -0.00117022 0.000345012 0.00150031 0.00042269 0.000640615 -0.000821582 1.533e-05 0.00122089 
-8.53126e-05 -0.000714901 0.00099345 -4.64947e-05 -0.00128747 0.000698294 0.00105527 -0.000697418 -0.000427843 
0.000327244 -1.79936e-05 0.000976648 0.000614817 -0.00012737 0.00059297 0.000267812 -7.42421e-06 0.000535018 
0.000329439 9.89893e-05 0.000119318 5.18773e-05 0.000672823 0.000940558 0.000416097 0.000316431 0.000323033 
-0.000199682 -0.000867358 0.00073947 0.000253727 -0.000176488 0.00109875 0.000618634 -0.000461459 0.000823899 
0.00048943 -0.000476793 0.00052674 0.000662771 3.14434e-05 0.00122682 0.000936287 -0.000527824 0.000811958 
-0.000673752 -0.000411831 0.000799953 -0.00117953 -0.00147487 -1.78191e-05 0.000318685 -0.000241151 -0.000258078 
-0.000781236 -0.0012236 -0.000414331 -0.000475248 -0.00161549 0.000341749 0.000240713 0.000155081 0.00161277 
-0.000202789 0.000254236 0.000974469 0.000357695 -0.000205763 0.000667682 0.00117361 -0.000196574 0.00207373 
-0.000116715 0.000305313 0.000850864 0.000230883 0.000311842 0.000761733 -0.00222597 -0.00298071 -0.00400676 
-0.00299209 -0.00201701 -0.00860393 -0.000287056 0.000398462 0.00205431 -0.000404354 0.0012252 0.00387729 
-7.77296e-05 0.00031393 0.000591528 -0.00159492 -0.00207681 -0.00193671 2.8883e-05 -0.000362606 0.000892525 
0.000570336 0.000155818 0.00113376 8.87973e-05 0.000406191 0.000985525 -0.000683884 1.88431e-05 -0.00200003 
-0.000175512 -0.000133171 0.000384658 -0.000434848 -0.000813673 0.000749859 0.00065202 -0.000972708 0.00132274 
0.00098007 -0.00063631 0.000663302 0.000903324 -0.000137033 0.00180229 0.000503791 0.000469053 -5.32232e-05 
-0.000415776 -0.000318277 -0.000455421 -0.000570043 -0.00168147 0.00150097 0.000682793 -0.000143338 0.000883683 
0.0024219 0.00110443 0.00123139 0.000611535 0.000323516 0.00103518 -0.000350416 -0.000704466 -0.00108623 
0.00147412 -0.00124059 -0.000365769 0.00101775 0.000616708 -0.0012282 0.000388807 -0.000577699 7.61915e-05 
0.000344352 -0.00104654 0.00505315 -0.000519364 -0.000223004 -0.000142885 0.000425895 -0.00185927 0.000697506 
-0.00069094 -0.000287022 -0.000955098 -0.00478495 0.00303919 -0.0349086 -0.00080492 -0.000646779 -0.00124445 
0.00540029 5.27829e-05 0.00789707 0.00535767 0.00232392 0.0116705 0.00070721 0.000699263 0.00046159 
0.0055471 0.00827065 -0.0100485 0.00201045 0.00242342 -0.00269101 0.00398357 -0.0039271 0.000499898 
0.000344389 -0.000660605 0.000736673 -0.00304135 0.00228714 -0.00334852 -0.00191891 -0.00155326 -0.000419173 
0.00102341 -0.00280056 0.000738629 -0.00072314 0.00312618 0.00296271 -0.000629316 0.00135809 -0.00241177 
-0.000674415 0.00154854 -0.00029569 -0.00125226 0.00102411 -0.00113742 0.000562486 0.00063055 0.00047885 
0.0256485 -0.0151124 -0.00901788 0.0041504 -0.00721738 -0.00301968 -0.00146957 0.00607343 -0.00079722 
-0.00368886 0.00449517 0.00348053 0.00872028 0.00718846 -0.0502372 -0.00308545 0.00545772 -0.00806549 
0.000899891 0.0115775 -0.00627895 0.00191761 0.003673 0.00476033 -0.00493201 0.00395757 -0.00364396 
-7.38857e-05 0.00451191 -0.00378031 -0.0257738 0.0445059 -0.0414173 0.00768359 -0.0112905 -0.0213754 
-0.0139997 0.00804847 -0.0162056 0 0 -0.121921 0 0 -0.123873 
0 0 -0.100211 0 0 -0.0719783 0 0 -0.0820139 
0 0 -0.0619427 -0 -0 -0.02 -0 -0 -0.02 
-0 -0 -0.02 0 0 -0.0364465 0 0 -0.0220846 

f 3 153 double
178.102 281.555 -92.9465 -85.8352 9.40994 -56.5813 66.8104 -35.0898 -77.2452 
107.747 -133.181 45.0847 -28.3886 100.158 -30.6077 -42.5189 81.9998 -37.2501 
-61.3093 71.0535 -10.1777 -80.1446 -10.3129 -62.5278 -35.9215 38.9416 14.7369 
-108.367 27.7828 31.4614 74.9442 -26.0498 -46.8912 1.14928 -14.8364 31.1877 
8.53386 6.51044 -5.79799 20.8916 113.19 -45.1944 66.4778 -48.4831 33.7792 
10.3835 -59.3031 -73.25 12.6514 65.539 -65.7064 -102.061 -139.296 -113.855 
2.53616 -131.322 -2.29978 -112.224 -63.1447 25.2754 -109.755 75.3823 12.1784 
25.0121 -246.302 -45.8705 11.0336 -51.6663 -72.9351 -97.9487 6.04547 -72.1221 
-78.6232 -127.445 -131.294 -167.182 -44.6663 109.934 11.196 -21.5856 -37.2656 
-19.5561 -18.545 -80.6172 52.4264 83.9143 -157.11 -61.1881 132.481 -42.8294 
-68.8383 -211.75 -159.533 -93.2086 -115.056 -62.5013 -78.9571 47.65 31.4617 
-66.5315 78.4822 26.5275 -110.21 101.405 -90.2392 -49.8313 -110.855 -136.074 
-47.1504 -80.1683 30.5854 -170.164 -15.7258 76.2408 4.36236 -47.1166 -12.5905 
-124.006 -11.5121 13.5239 146.157 248.724 -13.6626 93.3846 -70.7694 7.3962 
77.3572 -143.844 -51.0018 -48.6162 26.239 23.7048 -23.5465 37.5566 -32.2804 
-166.092 118.778 -48.2259 69.4208 22.7434 -77.8262 -80.4224 -14.8026 -38.4013 
90.7696 -92.3014 -90.2149 119.049 30.4116 58.8394 45.5788 38.8745 24.7437 
-157.195 -60.392 110.035 -15.1602 -47.1532 110.845 43.2862 14.619 -63.2778 
1375.81 -231.087 -818.583 -40.39 249.84 -448.891 -27.9627 -8.83713 -47.8314 
-96.1098 33.6693 30.5288 23.8866 97.0131 -158.504 561.264 -113.236 -1757.61 
-94.3224 -13.4689 -166.71 -208.052 -125.709 150.133 -8.69095 -228.48 -196.924 
-47.2612 -126.504 -25.0344 -58.3615 115.066 110.539 122.051 -172.966 -48.5776 
-7.09889 -80.1329 -41.6014 -54.3599 57.8773 -48.7729 13.8403 -10.8658 -17.6456 
-5.4849 -62.9886 13.3171 -274.895 -64.2525 107.728 14.6118 30.4396 51.788 
83.0336 -32.8322 -103.338 56.7649 -139.177 19.3421 -59.9501 -107.116 -10.1195 
-208.584 -391.254 -35.0041 -358.923 -371.984 -626.799 -34.175 173.135 120.893 
-196.318 153.19 168.499 15.1257 -31.1766 131.165 17.8178 156.206 99.043 
50.3455 -104.709 274.614 14.1197 -213.139 297.962 -1600.88 -1193.86 -5016.81 
-2129.64 -1429.7 -7837.43 414.189 170.808 -222.048 23.7831 320.196 -63.2916 
193.694 74.0609 289.317 -1725.93 -1603.98 -5991.94 -199.988 -150.556 -52.5633 
-133.787 -94.9724 113.661 -49.0197 57.2796 254.143 -69.055 -164.09 188.184 
43.6751 -23.6518 -133.092 162.164 -96.0795 260.624 18.5988 -61.603 196.568 
0.250089 -106.878 145.81 16.2123 63.8583 124.496 -49.2526 -46.1743 -176.349 
120.733 56.6909 100.076 -78.3568 68.2087 -23.7209 6.05038 -287.744 300.367 
45.5542 -23.7071 32.456 85.4201 117.34 99.7462 -112.329 -163.68 177.496 
-81.6239 -69.0585 79.5725 -72.0583 -217.601 212.046 -249.068 251.918 263.059 
-270.123 245.221 -25.6134 -78.8771 77.5187 -55.6021 147.533 93.8612 -45.7385 
18.7987 -34.1631 -54.599 -2260.32 2817.76 -4147 -424.267 486.131 251.991 
22.5169 95.4748 -159.171 -110.012 407.932 -43.2027 -11.3797 38.7107 550.795 
262.254 35.7345 404.544 208.307 -139.991 24.7865 284.557 -112.829 -53.8662 
-16.1357 -441.716 252.468 0 0 -102.73 3.16872 -0.522048 -412.62 
-2.77985 -88.0554 170.1 67.0165 -414.544 146.062 93.9217 46.9788 110.946 
151.934 -530.429 146.67 -292.408 170.092 49.6036 91.8428 106.459 58.312 
0 0 -102.73 119.912 70.4574 -16.1302 84.5895 121.443 232.521 
35.1767 -12.9692 25.3662 4427.02 3453.59 17100.4 -461.265 0.707404 50.0468 
1168.02 -958.815 1609.51 772.639 690.299 -479.6 -114.907 -44.6126 -28.138 
-903.303 757.428 -1244.38 0 0 -102.73 1749.18 -1225.82 10852.9 
-8.3343 13.2492 -88.2544 0 0 -102.73 0 0 -102.73 
0 0 -102.73 0 0 -102.73 0 0 -102.73 
0 0 -102.73 0 0 0 0 0 0 
0 0 0 0 0 -102.73 0 0 -102.73 

radius 1 153 double
100 100 100 100 100 100 100 100 100 
100 100 100 100 100 100 100 100 100 
100 100 100 100 100 100 100 100 100 
100 100 100 100 100 100 100 100 100 
100 100 100 100 100 100 100 100 100 
100 100 100 100 100 100 100 100 100 
100 100 100 100 100 100 100 100 100 
100 100 100 100 100 100 100 100 100 
100 100 100 100 100 100 100 100 100 
100 100 100 100 100 100 100 100 100 
100 100 100 100 100 100 100 100 100 
100 100 100 100 100 100 100 100 100 
100 100 100 100 100 100 100 100 100 
100 100 100 100 100 100 100 100 100 
100 100 100 100 100 100 100 100 100 
100 100 100 100 100 100 100 100 100 
100 100 100 100 100 100 100 100 100 

omega 3 153 double
-3.0907e-06 -7.71976e-06 -1.41736e-05 -7.16752e-07 8.67634e-06 -6.50974e-06 -2.91736e-06 -1.00165e-06 -4.47157e-06 
1.07826e-05 2.54387e-06 -5.0001e-06 1.1728e-06 1.79464e-06 -3.8914e-06 1.42303e-05 -8.28185e-07 1.42118e-05 
-3.46298e-06 6.84435e-06 -2.38774e-06 -3.25296e-07 2.91376e-06 3.19345e-06 4.58051e-07 7.589e-06 -4.06205e-06 
-2.35754e-06 -9.78621e-07 -7.49418e-06 -5.55172e-06 8.36363e-06 1.10282e-05 6.55409e-07 -1.45493e-06 -1.10354e-05 
-5.15041e-06 4.79058e-06 1.88591e-07 6.39107e-06 3.74633e-06 4.50202e-06 -1.44333e-06 -7.06358e-06 1.07651e-05 
2.54368e-06 2.88153e-06 -4.74734e-06 -1.03712e-06 1.04519e-06 -1.55554e-06 6.21667e-07 2.83771e-06 6.65605e-06 
-1.16805e-06 6.03337e-07 -2.19527e-06 6.69661e-06 -9.69061e-06 6.83608e-07 4.51974e-06 -1.22895e-07 2.91386e-06 
-5.27361e-06 -2.36015e-06 2.27641e-06 -7.91964e-06 2.13102e-06 -3.66687e-06 -1.43084e-06 9.98347e-06 1.02505e-05 
-1.22161e-06 -2.00174e-06 -1.47141e-06 1.87131e-06 2.14762e-06 2.88185e-06 -2.82943e-06 4.01317e-06 -9.84752e-06 
5.59032e-06 6.47025e-06 4.68491e-08 1.99105e-06 2.7949e-06 -5.71821e-06 -8.90723e-07 -1.43177e-05 -7.93736e-06 
1.62256e-05 3.17319e-06 1.23681e-06 -1.07333e-05 -4.57554e-06 3.4677e-07 7.13421e-06 1.6362e-06 -1.26299e-06 
9.89301e-07 5.77578e-06 9.36144e-07 -1.5571e-06 -2.56898e-06 -8.83329e-07 -1.13716e-05 -1.71755e-05 2.37552e-06 
-2.96862e-07 -4.8973e-07 4.37666e-06 -3.46005e-07 2.5981e-06 2.43149e-06 4.20882e-07 -5.06344e-06 8.0104e-06 
-1.13127e-06 1.97942e-06 -7.23774e-06 3.87149e-06 2.6294e-06 1.51944e-05 5.60452e-06 3.40368e-06 3.00839e-06 
1.25605e-06 -3.76768e-06 -1.2819e-05 2.1267e-06 -2.61081e-06 9.17219e-07 3.42431e-07 8.31923e-06 -1.04693e-06 
5.94669e-06 8.01222e-06 2.42143e-06 -5.86997e-06 -7.11906e-07 6.81312e-06 1.03612e-05 -1.45569e-05 5.88524e-07 
4.68493e-06 -1.2836e-05 -1.26002e-05 3.57197e-06 -1.14562e-05 2.85969e-07 -6.57069e-06 -2.15084e-06 6.12406e-06 
-3.5087e-06 -1.13214e-05 -3.26235e-06 -1.11186e-06 -4.36302e-07 4.51497e-06 -1.34145e-05 1.07173e-06 -9.4736e-06 
2.12032e-07 2.32602e-05 -1.30817e-05 -4.83703e-06 3.59658e-06 -4.50722e-06 -1.4388e-05 -3.31999e-06 -6.42689e-06 
-1.48257e-05 -3.47604e-07 -5.60656e-06 1.75844e-05 3.31049e-06 1.82549e-06 2.41383e-05 -4.41804e-06 1.68766e-05 
6.91528e-06 6.41203e-06 -4.72266e-06 1.00623e-06 4.88581e-06 2.42122e-06 -1.87368e-05 -1.20312e-06 1.24147e-05 
1.40115e-06 6.34833e-06 -9.33752e-06 -4.99605e-06 -1.53606e-06 -4.5839e-06 -9.61552e-06 -7.636e-06 -6.32718e-06 
1.24522e-05 3.74733e-06 2.51453e-06 -4.0963e-06 -1.20502e-05 -6.26481e-06 -5.5849e-06 1.68033e-05 -3.65265e-06 
1.46239e-07 -1.07172e-05 6.73386e-06 1.25035e-07 2.78946e-06 -3.03669e-06 8.0714e-06 1.03517e-06 4.85138e-06 
-1.49877e-05 4.42101e-06 4.56817e-07 1.60018e-06 2.90398e-06 -7.98666e-06 -8.32488e-06 1.96686e-05 6.77749e-06 
8.99278e-06 -1.72061e-05 -1.06201e-05 3.0842e-06 2.45661e-06 1.07784e-05 -1.41582e-05 8.68675e-06 2.42015e-06 
1.67591e-05 4.50586e-06 -9.136e-06 6.28549e-06 1.05438e-06 -4.15024e-06 -2.18444e-06 1.51938e-05 -4.0376e-06 
5.1055e-06 1.17454e-05 1.17684e-05 2.0829e-06 -4.7072e-06 4.41974e-06 -4.5777e-05 3.17462e-05 8.28771e-06 
-1.82251e-05 -0.000135688 4.53885e-05 3.17646e-05 4.30248e-06 4.32137e-05 2.42334e-05 3.72962e-05 -2.91383e-05 
-4.46163e-06 1.55464e-06 -4.47402e-06 1.16998e-05 -1.37935e-05 -5.18652e-06 1.21217e-05 -1.36265e-05 -2.48113e-05 
-1.51126e-06 -9.32546e-06 -3.03903e-06 1.01655e-05 5.83237e-06 6.29763e-07 2.57528e-06 -1.27762e-05 -1.08634e-06 
1.15817e-05 -1.4693e-05 -1.27355e-05 1.45584e-05 -3.53945e-06 -4.99967e-06 -2.50929e-06 1.3105e-05 -8.51435e-06 
-1.90782e-05 2.47162e-06 9.27455e-06 6.36902e-06 6.62362e-06 -1.91668e-06 5.19269e-06 5.87965e-06 5.30671e-06 
-1.19588e-05 8.56424e-06 6.51886e-06 3.80917e-06 -1.03465e-05 2.55993e-05 1.31464e-05 -2.96742e-07 -1.62071e-05 
-1.43634e-06 3.95866e-05 -6.28316e-05 2.49669e-06 9.81837e-06 1.69427e-05 -9.82141e-06 8.35481e-06 6.76487e-06 
3.32048e-06 9.61594e-06 1.23095e-05 -9.08679e-06 2.70004e-06 1.11643e-06 2.31135e-05 -1.08227e-05 -1.06212e-05 
7.17905e-05 2.34183e-05 -4.39441e-06 -1.57312e-05 1.33777e-06 -6.46181e-06 1.28239e-05 -5.83284e-06 -1.40287e-05 
3.62348e-06 -2.74743e-06 1.77733e-05 -0.000128979 8.40203e-05 3.03872e-05 5.83713e-07 -7.08109e-06 8.27753e-06 
7.27384e-06 1.35403e-05 -3.36021e-05 -5.04607e-05 5.49964e-05 -4.43715e-05 -1.53667e-05 -6.82284e-06 1.32467e-05 
-8.84737e-05 0.000106949 8.434e-06 -5.91733e-05 -0.0001061 -5.82122e-05 -9.71438e-07 6.81728e-05 1.08448e-05 
-1.24133e-05 3.09146e-05 1.31737e-05 -5.84499e-05 -2.97747e-06 2.24121e-05 -7.36449e-06 2.15724e-05 -2.88684e-05 
1.36209e-05 2.85189e-05 -5.22489e-05 -9.15224e-05 -6.44296e-05 6.41779e-05 -3.30523e-06 7.28743e-07 1.48947e-05 
-2.8827e-06 -1.71377e-05 -1.07312e-05 7.26927e-06 -1.04292e-05 -2.00447e-05 -1.0871e-05 5.45151e-06 -1.37876e-05 
0.000153533 0.000183416 8.42617e-05 0.000107464 6.53465e-05 -1.48719e-05 -4.82864e-05 -7.65665e-06 -8.78106e-07 
-4.02569e-06 1.84268e-05 7.30743e-05 2.98657e-05 0.000132525 1.89055e-06 3.83272e-05 -2.30297e-05 1.6534e-05 
-6.45596e-05 -3.0544e-05 -2.16001e-05 -9.56229e-07 -0.000133454 6.55187e-05 -0.00011045 -7.45051e-05 8.91274e-05 
-1.66789e-05 6.10736e-05 5.06832e-05 -0.000396578 -0.000228861 -5.43642e-07 0.000118452 -0.000143879 -2.35863e-05 
-8.10996e-05 -0.000262737 -1.80976e-05 0 0 0 0 0 0 
0 0 0 0 0 0 0 0 0 
0 0 0 0 0 0 0 0 0 
0 0 0 0 0 0 0 0 0 

