# vtk DataFile Version 4.0
Generated by LIGGGHTS
ASCII
DATASET POLYDATA
POINTS 52 float
-421.896 -459.026 99.8578 -330.405 -428.263 274.936 -221.657 -445.057 99.9776 
-154.582 -337.176 304.65 -17.9168 -461.872 199.045 158.818 -363.085 99.9898 
231.146 -493.816 233.57 379.675 -482.98 100.255 427.422 -392.604 272.351 
-357.072 -196.661 99.9794 -66.5155 -288.772 108.764 80.2344 -150.419 99.9795 
276.563 -200.411 100.005 461.73 -296.435 99.94 434.715 -142.889 225.144 
-391.158 4.39944 99.9794 -201.835 -68.3183 100.091 45.4161 48.0038 99.2197 
-73.0186 21.3017 256.586 193.111 4.82959 237.978 468.545 50.1582 264.862 
-303.759 156.389 227.344 -152.314 126.241 100.153 12.2886 245.338 99.9976 
235.536 145.321 102.128 444.621 160.739 99.97 346.916 210.523 275.502 
-408.052 296.105 99.9686 -210.597 329.35 99.9788 110.37 419.583 99.9054 
292.931 336.894 99.972 453.81 375.511 220.687 -277.339 -299.761 478.28 
-233.926 -144.997 299.951 115.148 -148.092 348.172 -471.021 101.938 448.326 
199.318 335.141 332.442 -86.0164 37.4954 454.751 50.1325 -120.596 533.556 
3.42789 393.593 2085.58 174.324 -379.601 1222.86 174.452 323.358 1344.89 
201.607 -180.051 1586.22 -370.492 169.47 1582.33 -294.104 385.387 1577.22 
-94.0644 321.798 1585.2 -147.449 -365.817 1859.21 -58.9037 -37.8148 1730.99 
144.866 -322.011 2055.54 -393.386 -171.032 2067.09 -233.907 -114.18 1938.69 
299.367 187.399 2095.3 
VERTICES 52 104
1 0 
1 1 
1 2 
1 3 
1 4 
1 5 
1 6 
1 7 
1 8 
1 9 
1 10 
1 11 
1 12 
1 13 
1 14 
1 15 
1 16 
1 17 
1 18 
1 19 
1 20 
1 21 
1 22 
1 23 
1 24 
1 25 
1 26 
1 27 
1 28 
1 29 
1 30 
1 31 
1 32 
1 33 
1 34 
1 35 
1 36 
1 37 
1 38 
1 39 
1 40 
1 41 
1 42 
1 43 
1 44 
1 45 
1 46 
1 47 
1 48 
1 49 
1 50 
1 51 

POINT_DATA 52
FIELD FieldData 7
id 1 52 int
4 32 7 27 18 9 22 6 20 
19 1 10 11 15 26 3 14 16 
23 29 21 33 24 13 2 12 39 
17 28 8 5 25 36 30 34 35 
31 37 38 48 41 45 40 42 44 
46 51 43 50 52 47 49 
type 1 52 int
1 1 1 1 1 1 1 1 1 
1 1 1 1 1 1 1 1 1 
1 1 1 1 1 1 1 1 1 
1 1 1 1 1 1 1 1 1 
1 1 1 1 1 1 1 1 1 
1 1 1 1 1 1 1 
i 3 52 int
1 1 0 0 0 0 0 1 0 
0 0 0 0 0 0 -1 0 0 
0 1 0 0 0 0 0 0 0 
0 0 0 0 0 0 0 0 0 
-1 0 0 -1 0 0 -1 0 0 
0 0 0 0 0 0 0 0 0 
0 0 0 0 0 0 0 -1 0 
0 0 0 1 0 0 0 0 0 
0 0 0 -1 0 0 0 0 0 
0 -1 0 0 0 0 0 -1 0 
0 0 0 0 0 0 0 0 0 
0 0 0 0 0 0 0 0 0 
0 0 0 0 0 0 0 0 0 
0 0 0 0 0 0 0 0 0 
0 0 0 0 0 0 0 0 0 
0 0 0 0 0 0 0 0 0 
0 0 0 0 0 0 0 0 0 
0 0 0 
v 3 52 double
-0.000450443 6.03036e-05 0.00281966 0.00139624 -0.0076785 0.00459043 0.00635026 -0.00354012 -3.26839e-05 
-0.00696831 -0.0161417 0.0248725 0.00542956 -0.00937053 -0.00222254 0.00140616 -0.00862926 -0.000186881 
0.00257388 -0.00522994 0.00420091 -0.000773249 -0.00385436 0.00130119 0.00167912 -0.00340772 0.000132763 
-0.00542906 0.00582533 -2.39835e-08 0.00542378 -0.00213062 0.00170358 0.00554194 0.00344385 4.14406e-07 
0.00348864 -0.00576024 -0.00128826 -0.0048607 -0.00217277 0.000221992 -0.00357794 -0.00304759 0.0014225 
0.00614142 -0.00866833 3.26344e-10 0.00135408 0.000346217 -0.000762684 0.0129586 -0.00566193 -0.0395504 
-0.00746481 -0.0252077 -0.0623312 -0.00053435 -0.00538798 -0.00205098 -0.0105872 -0.00171515 0.000971422 
-0.00220119 0.00540831 -0.0209917 0.0172927 -0.00227574 0.00102818 0.00865837 -0.00288914 4.36327e-05 
0.00301663 -0.00490858 -0.000948811 -0.00182881 -0.00131607 -1.49328e-05 -0.0180861 -0.00523728 -0.0162637 
0.00156817 -0.00785958 -0.000900739 0.0012437 -0.00434759 1.04645e-06 0.00375501 -0.000504362 0.00138024 
0.00350751 -0.00697007 -0.000185117 0.000120165 -0.00862817 -0.00529971 -0.0717221 0.0043053 0.00689238 
-0.0120814 -0.0148959 -0.00250885 0.0235362 -0.00518274 -0.0795156 -0.0301206 -0.00359813 0.00797265 
-0.0113735 -0.00503404 -0.0012342 -0.0218484 0.000593552 -0.032687 -0.0290997 0.0255161 -0.0596648 
-0 -0 -0.02 0 0 -0.12509 0 0 -0.115123 
0 0 -0.0922948 0 0 -0.0927068 0 0 -0.0932464 
0 0 -0.0924027 0 0 -0.0562332 0 0 -0.0753529 
-0 -0 -0.02 -0 -0 -0.02 0 0 -0.0400369 
-0 -0 -0.02 
f 3 52 double
349.677 33.225 112.243 170.213 15.9101 186.259 -60.6887 7.77148 19.6384 
0 0 -102.73 0 0 -102.73 20.8482 24.2129 -38.8267 
-235.248 239.906 819.729 510.74 138.782 142.21 0 0 -102.73 
2.86702e-06 -3.07629e-06 0.0167816 0 0 -102.73 -45.435 -22.9039 -0.967094 
0 0 -102.73 79.264 -88.3077 264.758 -85.5876 95.2328 -16.6353 
4.3042e-08 -6.07488e-08 0.000272036 0 0 -102.73 -704.954 -98.6232 8667.12 
-10510.3 -2951.6 26354 -7.68304 -21.3211 -96.0816 5.02135 46.6828 -24.2016 
0 0 -102.73 0 0 -102.73 -144.447 -250.7 41.7598 
152.721 -151.222 203.68 -3.69107 17.217 -13.1916 0 0 -102.73 
277.746 -896.739 -357.426 -0.00466166 -0.00103998 4.25718 -803.5 -95.4175 -195.791 
-380.582 -5.19626 -308.063 -503.316 916.94 524.92 0 0 -102.73 
0 0 -102.73 15169.4 -3053.28 -36448 18.4489 15.0479 -47.8494 
0 0 -102.73 -3824.34 -391.981 6726.07 -15169.4 3053.28 36242.6 
0 0 0 0 0 -102.73 0 0 -102.73 
0 0 -102.73 0 0 -102.73 0 0 -102.73 
0 0 -102.73 0 0 -102.73 0 0 -102.73 
0 0 0 0 0 0 0 0 -102.73 
0 0 0 
radius 1 52 double
100 100 100 100 100 100 100 100 100 
100 100 100 100 100 100 100 100 100 
100 100 100 100 100 100 100 100 100 
100 100 100 100 100 100 100 100 100 
100 100 100 100 100 100 100 100 100 
100 100 100 100 100 100 100 
omega 3 52 double
-1.19414e-06 -2.31559e-06 5.29974e-05 0.000117512 2.86603e-05 4.58244e-06 3.24311e-05 4.02849e-05 -0.000141449 
0.000112192 -0.000402442 -4.75171e-05 -0.000290083 5.13059e-05 4.18494e-05 1.64029e-05 7.42437e-05 9.57637e-05 
7.53768e-05 -2.89786e-05 -8.62408e-05 4.49707e-05 5.45089e-05 4.54312e-06 -3.02449e-05 -7.29731e-05 -1.09202e-06 
-5.82593e-05 -5.42962e-05 4.53238e-05 0.000145857 0.000220018 -7.99525e-05 -1.76553e-05 2.21247e-05 8.50735e-05 
0.000121163 -2.00133e-05 -9.78307e-05 1.80215e-05 -5.23377e-05 -1.35623e-05 -8.26883e-06 8.47019e-05 2.45495e-05 
8.66922e-05 6.14205e-05 -3.66999e-05 -3.48545e-06 1.35322e-05 -0.000127014 5.09223e-05 0.000149844 8.70833e-05 
4.98482e-05 -0.000480854 0.000142291 7.34695e-05 -5.28421e-05 -2.33951e-05 -2.08668e-06 -0.00011785 4.11866e-05 
0.000159303 -0.000670382 -0.000212146 1.99466e-05 0.000183281 1.54006e-05 -2.97536e-05 8.37249e-05 -4.94715e-05 
-5.56282e-05 2.42462e-05 -1.71012e-06 1.32779e-05 -1.82937e-05 3.48931e-06 0.000138927 -5.54788e-05 9.01306e-06 
7.72831e-05 8.47165e-06 -2.38011e-05 4.34809e-05 1.24369e-05 6.57459e-05 5.52556e-06 3.71983e-05 0.000101607 
4.52619e-05 5.51363e-05 1.47169e-05 -6.46956e-05 -6.83148e-05 -0.00012657 -0.000328551 -2.01024e-05 -0.000123936 
0.00017366 -0.000137298 2.52351e-05 -0.000439901 -0.000287227 0.000113076 9.19259e-05 -3.608e-05 0.000168308 
-0.000121263 0.000145902 -0.000125646 -0.000265431 0.000315925 -4.20715e-05 0.000214397 -0.000224076 0.000106969 
0 0 0 0 0 0 0 0 0 
0 0 0 0 0 0 0 0 0 
0 0 0 0 0 0 0 0 0 
0 0 0 0 0 0 0 0 0 
0 0 0 
