# vtk DataFile Version 4.0
Generated by LIGGGHTS
ASCII
DATASET POLYDATA
POINTS 85 float
-422.509 -384.953 276.185 -497.69 -327.551 99.9803 -228.678 -446.1 100.036 
-72.4419 -321.374 99.9336 42.0628 -316.836 264.475 105.625 -412.247 99.8991 
295.085 -308.412 99.9685 383.41 -488.418 99.979 -352.077 -145.571 99.9734 
-246.672 -277.871 206.664 -152.25 -137.574 99.9493 95.5505 -211.893 99.9794 
-5.21998 -106.302 238.864 215.123 -216.705 260.266 265.022 -101.536 100.359 
399.449 -293.611 269.866 454.665 -140.194 150.975 -451.208 28.7351 99.9334 
-427.231 -31.2291 289.142 -234.657 -83.3731 273.909 -99.6583 55.3236 99.994 
92.8242 1.02261 99.9654 25.0958 90.2277 268.312 196.66 -17.8299 269.802 
375.786 37.8009 200.521 -443.24 167.005 260.552 -281.337 119.991 152.92 
-152.294 263.428 99.9804 -270.997 270.411 284.33 41.9527 196.778 99.9403 
-42.3375 279.464 266.268 236.644 140.589 99.9848 166.339 262.56 242.029 
441.663 197.645 99.9504 358.07 221.137 280.983 -417.822 489.19 99.9396 
-350.55 300.17 99.9793 -285.146 469.681 274.581 -71.7295 455.052 174.808 
227.124 489.782 224.729 101.303 387.743 99.9426 293.579 332.805 100.422 
494.699 351.777 215.841 -433.911 -502.425 441.72 -130.897 -407.435 307.798 
-284.151 -317.276 403.719 27.0643 -401.431 445.121 231.018 -380.923 377.212 
409.891 -490.449 305.001 410.753 -330.32 466.502 -450.774 -211.006 373.426 
-324.105 -104.579 486.605 -113.906 -216.772 365.751 98.1443 -145.726 406.859 
272.18 -188.88 495.816 364.737 -108.512 337.481 41.172 40.5041 461.683 
435.133 72.4223 390.622 -365.287 192.237 442.95 -168.723 101.11 317.108 
75.3712 244.577 426.756 234.184 124.773 404.895 59.0256 441.4 325.515 
254.135 372.438 384.293 -175.36 -451.693 504.134 -299.41 -277.025 599.831 
-53.5589 -133.356 537.243 392.436 -158.22 652.936 -171.452 24.2771 501.981 
-0.210398 161.385 620.634 295.041 292.855 563.086 403.818 126.083 599.609 
251.071 121.118 734.358 134.796 -152.747 877.546 367.98 291.282 954.218 
131.205 -383.589 1178.48 -134.717 -79.1229 1058.42 23.2477 -94.3882 1795.1 
28.9792 277.479 1730.39 -69.4558 -376.402 1995.52 156.309 -161.729 2041.68 
-276.364 -81.2532 1997.54 -344.163 189.076 2022.22 -84.1253 223.152 2099.11 
155.078 144.375 2086.94 
VERTICES 85 170
1 0 
1 1 
1 2 
1 3 
1 4 
1 5 
1 6 
1 7 
1 8 
1 9 
1 10 
1 11 
1 12 
1 13 
1 14 
1 15 
1 16 
1 17 
1 18 
1 19 
1 20 
1 21 
1 22 
1 23 
1 24 
1 25 
1 26 
1 27 
1 28 
1 29 
1 30 
1 31 
1 32 
1 33 
1 34 
1 35 
1 36 
1 37 
1 38 
1 39 
1 40 
1 41 
1 42 
1 43 
1 44 
1 45 
1 46 
1 47 
1 48 
1 49 
1 50 
1 51 
1 52 
1 53 
1 54 
1 55 
1 56 
1 57 
1 58 
1 59 
1 60 
1 61 
1 62 
1 63 
1 64 
1 65 
1 66 
1 67 
1 68 
1 69 
1 70 
1 71 
1 72 
1 73 
1 74 
1 75 
1 76 
1 77 
1 78 
1 79 
1 80 
1 81 
1 82 
1 83 
1 84 

POINT_DATA 85
FIELD FieldData 7
id 1 85 int
32 15 7 1 34 9 11 6 19 
30 14 10 38 36 29 20 26 3 
23 47 24 16 43 35 21 37 33 
28 44 13 46 2 31 12 39 4 
17 27 18 22 8 5 25 63 51 
65 58 41 45 62 52 53 40 50 
67 56 55 49 57 42 64 61 48 
59 71 70 54 72 60 68 69 66 
74 73 78 77 76 85 75 82 81 
79 84 80 83 
type 1 85 int
1 1 1 1 1 1 1 1 1 
1 1 1 1 1 1 1 1 1 
1 1 1 1 1 1 1 1 1 
1 1 1 1 1 1 1 1 1 
1 1 1 1 1 1 1 1 1 
1 1 1 1 1 1 1 1 1 
1 1 1 1 1 1 1 1 1 
1 1 1 1 1 1 1 1 1 
1 1 1 1 1 1 1 1 1 
1 1 1 1 
i 3 85 int
0 0 0 0 0 0 0 1 0 
0 0 0 0 0 0 -1 0 0 
-1 0 0 0 0 0 0 0 0 
0 0 0 0 0 0 0 0 0 
0 0 0 -1 0 0 0 0 0 
0 0 0 -1 0 0 0 0 0 
0 0 0 0 0 0 1 0 0 
0 0 0 0 0 0 -1 0 0 
0 -1 0 0 0 0 0 0 0 
0 0 0 0 0 0 0 0 0 
0 0 0 0 0 0 0 0 0 
-1 0 0 0 0 0 1 0 0 
0 -1 0 0 -1 0 0 -1 0 
0 0 0 0 -1 0 0 0 0 
0 0 0 0 1 0 0 0 0 
0 0 0 0 0 0 0 0 0 
0 1 0 0 0 0 0 0 0 
0 0 0 0 0 0 0 0 0 
0 0 0 0 0 0 0 0 0 
0 0 0 1 0 0 0 0 0 
0 0 0 0 0 0 0 0 0 
0 0 0 0 1 0 0 0 0 
0 0 0 0 0 0 0 0 0 
0 0 0 0 0 0 -1 0 0 
0 0 0 0 0 0 0 0 0 
0 0 0 0 0 0 0 0 0 
0 0 0 0 0 0 0 0 0 
0 0 0 0 0 0 0 0 0 
0 0 0 
v 3 85 double
-0.00517822 -0.00255646 0.00183229 0.000370165 0.000669581 0.000212597 -0.000241207 3.03721e-05 -0.000375301 
-0.00149119 0.00198352 0.000150756 -0.0021651 -0.00199724 -0.000278175 -0.00200756 0.000657447 0.00148291 
-0.00436474 0.000667242 -0.000837662 -0.00126668 0.00166927 -5.50705e-05 0.000895693 0.000745959 -9.59971e-05 
-0.000228826 -0.000323062 0.000263881 -5.28833e-05 -0.000854459 -0.000123019 -0.00113437 -4.30194e-06 -7.43344e-07 
0.00277317 -0.00415501 0.00337942 -0.00373637 0.000334276 0.00089 0.00158002 -0.00368866 -0.00113858 
-0.00427736 -0.00219912 -0.00226542 0.000678056 4.3839e-05 0.000659906 6.65412e-05 0.000200118 -0.000617959 
-0.00161908 -0.00215743 -0.0017121 -0.00205016 -0.00273152 -0.00015775 -0.000365398 -0.00114484 0.00028857 
-0.000226565 -0.000420301 -0.000326013 0.00372064 -0.00093156 -0.000172312 -0.000545295 0.000959859 -0.000485304 
-0.00134883 0.000599625 -0.000761319 -0.000275885 -0.000314918 -0.000423641 0.000148409 -0.000293004 0.000521244 
-0.00257922 -0.00209643 0.000104945 0.00112425 -0.00180109 0.00230549 -0.000162755 -0.000948568 4.66883e-05 
-0.00424485 -0.00429902 0.00173612 0.000492642 -0.000288925 1.65809e-05 0.00168246 -0.000616098 -0.00149072 
-0.000513302 0.000628712 -2.31211e-05 0.00117565 -0.00152298 -0.00044809 -0.000416744 7.15001e-05 -6.62125e-05 
-0.000880757 -0.00088482 -1.59984e-05 -0.00360066 -0.00175257 0.000191063 -0.00504772 -0.00629666 0.000414695 
0.00293848 -0.00309233 -0.00468501 -0.00238817 6.56567e-05 -0.000204608 -0.00228198 0.00182013 -0.00149216 
-2.19631e-05 -0.000109695 0.000296698 0.0038803 -0.0199274 0.000240307 -0.00211437 -0.00272161 -0.00198882 
-0.00364176 -0.00132227 0.000330551 -0.00721506 -0.00291968 -0.00159219 0.00412026 -0.00219055 -0.00449219 
-0.00756295 -0.00122543 -0.00338761 0.00433396 -0.0136093 -0.00440422 -0.00387072 -0.00240679 -0.00359711 
-0.00111687 -0.00114111 -0.00485837 0.00143972 -0.0040177 0.00240455 -6.60436e-05 -0.00759483 0.0049715 
0.00436368 -0.0172287 -0.0042454 -0.000999216 -0.000507948 -0.000799114 -0.00337696 -0.00339483 0.000167795 
-0.000866668 -0.0010163 -0.00055453 0.00230793 -0.00313767 -0.00102672 0.00296334 -0.00287847 -0.00233153 
-0.000921457 0.000561407 -0.0034939 -0.000328101 0.00110716 0.000262065 -0.00524304 -0.00235612 0.000651543 
-0.00936723 0.0046838 0.00314163 0.00267371 0.00556761 0.00295351 -0.00781997 0.0231705 -0.00125054 
-0.00125832 -0.0041615 0.00398283 0.0406299 1.54863e-05 -0.0339816 0.00165472 -0.00281123 -0.00148728 
0.0188626 0.0310051 -0.0154553 0.00276908 0.0152178 0.00418657 -0.0110759 0.00169639 0.00724813 
0 0 -0.158846 0 0 -0.149742 0 0 -0.144631 
0 0 -0.128523 0 0 -0.137382 0 0 -0.0664847 
0 0 -0.0754314 0 0 -0.0220846 -0 -0 -0.02 
0 0 -0.0211723 -0 -0 -0.02 -0 -0 -0.02 
-0 -0 -0.02 
f 3 85 double
-40.3653 -59.7578 -121.959 -145.101 77.7628 10.6262 47.8312 -79.0241 108.954 
74.9689 232.278 57.585 -73.8259 -5.13306 -107.373 198.231 97.852 48.4913 
-0.737316 246.28 -331.625 57.7865 -3.20187 13.0202 -27.2778 -9.88742 -91.5198 
-52.6971 -111.72 -51.1202 135.347 63.8115 22.4811 5.37781e-06 -1.37859e-05 -0.279211 
0 0 -102.73 -130.086 -203.596 27.2758 0 0 -102.73 
3.64727 -188.273 369.568 -294.502 439.197 87.9285 98.4991 1.66498 88.6035 
-54.7804 140.011 207.981 2.46561 20.3224 -41.981 100.368 354.958 31.9437 
-184.141 180.772 -1.16246 -103.006 -53.2835 119.753 -124.967 -73.395 79.0631 
347.198 122.66 -148.122 -5.44874 -57.1327 13.2323 -46.8946 152.679 -138.455 
6.45608 9.36644 -18.0872 0 0 -102.73 45.2929 -15.1837 78.1386 
-11.589 -6.21167 -111.426 9.96536 -65.633 -211.843 4.96999 69.3903 146.731 
1.97711 -57.0584 -16.909 -91.9401 -86.301 35.1003 -3.72323 -91.1631 -19.98 
0.000718443 0.000176691 3.30505 -4.18843 0.945149 -102.572 56.4873 16.9343 -116.69 
365.966 -137.43 22.4404 101.091 80.5485 368.697 152.78 -77.8612 -24.7743 
-54.4307 -182.656 -41.371 0 0 -102.73 3.49736 17.1075 -105.661 
278.103 -109.112 -80.5006 0 0 -102.73 37.1354 38.4819 9.37867 
0 0 -102.73 0 0 -102.73 65.4627 -51.0891 27.6562 
0 0 -102.73 0.691066 -18.0527 -99.9574 0 0 -102.73 
0 0 -102.73 0 0 -102.73 0 0 -102.73 
-34.0506 42.6651 -24.8004 155.769 -7.32 67.5396 22.9911 -36.2856 -38.3794 
0 0 -102.73 -85.2606 -99.0356 -93.1101 19.0505 -21.7396 -59.7889 
135.576 -202.48 38.6001 59.8238 -54.0681 16.5927 0 0 -102.73 
50.488 -42.9369 -118.224 0 0 -102.73 -50.488 42.9369 -87.2366 
0 0 -102.73 84.0467 -235.758 360.011 0 0 -102.73 
0 0 -102.73 0 0 -102.73 0 0 -102.73 
0 0 -102.73 0 0 -102.73 0 0 -102.73 
0 0 -102.73 0 0 -102.73 0 0 0 
0 0 -102.73 0 0 0 0 0 0 
0 0 0 
radius 1 85 double
100 100 100 100 100 100 100 100 100 
100 100 100 100 100 100 100 100 100 
100 100 100 100 100 100 100 100 100 
100 100 100 100 100 100 100 100 100 
100 100 100 100 100 100 100 100 100 
100 100 100 100 100 100 100 100 100 
100 100 100 100 100 100 100 100 100 
100 100 100 100 100 100 100 100 100 
100 100 100 100 100 100 100 100 100 
100 100 100 100 
omega 3 85 double
7.62712e-05 -4.81059e-05 -4.39374e-05 4.31971e-06 1.40681e-05 -7.23295e-06 5.20749e-07 2.0006e-07 8.05424e-06 
3.28414e-06 -3.01204e-06 1.63248e-05 4.79708e-05 -1.30887e-06 6.0009e-05 -8.75806e-06 -2.16178e-05 -3.3321e-05 
-9.29504e-06 -3.90619e-05 -4.94385e-05 -1.59532e-05 7.25659e-07 -4.04011e-06 -8.55865e-06 6.05657e-06 -1.1689e-05 
-7.65273e-07 -1.40704e-06 -1.15509e-05 5.62502e-06 5.80865e-08 1.3444e-05 4.30234e-08 -1.13449e-05 -2.66412e-05 
1.77718e-06 8.39538e-05 4.02428e-05 -1.17413e-05 8.37446e-06 -3.31525e-05 6.42436e-06 -1.24013e-05 -1.65891e-06 
2.96084e-05 2.31975e-05 1.32964e-05 -3.47441e-06 8.00595e-06 1.74721e-05 -1.674e-06 -8.42421e-07 1.71536e-05 
3.24505e-05 -1.0121e-05 -1.78176e-05 1.39868e-05 -1.3924e-05 -1.02093e-05 6.73817e-06 -6.58364e-06 -1.47503e-05 
3.94807e-06 -2.10846e-06 2.59195e-05 -4.41395e-05 -1.89742e-05 2.38791e-05 -5.85524e-06 6.10865e-06 -3.68208e-06 
-7.91116e-07 2.65988e-06 3.86376e-06 5.86677e-06 1.41027e-05 -1.20936e-05 2.40388e-05 7.41061e-07 -1.55754e-05 
2.09877e-05 -2.61565e-05 -2.76501e-05 -4.90657e-06 -2.87254e-05 -1.19928e-05 1.21066e-05 -3.30898e-06 2.46954e-05 
-2.26986e-05 -1.90433e-06 -1.82667e-05 2.06352e-06 4.5659e-06 4.84974e-05 -1.92471e-05 2.82025e-05 -2.67169e-05 
-5.79341e-06 -5.65822e-06 -4.54374e-06 -1.93559e-05 -2.79194e-05 1.59116e-05 -5.04485e-06 -1.11424e-06 -7.21062e-06 
8.84912e-06 -8.80848e-06 2.46388e-06 -1.55549e-05 1.07437e-05 5.83534e-05 8.11518e-05 -6.50528e-05 -2.72312e-05 
5.07473e-05 0.000106032 1.9162e-05 4.74763e-06 -4.38904e-06 2.55644e-05 2.69331e-05 -1.87602e-05 -1.22867e-05 
6.57868e-06 5.98031e-06 1.10349e-05 -3.45381e-05 0.000142848 4.77741e-05 2.59037e-05 2.61789e-05 -7.07219e-05 
-0.000146584 4.45308e-05 -1.32101e-06 -5.72648e-06 2.60362e-05 1.5791e-05 -1.54544e-05 6.02247e-06 4.60108e-05 
-4.47423e-05 -3.6503e-06 3.98099e-05 9.22671e-05 6.49969e-05 1.95647e-06 -1.47671e-05 9.47498e-06 -1.24397e-05 
3.27004e-05 9.36441e-06 2.23487e-05 3.99731e-05 -0.000125467 -4.63996e-06 6.25542e-05 -5.81198e-05 -0.00010222 
0.000108011 0.000131632 8.36235e-05 -9.68001e-06 -9.08512e-06 -1.98611e-05 8.08398e-05 -6.84649e-05 3.27136e-05 
3.14338e-05 -1.8061e-05 -3.91237e-05 -1.0204e-05 6.2166e-06 -7.11442e-05 1.97003e-05 2.40657e-05 2.00359e-05 
3.61423e-05 1.34095e-07 3.57706e-06 -1.57612e-05 -1.95162e-06 -1.36325e-05 -5.12996e-06 -1.09083e-05 3.19169e-05 
-0.000148058 -0.000266716 -1.36181e-05 -1.75077e-06 -0.000141714 0.00013174 2.5055e-05 -0.000102724 1.30466e-05 
-2.86381e-05 0.000104993 5.16747e-05 -0.00016117 0.000173934 4.73439e-05 -1.79689e-05 -3.55385e-05 -6.52868e-05 
-0.00049501 0.000378404 9.84928e-05 2.34809e-05 0.000424864 -2.70344e-05 -0.000336573 -0.000458535 -0.000234932 
0 0 0 0 0 0 0 0 0 
0 0 0 0 0 0 0 0 0 
0 0 0 0 0 0 0 0 0 
0 0 0 0 0 0 0 0 0 
0 0 0 
