# vtk DataFile Version 4.0
Generated by LIGGGHTS
ASCII
DATASET POLYDATA
POINTS 167 float
-414.949 -404.786 272.414 -485.702 -332.776 99.8761 -236.79 -433.434 99.8795 
-135.512 -423.545 281.825 -67.7705 -326.819 99.9094 40.6286 -329.885 267.832 
113.965 -410.028 99.9262 288.26 -312.075 99.8841 386.316 -486.334 99.9356 
400.138 -324.207 265.099 -342.5 -138.193 99.955 -241.556 -268.633 212.913 
-138.5 -139.87 99.9085 94.5422 -210.134 99.9618 0.363407 -100.817 238.423 
219.055 -239.759 272.935 269.28 -113.04 99.921 461.375 -145.365 144.594 
-452.002 29.0688 99.8524 -436.567 -45.7394 284.658 -239.728 -61.5788 253.452 
-88.3387 53.6169 99.9077 104.074 -0.483172 99.9796 201.478 -40.6578 273.543 
373.681 26.8865 197.695 -448.269 152.009 257.498 -340.616 294.771 99.9566 
-274.899 110.961 142.957 -142.109 254.139 99.9562 -276.028 249.005 287.543 
-136.156 106.174 286.784 63.4286 103.867 276.301 50.9297 197.06 99.904 
-27.3391 287.042 260.4 243.389 142.859 99.96 171.397 268.769 242.58 
436.392 194.921 99.8839 359.831 215.651 283.392 -416.729 479.598 99.9087 
-498.724 341.649 219.089 -284.232 445.434 251.623 -86.752 441.51 142.537 
43.6468 471.51 291.154 230.79 482.679 221.541 101.767 390.376 99.9251 
294.292 336.191 99.9621 -489.018 -413.897 457.904 -281.17 -327.94 399.656 
-29.0011 -385.057 446.969 187.371 -404.892 381.034 -452.386 -229.695 361.407 
-304.014 -117.36 434.372 -106.32 -224.765 353.517 90.0699 -224.708 430.533 
243.13 -102.411 470.511 329.99 -281.419 447.42 377.891 -130.265 325.557 
-310.028 75.5061 380.889 -135.091 -11.4413 448.406 63.1754 -26.5564 427.854 
425.825 55.4193 388.615 -455.24 203.729 450.538 -108.844 202.057 460.103 
-282.313 299.314 480.939 83.2625 240.913 420.502 234.199 111.55 398.982 
-422.913 409.565 391.129 -280.15 498.625 499.157 -139.906 399.027 381.951 
28.3615 427.419 486.127 206.444 397.079 400.505 388.704 328.628 445.812 
404.344 483.859 320.827 -336.868 -396.062 681.232 -178.733 -338.488 571.05 
-27.7777 -452.534 635.851 154.354 -393.936 577.869 327.595 -480.376 501.998 
432.236 -321.012 616.495 -391.059 -255.261 550.029 -439.701 -111.38 680.093 
-244.779 -130.055 624.924 -67.7473 -174.212 543.094 38.2949 -269.915 683.343 
255.431 -228.127 625.471 452.726 -136.693 510.882 -429.242 23.2682 532.663 
-57.9396 60.9434 618.079 102.126 -94.368 612.051 132.547 98.8668 570.678 
329.864 51.5321 564.006 -388.287 225.773 637.812 -247.283 102.022 568.849 
13.6459 260.658 606.896 228.203 273.837 556.399 413.081 225.849 615.486 
-313.689 405.356 684.205 -484.169 421.765 581.024 -139.082 388.391 588.22 
136.435 422.14 654.28 335.243 403.31 664.846 -305.292 -362.7 875.846 
-175.726 -476.78 768.142 100.855 -428.982 787.137 289.757 -411.168 723.972 
480.724 -467.439 743.707 -463.008 -280.049 784.878 -299.615 -163.045 814.359 
-146.475 -279.183 759.267 9.62454 -246.044 879.802 -57.4867 -101.906 734.069 
165.797 -159.034 790.261 343.54 -245.246 821.785 -497.68 76.8545 714.533 
-450.088 -42.6348 867.633 -306.375 23.699 743.094 -121.685 71.7111 809.7 
53.0559 -19.9669 879.344 251.208 10.2029 853.82 364.79 -81.2409 709.376 
-350.909 212.881 833.819 -180.583 231.871 705.499 60.8719 139.196 758.552 
-45.9701 239.475 894.606 255.768 156.296 717.375 401.912 182.72 851.297 
-381.299 452.597 866.388 -209.201 350.79 863.704 -31.3655 385.293 756.658 
183.618 314.535 816.098 496.766 334.028 761.28 349.301 438.261 861.238 
-395.586 -384.101 1097.15 -254.761 -498.762 1013.4 -142.656 -362.102 1106.95 
-71.656 -421.79 929.78 90.5473 -355.618 1026.22 255.473 -395.325 920.336 
490.164 -410.504 935.155 323.299 -376.508 1107.52 -378.844 -215.985 990.142 
-174.726 -234.471 956.367 48.914 -136.054 1042.13 232.988 -179.931 977.415 
422.816 -235.988 1005.83 -364.755 -34.4567 1072.86 -121.738 -42.4637 973.854 
196.936 2.44927 1051.1 390.557 -39.4023 988.393 -477.128 110.567 993.278 
-258.965 102.998 973.315 -12.0734 108.333 1046.13 78.3775 292.947 1069.23 
147.808 159.507 937.474 293.164 289.317 982.235 347.667 128.603 1088.01 
-483.442 307.382 958.458 -298.334 290.057 1032.1 -98.1645 377.9 1029.16 
64.4394 431.722 925.916 211.534 465.508 1057.09 410.735 448.513 1052.65 
-245.998 -182.525 1135.84 175.792 -234.922 1160.98 -72.4998 -38.5706 1167.64 
-146.787 220.426 1142.44 246.872 308.507 1175.83 
VERTICES 167 334
1 0 
1 1 
1 2 
1 3 
1 4 
1 5 
1 6 
1 7 
1 8 
1 9 
1 10 
1 11 
1 12 
1 13 
1 14 
1 15 
1 16 
1 17 
1 18 
1 19 
1 20 
1 21 
1 22 
1 23 
1 24 
1 25 
1 26 
1 27 
1 28 
1 29 
1 30 
1 31 
1 32 
1 33 
1 34 
1 35 
1 36 
1 37 
1 38 
1 39 
1 40 
1 41 
1 42 
1 43 
1 44 
1 45 
1 46 
1 47 
1 48 
1 49 
1 50 
1 51 
1 52 
1 53 
1 54 
1 55 
1 56 
1 57 
1 58 
1 59 
1 60 
1 61 
1 62 
1 63 
1 64 
1 65 
1 66 
1 67 
1 68 
1 69 
1 70 
1 71 
1 72 
1 73 
1 74 
1 75 
1 76 
1 77 
1 78 
1 79 
1 80 
1 81 
1 82 
1 83 
1 84 
1 85 
1 86 
1 87 
1 88 
1 89 
1 90 
1 91 
1 92 
1 93 
1 94 
1 95 
1 96 
1 97 
1 98 
1 99 
1 100 
1 101 
1 102 
1 103 
1 104 
1 105 
1 106 
1 107 
1 108 
1 109 
1 110 
1 111 
1 112 
1 113 
1 114 
1 115 
1 116 
1 117 
1 118 
1 119 
1 120 
1 121 
1 122 
1 123 
1 124 
1 125 
1 126 
1 127 
1 128 
1 129 
1 130 
1 131 
1 132 
1 133 
1 134 
1 135 
1 136 
1 137 
1 138 
1 139 
1 140 
1 141 
1 142 
1 143 
1 144 
1 145 
1 146 
1 147 
1 148 
1 149 
1 150 
1 151 
1 152 
1 153 
1 154 
1 155 
1 156 
1 157 
1 158 
1 159 
1 160 
1 161 
1 162 
1 163 
1 164 
1 165 
1 166 

POINT_DATA 167
FIELD FieldData 7
id 1 167 int
32 15 7 51 1 34 9 11 6 
20 19 30 14 10 38 36 29 26 
3 23 47 24 16 35 21 37 17 
33 28 44 42 43 13 46 2 31 
12 39 4 25 27 18 48 22 8 
5 62 65 58 41 52 53 40 50 
73 67 56 57 60 55 49 66 80 
78 64 61 63 71 68 86 59 69 
45 106 82 96 81 77 79 70 111 
90 54 89 98 72 76 85 83 74 
87 88 92 95 91 93 97 84 75 
103 107 131 126 117 105 113 110 116 
94 124 99 112 114 104 118 109 125 
127 119 101 120 102 123 128 100 130 
138 122 108 133 115 141 165 146 159 
153 150 121 145 156 135 129 151 132 
142 158 139 147 134 149 136 152 155 
137 143 154 140 164 157 144 167 148 
161 162 160 166 163 
type 1 167 int
1 1 1 1 1 1 1 1 1 
1 1 1 1 1 1 1 1 1 
1 1 1 1 1 1 1 1 1 
1 1 1 1 1 1 1 1 1 
1 1 1 1 1 1 1 1 1 
1 1 1 1 1 1 1 1 1 
1 1 1 1 1 1 1 1 1 
1 1 1 1 1 1 1 1 1 
1 1 1 1 1 1 1 1 1 
1 1 1 1 1 1 1 1 1 
1 1 1 1 1 1 1 1 1 
1 1 1 1 1 1 1 1 1 
1 1 1 1 1 1 1 1 1 
1 1 1 1 1 1 1 1 1 
1 1 1 1 1 1 1 1 1 
1 1 1 1 1 1 1 1 1 
1 1 1 1 1 1 1 1 1 
1 1 1 1 1 1 1 1 1 
1 1 1 1 1 
i 3 167 int
0 0 0 0 0 0 0 1 0 
0 0 0 0 0 0 0 0 0 
-1 0 0 -1 0 0 0 0 0 
0 0 0 0 0 0 0 0 0 
0 0 0 0 0 0 0 0 0 
-1 0 0 0 0 0 -1 0 0 
0 0 0 0 0 0 0 0 0 
1 0 0 0 0 0 -1 0 0 
0 -1 0 0 0 0 0 -1 0 
0 0 0 0 0 0 0 0 0 
0 0 0 0 0 0 0 0 0 
0 0 0 0 0 0 0 0 0 
-1 0 0 0 0 0 1 0 0 
1 0 0 0 -1 0 0 -1 0 
0 0 0 0 0 0 0 -1 0 
0 0 0 1 0 0 0 0 0 
0 0 0 0 0 0 0 0 0 
0 0 0 0 0 0 0 0 0 
0 0 0 0 0 0 0 0 0 
1 0 0 0 0 0 0 0 0 
0 0 0 0 0 0 0 0 0 
1 0 0 0 0 0 0 0 0 
0 0 0 0 0 0 0 0 0 
0 -1 0 0 0 0 0 0 0 
0 0 0 0 0 0 0 0 0 
0 0 0 0 0 0 0 0 0 
-1 0 0 0 0 0 1 0 0 
0 0 0 0 0 0 0 0 0 
-1 0 0 0 0 0 0 0 0 
0 0 0 0 0 0 0 0 0 
0 0 0 0 0 0 0 0 0 
0 0 0 0 0 0 0 0 0 
0 -1 0 0 0 0 0 0 0 
0 0 0 0 0 0 0 0 0 
0 0 0 0 1 0 0 0 0 
-1 0 0 1 0 0 0 0 0 
0 0 0 0 0 0 0 0 0 
0 0 0 0 0 0 0 0 0 
0 0 0 0 0 0 0 0 0 
0 0 0 0 0 0 0 0 0 
0 0 0 0 0 0 0 0 0 
0 0 0 0 0 0 0 0 0 
0 0 0 0 0 0 0 0 0 
0 0 0 -1 0 0 0 0 0 
1 0 0 0 0 0 0 0 0 
0 1 0 0 0 0 0 0 0 
0 0 0 0 0 0 0 0 0 
0 1 0 0 0 0 0 0 0 
0 0 0 0 0 0 0 0 0 
0 0 0 0 0 0 0 0 0 
0 0 0 0 0 0 0 0 0 
0 0 0 0 0 0 0 0 0 
0 0 0 0 0 0 0 0 0 
0 0 0 0 0 0 0 0 0 
0 0 0 0 0 0 0 0 0 
0 0 0 0 0 0 
v 3 167 double
-1.34845e-06 9.64163e-07 3.93674e-07 -6.48296e-07 2.76894e-07 8.46681e-08 -5.07192e-07 4.17915e-07 7.43783e-08 
-7.45983e-07 4.85667e-07 1.46745e-07 -3.88244e-07 2.70971e-07 -1.34864e-10 -9.702e-07 8.67098e-07 -3.49432e-08 
-4.40412e-07 2.50672e-07 -1.00564e-07 -5.18635e-07 3.15056e-07 6.62205e-08 -4.49809e-07 2.64802e-07 7.14764e-08 
-1.17302e-06 8.80217e-07 3.63605e-07 -4.66365e-07 2.30873e-07 -3.29856e-08 -8.28094e-07 4.19283e-07 -1.52897e-07 
-4.61303e-07 3.87356e-07 2.33407e-08 -4.32704e-07 3.0144e-07 2.95162e-08 -8.26364e-07 5.36611e-07 -9.431e-08 
-1.09344e-06 8.09087e-07 -1.41093e-07 -5.33101e-07 4.03503e-07 -5.11149e-08 -9.71778e-07 3.42815e-07 2.61041e-08 
-6.613e-07 1.07096e-07 5.75179e-08 -1.18716e-06 5.65497e-07 2.4923e-08 -1.02391e-06 6.01598e-07 -4.74181e-08 
-5.39967e-07 4.37255e-07 -6.22166e-08 -4.01154e-07 3.07785e-07 5.32922e-08 -1.24945e-06 7.36708e-07 -7.58863e-08 
-9.64282e-07 5.78189e-07 4.6507e-08 -1.14914e-06 4.1413e-07 -1.97456e-08 -7.53531e-07 1.07849e-07 7.66319e-09 
-9.12094e-07 3.22513e-07 -7.37358e-08 -8.16883e-07 4.17905e-07 -9.54052e-08 -1.82784e-06 7.32686e-07 -3.5471e-07 
-1.23988e-06 1.09025e-06 -1.69103e-07 -1.33622e-06 8.39192e-07 4.95634e-08 -5.7749e-07 4.07074e-07 -3.58541e-08 
-1.35869e-06 6.04844e-07 -1.48237e-07 -4.57599e-07 4.08383e-07 2.09282e-08 -9.043e-07 4.98968e-07 -1.49208e-07 
-4.09803e-07 2.99672e-07 -8.61914e-08 -1.25674e-06 6.42145e-07 -1.92242e-07 -3.6234e-07 2.8947e-07 8.55988e-08 
-1.01045e-06 5.47723e-07 -1.31648e-07 -1.64897e-06 7.2211e-07 8.4747e-08 -5.96371e-07 4.92642e-07 6.45639e-09 
-6.2654e-07 5.10553e-07 -7.99695e-08 -8.63803e-07 8.39748e-07 7.97242e-08 -5.52215e-07 3.7502e-07 -7.40151e-08 
-6.07478e-07 3.10207e-07 -5.03508e-08 -2.17376e-06 1.03959e-06 1.63879e-07 -2.1094e-06 1.29551e-06 -4.20596e-08 
-2.10364e-06 1.38865e-06 -3.22929e-07 -1.31883e-06 1.27958e-06 3.66726e-08 -1.66518e-06 1.18439e-06 2.72552e-07 
-1.89349e-06 1.62275e-06 -1.47434e-07 -1.28178e-06 8.79207e-07 -1.01441e-07 -1.64841e-06 1.22685e-06 -8.19674e-08 
-2.00818e-06 1.58186e-06 -3.1649e-08 -1.57797e-06 1.26016e-06 1.69841e-07 -1.51792e-06 9.65156e-07 -1.09394e-07 
-1.60353e-06 7.8728e-07 -1.57579e-07 -1.95384e-06 1.53768e-06 -2.59196e-08 -1.90156e-06 1.25827e-06 2.92021e-08 
-1.38793e-06 9.67081e-07 2.41975e-08 -1.65791e-06 9.84492e-07 -7.36051e-08 -1.75974e-06 1.46436e-06 -3.24358e-07 
-1.8939e-06 1.39949e-06 -4.07582e-07 -1.65685e-06 1.28008e-06 -1.32974e-07 -1.52674e-06 1.17621e-06 -1.67873e-07 
-2.19853e-06 9.52932e-07 5.97012e-08 -2.59016e-06 1.46188e-06 1.14483e-08 -1.84562e-06 3.02887e-07 -1.59317e-07 
-2.14373e-06 1.7041e-06 -2.89979e-07 -1.74781e-06 1.41137e-06 -6.0251e-08 -1.7663e-06 1.05497e-06 -1.64986e-07 
-1.31782e-06 7.95634e-07 -3.43838e-08 -3.2897e-06 1.32476e-06 -5.26219e-07 -2.42037e-06 2.06786e-06 -5.27622e-07 
-2.59434e-06 2.14284e-06 -4.74002e-07 -2.31326e-06 1.99766e-06 3.25082e-08 -1.70059e-06 1.27905e-06 2.23392e-08 
-2.54123e-06 1.56793e-06 5.55567e-08 -2.15127e-06 1.79504e-06 3.6752e-08 -3.0826e-06 1.75446e-06 2.42098e-07 
-2.56988e-06 2.63524e-06 -9.03604e-08 -2.16072e-06 1.65479e-06 7.70984e-08 -2.56992e-06 2.25959e-06 -3.01327e-07 
-2.22918e-06 2.20755e-06 3.10666e-07 -2.29683e-06 1.46717e-06 7.30914e-10 -2.04595e-06 1.28808e-06 -3.39281e-08 
-2.2994e-06 2.16207e-06 -4.76567e-07 -2.34652e-06 2.17059e-06 6.59387e-08 -2.08289e-06 1.98711e-06 -1.85345e-07 
-2.61124e-06 2.02785e-06 -5.20558e-08 -2.54081e-06 1.19983e-06 3.82003e-07 -2.50008e-06 1.46754e-06 -2.40882e-07 
-2.33291e-06 2.00545e-06 -1.24872e-07 -2.23345e-06 1.87122e-06 -1.96461e-07 -2.61131e-06 1.89001e-06 2.38256e-07 
-2.68213e-06 1.52427e-06 -3.43763e-07 -2.66987e-06 1.55572e-06 1.21535e-07 -2.38126e-06 1.90526e-06 -6.0477e-07 
-2.77022e-06 2.04967e-06 -2.53599e-07 -2.93324e-06 2.26869e-06 9.94793e-08 -3.90818e-06 1.29606e-06 -6.43995e-07 
-3.26809e-06 2.55396e-06 -1.0176e-06 -3.35331e-06 2.75178e-06 2.52979e-07 -3.10006e-06 2.23808e-06 3.94461e-07 
-2.91791e-06 1.61112e-06 1.26872e-07 -3.90526e-06 1.88258e-06 4.34388e-07 -2.55618e-06 2.46417e-06 -9.01959e-08 
-2.71883e-06 2.52916e-06 -8.33205e-07 -3.26223e-06 1.78927e-06 -3.48947e-07 -2.3124e-06 2.46374e-06 -2.40636e-07 
-2.9417e-06 2.13089e-06 5.16086e-07 -3.80713e-06 2.64e-06 -1.40445e-07 -3.22418e-06 1.78813e-06 3.3823e-07 
-3.15249e-06 1.84115e-06 5.54925e-07 -2.83182e-06 2.1559e-06 8.47376e-08 -3.59018e-06 2.27217e-06 -6.55284e-07 
-4.23848e-06 1.9144e-06 -4.2931e-07 -3.10622e-06 2.63987e-06 1.66156e-07 -3.18452e-06 2.19425e-06 -9.32838e-08 
-3.40593e-06 3.14003e-06 7.58233e-07 -2.81287e-06 2.27262e-06 -5.34072e-07 -3.19293e-06 2.09401e-06 -8.01257e-09 
-5.15938e-06 3.23923e-07 2.76763e-07 -3.11576e-06 2.33547e-06 9.63627e-08 -3.372e-06 1.88423e-06 1.76615e-10 
-3.40754e-06 1.43551e-06 5.56901e-08 -2.7917e-06 2.8651e-06 -4.85464e-07 -2.70643e-06 2.31961e-06 -6.32623e-07 
-2.47666e-06 2.95762e-06 2.28228e-07 -2.81972e-06 1.58541e-06 5.15605e-08 -3.3931e-06 2.27829e-06 4.15009e-07 
-3.75761e-06 2.51902e-06 -3.00677e-07 -3.86828e-06 1.94093e-06 -9.27687e-08 -4.47749e-06 2.91664e-06 -8.58015e-07 
-4.1798e-06 2.35556e-06 -5.751e-07 -4.14703e-06 1.86497e-06 -1.85622e-07 -3.43397e-06 3.03202e-06 1.88823e-07 
-3.95899e-06 1.48993e-06 -1.09883e-08 3.21585e-06 -4.15921e-06 -1.57144e-06 -3.75362e-06 2.20417e-06 -9.95696e-07 
-4.03551e-06 1.60052e-06 -1.96277e-06 -5.14525e-06 2.07344e-06 -1.49986e-07 -4.21502e-06 1.72704e-06 1.15813e-06 
-3.64755e-06 1.73038e-06 -2.65924e-07 -4.60477e-06 1.88658e-06 3.33523e-07 -5.24201e-06 1.44712e-06 -1.94871e-06 
-3.56728e-06 2.06802e-06 2.60769e-07 -3.90645e-06 1.82122e-06 2.67153e-07 -3.99716e-06 2.0741e-06 2.52781e-07 
-4.134e-06 2.53234e-06 8.26861e-07 -5.23175e-06 8.63245e-07 -8.42139e-07 -4.47657e-06 1.75101e-06 6.60436e-08 
-4.44391e-06 1.77373e-06 3.04264e-07 -4.87308e-06 2.46771e-06 2.79496e-07 -3.99179e-06 2.44021e-06 -7.5297e-08 
-2.30781e-06 1.83265e-06 -8.58557e-08 -2.77961e-06 3.17172e-06 -5.39055e-08 -4.11643e-06 1.56024e-06 7.74226e-07 
-4.34388e-06 2.05685e-06 -1.14755e-07 -3.26377e-06 5.49765e-07 -1.27792e-06 -4.01905e-06 3.68735e-07 -1.2466e-06 
-3.06165e-06 2.2343e-06 -1.72962e-06 -6.039e-06 2.27428e-06 7.51089e-07 -8.49177e-06 8.68153e-07 -1.6027e-06 
-4.37284e-06 9.81349e-07 1.52033e-07 -5.09598e-06 1.83794e-06 4.84033e-07 
f 3 167 double
-0.0367858 -0.0159675 0.00827917 -0.0205045 -0.00623284 0.00713195 -0.0131367 -0.00852742 0.00313932 
-0.0229394 -0.0150978 0.00084797 -0.0113762 -0.00377404 0.00178529 -0.0343441 -0.0137377 0.00914873 
-0.0116469 -0.00224095 -0.00102507 -0.0191199 -0.00797635 0.00483006 -0.01308 -0.00570581 0.00341377 
-0.0417886 -0.0184707 0.0153796 -0.0192434 -0.011767 -0.00282254 -0.028419 -0.0102397 0.0018583 
-0.0178509 -0.00350764 0.00342135 -0.015029 0.000613019 -0.000541723 -0.0192474 -0.0107755 0.00647457 
-0.0364745 -0.0134042 0.00890114 -0.0191963 -0.00472485 0.00512531 -0.0307148 -0.0106092 0.00733383 
-0.0207802 -0.0124344 0.0033081 -0.0378966 -0.0173629 0.00386148 -0.0368516 -0.0107834 0.00393348 
-0.0192165 0.00191586 0.0017704 -0.0156771 3.52591e-05 0.0047785 -0.0406787 -0.0111372 -0.00750307 
-0.0319337 -0.00937144 -0.00240651 -0.0408405 -0.0182914 0.0075734 -0.0284582 -0.00937163 0.00381552 
-0.0310335 -0.0097682 0.00384273 -0.0241434 -0.00496367 4.88854e-05 -0.048464 -0.0124326 0.00947235 
-0.0397691 -0.00713864 0.00343268 -0.0426982 -0.0125371 0.00150731 -0.0177351 0.00263056 0.0019538 
-0.0519165 -0.0278425 0.00861052 -0.0141374 -0.00241776 0.000827234 -0.0267049 -0.00878964 0.00381504 
-0.0161409 -0.00872088 0.00214708 -0.0390251 -0.0169974 0.00514191 -0.0134545 -0.00546732 0.00328727 
-0.0305432 -0.0129073 0.00623716 -0.0395595 -0.0129046 0.00544216 -0.0185527 -0.00858502 -0.00332781 
-0.025584 -0.00880998 -0.00616119 -0.0268989 -0.00775652 0.00439031 -0.0149814 -0.00136037 -0.00129642 
-0.0138307 -0.00519815 0.00148201 -0.0524111 -0.019297 0.010102 -0.0470313 -0.019696 0.00669089 
-0.0604672 -0.0367949 0.0136031 -0.0496793 -0.0183715 0.0121715 -0.0439386 -0.022654 0.0130699 
-0.046529 -0.0178575 0.00429909 -0.0397841 -0.00879252 0.00599311 -0.060045 -0.0310711 0.0157397 
-0.0637003 -0.0395796 0.0127575 -0.0508905 -0.0162214 0.0124973 -0.0441001 -0.0239286 0.0135116 
-0.0492468 -0.018494 0.0133107 -0.0536634 -0.0108586 0.00857474 -0.0556796 -0.0288158 0.00433122 
-0.0527488 -0.0273566 0.00559502 -0.0591597 -0.0206355 0.00477876 -0.0552132 -0.0267806 0.00558344 
-0.0625981 -0.0292361 0.0111441 -0.0538626 -0.019684 0.00614968 -0.0578767 -0.0231079 0.00259508 
-0.0543082 -0.0159574 0.0111909 -0.0543189 -0.0258699 0.0141823 -0.0633164 -0.0416581 0.0132615 
-0.0668105 -0.0422708 0.00925875 -0.0552924 -0.0179131 0.00143622 -0.0597749 -0.0215371 0.00723399 
-0.042433 -0.0166308 0.00961718 -0.0698978 -0.0288081 0.0282893 -0.073306 -0.0409546 0.0174519 
-0.0770941 -0.0526335 0.0165638 -0.0776861 -0.0373026 0.0131613 -0.0538333 -0.0191102 0.0107114 
-0.0669008 -0.0244894 0.0156139 -0.0470503 -0.02187 0.0124604 -0.118408 -0.0361462 -0.00928642 
-0.100313 -0.108603 0.00507485 -0.0630632 -0.0149987 0.0138783 -0.0915391 -0.0440869 0.0184933 
-0.0783571 -0.0391681 0.0187254 -0.0606057 -0.0248834 0.00690998 -0.0898927 -0.0215529 -0.000715363 
-0.0703877 -0.0356758 0.0361033 -0.06842 -0.0343153 0.0234942 -0.0573087 -0.0354062 0.0232256 
-0.0743329 -0.0311688 0.00395788 -0.0868574 -0.0462809 0.0135924 -0.0695036 -0.0410385 0.0203888 
-0.069002 -0.0439347 0.0102467 -0.0724349 -0.0268446 -0.0015367 -0.0799271 -0.0275568 0.00238956 
-0.0779664 -0.0436645 0.0198253 -0.068823 -0.0302912 0.0157808 -0.0715977 -0.0530721 0.024963 
-0.0758975 -0.0380361 0.0097182 -0.0772385 -0.0398438 0.0135442 -0.101087 -0.0155895 0.0438175 
-0.0769671 -0.0599676 0.0273805 -0.0805505 -0.0475717 0.0174287 -0.0755352 -0.0457814 0.0131425 
-0.0890216 -0.0310476 0.018327 -0.0880026 -0.0279338 0.00651601 -0.144716 -0.118125 -0.00641655 
-0.0889229 -0.0705239 0.0362366 -0.0920223 -0.0471336 0.0262485 -0.10752 -0.0494467 0.0344332 
-0.0992317 -0.0288613 0.00943765 -0.106341 -0.0387467 0.00140211 -0.141537 -0.059267 -0.0169298 
-0.136077 -0.0711009 -0.0278716 -0.016671 -0.136486 0.00584613 -0.0998421 -0.0469863 0.0652618 
-0.0568487 -0.0205716 0.0523796 -0.0926199 -0.0362694 -0.0109022 -0.109918 -0.0417157 -0.00353793 
-0.0653785 -0.0987261 -0.0114295 -0.118094 -0.0517792 0.043986 -0.0666789 -0.0193257 0.0280491 
-0.0900128 -0.0242249 0.0109785 -0.0807898 -0.0323905 -0.00128033 -0.0883616 -0.0444221 -0.00133685 
-0.0975787 -0.0270075 0.0289769 -0.121002 -0.0518681 0.0330849 -0.0796732 -0.0567706 0.0192459 
-0.0875387 -0.0484265 0.0107878 -0.0919741 -0.0307204 0.0215864 -0.0762737 -0.0463245 0.0235461 
-0.1056 -0.0464787 0.034601 -0.103416 -0.0386644 0.0375476 -0.0594704 -0.0749211 0.0353794 
-0.0839983 -0.0611936 0.0206267 -0.0762519 -0.0636462 0.00745746 -0.0892452 -0.0528866 0.00324256 
-0.0964016 -0.0258509 0.0252513 -0.234356 0.0732864 0.0265843 -0.0950451 -0.041344 0.0494465 
-0.0740196 -0.0336892 0.0756155 -0.049123 -0.0532266 0.0285295 -0.0836323 -0.0302925 -0.00211742 
-0.0969257 -0.0263037 0.0261022 -0.062716 -0.0293156 -0.0100588 -0.0312663 -0.0286008 0.101221 
-0.137495 -0.0362554 0.028204 -0.112239 -0.0359395 0.00706774 -0.0955177 -0.0570265 -0.0115583 
-0.0567808 -0.069271 -0.0212007 -0.0283782 -0.0109567 0.056426 -0.0938144 -0.0322546 0.0315233 
-0.0541389 -0.0151921 0.0266933 -0.0504339 -0.033635 0.0746642 -0.0778095 -0.0694097 0.0489313 
-0.131874 -0.0401045 0.0313845 -0.113201 -0.102267 0.0175693 -0.117809 -0.0594772 0.0201381 
-0.0962154 -0.058267 0.0184847 -0.130346 -0.00895052 0.0403959 -0.112309 -0.00630412 0.0416432 
-0.0977929 -0.0183064 0.0677857 -0.0212688 -0.105741 -0.00470635 0.0848564 -0.00794963 0.097376 
-0.104638 -0.0718132 0.0332864 -0.119845 0.0449489 0.0660037 
radius 1 167 double
100 100 100 100 100 100 100 100 100 
100 100 100 100 100 100 100 100 100 
100 100 100 100 100 100 100 100 100 
100 100 100 100 100 100 100 100 100 
100 100 100 100 100 100 100 100 100 
100 100 100 100 100 100 100 100 100 
100 100 100 100 100 100 100 100 100 
100 100 100 100 100 100 100 100 100 
100 100 100 100 100 100 100 100 100 
100 100 100 100 100 100 100 100 100 
100 100 100 100 100 100 100 100 100 
100 100 100 100 100 100 100 100 100 
100 100 100 100 100 100 100 100 100 
100 100 100 100 100 100 100 100 100 
100 100 100 100 100 100 100 100 100 
100 100 100 100 100 100 100 100 100 
100 100 100 100 100 100 100 100 100 
100 100 100 100 100 100 100 100 100 
100 100 100 100 100 
omega 3 167 double
-1.42627e-09 -3.57082e-09 5.9257e-09 -8.21105e-10 -5.50087e-09 2.32865e-09 -5.17947e-09 -3.71348e-09 -6.03042e-10 
-3.11661e-09 -7.42354e-10 4.43128e-09 -5.50737e-10 -7.40175e-10 -1.26666e-09 -5.44877e-09 -1.81489e-09 4.16271e-10 
-4.36134e-10 -9.60832e-10 3.44914e-10 -1.02735e-09 -3.82625e-09 1.2463e-09 -1.63516e-09 -8.91687e-10 -1.26141e-09 
-1.82268e-09 -2.85739e-09 3.52231e-09 6.01289e-10 -2.34963e-09 4.39623e-09 1.87639e-09 -4.18528e-09 -1.59393e-09 
-1.83249e-09 -2.78276e-09 1.94614e-09 -2.78511e-09 -2.4675e-09 2.5925e-09 -2.34247e-10 -2.84751e-09 -5.496e-09 
-2.83948e-09 -1.74332e-09 -1.71284e-09 -2.86258e-09 -1.55057e-09 -1.25835e-09 -6.90297e-10 -1.3031e-09 -7.36768e-10 
-9.80941e-11 -3.43053e-09 -1.78851e-09 -1.85684e-09 3.53233e-10 -1.40417e-10 -2.93663e-10 -6.40558e-10 1.55781e-09 
-2.94529e-09 -3.3839e-09 -1.53841e-09 9.62544e-10 8.30419e-10 9.31066e-10 2.50121e-09 -2.68522e-09 3.50058e-09 
-1.85855e-09 9.32144e-11 -4.17303e-09 -7.75831e-10 -1.94521e-09 -4.35842e-10 2.11432e-09 -6.32222e-09 -5.30474e-09 
-1.68938e-09 2.47667e-09 5.28493e-09 -3.86389e-09 -7.55231e-09 -3.54215e-09 -2.33497e-09 3.91106e-10 7.26984e-09 
-2.33402e-09 -2.7063e-09 9.14834e-10 -4.41872e-10 -1.25284e-09 -4.01987e-09 -2.95738e-09 -4.4358e-09 1.10669e-09 
4.68289e-10 -6.47954e-10 1.64979e-09 -1.88984e-09 5.80333e-11 2.73838e-10 5.47179e-10 5.21038e-09 -1.97111e-09 
-2.26107e-09 -1.91201e-09 -1.50955e-09 -4.65267e-10 -7.12552e-09 1.25989e-09 -4.41859e-10 -5.29131e-10 9.99391e-10 
-1.83972e-09 -8.88933e-09 1.7823e-10 6.14709e-09 2.9678e-10 -1.0709e-08 3.28296e-09 4.68744e-09 7.14687e-10 
3.99427e-09 -1.02902e-09 4.93812e-09 -5.5589e-09 -2.34362e-09 3.34902e-10 -1.95351e-09 -5.23813e-09 -1.63914e-09 
-1.67112e-09 -7.14252e-09 1.87845e-10 -4.72373e-10 -4.14719e-09 -2.72105e-10 -8.04601e-09 -3.4431e-09 -1.17765e-08 
3.75114e-09 -8.02736e-09 -3.01182e-09 -1.45055e-10 -8.03881e-10 -8.86257e-11 -3.65367e-09 -7.07e-10 -2.31325e-09 
-1.25527e-08 -7.58885e-09 -4.08409e-10 -3.47914e-09 1.64092e-10 5.10823e-09 2.43466e-09 -3.24722e-09 3.69622e-09 
-5.91652e-09 -8.03749e-10 7.98905e-10 -1.66711e-09 -1.91169e-09 3.23704e-11 -4.66037e-09 -2.19865e-09 2.12562e-09 
-2.42023e-09 -5.83005e-09 5.08976e-10 -1.68456e-09 -3.69452e-09 -1.42009e-09 -1.89549e-09 2.76029e-09 -1.30394e-09 
-3.82102e-09 -1.84054e-09 -6.92511e-11 -9.85374e-10 -2.03693e-09 4.56493e-10 -2.8044e-09 -3.45832e-09 -3.67683e-09 
-2.50482e-09 4.14292e-09 5.07584e-09 -3.5901e-09 -5.05065e-10 4.46447e-09 -4.91124e-09 3.36587e-09 -1.84229e-09 
-5.8057e-10 -2.51847e-09 1.33441e-09 5.98398e-09 4.85339e-09 7.63156e-09 -2.95713e-09 3.77903e-10 7.49868e-09 
-5.0943e-09 -5.29374e-10 3.47404e-09 1.25709e-09 -3.56588e-09 -3.91829e-09 -4.359e-09 2.81754e-09 -1.14896e-09 
4.89889e-09 -6.13032e-10 -4.14435e-09 7.17784e-09 -2.0656e-08 -1.27762e-09 -8.69142e-09 3.43166e-09 -2.1946e-09 
-1.33112e-09 -3.5808e-10 1.11849e-09 -4.34465e-09 -8.52074e-09 -7.98705e-10 -5.12513e-09 -8.04283e-10 -1.56558e-09 
-6.16909e-10 -1.03406e-09 -6.98085e-09 5.0893e-09 2.80982e-10 5.58702e-09 -2.89149e-09 -9.29899e-09 -1.87432e-09 
-2.49298e-09 2.47557e-10 -1.44413e-08 -6.34762e-10 -3.99841e-09 5.65143e-09 4.24343e-09 6.27453e-11 -2.1475e-09 
5.39147e-10 1.2256e-09 -1.47078e-09 7.10973e-10 -5.64908e-09 1.11421e-09 -1.83354e-09 3.06729e-09 -5.10589e-09 
-3.63582e-09 2.64013e-09 1.88408e-09 -1.54185e-09 1.53053e-10 -6.73806e-10 -2.3216e-09 -7.87373e-09 -1.51692e-09 
-4.04503e-09 -1.2285e-08 -1.29731e-09 4.10629e-09 6.09167e-09 -2.51731e-09 -1.21779e-09 -5.89314e-10 5.56681e-09 
-5.01524e-09 -4.13791e-09 2.16564e-09 -2.88441e-09 4.36371e-10 2.83816e-09 -3.44787e-09 -7.09533e-09 -4.83059e-09 
-8.01534e-09 5.16771e-09 7.81797e-09 -1.52211e-09 -3.88151e-10 -1.37629e-08 1.06498e-10 -4.32397e-09 2.07247e-11 
3.78974e-09 -4.28412e-09 -1.14117e-09 4.22286e-09 -2.97327e-09 4.33278e-09 -7.1141e-09 1.31066e-08 -6.70008e-09 
-4.77216e-09 -8.83441e-09 -4.45196e-10 -1.04424e-08 -7.93597e-09 -1.74107e-09 -1.83809e-09 1.42498e-09 -1.28935e-09 
1.73402e-09 -4.31507e-09 1.09635e-08 9.4515e-10 3.43629e-09 -3.58555e-09 8.52751e-09 4.67303e-09 1.47959e-09 
3.94346e-09 -5.16901e-09 -3.89557e-09 4.69174e-10 -4.61235e-09 8.64362e-10 -1.91332e-09 -4.00289e-09 -1.07781e-09 
2.04996e-09 -6.91215e-09 3.95218e-09 -7.23049e-09 -1.33852e-08 -1.26213e-09 3.84462e-09 9.30055e-10 1.51559e-10 
-3.06346e-09 -2.57647e-09 5.94314e-09 -9.03887e-09 -1.8116e-09 -2.45473e-09 8.91965e-09 -2.04361e-08 4.9839e-09 
-3.76022e-09 -1.11832e-08 7.32183e-10 -1.00251e-08 2.34611e-09 -4.1317e-09 3.88057e-09 6.55833e-09 -1.89224e-09 
-2.7211e-08 -1.38077e-08 -1.79981e-08 -3.82111e-09 2.86201e-10 -1.26118e-09 7.9619e-09 -9.13089e-09 2.35465e-09 
4.63516e-08 -4.33702e-08 -3.56825e-08 7.05963e-09 6.2953e-09 -3.33827e-09 -2.55901e-09 -4.18842e-09 2.24397e-09 
4.41072e-09 -1.83542e-09 1.1419e-08 -1.60939e-09 5.03356e-09 7.72572e-09 -2.46725e-09 3.87822e-09 1.91071e-09 
-1.42948e-08 7.78746e-09 2.40043e-09 -2.10065e-09 -2.88209e-09 -8.32106e-09 -2.89544e-09 1.84395e-09 -1.95382e-08 
-8.78907e-09 9.24246e-09 1.32349e-08 -7.96232e-09 1.29269e-09 -8.5446e-09 -3.78529e-09 -3.12503e-09 1.31526e-08 
-2.14757e-09 -2.8241e-09 -1.32645e-08 -3.57258e-10 -4.26671e-09 3.54262e-09 -8.94691e-09 -2.3572e-09 1.73447e-08 
-1.52266e-09 -6.23098e-09 -1.05608e-08 9.94841e-08 8.00972e-08 4.06361e-09 -9.86173e-10 -1.78461e-08 -8.24242e-09 
-1.06542e-08 -1.39511e-08 4.10232e-09 7.12836e-10 -8.93993e-09 1.06469e-08 -2.57749e-09 -5.91198e-09 -1.37113e-08 
-7.24335e-09 2.45476e-08 1.39966e-08 1.45782e-08 -1.38542e-08 5.29766e-09 4.98737e-09 -7.19008e-09 5.45178e-09 
-2.2174e-09 -1.86381e-08 -4.30437e-09 9.7949e-09 -6.07644e-09 -1.08546e-08 -7.31475e-10 -5.21464e-09 -2.31029e-09 
8.24945e-09 3.47216e-08 -2.30315e-08 -7.94947e-09 -1.79323e-08 -1.70516e-08 -1.46802e-08 1.01765e-08 -1.40971e-08 
7.71684e-09 1.98889e-09 2.6606e-08 1.28865e-08 1.61119e-08 -1.29642e-08 -1.63742e-08 5.51073e-09 8.65472e-09 
-2.54491e-09 1.37764e-08 -1.59541e-08 -1.98703e-08 -1.40116e-08 1.90976e-08 -4.11106e-08 2.41719e-08 1.38901e-09 
1.49629e-08 -1.82659e-08 1.55987e-08 -2.39696e-08 3.15558e-08 -4.49174e-08 5.43709e-11 -2.85839e-08 3.99049e-08 
-2.32614e-10 2.90322e-08 8.37985e-09 1.64656e-09 -1.28976e-08 3.62856e-09 4.72916e-09 -2.5001e-08 9.39165e-09 
5.7959e-08 -7.94933e-09 -2.01608e-08 -4.20516e-09 -1.78595e-08 6.91115e-09 
