# vtk DataFile Version 4.0
Generated by LIGGGHTS
ASCII
DATASET POLYDATA
POINTS 65 float
-418.582 -497.5 99.925 -401.815 -409.907 279.839 -220.527 -469.908 99.9227 
-82.7963 -324.817 99.9833 21.1599 -341.091 283.274 104.298 -404.219 99.9407 
227.32 -496.496 230.287 498.835 -315.484 99.9681 380.446 -478.397 99.9794 
-366.838 -167.179 99.8945 -255.488 -300.074 199.31 -169.974 -120.61 99.9785 
94.9863 -204.507 99.9782 -13.7673 -103.646 234.1 209.619 -217.063 266.949 
414.905 -286.703 282.053 301.902 -277.454 99.9818 438.337 -133.361 155.812 
-441.846 18.0839 101.004 -394.09 -33.7857 290.048 -113.47 71.8735 100.036 
77.6676 13.3332 99.9019 253.308 -82.1907 99.9866 172.848 -19.5841 272.555 
360.563 40.8201 215.563 -454.499 179.855 271.814 -292.245 135.086 163.543 
-140.171 288.786 99.9761 43.9733 210.795 99.9829 -36.6295 115.488 279.315 
232.702 144.501 99.9792 154.097 286.88 263.458 443.034 181.722 100.005 
346.34 232.467 270.553 -341.038 318.258 100.001 -279.965 315.991 290.424 
-54.5674 451.873 179.268 120.229 396.506 99.8046 308.765 329.922 99.9782 
484.311 354.309 192.519 -218.912 -493.445 298.962 -142.137 -342.426 407.924 
115.588 -273.287 467.894 294.487 -377.578 414.877 415.395 -488.807 297.436 
-444.465 -187.808 409.76 -226.433 -154.619 333.311 -46.3382 -159.824 423.293 
-269.231 123.999 361.998 -51.9169 310.896 320.942 7.12258 398.142 491.29 
-192.209 92.5715 605.147 299.367 187.399 556.746 -332.403 -14.4896 1381.56 
194.303 343.746 1239.66 210.881 -51.2428 1464.97 23.9452 -376.337 1776.79 
28.5625 -169.233 1741.58 384.501 97.3277 1687.09 390.89 -381.967 1991.98 
-310.742 -233.56 1937.43 -365.887 79.1138 1992.56 -120.714 165.796 2029.94 
239.064 134.563 2091.49 -362.558 349.951 1941.2 
VERTICES 65 130
1 0 
1 1 
1 2 
1 3 
1 4 
1 5 
1 6 
1 7 
1 8 
1 9 
1 10 
1 11 
1 12 
1 13 
1 14 
1 15 
1 16 
1 17 
1 18 
1 19 
1 20 
1 21 
1 22 
1 23 
1 24 
1 25 
1 26 
1 27 
1 28 
1 29 
1 30 
1 31 
1 32 
1 33 
1 34 
1 35 
1 36 
1 37 
1 38 
1 39 
1 40 
1 41 
1 42 
1 43 
1 44 
1 45 
1 46 
1 47 
1 48 
1 49 
1 50 
1 51 
1 52 
1 53 
1 54 
1 55 
1 56 
1 57 
1 58 
1 59 
1 60 
1 61 
1 62 
1 63 
1 64 

POINT_DATA 65
FIELD FieldData 7
id 1 65 int
4 32 7 1 34 9 22 15 6 
19 30 14 10 38 36 20 11 26 
3 23 24 16 29 35 21 37 33 
28 13 43 2 31 12 39 17 44 
18 8 5 25 27 51 50 41 45 
52 47 40 42 46 48 55 49 53 
59 56 58 54 57 62 65 60 64 
61 63 
type 1 65 int
1 1 1 1 1 1 1 1 1 
1 1 1 1 1 1 1 1 1 
1 1 1 1 1 1 1 1 1 
1 1 1 1 1 1 1 1 1 
1 1 1 1 1 1 1 1 1 
1 1 1 1 1 1 1 1 1 
1 1 1 1 1 1 1 1 1 
1 1 
i 3 65 int
1 1 0 0 0 0 0 1 0 
0 0 0 0 0 0 -1 0 0 
0 1 0 -1 0 0 0 0 0 
0 0 0 0 0 0 0 0 0 
0 0 0 0 0 0 -1 0 0 
0 0 0 -1 0 0 -1 0 0 
0 0 0 0 0 0 1 0 0 
0 0 0 0 0 0 -1 0 0 
0 -1 0 0 0 0 0 0 0 
0 0 0 0 0 0 0 0 0 
0 0 0 0 0 0 -1 0 0 
0 0 0 0 -1 0 0 0 0 
0 -1 0 0 -1 0 0 0 0 
0 0 0 0 0 0 0 0 0 
0 0 0 0 0 0 0 1 0 
0 0 0 0 0 0 0 0 0 
0 0 0 0 0 0 0 0 0 
0 0 0 0 0 0 0 0 0 
0 0 0 0 0 0 0 0 0 
0 0 0 0 0 0 0 0 0 
0 0 0 0 0 0 0 0 0 
0 0 0 0 0 0 
v 3 65 double
-0.00274863 -0.00121918 0.000570085 -0.00260919 0.00349295 -0.00277317 -0.00319818 0.00535461 0.00418845 
0.000600703 0.00559212 0.000216588 0.00370542 -0.00419084 0.0031723 0.00320079 0.00400911 0.00155718 
-0.00114933 0.000127373 0.00266862 0.00212966 0.00179344 -0.000430748 0.000712149 -0.00338249 9.56475e-07 
-0.00510046 0.0107616 0.00159714 -0.00721707 0.00979691 0.00317151 -0.00461306 -0.000915891 -1.39348e-05 
-0.000554723 0.00124184 0.000166079 0.00237878 0.00114405 0.000764543 0.00272669 0.00155407 -0.00117683 
0.00876719 0.00383401 0.000113628 -0.00158345 -0.00415716 -6.99756e-05 0.00306511 0.00278015 -0.0014148 
4.56325e-05 0.000682789 0.00272852 0.0063817 -0.000915118 0.0137869 -0.00420452 -0.0103831 -0.0124938 
0.000290931 0.00165703 -0.00140693 0.00146988 0.000666941 -0.000340419 0.00737561 0.00257289 -0.00657659 
0.00046895 0.000657751 0.000500857 0.00195687 -0.000692713 -0.00113183 0.00353455 -0.000576725 0.0013084 
-0.000484965 -0.000417001 -6.71836e-05 -0.000400582 -0.000253858 7.02017e-05 -0.00172355 -0.0326709 0.00186853 
-0.00141328 -0.00105346 -6.96508e-06 -0.00613136 -0.0108745 -0.00575578 0.00189621 0.000423548 -0.00190644 
-0.00496444 -0.000752499 0.00153064 0.00140269 -0.000327174 0.000517817 0.00223478 -0.00237904 -0.000258717 
-0.00116616 -0.000270031 0.00946454 0.000200259 0.00101742 0.00114173 -0.000412904 -0.00144096 -0.000480261 
-0.00462683 0.000868477 0.00201319 -0.00684169 -0.000528582 -0.0018855 -0.0102197 0.000329916 -0.000803542 
0.00157883 0.0351808 0.0170233 -0.0125977 0.0048987 -0.0194863 0.00103641 -0.000569421 -0.00208678 
-0.0476874 -0.0448105 -0.0451288 0.0177999 0.0266097 -0.018385 0.00321393 0.00283396 0.0013981 
0.0130552 -0.00808787 0.000305668 -0.00970108 -0.0363366 -0.0178281 0.0230782 0.0296276 -0.0628247 
0 0 -0.166635 0 0 -0.16946 0 0 -0.111954 
0 0 -0.123765 0 0 -0.104391 0 0 -0.0691334 
0 0 -0.0739599 0 0 -0.0808661 0 0 -0.0236052 
0 0 -0.040341 0 0 -0.0233697 -0 -0 -0.02 
-0 -0 -0.02 0 0 -0.0394189 
f 3 65 double
330.312 -62.8418 8.01329 266.799 453.128 501.984 387.632 -301.45 -680.88 
-6.22762 -17.173 -66.1953 0 0 -102.73 365.948 -682.566 -196.165 
-51.3374 -165.977 362.029 100.194 -116.075 -24.2766 3.09092e-05 -3.04356e-05 -0.20092 
1546.27 -1820.71 1449.14 1033.54 -888.208 -369.688 -0.00145875 -0.00367965 9.34022 
-304.198 526.672 43.1167 -34.5884 304.436 21.5605 0 0 -102.73 
-0.216177 -11.2047 -78.3205 -0.0393673 0.0229062 -4.83186 56.3383 -4.79202 -101.913 
-1904.9 2515.26 -1406.66 0 0 -102.73 -254.515 312.85 486.904 
-62.5006 603.111 32.4472 -211.72 118.898 -164.372 499.75 -299.582 1004.14 
66.2532 -168.365 70.6076 0 0 -102.73 26.1072 -329.674 -95.491 
-11.8353 9.07805 4.50632 63.5619 -30.9542 -4.0205 -263.599 76.262 -448.37 
-0.00282383 0.00135388 2.35371 -248.557 167.652 924.631 27.2119 -54.8694 -78.4249 
167.701 160.281 248.783 379.221 -182.374 7.96706 44.6132 -17.9566 -50.691 
-998.55 -134.369 117.975 -627.93 218.403 172.236 -493.131 -470.741 -4.62903 
428.007 151.521 114.075 0 0 -102.73 0 0 -102.73 
0 0 -102.73 0 0 -102.73 -127.419 -231.757 468.473 
0 0 -102.73 169.113 364.717 398.91 0 0 -102.73 
0 0 -102.73 -11.5829 14.2758 -121.132 0 0 -102.73 
0 0 -102.73 0 0 -102.73 0 0 -102.73 
0 0 -102.73 0 0 -102.73 0 0 -102.73 
0 0 -102.73 0 0 -102.73 0 0 -102.73 
0 0 -102.73 0 0 -102.73 0 0 0 
0 0 0 0 0 -102.73 
radius 1 65 double
100 100 100 100 100 100 100 100 100 
100 100 100 100 100 100 100 100 100 
100 100 100 100 100 100 100 100 100 
100 100 100 100 100 100 100 100 100 
100 100 100 100 100 100 100 100 100 
100 100 100 100 100 100 100 100 100 
100 100 100 100 100 100 100 100 100 
100 100 
omega 3 65 double
1.09847e-05 -3.34483e-05 -3.95706e-05 -4.41428e-05 -0.000121719 8.55054e-05 -8.09235e-05 -5.80751e-05 0.00014194 
-1.04855e-06 -1.38931e-05 -4.84394e-05 -6.61821e-05 2.84759e-05 3.85582e-05 1.11115e-05 3.10721e-05 8.85596e-05 
-5.08134e-06 -6.71258e-05 2.06152e-05 -1.67493e-05 2.01089e-05 -1.40879e-05 3.38284e-05 7.12222e-06 -1.7239e-05 
-8.08256e-05 -5.38127e-05 3.36883e-06 4.24311e-05 0.000100468 -7.97508e-05 9.16031e-06 -4.6136e-05 -7.92524e-05 
-1.04778e-05 -2.50576e-06 -2.23771e-05 -9.14762e-07 2.86666e-05 6.95014e-06 -0.000117463 7.68145e-05 -6.44072e-07 
-0.00016467 7.52003e-05 3.70756e-05 4.15739e-05 -1.5839e-05 1.76788e-05 -2.37753e-06 1.03769e-05 1.01028e-05 
1.21343e-05 3.15773e-05 3.38898e-05 0.000125844 -5.22343e-05 -4.93832e-06 0.000218658 1.30707e-05 -4.41612e-05 
-1.57327e-05 1.18985e-05 6.42692e-06 -3.2339e-06 1.67642e-06 1.58109e-05 -1.54491e-05 8.43117e-05 -6.70235e-06 
1.41324e-05 1.66359e-05 2.89676e-05 -6.03444e-06 3.89152e-05 2.09167e-05 -1.41857e-05 1.02239e-05 -6.19992e-05 
4.2355e-06 -4.35851e-06 -5.85299e-05 2.64016e-06 -4.01593e-06 6.08355e-05 -3.9441e-05 -8.58781e-05 5.27476e-06 
1.05353e-05 -1.41342e-05 -2.31221e-05 0.000157882 -6.34837e-05 7.54594e-05 -5.55118e-06 -6.94332e-07 -3.91649e-05 
4.18669e-06 -6.6951e-05 1.94888e-05 6.09e-06 -1.42442e-06 8.11731e-05 9.94671e-05 4.18371e-05 0.000111608 
0.000364349 -7.20974e-05 -4.52078e-05 -6.57206e-06 1.6194e-05 -0.000115459 1.39654e-05 -4.86161e-06 5.73269e-05 
-2.91978e-05 3.16092e-05 1.02209e-05 -2.59288e-05 -3.96548e-05 -5.15979e-05 -1.98923e-06 -0.000148132 -4.49955e-05 
-0.000337601 -8.55512e-05 -0.000146918 0.00020942 -0.000407196 9.23982e-05 1.07696e-05 0.000118934 -2.53729e-05 
0.000527102 -0.000641086 -0.000102269 -0.000348627 -6.14284e-05 -0.000219316 8.52937e-06 -0.000170142 6.91402e-05 
0.000102706 9.20588e-05 -0.00013582 8.96282e-05 7.6422e-05 -9.35519e-05 -0.00044396 0.000244489 2.60278e-05 
0 0 0 0 0 0 0 0 0 
0 0 0 0 0 0 0 0 0 
0 0 0 0 0 0 0 0 0 
0 0 0 0 0 0 0 0 0 
0 0 0 0 0 0 
