# vtk DataFile Version 4.0
Generated by LIGGGHTS
ASCII
DATASET POLYDATA
POINTS 167 float
-414.949 -404.786 272.414 -485.702 -332.776 99.8762 -236.79 -433.434 99.8795 
-135.512 -423.545 281.825 -67.7706 -326.819 99.9094 40.6284 -329.886 267.832 
113.965 -410.028 99.9262 288.259 -312.075 99.8842 386.316 -486.334 99.9356 
400.138 -324.208 265.099 -342.5 -138.193 99.955 -241.556 -268.633 212.913 
-138.5 -139.87 99.9085 94.5421 -210.134 99.9618 0.363335 -100.817 238.423 
219.055 -239.76 272.935 269.28 -113.04 99.921 461.375 -145.365 144.594 
-452.002 29.0687 99.8524 -436.567 -45.7395 284.658 -239.728 -61.5789 253.452 
-88.3388 53.6169 99.9077 104.074 -0.483189 99.9796 201.478 -40.6579 273.543 
373.68 26.8864 197.695 -448.269 152.009 257.498 -340.616 294.771 99.9566 
-274.899 110.961 142.957 -142.109 254.139 99.9562 -276.028 249.005 287.543 
-136.156 106.174 286.784 63.4284 103.867 276.301 50.9297 197.06 99.904 
-27.3393 287.041 260.4 243.388 142.859 99.96 171.397 268.769 242.58 
436.392 194.921 99.8839 359.831 215.651 283.392 -416.729 479.598 99.9087 
-498.724 341.649 219.089 -284.232 445.434 251.623 -86.7521 441.51 142.537 
43.6467 471.51 291.154 230.79 482.679 221.541 101.767 390.376 99.925 
294.291 336.191 99.9621 -489.018 -413.897 457.904 -281.17 -327.94 399.656 
-29.0013 -385.057 446.969 187.371 -404.892 381.034 -452.387 -229.695 361.407 
-304.014 -117.36 434.372 -106.321 -224.765 353.517 90.0697 -224.709 430.534 
243.13 -102.411 470.511 329.989 -281.419 447.42 377.891 -130.265 325.557 
-310.028 75.5059 380.889 -135.092 -11.4414 448.406 63.1752 -26.5567 427.854 
425.825 55.4191 388.615 -455.24 203.729 450.538 -108.844 202.057 460.103 
-282.313 299.314 480.939 83.2623 240.913 420.502 234.199 111.55 398.982 
-422.913 409.565 391.129 -280.15 498.625 499.157 -139.907 399.027 381.951 
28.3612 427.419 486.127 206.443 397.079 400.505 388.704 328.628 445.812 
404.343 483.859 320.827 -336.869 -396.062 681.232 -178.733 -338.488 571.05 
-27.778 -452.534 635.851 154.354 -393.936 577.87 327.595 -480.377 501.998 
432.235 -321.013 616.495 -391.06 -255.262 550.029 -439.701 -111.381 680.093 
-244.779 -130.056 624.924 -67.7475 -174.212 543.094 38.2946 -269.915 683.343 
255.431 -228.128 625.472 452.726 -136.693 510.882 -429.243 23.2679 532.663 
-57.9399 60.9431 618.079 102.126 -94.3682 612.051 132.547 98.8665 570.678 
329.864 51.5318 564.007 -388.288 225.772 637.812 -247.283 102.022 568.85 
13.6456 260.658 606.897 228.203 273.837 556.399 413.081 225.849 615.486 
-313.689 405.355 684.205 -484.169 421.765 581.024 -139.082 388.391 588.22 
136.434 422.14 654.28 335.243 403.31 664.846 -305.292 -362.7 875.846 
-175.727 -476.781 768.142 100.855 -428.982 787.137 289.757 -411.168 723.972 
480.724 -467.44 743.708 -463.008 -280.05 784.878 -299.616 -163.045 814.359 
-146.475 -279.184 759.267 9.62415 -246.045 879.802 -57.4871 -101.906 734.069 
165.797 -159.034 790.261 343.539 -245.246 821.785 -497.681 76.854 714.533 
-450.088 -42.6353 867.633 -306.375 23.6983 743.094 -121.685 71.7107 809.701 
53.0555 -19.9673 879.344 251.207 10.2025 853.82 364.79 -81.2413 709.376 
-350.91 212.881 833.819 -180.583 231.87 705.499 60.8716 139.195 758.552 
-45.9706 239.474 894.606 255.768 156.296 717.375 401.911 182.72 851.297 
-381.299 452.597 866.389 -209.202 350.789 863.704 -31.3659 385.293 756.658 
183.618 314.534 816.098 496.766 334.027 761.28 349.3 438.26 861.238 
-395.587 -384.102 1097.15 -254.762 -498.763 1013.4 -142.657 -362.103 1106.95 
-71.6563 -421.791 929.78 90.5469 -355.618 1026.22 255.473 -395.325 920.336 
490.164 -410.504 935.155 323.298 -376.508 1107.52 -378.845 -215.985 990.142 
-174.727 -234.471 956.367 48.9136 -136.054 1042.13 232.988 -179.931 977.415 
422.815 -235.988 1005.83 -364.755 -34.4571 1072.86 -121.739 -42.4642 973.854 
196.936 2.44885 1051.1 390.557 -39.4027 988.393 -477.128 110.566 993.278 
-258.965 102.998 973.315 -12.0737 108.332 1046.13 78.377 292.947 1069.23 
147.808 159.506 937.474 293.164 289.316 982.236 347.667 128.603 1088.01 
-483.442 307.381 958.458 -298.334 290.056 1032.1 -98.165 377.899 1029.16 
64.439 431.722 925.916 211.534 465.508 1057.09 410.734 448.512 1052.65 
-245.998 -182.525 1135.85 175.792 -234.923 1160.98 -72.5001 -38.5711 1167.64 
-146.788 220.426 1142.44 246.872 308.507 1175.83 
VERTICES 167 334
1 0 
1 1 
1 2 
1 3 
1 4 
1 5 
1 6 
1 7 
1 8 
1 9 
1 10 
1 11 
1 12 
1 13 
1 14 
1 15 
1 16 
1 17 
1 18 
1 19 
1 20 
1 21 
1 22 
1 23 
1 24 
1 25 
1 26 
1 27 
1 28 
1 29 
1 30 
1 31 
1 32 
1 33 
1 34 
1 35 
1 36 
1 37 
1 38 
1 39 
1 40 
1 41 
1 42 
1 43 
1 44 
1 45 
1 46 
1 47 
1 48 
1 49 
1 50 
1 51 
1 52 
1 53 
1 54 
1 55 
1 56 
1 57 
1 58 
1 59 
1 60 
1 61 
1 62 
1 63 
1 64 
1 65 
1 66 
1 67 
1 68 
1 69 
1 70 
1 71 
1 72 
1 73 
1 74 
1 75 
1 76 
1 77 
1 78 
1 79 
1 80 
1 81 
1 82 
1 83 
1 84 
1 85 
1 86 
1 87 
1 88 
1 89 
1 90 
1 91 
1 92 
1 93 
1 94 
1 95 
1 96 
1 97 
1 98 
1 99 
1 100 
1 101 
1 102 
1 103 
1 104 
1 105 
1 106 
1 107 
1 108 
1 109 
1 110 
1 111 
1 112 
1 113 
1 114 
1 115 
1 116 
1 117 
1 118 
1 119 
1 120 
1 121 
1 122 
1 123 
1 124 
1 125 
1 126 
1 127 
1 128 
1 129 
1 130 
1 131 
1 132 
1 133 
1 134 
1 135 
1 136 
1 137 
1 138 
1 139 
1 140 
1 141 
1 142 
1 143 
1 144 
1 145 
1 146 
1 147 
1 148 
1 149 
1 150 
1 151 
1 152 
1 153 
1 154 
1 155 
1 156 
1 157 
1 158 
1 159 
1 160 
1 161 
1 162 
1 163 
1 164 
1 165 
1 166 

POINT_DATA 167
FIELD FieldData 7
id 1 167 int
32 15 7 51 1 34 9 11 6 
20 19 30 14 10 38 36 29 26 
3 23 47 24 16 35 21 37 17 
33 28 44 42 43 13 46 2 31 
12 39 4 25 27 18 48 22 8 
5 62 65 58 41 52 53 40 50 
73 67 56 57 60 55 49 66 80 
78 64 61 63 71 68 86 59 69 
45 106 82 96 81 77 79 70 111 
90 54 89 98 72 76 85 83 74 
87 88 92 95 91 93 97 84 75 
103 107 131 126 117 105 113 110 116 
94 124 99 112 114 104 118 109 125 
127 119 101 120 102 123 128 100 130 
138 122 108 133 115 141 165 146 159 
153 150 121 145 156 135 129 151 132 
142 158 139 147 134 149 136 152 155 
137 143 154 140 164 157 144 167 148 
161 162 160 166 163 
type 1 167 int
1 1 1 1 1 1 1 1 1 
1 1 1 1 1 1 1 1 1 
1 1 1 1 1 1 1 1 1 
1 1 1 1 1 1 1 1 1 
1 1 1 1 1 1 1 1 1 
1 1 1 1 1 1 1 1 1 
1 1 1 1 1 1 1 1 1 
1 1 1 1 1 1 1 1 1 
1 1 1 1 1 1 1 1 1 
1 1 1 1 1 1 1 1 1 
1 1 1 1 1 1 1 1 1 
1 1 1 1 1 1 1 1 1 
1 1 1 1 1 1 1 1 1 
1 1 1 1 1 1 1 1 1 
1 1 1 1 1 1 1 1 1 
1 1 1 1 1 1 1 1 1 
1 1 1 1 1 1 1 1 1 
1 1 1 1 1 1 1 1 1 
1 1 1 1 1 
i 3 167 int
0 0 0 0 0 0 0 1 0 
0 0 0 0 0 0 0 0 0 
-1 0 0 -1 0 0 0 0 0 
0 0 0 0 0 0 0 0 0 
0 0 0 0 0 0 0 0 0 
-1 0 0 0 0 0 -1 0 0 
0 0 0 0 0 0 0 0 0 
1 0 0 0 0 0 -1 0 0 
0 -1 0 0 0 0 0 -1 0 
0 0 0 0 0 0 0 0 0 
0 0 0 0 0 0 0 0 0 
0 0 0 0 0 0 0 0 0 
-1 0 0 0 0 0 1 0 0 
1 0 0 0 -1 0 0 -1 0 
0 0 0 0 0 0 0 -1 0 
0 0 0 1 0 0 0 0 0 
0 0 0 0 0 0 0 0 0 
0 0 0 0 0 0 0 0 0 
0 0 0 0 0 0 0 0 0 
1 0 0 0 0 0 0 0 0 
0 0 0 0 0 0 0 0 0 
1 0 0 0 0 0 0 0 0 
0 0 0 0 0 0 0 0 0 
0 -1 0 0 0 0 0 0 0 
0 0 0 0 0 0 0 0 0 
0 0 0 0 0 0 0 0 0 
-1 0 0 0 0 0 1 0 0 
0 0 0 0 0 0 0 0 0 
-1 0 0 0 0 0 0 0 0 
0 0 0 0 0 0 0 0 0 
0 0 0 0 0 0 0 0 0 
0 0 0 0 0 0 0 0 0 
0 -1 0 0 0 0 0 0 0 
0 0 0 0 0 0 0 0 0 
0 0 0 0 1 0 0 0 0 
-1 0 0 1 0 0 0 0 0 
0 0 0 0 0 0 0 0 0 
0 0 0 0 0 0 0 0 0 
0 0 0 0 0 0 0 0 0 
0 0 0 0 0 0 0 0 0 
0 0 0 0 0 0 0 0 0 
0 0 0 0 0 0 0 0 0 
0 0 0 0 0 0 0 0 0 
0 0 0 -1 0 0 0 0 0 
1 0 0 0 0 0 0 0 0 
0 1 0 0 0 0 0 0 0 
0 0 0 0 0 0 0 0 0 
0 1 0 0 0 0 0 0 0 
0 0 0 0 0 0 0 0 0 
0 0 0 0 0 0 0 0 0 
0 0 0 0 0 0 0 0 0 
0 0 0 0 0 0 0 0 0 
0 0 0 0 0 0 0 0 0 
0 0 0 0 0 0 0 0 0 
0 0 0 0 0 0 0 0 0 
0 0 0 0 0 0 
v 3 167 double
2.00275e-07 1.15302e-07 7.16391e-09 1.09221e-07 4.55013e-08 -2.26612e-08 6.2899e-08 6.42585e-08 -4.2914e-09 
1.17657e-07 9.68339e-08 1.48077e-08 5.66343e-08 2.7645e-08 4.51059e-09 1.78647e-07 9.00944e-08 -2.55961e-08 
5.93684e-08 1.69356e-08 1.59813e-08 1.0567e-07 5.49292e-08 -1.25168e-08 6.82242e-08 3.81131e-08 -6.11134e-09 
2.32086e-07 1.20782e-07 -5.5324e-08 9.66815e-08 8.10069e-08 4.63771e-08 1.53605e-07 7.34099e-08 2.66211e-08 
8.6775e-08 3.62858e-08 2.95233e-09 7.65349e-08 6.85431e-09 1.1381e-08 1.07065e-07 7.75319e-08 -2.39944e-08 
1.88478e-07 9.51028e-08 -3.95257e-08 9.86636e-08 4.36993e-08 -1.82685e-08 1.69581e-07 7.90423e-08 -1.80606e-08 
1.13491e-07 8.26355e-08 3.91488e-10 2.01086e-07 1.28552e-07 3.23758e-08 2.00093e-07 9.88319e-08 3.61065e-08 
9.96676e-08 1.8192e-09 7.5753e-09 8.01719e-08 9.0873e-09 -2.22175e-08 1.92476e-07 8.0016e-08 6.76918e-08 
1.60372e-07 7.54889e-08 4.15845e-08 2.06158e-07 1.32688e-07 -1.20604e-08 1.56572e-07 6.55364e-08 -9.15735e-09 
1.60258e-07 6.99557e-08 2.35897e-09 1.23975e-07 4.16226e-08 1.41744e-08 2.5937e-07 1.08397e-07 -2.20501e-08 
2.07789e-07 8.36574e-08 1.9359e-08 2.12256e-07 1.08465e-07 1.89737e-08 9.07655e-08 -5.17712e-09 -3.82805e-09 
2.83198e-07 1.95872e-07 -3.61428e-08 7.04793e-08 2.35146e-08 2.70071e-09 1.30119e-07 7.32322e-08 -1.3656e-08 
8.45587e-08 6.14073e-08 1.84582e-10 1.91992e-07 1.07617e-07 3.27831e-09 7.6115e-08 4.23304e-08 -6.72989e-09 
1.65368e-07 8.63342e-08 -1.99321e-08 2.05868e-07 9.93248e-08 -5.37134e-09 9.2004e-08 6.18105e-08 2.76067e-08 
1.27704e-07 4.73402e-08 4.31028e-08 1.37772e-07 5.30806e-08 -6.80494e-09 7.40607e-08 1.53934e-08 1.00681e-08 
6.70029e-08 3.93253e-08 -2.29014e-09 3.68421e-07 9.07249e-08 5.40384e-08 2.79237e-07 1.48011e-07 3.39237e-08 
3.46774e-07 2.45084e-07 -1.35847e-08 2.72404e-07 1.2002e-07 -4.75411e-08 2.43821e-07 1.51279e-07 -2.8691e-08 
2.45154e-07 1.65681e-07 2.93624e-08 2.2628e-07 8.96443e-08 7.69046e-09 3.31044e-07 2.10349e-07 -9.09918e-08 
3.28997e-07 2.65328e-07 -7.12644e-08 2.43492e-07 1.27341e-07 -5.21209e-08 2.4477e-07 1.54419e-07 -5.02423e-08 
2.83352e-07 1.735e-07 1.55937e-08 3.01221e-07 1.28236e-07 5.17919e-08 2.93598e-07 2.03331e-07 2.70118e-09 
2.57022e-07 1.96628e-07 -7.33038e-09 3.1138e-07 1.61811e-07 -7.10037e-09 2.93706e-07 2.008e-07 2.58606e-09 
3.38014e-07 1.73704e-07 9.24711e-09 2.88654e-07 1.42169e-07 -3.71498e-09 2.71604e-07 1.60006e-07 1.78474e-08 
2.92042e-07 1.13069e-07 -2.43235e-08 2.79165e-07 1.68739e-07 2.1805e-08 3.54045e-07 2.76359e-07 -6.14678e-08 
3.72358e-07 2.67762e-07 -1.69356e-08 3.12267e-07 1.20903e-07 3.08673e-08 3.43896e-07 1.81644e-07 -5.86699e-09 
2.32572e-07 1.116e-07 -4.02234e-08 4.54461e-07 3.74953e-07 3.71998e-08 4.39324e-07 3.22465e-07 2.93316e-08 
4.63035e-07 3.27997e-07 -4.71674e-08 4.40245e-07 2.25438e-07 -5.45131e-08 2.86679e-07 1.37905e-07 -1.31247e-08 
4.22013e-07 2.04809e-07 -1.26394e-08 3.16356e-07 2.09034e-07 6.05212e-09 4.72615e-07 2.61861e-07 5.76689e-08 
3.23492e-07 1.37014e-07 2.86572e-08 3.1543e-07 1.40141e-07 1.76445e-08 5.76172e-07 2.68227e-07 -1.10427e-08 
4.70156e-07 2.21501e-07 -1.53348e-07 3.02296e-07 1.97705e-07 -3.1409e-08 3.5286e-07 1.80764e-07 1.16803e-08 
4.0939e-07 1.98207e-07 4.1164e-08 4.13836e-07 2.10763e-07 -6.17712e-08 3.75179e-07 2.22943e-07 3.25835e-08 
4.18556e-07 2.56323e-07 -1.29359e-08 5.09786e-07 4.5659e-07 -5.11562e-08 4.34251e-07 3.22514e-07 2.10191e-08 
3.74562e-07 2.40184e-07 -1.60695e-08 4.60239e-07 2.13458e-07 9.18631e-08 5.08122e-07 2.48671e-07 2.67595e-08 
5.38206e-07 4.36421e-07 -2.69578e-08 4.88091e-07 3.30032e-07 -1.47032e-09 4.3065e-07 3.16581e-07 -4.03844e-08 
4.74508e-07 2.76553e-07 -2.7015e-09 5.25944e-07 2.82686e-07 3.72251e-08 5.99273e-07 3.60135e-07 -8.62967e-09 
6.26281e-07 3.44227e-07 -3.053e-08 5.02678e-07 2.46917e-07 -4.92087e-08 4.63173e-07 2.84979e-07 -3.01528e-08 
6.06953e-07 2.89123e-07 4.65738e-08 4.24571e-07 3.32961e-07 1.87135e-07 8.51086e-07 4.68617e-07 2.25365e-07 
6.44742e-07 3.45815e-07 4.69912e-08 8.02006e-07 2.44282e-07 2.0216e-09 6.6033e-07 2.80742e-07 6.55144e-08 
7.21624e-07 2.2872e-07 -9.92272e-08 3.51266e-07 3.28507e-07 -7.0126e-08 6.47187e-07 3.16484e-07 4.02838e-08 
8.75296e-07 5.075e-07 1.94466e-07 4.04146e-07 3.34185e-07 -3.72765e-09 7.8408e-07 3.49524e-07 -1.24321e-08 
8.16006e-07 2.58948e-07 -6.42132e-08 6.56723e-07 2.78393e-07 -1.08917e-07 4.46499e-07 2.74835e-07 -2.26311e-08 
9.51863e-07 2.75695e-07 -1.29752e-07 6.65771e-07 3.19495e-07 -4.36468e-08 5.31122e-07 2.91058e-07 -2.22853e-08 
6.40001e-07 2.73995e-07 5.63257e-08 5.10766e-07 3.20799e-07 -3.9125e-08 5.06347e-07 3.05366e-07 5.56792e-08 
6.76883e-07 2.85262e-07 3.24396e-08 7.49782e-07 4.10981e-07 -6.689e-08 5.35785e-07 3.1651e-07 -2.62876e-08 
6.15845e-07 3.62408e-07 -3.27468e-08 6.14924e-07 2.68345e-07 3.61485e-09 6.28465e-07 3.16316e-07 6.12203e-08 
8.27308e-07 4.16029e-07 2.10446e-10 7.57862e-07 3.56283e-07 1.63605e-08 6.94155e-07 4.63508e-07 -9.41559e-08 
6.65149e-07 3.76856e-07 -3.28343e-08 7.1519e-07 2.85228e-07 1.92198e-08 6.11834e-07 3.21901e-07 1.34569e-08 
8.32705e-07 3.72155e-07 1.16623e-08 1.91588e-06 -4.05551e-07 -4.31035e-07 9.43788e-07 6.33595e-07 3.08884e-07 
7.78684e-07 3.13512e-07 -2.24822e-07 9.68044e-07 2.80156e-07 -2.31153e-08 9.08647e-07 2.60277e-07 -1.56942e-07 
9.62451e-07 4.37096e-07 -1.79609e-07 1.0519e-06 7.1019e-07 1.04497e-07 8.88309e-07 2.70339e-07 -4.73095e-08 
7.49814e-07 2.41223e-07 -8.95692e-08 6.87454e-07 4.01206e-07 -3.83347e-08 6.22159e-07 4.74309e-07 1.00187e-07 
1.07915e-06 3.32012e-07 -2.36832e-07 7.5483e-07 2.97292e-07 -5.52171e-09 7.135e-07 2.73572e-07 -1.09085e-08 
6.95643e-07 2.6004e-07 -3.84991e-08 6.02322e-07 3.42125e-07 2.73419e-08 6.30125e-07 3.43667e-07 2.25902e-08 
8.07561e-07 4.42275e-07 3.16555e-08 7.71576e-07 1.79097e-07 -1.99895e-07 7.19596e-07 2.67115e-07 6.46953e-08 
6.16884e-07 3.54712e-07 1.29513e-08 8.85613e-07 2.31077e-07 -2.26499e-07 8.07812e-07 3.31208e-07 4.934e-10 
1.61394e-06 1.06392e-06 -1.6968e-07 1.04321e-06 2.7299e-07 -1.23625e-07 9.80074e-07 1.90452e-07 -2.10402e-08 
6.42144e-07 1.98019e-07 -6.38873e-08 6.67474e-07 3.75207e-07 2.66691e-08 
f 3 167 double
-0.0119423 0.0054114 0.00132981 -0.0056162 0.00188561 0.000452695 -0.00422862 0.0023449 0.000451295 
-0.00688458 0.0021198 0.00101688 -0.00350471 0.00186593 -0.000234946 -0.00937507 0.00539845 -0.000358746 
-0.0039398 0.00181145 -0.000866481 -0.00492741 0.00198825 0.000682974 -0.00394571 0.00181018 0.000777171 
-0.0112071 0.00570356 0.00337493 -0.00397551 0.00105154 -0.00101609 -0.00797318 0.00256788 -0.00156515 
-0.00391116 0.0024044 0.000201058 -0.0038765 0.00213519 1.77802e-05 -0.00713935 0.00263534 -0.000634212 
-0.00997484 0.00521646 -0.000326141 -0.00490964 0.00262204 -3.47221e-05 -0.00875107 0.00187827 0.000323112 
-0.00594286 0.000120366 0.000461423 -0.0102805 0.00307402 -0.000616274 -0.00914825 0.00401941 -0.000818274 
-0.00475474 0.00312139 -0.00037963 -0.00365731 0.00216228 0.000679387 -0.0107294 0.00488611 -0.000487921 
-0.00872865 0.00377878 0.000136885 -0.0107287 0.00180717 0.000202037 -0.00720854 5.90116e-05 0.000433646 
-0.00804056 0.00168324 -0.000358768 -0.00702613 0.0028981 -0.0010111 -0.0154935 0.00448976 -0.00200628 
-0.0106851 0.00764795 -0.0012245 -0.0118266 0.00529766 0.000807542 -0.00497776 0.00294385 -0.000171055 
-0.0119901 0.00376755 -0.00184533 -0.00398238 0.00279433 0.000160601 -0.00787493 0.00285942 -0.000831402 
-0.00375078 0.00168542 -0.000466438 -0.0115223 0.00443221 -0.00134058 -0.00345503 0.00177887 0.000918395 
-0.00953333 0.00351234 0.000126287 -0.0139533 0.0042785 0.000334187 -0.00521627 0.00312259 -0.000525026 
-0.00610695 0.0037988 -0.000903485 -0.00782674 0.00606407 0.00107888 -0.00478952 0.00266242 -0.000434804 
-0.0050968 0.00188334 -0.000278287 -0.0213531 0.0107399 -0.00272331 -0.0182961 0.00705398 -0.00112351 
-0.0190659 0.00715047 -0.00160649 -0.0141177 0.00893971 0.000691541 -0.013595 0.00687777 0.00168666 
-0.0151583 0.00966497 -0.0017537 -0.0120657 0.00534982 -0.00118889 -0.015496 0.00619806 0.000515336 
-0.0176227 0.00855804 0.00145932 -0.0139202 0.00756993 0.00256186 -0.012942 0.00571583 0.000236438 
-0.0139395 0.00420158 -0.00186047 -0.0171426 0.0104515 -0.00010481 -0.0167897 0.00625709 0.000860453 
-0.0128872 0.00498921 0.000995106 -0.0158773 0.00626809 -0.00143477 -0.0161694 0.00938921 -0.00161813 
-0.0184309 0.008803 -0.00223367 -0.0158377 0.00990919 -0.00138027 -0.0143177 0.00755812 -0.000434446 
-0.0181516 0.00693721 0.00148102 -0.0203659 0.00896025 -0.000730969 -0.0178743 -0.00266447 -9.30082e-05 
-0.0208602 0.00831879 -0.000448957 -0.0167626 0.00984746 -0.000281283 -0.0178952 0.00601677 -0.0012387 
-0.012517 0.00544242 0.000686738 -0.0233099 0.00828564 -0.00220581 -0.0241201 0.00793694 -0.00432365 
-0.0257215 0.0111273 -0.00145765 -0.0232221 0.013326 0.000723529 -0.0159022 0.010015 0.000592538 
-0.02362 0.0126191 -0.00191909 -0.0199601 0.0115136 -0.000915813 -0.0233202 0.0131049 -0.000742943 
-0.0172047 0.0259976 -0.00108048 -0.0182563 0.0108138 -0.00143549 -0.0305265 0.0145422 -0.00212484 
-0.0242593 0.0144014 0.00572012 -0.0171144 0.00957162 0.000102504 -0.0162618 0.00973904 -0.000722386 
-0.0205919 0.0161118 -0.00148927 -0.0232438 0.013758 -8.76452e-06 -0.0185374 0.0113097 -0.000842612 
-0.0230152 0.0112776 0.00175411 -0.0243169 0.00352049 0.00144243 -0.0221376 0.00812193 -0.0027572 
-0.020339 0.014655 -0.00122117 -0.022382 0.0106733 -0.00173683 -0.0240551 0.0119261 0.000477526 
-0.0286968 0.00528384 0.00218974 -0.0266385 0.00728435 0.0010641 -0.0237244 0.0102385 -0.000904982 
-0.0263314 0.012912 3.66279e-05 -0.0279976 0.0127208 -0.00130847 -0.0302181 0.0153811 -0.000427759 
-0.0339807 0.0133504 -0.00156467 -0.0289639 0.017297 -0.00116319 -0.0270196 0.0149858 0.00128931 
-0.0328681 0.0143885 -0.00357009 -0.0241897 0.0113541 -0.00853909 -0.0401731 0.0137744 -0.00919378 
-0.0347163 0.0142928 -0.00769446 -0.0434493 0.0213348 -0.00259968 -0.0323738 0.015491 -0.00135037 
-0.0381744 0.0186198 0.0026968 -0.0180155 0.0129701 0.0060015 -0.0267512 0.0146144 0.00151293 
-0.0392063 0.012236 -0.00400015 -0.0293076 0.0214206 0.00167993 -0.0388353 0.014828 -0.000753658 
-0.0413641 0.0222802 0.00112706 -0.038282 0.0184776 0.00612935 -0.022867 0.0149249 0.00486679 
-0.0536908 0.0215109 0.00795012 -0.0337849 0.012734 -0.00163265 -0.0276244 0.0210216 0.00109283 
-0.034326 0.0221014 -0.0026871 -0.0261929 0.0162269 0.00374202 -0.0260698 0.0174139 -0.000471486 
-0.0345695 0.0194032 -0.00198018 -0.0408329 0.0104387 0.00295025 -0.0288245 0.0141807 -0.000949885 
-0.0291573 0.0162179 0.00249216 -0.0315189 0.0170466 0.000353245 -0.0348439 0.0162356 -0.0028339 
-0.0471475 0.0155784 -0.00245151 -0.0391747 0.0197536 0.000285515 -0.0344214 0.0149605 0.00339493 
-0.0371616 0.0159873 -0.000783534 -0.0397301 0.021582 -0.000888819 -0.0348196 0.01614 -0.00229684 
-0.0422581 0.0189145 -0.00498641 -0.115653 0.0756424 0.0227386 -0.0468749 0.00332941 -0.0161095 
-0.0417881 0.0223341 0.0108344 -0.051863 0.0230707 -0.00238909 -0.0484019 0.024958 0.0068493 
-0.0493562 0.0169667 0.00625093 -0.0548358 -0.00023083 -0.00341569 -0.046759 0.0264167 0.00238229 
-0.0412483 0.0250777 0.00484906 -0.0353575 0.0177356 0.00221937 -0.0323905 0.0143327 -0.000482566 
-0.0607441 0.0246019 0.0197892 -0.0434066 0.0273605 0.00172642 -0.0352536 0.0274172 0.00148029 
-0.0372353 0.0237788 0.00385988 -0.0309114 0.0183948 0.00187294 -0.0343867 0.0183713 0.000233029 
-0.0460088 0.0162475 0.00086071 -0.0422227 0.0355473 0.0141384 -0.0357697 0.0262508 -0.00222761 
-0.0326342 0.0180853 -0.00253118 -0.0503841 0.0336852 0.011449 -0.0441475 0.0291131 0.00051943 
-0.0825279 -0.0168978 0.00937058 -0.0582593 0.0265865 0.00594454 -0.0492629 0.0298277 0.000681225 
-0.0347321 0.0348 0.0068517 -0.0335318 0.0320317 0.000421145 
radius 1 167 double
100 100 100 100 100 100 100 100 100 
100 100 100 100 100 100 100 100 100 
100 100 100 100 100 100 100 100 100 
100 100 100 100 100 100 100 100 100 
100 100 100 100 100 100 100 100 100 
100 100 100 100 100 100 100 100 100 
100 100 100 100 100 100 100 100 100 
100 100 100 100 100 100 100 100 100 
100 100 100 100 100 100 100 100 100 
100 100 100 100 100 100 100 100 100 
100 100 100 100 100 100 100 100 100 
100 100 100 100 100 100 100 100 100 
100 100 100 100 100 100 100 100 100 
100 100 100 100 100 100 100 100 100 
100 100 100 100 100 100 100 100 100 
100 100 100 100 100 100 100 100 100 
100 100 100 100 100 100 100 100 100 
100 100 100 100 100 100 100 100 100 
100 100 100 100 100 
omega 3 167 double
-8.39822e-10 3.8783e-10 -8.89791e-10 -4.04222e-10 9.29669e-10 -4.5096e-10 -3.45332e-10 1.01045e-10 8.37135e-11 
-2.24075e-10 -6.64215e-10 -5.85998e-11 -8.90257e-11 8.97443e-11 -2.23709e-10 -1.11659e-09 7.56945e-10 -5.79969e-10 
7.86114e-11 6.49192e-11 2.45759e-10 -5.12143e-10 8.96622e-10 -3.40157e-10 7.71109e-11 -5.82359e-11 -2.81996e-11 
-4.69279e-10 4.6047e-10 -2.81616e-10 -9.26131e-10 7.16251e-10 -4.38781e-10 4.27614e-10 8.82143e-10 -2.45366e-10 
-1.87186e-10 7.0337e-10 -2.43514e-10 2.00949e-10 2.11106e-10 -1.50354e-10 -7.70668e-10 -1.73823e-10 1.77231e-11 
4.45773e-10 -4.48652e-10 6.03346e-10 -2.61788e-10 5.19621e-10 3.50921e-10 3.7361e-10 -2.33577e-10 1.01591e-10 
-4.3415e-10 7.17743e-10 3.19227e-10 -1.81018e-10 -1.00173e-10 -1.18283e-10 6.45106e-11 1.69691e-10 -3.56423e-10 
2.19769e-10 5.8209e-10 -7.78932e-11 -1.67144e-10 -3.0725e-11 5.33217e-11 5.60829e-10 3.8953e-10 -7.00731e-10 
-5.5247e-10 1.75597e-10 5.57052e-10 -2.53954e-10 6.01247e-10 1.42452e-10 -5.7683e-10 1.60122e-09 6.20619e-10 
-2.08952e-11 -5.43462e-10 -8.20811e-10 -2.42871e-11 9.12202e-10 8.67253e-10 -5.08265e-11 1.22508e-10 -6.32716e-10 
-8.04281e-10 4.01799e-10 8.88963e-11 -1.38894e-09 -3.84827e-11 2.66113e-10 2.85899e-10 7.21874e-10 2.14252e-10 
-2.17774e-09 5.94113e-10 -1.81619e-09 5.66343e-11 -2.49412e-10 1.88077e-10 -6.60493e-11 -4.74414e-10 7.19057e-10 
-5.08565e-10 5.97687e-10 3.64139e-12 5.0681e-10 2.30918e-10 -4.7898e-10 -1.59423e-10 2.50956e-10 2.01764e-10 
4.86686e-11 3.35036e-10 -1.79451e-10 8.3716e-11 4.12174e-10 1.07985e-09 5.15881e-12 -3.74613e-11 -2.8862e-10 
1.89048e-10 5.60439e-11 -7.61749e-11 -3.21692e-10 5.27274e-10 3.36242e-10 3.48273e-11 4.44239e-10 -5.86983e-11 
-1.70594e-10 5.74428e-10 -1.06559e-10 1.57496e-09 1.18168e-09 -3.0821e-10 -8.78211e-10 2.46617e-10 -8.01877e-10 
-5.43252e-10 4.22482e-10 1.61595e-09 -6.51055e-10 1.14504e-09 -1.60882e-10 4.64504e-10 -3.06001e-10 6.47532e-10 
-3.49777e-11 -2.89653e-11 -7.81451e-10 1.63217e-10 4.73369e-10 1.03325e-09 -7.93102e-11 4.97926e-10 1.13437e-10 
4.33308e-10 -1.43936e-10 2.3837e-10 9.60274e-10 -5.51972e-10 5.41968e-10 -1.14721e-09 6.21564e-10 -7.43212e-10 
-6.20496e-10 8.04771e-10 3.59136e-11 3.81301e-10 3.84713e-10 2.9741e-10 8.09613e-10 2.56848e-10 5.09846e-10 
-5.87805e-10 4.42586e-10 -3.29379e-10 3.42658e-10 -2.7898e-10 -4.27976e-10 -3.10811e-10 2.13742e-10 -6.91782e-11 
-4.19863e-10 3.29366e-10 2.7674e-10 1.02695e-09 9.58269e-11 -8.01624e-10 -1.52188e-09 4.67602e-10 6.92243e-10 
-6.61829e-10 4.04773e-10 -4.46576e-10 8.07036e-10 -6.52064e-10 1.25838e-09 6.39684e-10 4.49462e-10 1.9568e-09 
-2.34768e-12 -5.80094e-10 -1.6341e-09 -4.25605e-10 5.20903e-10 4.14966e-10 -1.08767e-09 9.21195e-10 5.10644e-11 
1.08937e-10 4.63161e-10 3.67651e-12 7.55344e-10 -3.4682e-09 3.48499e-09 -1.80759e-09 1.42484e-09 -3.09444e-10 
3.23334e-10 1.18556e-10 -6.98186e-10 -1.86663e-10 1.88933e-10 -4.2802e-10 -1.86355e-10 -7.26094e-10 -5.67963e-10 
-2.92903e-09 -1.22422e-09 -1.15315e-10 -3.58798e-10 2.17687e-10 1.66313e-09 -3.69254e-10 2.41768e-09 -1.88329e-09 
3.60957e-10 5.40807e-10 1.04878e-09 -4.97796e-10 2.60147e-11 -8.65024e-10 1.87384e-10 8.26637e-10 -4.21406e-10 
2.4289e-11 1.38419e-09 1.36073e-10 -2.15215e-10 -1.06009e-10 -1.86371e-09 -3.70431e-10 -7.1703e-10 1.41062e-09 
-1.68198e-10 5.93655e-10 8.88635e-10 -4.05086e-10 1.13354e-09 1.01204e-09 1.50299e-09 1.13335e-10 -1.01551e-09 
4.39297e-10 1.11776e-09 -5.1076e-10 -1.4687e-10 4.07337e-10 1.82562e-09 -1.49112e-09 -1.14729e-10 -2.70213e-09 
-1.22612e-09 1.87811e-10 -1.64185e-09 -7.21543e-10 5.32173e-10 1.29986e-10 4.88572e-10 4.90801e-10 3.11035e-10 
1.88681e-10 -6.32413e-10 -2.41548e-09 -2.26652e-09 1.42666e-09 2.39269e-09 -2.05118e-11 9.56905e-10 9.53176e-10 
-7.91244e-10 8.46123e-10 6.29441e-10 -6.04153e-10 -7.78259e-10 -7.46318e-10 -2.5983e-10 5.36322e-09 -1.26028e-09 
-2.10756e-10 9.86471e-10 9.61423e-10 -2.74578e-10 -4.28519e-11 -7.77085e-10 1.08232e-10 1.02243e-10 1.35671e-09 
2.05377e-09 2.2567e-09 1.34291e-09 -8.12628e-10 -1.85946e-09 9.49385e-10 -4.26996e-09 4.6549e-09 2.89129e-10 
1.27392e-09 1.18766e-10 -9.99661e-10 3.92548e-10 1.06068e-09 -1.28427e-10 -5.44792e-10 1.60307e-09 3.63067e-10 
6.04268e-11 1.12336e-09 -4.60211e-10 -3.97873e-10 -1.20672e-09 -8.38317e-10 -9.84883e-10 7.1224e-10 8.0306e-10 
-1.42013e-09 6.98975e-11 1.30092e-09 1.29434e-09 -6.72308e-10 3.4023e-09 -1.20319e-09 1.35016e-09 -4.25984e-10 
-3.0684e-10 1.83963e-10 1.47826e-10 1.06308e-09 1.70249e-09 2.58736e-09 -6.98463e-11 -2.81144e-09 2.2887e-09 
3.28324e-09 3.52144e-09 4.24311e-09 1.35239e-10 1.07628e-09 1.8068e-10 8.08148e-10 1.76244e-09 1.53569e-09 
-8.80711e-10 -6.66312e-11 -1.22816e-09 -2.90507e-10 -1.03592e-09 -1.25367e-09 3.36727e-10 -3.21266e-10 1.06474e-09 
2.2046e-09 1.35307e-09 2.45532e-09 -3.60859e-10 -5.73239e-10 -6.97553e-10 5.33321e-10 -4.28256e-10 -1.12636e-09 
2.49736e-10 6.93881e-10 -1.48042e-10 -1.44005e-09 -4.12187e-10 -1.77464e-09 2.72356e-10 3.78353e-10 -3.80045e-09 
9.27477e-10 6.68804e-10 1.23164e-09 -1.51881e-09 -5.14625e-10 -1.46365e-09 -5.43133e-10 8.60692e-10 1.99283e-09 
-4.06002e-10 -9.36659e-10 -1.52666e-09 -2.13075e-09 -9.48056e-11 -1.78812e-09 -1.64314e-09 1.30171e-09 4.44521e-09 
-3.0405e-09 -8.3188e-10 -4.11823e-09 1.1632e-08 1.40911e-08 2.07199e-10 2.24849e-09 -3.8471e-09 -7.08748e-10 
-9.70969e-10 -3.32464e-09 -4.55707e-10 -3.69681e-10 1.03197e-09 8.15138e-10 -6.57709e-10 7.58319e-10 -6.40622e-10 
1.56408e-09 -5.54417e-10 2.59839e-09 -3.953e-09 5.10363e-09 -2.98881e-10 1.79225e-09 6.82621e-10 -7.45618e-10 
1.06596e-09 9.19921e-10 3.21336e-09 5.42258e-10 -2.9129e-09 6.14469e-10 2.5008e-10 1.62064e-10 2.77425e-09 
-1.09543e-09 -4.24437e-09 -1.02978e-09 1.66493e-10 8.22984e-10 2.61302e-09 1.95644e-09 -1.42125e-09 3.06664e-10 
-7.07739e-10 -5.54015e-10 -2.5807e-09 -2.25344e-10 -7.83205e-10 3.49742e-09 9.75116e-10 -8.42071e-10 -1.93666e-09 
-1.01515e-09 3.38128e-09 -5.63627e-09 2.22823e-09 -9.42123e-10 3.07084e-09 1.07882e-09 4.37785e-10 4.67226e-10 
-9.38875e-10 9.25331e-10 1.20243e-09 -3.22747e-09 1.5007e-09 -6.99221e-09 9.67498e-10 -3.2688e-09 7.37175e-09 
-7.3276e-09 1.24144e-08 5.53964e-10 7.29395e-10 1.32985e-09 -1.40548e-09 -4.64144e-10 -1.18393e-10 7.14228e-10 
1.06616e-10 -1.86879e-09 -1.15063e-09 -1.09658e-09 1.63914e-09 1.54896e-09 
