/*--------------------------------*- C++ -*----------------------------------*\
| =========                 |                                                 |
| \\      /  F ield         | OpenFOAM: The Open Source CFD Toolbox           |
|  \\    /   O peration     | Version:  5.x                                   |
|   \\  /    A nd           | Web:      www.OpenFOAM.org                      |
|    \\/     M anipulation  |                                                 |
\*---------------------------------------------------------------------------*/
FoamFile
{
    version     2.0;
    format      ascii;
    class       volScalarField;
    location    "100";
    object      p;
}
// * * * * * * * * * * * * * * * * * * * * * * * * * * * * * * * * * * * * * //

dimensions      [0 2 -2 0 0 0 0];

internalField   nonuniform List<scalar> 
90
(
-0.359678
-0.963667
-1.61445
-2.36907
-3.04976
-3.7429
-4.34004
-4.96324
-5.64667
-6.37941
-7.19971
-8.21758
-9.54782
-11.2473
-13.3102
-15.6504
-18.0702
-20.4507
-22.8464
-25.3088
-27.8863
-30.5639
-33.2496
-36.6946
-41.1482
-45.8673
-50.2637
-52.9718
-54.0237
-54.732
-55.5529
-56.3866
-58.0654
-59.8598
-61.1767
-61.6634
-61.0999
-60.9097
-61.304
-62.173
-64.4807
-68.7272
-74.2049
-81.427
-90.1347
-98.9806
-106.806
-112.247
-118.827
-130.368
-147.01
-165.631
-183.322
-198.424
-208.132
-212.746
-216.488
-225.8
-241.025
-257.268
-269.998
-278.879
-286.04
-292.11
-293.501
-278.921
-244.907
-205.878
-182.45
-184.875
-208.932
-231.603
-235.616
-238.154
-231.884
-231.424
-240.628
-243.551
-238.563
-229.791
-221.119
-213.395
-207.276
-202.963
-200.754
-200.498
-201.33
-202.703
-205.661
-208.382
)
;

boundaryField
{
    inlet
    {
        type            zeroGradient;
    }
    outlet
    {
        type            fixedValue;
        value           uniform 0;
    }
    repeat_boundary
    {
        type            zeroGradient;
    }
    procBoundary1to0
    {
        type            processor;
        value           nonuniform List<scalar> 
90
(
-0.241589
-0.758319
-1.23771
-1.79363
-2.36344
-2.9404
-3.57483
-4.38066
-5.30026
-6.2534
-7.31153
-8.71579
-10.6408
-12.9709
-15.4402
-17.7233
-19.6761
-21.3337
-22.3284
-22.5315
-22.4848
-22.2378
-22.1836
-22.6547
-23.858
-26.3458
-30.6649
-36.3879
-42.8355
-48.8142
-54.466
-59.9151
-64.2872
-67.3374
-69.5098
-70.6087
-71.6788
-72.8113
-73.9093
-75.9786
-78.5865
-80.6532
-82.2896
-83.5446
-84.2836
-84.9688
-86.7314
-91.3164
-99.4455
-109.347
-119.543
-132.667
-151.927
-174.15
-191.843
-205.457
-215.325
-226.669
-242.71
-246.001
-247.096
-253.549
-263.283
-281.725
-287.748
-288.63
-286.473
-273.326
-256.336
-239.733
-228.267
-220.002
-212.247
-205.977
-201.104
-198.566
-199.011
-201.021
-203.745
-206.121
-208.589
-209.995
-207.914
-207.033
-206.971
-206.956
-208.555
-211.295
-214.124
-215.635
)
;
    }
    procBoundary1to3
    {
        type            processor;
        value           nonuniform List<scalar> 
90
(
-0.28521
-0.616427
-1.62832
-2.8531
-3.15045
-3.37152
-4.07634
-5.15572
-6.13103
-6.9997
-7.95212
-9.06672
-10.3471
-11.8765
-13.66
-15.7248
-18.0582
-20.6296
-23.4384
-26.5999
-30.1823
-34.193
-38.5258
-42.8929
-46.4451
-48.5806
-49.2933
-49.0729
-48.6828
-48.7089
-49.2898
-50.173
-51.5285
-54.5581
-58.7745
-61.3751
-60.4842
-59.3982
-63.0242
-70.75
-78.4594
-84.5688
-88.0093
-89.4551
-90.2186
-90.4271
-90.0865
-90.7226
-94.6072
-102.147
-113.412
-131.424
-149.326
-164.229
-173.755
-178.328
-183.185
-188.231
-196.077
-215.556
-237.94
-268.528
-320.306
-378.572
-390.637
-364.363
-304.041
-243.799
-196.291
-161.445
-153.665
-169.467
-190.035
-210.959
-233.289
-248.495
-266.429
-278.713
-271.717
-264.804
-261.324
-257.035
-250.321
-244.211
-238.463
-233.001
-228.514
-224.935
-222.251
-221.009
)
;
    }
}


// ************************************************************************* //
