/*--------------------------------*- C++ -*----------------------------------*\
| =========                 |                                                 |
| \\      /  F ield         | OpenFOAM: The Open Source CFD Toolbox           |
|  \\    /   O peration     | Version:  5.x                                   |
|   \\  /    A nd           | Web:      www.OpenFOAM.org                      |
|    \\/     M anipulation  |                                                 |
\*---------------------------------------------------------------------------*/
FoamFile
{
    version     2.0;
    format      ascii;
    class       volVectorField;
    location    "800";
    object      Us;
}
// * * * * * * * * * * * * * * * * * * * * * * * * * * * * * * * * * * * * * //

dimensions      [0 1 -1 0 0 0 0];

internalField   nonuniform List<vector> 
90
(
(0 0 0)
(0 0 0)
(0 0 0)
(0 0 0)
(0 0 0)
(0 0 0)
(0 0 0)
(0 0 0)
(0 0 0)
(0 0 0)
(0 0 0)
(0 0 0)
(0 0 0)
(0 0 0)
(0 0 0)
(0 0 0)
(0 0 0)
(0 0 0)
(0 0 0)
(0 0 0)
(0 0 0)
(0 0 0)
(0 0 0)
(0 0 0)
(0 0 0)
(0 0 0)
(0 0 0)
(0 0 0)
(0 0 0)
(0 0 0)
(0 0 0)
(0 0 0)
(0 0 0)
(0 0 0)
(0 0 0)
(0 0 0)
(0 0 0)
(0 0 0)
(0 0 0)
(0 0 0)
(3.57623e-06 5.26809e-06 2.23769e-07)
(5.23998e-06 1.03408e-05 7.17472e-07)
(8.35631e-06 1.45456e-05 9.19483e-07)
(1.14529e-05 1.89967e-05 1.19504e-06)
(1.45586e-05 2.43845e-05 1.30222e-06)
(1.80416e-05 2.86515e-05 1.71621e-06)
(2.18376e-05 3.25897e-05 1.8624e-06)
(2.51037e-05 3.77005e-05 2.08998e-06)
(2.83618e-05 4.17528e-05 1.90514e-06)
(3.05711e-05 4.54626e-05 1.46028e-06)
(3.3373e-05 4.84566e-05 1.38577e-06)
(2.87486e-05 4.83767e-05 -4.77114e-06)
(3.96171e-05 0.000163618 -0.000107131)
(0.000140363 0.000316626 -2.36505e-05)
(0 0 0)
(0 0 0)
(0 0 0)
(0 0 0)
(0 0 0)
(0 0 0)
(0 0 0)
(0 0 0)
(0 0 0)
(0 0 0)
(0 0 0)
(0 0 0)
(0 0 0)
(0 0 0)
(0 0 0)
(0 0 0)
(0 0 0)
(0 0 0)
(0 0 0)
(0 0 0)
(0 0 0)
(0 0 0)
(0 0 0)
(0 0 0)
(0 0 0)
(0 0 0)
(0 0 0)
(0 0 0)
(0 0 0)
(0 0 0)
(0 0 0)
(0 0 0)
(0 0 0)
(0 0 0)
(0 0 0)
(0 0 0)
)
;

boundaryField
{
    inlet
    {
        type            fixedValue;
        value           uniform (0 0 0);
    }
    outlet
    {
        type            fixedValue;
        value           uniform (0 0 0);
    }
    repeat_boundary
    {
        type            fixedValue;
        value           uniform (0 0 0);
    }
    procBoundary2to0
    {
        type            processor;
        value           nonuniform List<vector> 
90
(
(0 0 0)
(0 0 0)
(0 0 0)
(0 0 0)
(0 0 0)
(0 0 0)
(0 0 0)
(0 0 0)
(0 0 0)
(0 0 0)
(0 0 0)
(0 0 0)
(0 0 0)
(0 0 0)
(0 0 0)
(0 0 0)
(0 0 0)
(0 0 0)
(0 0 0)
(0 0 0)
(0 0 0)
(0 0 0)
(0 0 0)
(0 0 0)
(0 0 0)
(0 0 0)
(0 0 0)
(0 0 0)
(0 0 0)
(0 0 0)
(0 0 0)
(0 0 0)
(0 0 0)
(0 0 0)
(0 0 0)
(0 0 0)
(0 0 0)
(0 0 0)
(0 0 0)
(0 0 0)
(2.59244e-06 5.08229e-06 6.27715e-08)
(5.06779e-06 1.0023e-05 -6.25373e-08)
(8.47523e-06 1.51088e-05 2.22005e-07)
(1.11108e-05 1.96092e-05 5.403e-07)
(1.41684e-05 2.40961e-05 1.14098e-06)
(1.80673e-05 2.84486e-05 1.46841e-06)
(2.1305e-05 3.30074e-05 1.89941e-06)
(2.42524e-05 3.74438e-05 2.1445e-06)
(2.77625e-05 4.17516e-05 2.36952e-06)
(3.22498e-05 4.63994e-05 2.14166e-06)
(3.58042e-05 4.95822e-05 1.46221e-06)
(3.74571e-05 5.38847e-05 -4.44815e-07)
(6.58335e-05 9.38908e-05 -9.13953e-06)
(0.000145609 0.00034084 1.77007e-05)
(0 0 0)
(0 0 0)
(0 0 0)
(0 0 0)
(0 0 0)
(0 0 0)
(0 0 0)
(0 0 0)
(0 0 0)
(0 0 0)
(0 0 0)
(0 0 0)
(0 0 0)
(0 0 0)
(0 0 0)
(0 0 0)
(0 0 0)
(0 0 0)
(0 0 0)
(0 0 0)
(0 0 0)
(0 0 0)
(0 0 0)
(0 0 0)
(0 0 0)
(0 0 0)
(0 0 0)
(0 0 0)
(0 0 0)
(0 0 0)
(0 0 0)
(0 0 0)
(0 0 0)
(0 0 0)
(0 0 0)
(0 0 0)
)
;
    }
    procBoundary2to3
    {
        type            processor;
        value           nonuniform List<vector> 
90
(
(0 0 0)
(0 0 0)
(0 0 0)
(0 0 0)
(0 0 0)
(0 0 0)
(0 0 0)
(0 0 0)
(0 0 0)
(0 0 0)
(0 0 0)
(0 0 0)
(0 0 0)
(0 0 0)
(0 0 0)
(0 0 0)
(0 0 0)
(0 0 0)
(0 0 0)
(0 0 0)
(0 0 0)
(0 0 0)
(0 0 0)
(0 0 0)
(0 0 0)
(0 0 0)
(0 0 0)
(0 0 0)
(0 0 0)
(0 0 0)
(0 0 0)
(0 0 0)
(0 0 0)
(0 0 0)
(0 0 0)
(0 0 0)
(0 0 0)
(0 0 0)
(0 0 0)
(0 0 0)
(3.44827e-06 5.59603e-06 1.3389e-07)
(5.86963e-06 1.13476e-05 -4.20632e-08)
(8.00627e-06 1.49317e-05 -1.01252e-07)
(1.1205e-05 1.93199e-05 4.66806e-07)
(1.5143e-05 2.48939e-05 7.22048e-07)
(1.82259e-05 2.96277e-05 7.12309e-07)
(2.16592e-05 3.3981e-05 5.20391e-07)
(2.4946e-05 3.80923e-05 1.53347e-06)
(2.88015e-05 4.23759e-05 1.73665e-06)
(3.08932e-05 4.56592e-05 2.39591e-06)
(3.28119e-05 4.91913e-05 3.16654e-06)
(3.62144e-05 5.17618e-05 2.32992e-06)
(-1.59977e-05 1.57167e-06 -2.22548e-05)
(-1.91131e-05 -1.14008e-05 -1.85678e-05)
(0 0 0)
(0 0 0)
(0 0 0)
(0 0 0)
(0 0 0)
(0 0 0)
(0 0 0)
(0 0 0)
(0 0 0)
(0 0 0)
(0 0 0)
(0 0 0)
(0 0 0)
(0 0 0)
(0 0 0)
(0 0 0)
(0 0 0)
(0 0 0)
(0 0 0)
(0 0 0)
(0 0 0)
(0 0 0)
(0 0 0)
(0 0 0)
(0 0 0)
(0 0 0)
(0 0 0)
(0 0 0)
(0 0 0)
(0 0 0)
(0 0 0)
(0 0 0)
(0 0 0)
(0 0 0)
(0 0 0)
(0 0 0)
)
;
    }
}


// ************************************************************************* //
