/*--------------------------------*- C++ -*----------------------------------*\
| =========                 |                                                 |
| \\      /  F ield         | OpenFOAM: The Open Source CFD Toolbox           |
|  \\    /   O peration     | Version:  5.x                                   |
|   \\  /    A nd           | Web:      www.OpenFOAM.org                      |
|    \\/     M anipulation  |                                                 |
\*---------------------------------------------------------------------------*/
FoamFile
{
    version     2.0;
    format      ascii;
    class       surfaceScalarField;
    location    "1000";
    object      phi;
}
// * * * * * * * * * * * * * * * * * * * * * * * * * * * * * * * * * * * * * //

dimensions      [0 3 -1 0 0 0 0];

internalField   nonuniform List<scalar> 
179
(
-249.994
-249.994
-249.994
-249.994
-249.993
-249.993
-249.992
-249.991
-249.99
-249.989
-249.988
-249.986
-249.985
-249.983
-249.981
-249.979
-249.976
-249.974
-249.971
-249.967
-249.964
-249.96
-249.955
-249.95
-249.944
-249.938
-249.931
-249.924
-249.915
-249.906
-249.895
-249.884
-249.871
-249.857
-249.842
-249.825
-249.806
-249.785
-249.763
-249.738
-249.71
-249.68
-249.647
-249.611
-249.572
-249.529
-249.483
-249.432
-249.378
-249.319
-249.255
-249.187
-249.113
-249.035
-248.952
-248.864
-248.771
-248.675
-248.574
-248.471
-248.366
-248.261
-248.158
-248.058
-247.966
-247.884
-247.817
-247.77
-247.752
-247.769
-247.831
-247.951
-248.143
-248.424
-248.814
-249.337
-250.023
-250.892
-251.914
-252.907
-253.235
-253.376
-245.649
-245.125
-247.657
-247.634
-248.692
-257.864
-266.419
-274.412
-281.967
-285.967
-287.15
-294.775
-300.16
-301.069
-311.929
-311.082
-313.88
-312.781
-301.695
-297.303
-294.775
-291.238
-286.701
-281.532
-276.881
-272.889
-269.48
-266.572
-264.091
-261.976
-260.174
-258.638
-257.33
-256.217
-255.27
-254.464
-253.779
-253.197
-252.702
-252.283
-251.927
-251.625
-251.369
-251.153
-250.97
-250.815
-250.684
-250.573
-250.48
-250.401
-250.335
-250.28
-250.233
-250.194
-250.161
-250.133
-250.11
-250.091
-250.074
-250.061
-250.05
-250.041
-250.033
-250.027
-250.022
-250.017
-250.014
-250.011
-250.008
-250.006
-250.005
-250.003
-250.002
-250.001
-250
-250
-249.999
-249.999
-249.998
-249.998
-249.998
-249.998
-249.998
-249.998
-249.998
-249.998
-249.998
-249.998
-249.999
-249.999
-249.999
-249.999
-249.999
-249.999
-250
-250
-250
)
;

boundaryField
{
    inlet
    {
        type            calculated;
        value           uniform -250;
    }
    outlet
    {
        type            calculated;
        value           uniform 249.994;
    }
    repeat_boundary
    {
        type            calculated;
        value           uniform 0;
    }
    procBoundary3to1
    {
        type            processor;
        value           nonuniform List<scalar> 
180
(
-7.98439e-05
-0.000184574
-0.000305853
-0.000432486
-0.00056447
-0.000703243
-0.000850454
-0.00100787
-0.00117739
-0.00136104
-0.00156104
-0.00177978
-0.00201991
-0.00228429
-0.00257609
-0.0028988
-0.00325624
-0.00365266
-0.00409273
-0.0045816
-0.00512498
-0.00572916
-0.00640111
-0.00714851
-0.00797986
-0.00890452
-0.00993285
-0.0110763
-0.0123474
-0.0137601
-0.0153297
-0.0170731
-0.0190088
-0.0211574
-0.0235413
-0.0261852
-0.0291162
-0.0323643
-0.0359621
-0.0399452
-0.044353
-0.0492282
-0.0546174
-0.0605715
-0.0671459
-0.0744007
-0.0824009
-0.0912169
-0.100925
-0.111605
-0.123347
-0.136242
-0.150392
-0.165905
-0.182899
-0.201495
-0.221822
-0.24401
-0.268193
-0.294502
-0.32309
-0.3541
-0.387671
-0.423939
-0.463033
-0.505069
-0.550147
-0.598345
-0.649706
-0.704236
-0.761886
-0.822542
-0.886004
-0.951965
-1.01996
-1.0892
-1.15894
-1.23059
-1.2984
-1.23522
-0.206768
0.00892129
-8.27144
-0.792848
0.624945
-0.501192
0.191788
5.26006
2.09949
7.61667
6.82742
6.91282
2.72359
6.53444
6.99196
1.62754
11.8298
0.0633617
1.54623
-1.36881
-5.64299
-2.14154
0.215376
0.0167482
-1.72063
-2.66886
-2.52143
-2.17677
-1.8622
-1.59133
-1.35928
-1.16062
-0.990598
-0.845131
-0.720708
-0.614316
-0.523372
-0.445659
-0.379274
-0.322587
-0.274199
-0.232911
-0.197696
-0.167672
-0.142085
-0.120297
-0.101755
-0.0859438
-0.072545
-0.0611886
-0.0515507
-0.0433287
-0.0363305
-0.0303873
-0.0253335
-0.0211931
-0.01771
-0.0147549
-0.0122485
-0.0101221
-0.00832076
-0.00679552
-0.0054713
-0.00432972
-0.00348415
-0.00286234
-0.00233565
-0.00189052
-0.00151525
-0.00119979
-0.000935403
-0.000714551
-0.000530722
-0.000378272
-0.000308605
-0.000246771
-0.000172244
-0.000100564
-3.74709e-05
1.53703e-05
5.80851e-05
9.15622e-05
0.000116971
0.000135544
0.000148475
0.000156862
0.000161631
0.000163525
0.000163399
0.000161936
0.000159655
0.00015694
0.000154055
0.000151181
0.000148431
0.000145862
0.000143453
0.000140799
0.000138219
0.000136835
)
;
    }
    procBoundary3to2
    {
        type            processor;
        value           nonuniform List<scalar> 
180
(
2.16853e-05
4.80806e-05
7.98959e-05
0.000113435
0.000148714
0.000186174
0.000226344
0.000269791
0.000317121
0.000368989
0.000426105
0.000489252
0.000559288
0.000637167
0.000723951
0.000820827
0.000929123
0.00105034
0.00118615
0.00133845
0.0015094
0.00170141
0.00191725
0.00216003
0.0024333
0.00274109
0.00308799
0.00347921
0.0039207
0.00441921
0.00498245
0.0056192
0.00633945
0.00715459
0.0080776
0.00912327
0.0103085
0.0116524
0.0131771
0.0149074
0.016872
0.0191034
0.021639
0.0245212
0.0277986
0.0315269
0.0357697
0.0405998
0.0461005
0.0523672
0.0595092
0.0676517
0.0769382
0.0875332
0.099625
0.113429
0.129194
0.147202
0.167778
0.191294
0.218178
0.248916
0.28407
0.324281
0.370282
0.422914
0.483139
0.552057
0.630928
0.721189
0.824485
0.942695
1.07796
1.23272
1.40976
1.61246
1.84444
2.10056
2.31947
2.22825
0.535596
0.131865
0.544099
0.269178
1.90631
0.478169
0.866925
3.91184
6.45531
0.376904
0.72697
-2.91283
-1.54089
1.09019
-1.6071
-0.717988
-0.970454
-0.909829
1.25114
0.269891
-5.44315
-2.25006
-2.74306
-3.55388
-2.81594
-2.50017
-2.12911
-1.81544
-1.54691
-1.31734
-1.12148
-0.954441
-0.812013
-0.690609
-0.587159
-0.499038
-0.424001
-0.360126
-0.305771
-0.259534
-0.220215
-0.186791
-0.158387
-0.134259
-0.113769
-0.0963764
-0.0816173
-0.0690967
-0.0584787
-0.0494778
-0.0418505
-0.0353892
-0.0299173
-0.0252848
-0.0213639
-0.0180494
-0.01525
-0.0128867
-0.0108926
-0.0092104
-0.00779173
-0.00659527
-0.0055856
-0.00473243
-0.00400985
-0.00339707
-0.00287739
-0.00243664
-0.00206278
-0.00174565
-0.00147664
-0.00124849
-0.00105503
-0.000891014
-0.000751995
-0.000634704
-0.00053627
-0.000453953
-0.000385252
-0.000327925
-0.000279975
-0.000239632
-0.000205357
-0.000175857
-0.000150115
-0.000127427
-0.000107393
-8.98669e-05
-7.48355e-05
-6.22905e-05
-5.21075e-05
-4.39996e-05
-3.7608e-05
-3.25742e-05
-2.85897e-05
-2.54241e-05
-2.29132e-05
-2.11981e-05
-1.99802e-05
-2.08347e-05
)
;
    }
}


// ************************************************************************* //
