/*--------------------------------*- C++ -*----------------------------------*\
| =========                 |                                                 |
| \\      /  F ield         | OpenFOAM: The Open Source CFD Toolbox           |
|  \\    /   O peration     | Version:  5.x                                   |
|   \\  /    A nd           | Web:      www.OpenFOAM.org                      |
|    \\/     M anipulation  |                                                 |
\*---------------------------------------------------------------------------*/
FoamFile
{
    version     2.0;
    format      ascii;
    class       volVectorField;
    location    "1000";
    object      stored_U;
}
// * * * * * * * * * * * * * * * * * * * * * * * * * * * * * * * * * * * * * //

dimensions      [0 1 -1 0 0 0 0];

internalField   nonuniform List<vector> 
180
(
(-7.36666e-10 2.14996e-09 -0.000999984)
(-1.69791e-09 4.88271e-09 -0.000999984)
(-2.80656e-09 8.10414e-09 -0.000999984)
(-3.95057e-09 1.14971e-08 -0.000999983)
(-5.1241e-09 1.50683e-08 -0.000999981)
(-6.33679e-09 1.8864e-08 -0.00099998)
(-7.60082e-09 2.29366e-08 -0.000999978)
(-8.9307e-09 2.7341e-08 -0.000999975)
(-1.03433e-08 3.21347e-08 -0.000999972)
(-1.18585e-08 3.73782e-08 -0.000999969)
(-1.3499e-08 4.31363e-08 -0.000999965)
(-1.52911e-08 4.94784e-08 -0.000999961)
(-1.72645e-08 5.64797e-08 -0.000999956)
(-1.9453e-08 6.4222e-08 -0.00099995)
(-2.18944e-08 7.27955e-08 -0.000999944)
(-2.46312e-08 8.22992e-08 -0.000999936)
(-2.77104e-08 9.2843e-08 -0.000999928)
(-3.11848e-08 1.04549e-07 -0.000999919)
(-3.51127e-08 1.17553e-07 -0.000999909)
(-3.95591e-08 1.32007e-07 -0.000999897)
(-4.45963e-08 1.48078e-07 -0.000999884)
(-5.03053e-08 1.65957e-07 -0.00099987)
(-5.67765e-08 1.85852e-07 -0.000999855)
(-6.41114e-08 2.07998e-07 -0.000999837)
(-7.24246e-08 2.32653e-07 -0.000999818)
(-8.18453e-08 2.60108e-07 -0.000999796)
(-9.25198e-08 2.90682e-07 -0.000999772)
(-1.04614e-07 3.24731e-07 -0.000999746)
(-1.18318e-07 3.6265e-07 -0.000999717)
(-1.33847e-07 4.04873e-07 -0.000999684)
(-1.51447e-07 4.51883e-07 -0.000999648)
(-1.71399e-07 5.04212e-07 -0.000999608)
(-1.94023e-07 5.62447e-07 -0.000999564)
(-2.19688e-07 6.27235e-07 -0.000999515)
(-2.48814e-07 6.9929e-07 -0.000999461)
(-2.81882e-07 7.79397e-07 -0.000999401)
(-3.19443e-07 8.6842e-07 -0.000999335)
(-3.62128e-07 9.67309e-07 -0.000999262)
(-4.1066e-07 1.0771e-06 -0.000999182)
(-4.65869e-07 1.19895e-06 -0.000999094)
(-5.28705e-07 1.3341e-06 -0.000998998)
(-6.00258e-07 1.48391e-06 -0.000998892)
(-6.8178e-07 1.64988e-06 -0.000998776)
(-7.74709e-07 1.83364e-06 -0.00099865)
(-8.80697e-07 2.03695e-06 -0.000998513)
(-1.00164e-06 2.26174e-06 -0.000998363)
(-1.13973e-06 2.51007e-06 -0.000998201)
(-1.29746e-06 2.78419e-06 -0.000998026)
(-1.47775e-06 3.08651e-06 -0.000997837)
(-1.6839e-06 3.41959e-06 -0.000997634)
(-1.91978e-06 3.7862e-06 -0.000997416)
(-2.18979e-06 4.18925e-06 -0.000997183)
(-2.49904e-06 4.63189e-06 -0.000996936)
(-2.85341e-06 5.11748e-06 -0.000996675)
(-3.25969e-06 5.64967e-06 -0.0009964)
(-3.7257e-06 6.23216e-06 -0.000996113)
(-4.26048e-06 6.86894e-06 -0.000995816)
(-4.87445e-06 7.56402e-06 -0.000995511)
(-5.5796e-06 8.32125e-06 -0.000995202)
(-6.38983e-06 9.1445e-06 -0.000994894)
(-7.32114e-06 1.00375e-05 -0.000994592)
(-8.39205e-06 1.10039e-05 -0.000994306)
(-9.62393e-06 1.20469e-05 -0.000994044)
(-1.10415e-05 1.31693e-05 -0.000993819)
(-1.26733e-05 1.43732e-05 -0.000993647)
(-1.45524e-05 1.56596e-05 -0.000993548)
(-1.6717e-05 1.70286e-05 -0.000993544)
(-1.92111e-05 1.84785e-05 -0.000993665)
(-2.2086e-05 2.00055e-05 -0.000993945)
(-2.54006e-05 2.16032e-05 -0.000994427)
(-2.92234e-05 2.32622e-05 -0.000995162)
(-3.36334e-05 2.4969e-05 -0.000996211)
(-3.8722e-05 2.67051e-05 -0.000997643)
(-4.4595e-05 2.8446e-05 -0.000999548)
(-5.13752e-05 3.01594e-05 -0.00100215)
(-5.92081e-05 3.18033e-05 -0.00100593)
(-6.82485e-05 3.33337e-05 -0.00100937)
(-7.84226e-05 3.47372e-05 -0.00099952)
(-8.79298e-05 3.56379e-05 -0.000964286)
(-8.81099e-05 3.19853e-05 -0.00101984)
(-3.59077e-05 1.58652e-06 -0.00257764)
(2.17317e-05 -1.17329e-05 -7.01335e-05)
(-2.81729e-05 0.000409119 -0.00357127)
(3.7433e-05 -1.09165e-05 -0.000294375)
(-0.000103457 -4.41289e-05 -0.00392565)
(-7.4444e-06 3.07461e-05 -0.00383309)
(3.72524e-05 -3.25649e-06 -0.00103885)
(-0.000255997 -0.000237614 -0.00366713)
(-0.000316894 -0.000207893 -0.0035376)
(-1.16709e-05 -7.3135e-05 -0.000770659)
(5.8993e-05 -0.000648836 -0.00303703)
(0.000377632 -0.00028864 -0.00346936)
(8.32788e-05 -7.85703e-05 -0.00150409)
(1.00842e-05 -0.000543445 -0.00399817)
(0.000158844 -0.000642287 -0.0034871)
(5.66849e-05 -6.50815e-06 -0.000480397)
(0.000260223 -0.000538525 -0.0046189)
(-9.11438e-06 3.61243e-05 -0.000259932)
(4.67007e-05 -0.000116898 -0.00444477)
(0.000138022 0.000132334 -0.00182487)
(0.000506984 0.000419601 -0.00392412)
(0.000124685 -2.07823e-05 -0.000857816)
(0.000143377 -0.000122594 -0.0032698)
(0.000133644 -8.58097e-05 -0.00151853)
(8.54224e-05 1.99574e-05 -0.00126806)
(6.53507e-05 6.53525e-05 -0.00114245)
(5.45771e-05 6.4371e-05 -0.0010939)
(4.6489e-05 5.53685e-05 -0.00107805)
(3.96198e-05 4.70263e-05 -0.00106765)
(3.37452e-05 3.98724e-05 -0.00105775)
(2.8732e-05 3.37743e-05 -0.00104899)
(2.4457e-05 2.85817e-05 -0.00104151)
(2.08125e-05 2.41636e-05 -0.00103516)
(1.77069e-05 2.04075e-05 -0.00102975)
(1.50613e-05 1.72165e-05 -0.00102515)
(1.28086e-05 1.45079e-05 -0.00102124)
(1.08909e-05 1.22106e-05 -0.00101792)
(9.25903e-06 1.02639e-05 -0.0010151)
(7.87078e-06 8.61564e-06 -0.00101271)
(6.69012e-06 7.22147e-06 -0.00101069)
(5.68626e-06 6.04335e-06 -0.00100897)
(4.83294e-06 5.04882e-06 -0.00100752)
(4.10772e-06 4.21019e-06 -0.0010063)
(3.49151e-06 3.50381e-06 -0.00100527)
(2.96798e-06 2.90955e-06 -0.00100439)
(2.52325e-06 2.41024e-06 -0.00100366)
(2.14551e-06 1.99128e-06 -0.00100304)
(1.82467e-06 1.64023e-06 -0.00100253)
(1.55216e-06 1.34651e-06 -0.00100209)
(1.32068e-06 1.10116e-06 -0.00100173)
(1.12408e-06 8.96603e-07 -0.00100142)
(9.57114e-07 7.26446e-07 -0.00100117)
(8.1529e-07 5.85196e-07 -0.00100096)
(6.9478e-07 4.68156e-07 -0.00100078)
(5.92309e-07 3.71315e-07 -0.00100064)
(5.05073e-07 2.91233e-07 -0.00100052)
(4.3079e-07 2.25205e-07 -0.00100042)
(3.67538e-07 1.70985e-07 -0.00100034)
(3.13676e-07 1.26663e-07 -0.00100027)
(2.67806e-07 9.06152e-08 -0.00100021)
(2.28731e-07 6.14651e-08 -0.00100017)
(1.95444e-07 3.80693e-08 -0.00100013)
(1.67136e-07 1.95608e-08 -0.0010001)
(1.43072e-07 5.12358e-09 -0.00100007)
(1.22612e-07 -5.96181e-09 -0.00100005)
(1.05208e-07 -1.43106e-08 -0.00100003)
(9.03912e-08 -2.04425e-08 -0.00100002)
(7.77624e-08 -2.47926e-08 -0.00100001)
(6.69845e-08 -2.77237e-08 -0.001)
(5.77721e-08 -2.95361e-08 -0.000999995)
(4.98846e-08 -3.0473e-08 -0.00099999)
(4.312e-08 -3.07326e-08 -0.000999987)
(3.73084e-08 -3.04757e-08 -0.000999984)
(3.23073e-08 -2.9832e-08 -0.000999983)
(2.79974e-08 -2.89053e-08 -0.000999982)
(2.42788e-08 -2.77784e-08 -0.000999981)
(2.10679e-08 -2.65163e-08 -0.000999981)
(1.82949e-08 -2.517e-08 -0.000999981)
(1.59012e-08 -2.37787e-08 -0.000999982)
(1.38377e-08 -2.2373e-08 -0.000999982)
(1.20628e-08 -2.09766e-08 -0.000999983)
(1.05412e-08 -1.9605e-08 -0.000999983)
(9.24252e-09 -1.82686e-08 -0.000999984)
(8.14028e-09 -1.69751e-08 -0.000999985)
(7.21127e-09 -1.57304e-08 -0.000999986)
(6.43477e-09 -1.4539e-08 -0.000999987)
(5.79208e-09 -1.34049e-08 -0.000999988)
(5.26619e-09 -1.23314e-08 -0.000999989)
(4.84142e-09 -1.13216e-08 -0.00099999)
(4.50338e-09 -1.03787e-08 -0.000999991)
(4.23878e-09 -9.50585e-09 -0.000999992)
(4.03536e-09 -8.70599e-09 -0.000999992)
(3.88194e-09 -7.98209e-09 -0.000999993)
(3.76851e-09 -7.33695e-09 -0.000999994)
(3.68619e-09 -6.77309e-09 -0.000999995)
(3.62741e-09 -6.29262e-09 -0.000999996)
(3.58702e-09 -5.89591e-09 -0.000999997)
(3.57529e-09 -5.56812e-09 -0.000999998)
(3.57014e-09 -5.32655e-09 -0.000999999)
(3.61874e-09 -5.12844e-09 -0.000999999)
)
;

boundaryField
{
    inlet
    {
        type            calculated;
        value           uniform (3.61874e-09 -5.12844e-09 -0.000999999);
    }
    outlet
    {
        type            calculated;
        value           uniform (-7.36666e-10 2.14996e-09 -0.000999984);
    }
    repeat_boundary
    {
        type            calculated;
        value           nonuniform List<vector> 
360
(
(0 2.14996e-09 -0.000999984)
(0 4.88271e-09 -0.000999984)
(0 8.10414e-09 -0.000999984)
(0 1.14971e-08 -0.000999983)
(0 1.50683e-08 -0.000999981)
(0 1.8864e-08 -0.00099998)
(0 2.29366e-08 -0.000999978)
(0 2.7341e-08 -0.000999975)
(0 3.21347e-08 -0.000999972)
(0 3.73782e-08 -0.000999969)
(0 4.31363e-08 -0.000999965)
(0 4.94784e-08 -0.000999961)
(0 5.64797e-08 -0.000999956)
(0 6.4222e-08 -0.00099995)
(0 7.27955e-08 -0.000999944)
(0 8.22992e-08 -0.000999936)
(0 9.2843e-08 -0.000999928)
(0 1.04549e-07 -0.000999919)
(0 1.17553e-07 -0.000999909)
(0 1.32007e-07 -0.000999897)
(0 1.48078e-07 -0.000999884)
(0 1.65957e-07 -0.00099987)
(0 1.85852e-07 -0.000999855)
(0 2.07998e-07 -0.000999837)
(0 2.32653e-07 -0.000999818)
(0 2.60108e-07 -0.000999796)
(0 2.90682e-07 -0.000999772)
(0 3.24731e-07 -0.000999746)
(0 3.6265e-07 -0.000999717)
(0 4.04873e-07 -0.000999684)
(0 4.51883e-07 -0.000999648)
(0 5.04212e-07 -0.000999608)
(0 5.62447e-07 -0.000999564)
(0 6.27235e-07 -0.000999515)
(0 6.9929e-07 -0.000999461)
(0 7.79397e-07 -0.000999401)
(0 8.6842e-07 -0.000999335)
(0 9.67309e-07 -0.000999262)
(0 1.0771e-06 -0.000999182)
(0 1.19895e-06 -0.000999094)
(0 1.3341e-06 -0.000998998)
(0 1.48391e-06 -0.000998892)
(0 1.64988e-06 -0.000998776)
(0 1.83364e-06 -0.00099865)
(0 2.03695e-06 -0.000998513)
(0 2.26174e-06 -0.000998363)
(0 2.51007e-06 -0.000998201)
(0 2.78419e-06 -0.000998026)
(0 3.08651e-06 -0.000997837)
(0 3.41959e-06 -0.000997634)
(0 3.7862e-06 -0.000997416)
(0 4.18925e-06 -0.000997183)
(0 4.63189e-06 -0.000996936)
(0 5.11748e-06 -0.000996675)
(0 5.64967e-06 -0.0009964)
(0 6.23216e-06 -0.000996113)
(0 6.86894e-06 -0.000995816)
(0 7.56402e-06 -0.000995511)
(0 8.32125e-06 -0.000995202)
(0 9.1445e-06 -0.000994894)
(0 1.00375e-05 -0.000994592)
(0 1.10039e-05 -0.000994306)
(0 1.20469e-05 -0.000994044)
(0 1.31693e-05 -0.000993819)
(0 1.43732e-05 -0.000993647)
(0 1.56596e-05 -0.000993548)
(0 1.70286e-05 -0.000993544)
(0 1.84785e-05 -0.000993665)
(0 2.00055e-05 -0.000993945)
(0 2.16032e-05 -0.000994427)
(0 2.32622e-05 -0.000995162)
(0 2.4969e-05 -0.000996211)
(0 2.67051e-05 -0.000997643)
(0 2.8446e-05 -0.000999548)
(0 3.01594e-05 -0.00100215)
(0 3.18033e-05 -0.00100593)
(0 3.33337e-05 -0.00100937)
(0 3.47372e-05 -0.00099952)
(0 3.56379e-05 -0.000964286)
(0 3.19853e-05 -0.00101984)
(0 1.58652e-06 -0.00257764)
(0 -1.17329e-05 -7.01335e-05)
(0 0.000409119 -0.00357127)
(0 -1.09165e-05 -0.000294375)
(0 -4.41289e-05 -0.00392565)
(0 3.07461e-05 -0.00383309)
(0 -3.25649e-06 -0.00103885)
(0 -0.000237614 -0.00366713)
(0 -0.000207893 -0.0035376)
(0 -7.3135e-05 -0.000770659)
(0 -0.000648836 -0.00303703)
(0 -0.00028864 -0.00346936)
(0 -7.85703e-05 -0.00150409)
(0 -0.000543445 -0.00399817)
(0 -0.000642287 -0.0034871)
(0 -6.50815e-06 -0.000480397)
(0 -0.000538525 -0.0046189)
(0 3.61243e-05 -0.000259932)
(0 -0.000116898 -0.00444477)
(0 0.000132334 -0.00182487)
(0 0.000419601 -0.00392412)
(0 -2.07823e-05 -0.000857816)
(0 -0.000122594 -0.0032698)
(0 -8.58097e-05 -0.00151853)
(0 1.99574e-05 -0.00126806)
(0 6.53525e-05 -0.00114245)
(0 6.4371e-05 -0.0010939)
(0 5.53685e-05 -0.00107805)
(0 4.70263e-05 -0.00106765)
(0 3.98724e-05 -0.00105775)
(0 3.37743e-05 -0.00104899)
(0 2.85817e-05 -0.00104151)
(0 2.41636e-05 -0.00103516)
(0 2.04075e-05 -0.00102975)
(0 1.72165e-05 -0.00102515)
(0 1.45079e-05 -0.00102124)
(0 1.22106e-05 -0.00101792)
(0 1.02639e-05 -0.0010151)
(0 8.61564e-06 -0.00101271)
(0 7.22147e-06 -0.00101069)
(0 6.04335e-06 -0.00100897)
(0 5.04882e-06 -0.00100752)
(0 4.21019e-06 -0.0010063)
(0 3.50381e-06 -0.00100527)
(0 2.90955e-06 -0.00100439)
(0 2.41024e-06 -0.00100366)
(0 1.99128e-06 -0.00100304)
(0 1.64023e-06 -0.00100253)
(0 1.34651e-06 -0.00100209)
(0 1.10116e-06 -0.00100173)
(0 8.96603e-07 -0.00100142)
(0 7.26446e-07 -0.00100117)
(0 5.85196e-07 -0.00100096)
(0 4.68156e-07 -0.00100078)
(0 3.71315e-07 -0.00100064)
(0 2.91233e-07 -0.00100052)
(0 2.25205e-07 -0.00100042)
(0 1.70985e-07 -0.00100034)
(0 1.26663e-07 -0.00100027)
(0 9.06152e-08 -0.00100021)
(0 6.14651e-08 -0.00100017)
(0 3.80693e-08 -0.00100013)
(0 1.95608e-08 -0.0010001)
(0 5.12358e-09 -0.00100007)
(0 -5.96181e-09 -0.00100005)
(0 -1.43106e-08 -0.00100003)
(0 -2.04425e-08 -0.00100002)
(0 -2.47926e-08 -0.00100001)
(0 -2.77237e-08 -0.001)
(0 -2.95361e-08 -0.000999995)
(0 -3.0473e-08 -0.00099999)
(0 -3.07326e-08 -0.000999987)
(0 -3.04757e-08 -0.000999984)
(0 -2.9832e-08 -0.000999983)
(0 -2.89053e-08 -0.000999982)
(0 -2.77784e-08 -0.000999981)
(0 -2.65163e-08 -0.000999981)
(0 -2.517e-08 -0.000999981)
(0 -2.37787e-08 -0.000999982)
(0 -2.2373e-08 -0.000999982)
(0 -2.09766e-08 -0.000999983)
(0 -1.9605e-08 -0.000999983)
(0 -1.82686e-08 -0.000999984)
(0 -1.69751e-08 -0.000999985)
(0 -1.57304e-08 -0.000999986)
(0 -1.4539e-08 -0.000999987)
(0 -1.34049e-08 -0.000999988)
(0 -1.23314e-08 -0.000999989)
(0 -1.13216e-08 -0.00099999)
(0 -1.03787e-08 -0.000999991)
(0 -9.50585e-09 -0.000999992)
(0 -8.70599e-09 -0.000999992)
(0 -7.98209e-09 -0.000999993)
(0 -7.33695e-09 -0.000999994)
(0 -6.77309e-09 -0.000999995)
(0 -6.29262e-09 -0.000999996)
(0 -5.89591e-09 -0.000999997)
(0 -5.56812e-09 -0.000999998)
(0 -5.32655e-09 -0.000999999)
(0 -5.12844e-09 -0.000999999)
(-7.36666e-10 0 -0.000999984)
(-1.69791e-09 0 -0.000999984)
(-2.80656e-09 0 -0.000999984)
(-3.95057e-09 0 -0.000999983)
(-5.1241e-09 0 -0.000999981)
(-6.33679e-09 0 -0.00099998)
(-7.60082e-09 0 -0.000999978)
(-8.9307e-09 0 -0.000999975)
(-1.03433e-08 0 -0.000999972)
(-1.18585e-08 0 -0.000999969)
(-1.3499e-08 0 -0.000999965)
(-1.52911e-08 0 -0.000999961)
(-1.72645e-08 0 -0.000999956)
(-1.9453e-08 0 -0.00099995)
(-2.18944e-08 0 -0.000999944)
(-2.46312e-08 0 -0.000999936)
(-2.77104e-08 0 -0.000999928)
(-3.11848e-08 0 -0.000999919)
(-3.51127e-08 0 -0.000999909)
(-3.95591e-08 0 -0.000999897)
(-4.45963e-08 0 -0.000999884)
(-5.03053e-08 0 -0.00099987)
(-5.67765e-08 0 -0.000999855)
(-6.41114e-08 0 -0.000999837)
(-7.24246e-08 0 -0.000999818)
(-8.18453e-08 0 -0.000999796)
(-9.25198e-08 0 -0.000999772)
(-1.04614e-07 0 -0.000999746)
(-1.18318e-07 0 -0.000999717)
(-1.33847e-07 0 -0.000999684)
(-1.51447e-07 0 -0.000999648)
(-1.71399e-07 0 -0.000999608)
(-1.94023e-07 0 -0.000999564)
(-2.19688e-07 0 -0.000999515)
(-2.48814e-07 0 -0.000999461)
(-2.81882e-07 0 -0.000999401)
(-3.19443e-07 0 -0.000999335)
(-3.62128e-07 0 -0.000999262)
(-4.1066e-07 0 -0.000999182)
(-4.65869e-07 0 -0.000999094)
(-5.28705e-07 0 -0.000998998)
(-6.00258e-07 0 -0.000998892)
(-6.8178e-07 0 -0.000998776)
(-7.74709e-07 0 -0.00099865)
(-8.80697e-07 0 -0.000998513)
(-1.00164e-06 0 -0.000998363)
(-1.13973e-06 0 -0.000998201)
(-1.29746e-06 0 -0.000998026)
(-1.47775e-06 0 -0.000997837)
(-1.6839e-06 0 -0.000997634)
(-1.91978e-06 0 -0.000997416)
(-2.18979e-06 0 -0.000997183)
(-2.49904e-06 0 -0.000996936)
(-2.85341e-06 0 -0.000996675)
(-3.25969e-06 0 -0.0009964)
(-3.7257e-06 0 -0.000996113)
(-4.26048e-06 0 -0.000995816)
(-4.87445e-06 0 -0.000995511)
(-5.5796e-06 0 -0.000995202)
(-6.38983e-06 0 -0.000994894)
(-7.32114e-06 0 -0.000994592)
(-8.39205e-06 0 -0.000994306)
(-9.62393e-06 0 -0.000994044)
(-1.10415e-05 0 -0.000993819)
(-1.26733e-05 0 -0.000993647)
(-1.45524e-05 0 -0.000993548)
(-1.6717e-05 0 -0.000993544)
(-1.92111e-05 0 -0.000993665)
(-2.2086e-05 0 -0.000993945)
(-2.54006e-05 0 -0.000994427)
(-2.92234e-05 0 -0.000995162)
(-3.36334e-05 0 -0.000996211)
(-3.8722e-05 0 -0.000997643)
(-4.4595e-05 0 -0.000999548)
(-5.13752e-05 0 -0.00100215)
(-5.92081e-05 0 -0.00100593)
(-6.82485e-05 0 -0.00100937)
(-7.84226e-05 0 -0.00099952)
(-8.79298e-05 0 -0.000964286)
(-8.81099e-05 0 -0.00101984)
(-3.59077e-05 0 -0.00257764)
(2.17317e-05 0 -7.01335e-05)
(-2.81729e-05 0 -0.00357127)
(3.7433e-05 0 -0.000294375)
(-0.000103457 0 -0.00392565)
(-7.4444e-06 0 -0.00383309)
(3.72524e-05 0 -0.00103885)
(-0.000255997 0 -0.00366713)
(-0.000316894 0 -0.0035376)
(-1.16709e-05 0 -0.000770659)
(5.8993e-05 0 -0.00303703)
(0.000377632 0 -0.00346936)
(8.32788e-05 0 -0.00150409)
(1.00842e-05 0 -0.00399817)
(0.000158844 0 -0.0034871)
(5.66849e-05 0 -0.000480397)
(0.000260223 0 -0.0046189)
(-9.11438e-06 0 -0.000259932)
(4.67007e-05 0 -0.00444477)
(0.000138022 0 -0.00182487)
(0.000506984 0 -0.00392412)
(0.000124685 0 -0.000857816)
(0.000143377 0 -0.0032698)
(0.000133644 0 -0.00151853)
(8.54224e-05 0 -0.00126806)
(6.53507e-05 0 -0.00114245)
(5.45771e-05 0 -0.0010939)
(4.6489e-05 0 -0.00107805)
(3.96198e-05 0 -0.00106765)
(3.37452e-05 0 -0.00105775)
(2.8732e-05 0 -0.00104899)
(2.4457e-05 0 -0.00104151)
(2.08125e-05 0 -0.00103516)
(1.77069e-05 0 -0.00102975)
(1.50613e-05 0 -0.00102515)
(1.28086e-05 0 -0.00102124)
(1.08909e-05 0 -0.00101792)
(9.25903e-06 0 -0.0010151)
(7.87078e-06 0 -0.00101271)
(6.69012e-06 0 -0.00101069)
(5.68626e-06 0 -0.00100897)
(4.83294e-06 0 -0.00100752)
(4.10772e-06 0 -0.0010063)
(3.49151e-06 0 -0.00100527)
(2.96798e-06 0 -0.00100439)
(2.52325e-06 0 -0.00100366)
(2.14551e-06 0 -0.00100304)
(1.82467e-06 0 -0.00100253)
(1.55216e-06 0 -0.00100209)
(1.32068e-06 0 -0.00100173)
(1.12408e-06 0 -0.00100142)
(9.57114e-07 0 -0.00100117)
(8.1529e-07 0 -0.00100096)
(6.9478e-07 0 -0.00100078)
(5.92309e-07 0 -0.00100064)
(5.05073e-07 0 -0.00100052)
(4.3079e-07 0 -0.00100042)
(3.67538e-07 0 -0.00100034)
(3.13676e-07 0 -0.00100027)
(2.67806e-07 0 -0.00100021)
(2.28731e-07 0 -0.00100017)
(1.95444e-07 0 -0.00100013)
(1.67136e-07 0 -0.0010001)
(1.43072e-07 0 -0.00100007)
(1.22612e-07 0 -0.00100005)
(1.05208e-07 0 -0.00100003)
(9.03912e-08 0 -0.00100002)
(7.77624e-08 0 -0.00100001)
(6.69845e-08 0 -0.001)
(5.77721e-08 0 -0.000999995)
(4.98846e-08 0 -0.00099999)
(4.312e-08 0 -0.000999987)
(3.73084e-08 0 -0.000999984)
(3.23073e-08 0 -0.000999983)
(2.79974e-08 0 -0.000999982)
(2.42788e-08 0 -0.000999981)
(2.10679e-08 0 -0.000999981)
(1.82949e-08 0 -0.000999981)
(1.59012e-08 0 -0.000999982)
(1.38377e-08 0 -0.000999982)
(1.20628e-08 0 -0.000999983)
(1.05412e-08 0 -0.000999983)
(9.24252e-09 0 -0.000999984)
(8.14028e-09 0 -0.000999985)
(7.21127e-09 0 -0.000999986)
(6.43477e-09 0 -0.000999987)
(5.79208e-09 0 -0.000999988)
(5.26619e-09 0 -0.000999989)
(4.84142e-09 0 -0.00099999)
(4.50338e-09 0 -0.000999991)
(4.23878e-09 0 -0.000999992)
(4.03536e-09 0 -0.000999992)
(3.88194e-09 0 -0.000999993)
(3.76851e-09 0 -0.000999994)
(3.68619e-09 0 -0.000999995)
(3.62741e-09 0 -0.000999996)
(3.58702e-09 0 -0.000999997)
(3.57529e-09 0 -0.000999998)
(3.57014e-09 0 -0.000999999)
(3.61874e-09 0 -0.000999999)
)
;
    }
    procBoundary3to1
    {
        type            processor;
        value           nonuniform List<vector> 
180
(
(-4.70449e-10 2.14996e-09 -0.00100005)
(-9.97985e-10 4.88272e-09 -0.00100005)
(-1.65386e-09 8.10414e-09 -0.00100005)
(-2.3617e-09 1.14971e-08 -0.00100005)
(-3.12398e-09 1.50683e-08 -0.00100006)
(-3.95297e-09 1.8864e-08 -0.00100006)
(-4.86231e-09 2.29366e-08 -0.00100006)
(-5.86528e-09 2.7341e-08 -0.00100007)
(-6.97471e-09 3.21347e-08 -0.00100007)
(-8.20303e-09 3.73782e-08 -0.00100008)
(-9.56238e-09 4.31363e-08 -0.00100009)
(-1.10647e-08 4.94784e-08 -0.00100009)
(-1.27222e-08 5.64797e-08 -0.0010001)
(-1.45471e-08 6.42221e-08 -0.00100011)
(-1.65526e-08 7.27955e-08 -0.00100012)
(-1.87525e-08 8.22992e-08 -0.00100014)
(-2.11623e-08 9.2843e-08 -0.00100015)
(-2.37987e-08 1.04549e-07 -0.00100017)
(-2.66805e-08 1.17553e-07 -0.00100018)
(-2.98289e-08 1.32007e-07 -0.0010002)
(-3.32671e-08 1.48078e-07 -0.00100022)
(-3.70212e-08 1.65957e-07 -0.00100025)
(-4.11198e-08 1.85852e-07 -0.00100028)
(-4.55945e-08 2.07998e-07 -0.00100031)
(-5.04791e-08 2.32653e-07 -0.00100034)
(-5.58104e-08 2.60108e-07 -0.00100038)
(-6.16271e-08 2.90682e-07 -0.00100042)
(-6.79698e-08 3.24732e-07 -0.00100047)
(-7.48806e-08 3.6265e-07 -0.00100052)
(-8.24021e-08 4.04874e-07 -0.00100058)
(-9.05769e-08 4.51884e-07 -0.00100064)
(-9.94465e-08 5.04212e-07 -0.00100072)
(-1.0905e-07 5.62447e-07 -0.0010008)
(-1.19423e-07 6.27235e-07 -0.00100089)
(-1.30594e-07 6.9929e-07 -0.00100099)
(-1.42586e-07 7.79398e-07 -0.0010011)
(-1.55409e-07 8.68421e-07 -0.00100122)
(-1.69059e-07 9.6731e-07 -0.00100135)
(-1.83516e-07 1.07711e-06 -0.0010015)
(-1.98734e-07 1.19895e-06 -0.00100167)
(-2.14637e-07 1.3341e-06 -0.00100185)
(-2.31114e-07 1.48391e-06 -0.00100206)
(-2.48005e-07 1.64989e-06 -0.00100228)
(-2.65092e-07 1.83365e-06 -0.00100253)
(-2.82086e-07 2.03696e-06 -0.00100281)
(-2.98609e-07 2.26175e-06 -0.00100311)
(-3.14173e-07 2.51009e-06 -0.00100344)
(-3.28155e-07 2.78421e-06 -0.00100381)
(-3.39769e-07 3.08653e-06 -0.00100421)
(-3.48023e-07 3.41961e-06 -0.00100465)
(-3.51682e-07 3.78622e-06 -0.00100513)
(-3.49246e-07 4.18928e-06 -0.00100566)
(-3.38933e-07 4.63193e-06 -0.00100624)
(-3.18703e-07 5.11752e-06 -0.00100688)
(-2.86291e-07 5.64972e-06 -0.00100758)
(-2.38695e-07 6.23223e-06 -0.00100834)
(-1.72616e-07 6.86903e-06 -0.00100917)
(-8.38158e-08 7.56412e-06 -0.00101008)
(3.32067e-08 8.32137e-06 -0.00101105)
(1.84988e-07 9.14464e-06 -0.00101211)
(3.79327e-07 1.00377e-05 -0.00101324)
(6.25473e-07 1.10041e-05 -0.00101446)
(9.34426e-07 1.20472e-05 -0.00101577)
(1.31927e-06 1.31696e-05 -0.00101716)
(1.79552e-06 1.43735e-05 -0.00101863)
(2.3816e-06 1.56601e-05 -0.00102019)
(3.09931e-06 1.70291e-05 -0.00102183)
(3.97449e-06 1.84791e-05 -0.00102353)
(5.03764e-06 2.00062e-05 -0.0010253)
(6.32481e-06 2.16041e-05 -0.00102711)
(7.8785e-06 2.32633e-05 -0.00102894)
(9.74883e-06 2.49703e-05 -0.00103076)
(1.19948e-05 2.67066e-05 -0.00103254)
(1.46859e-05 2.84479e-05 -0.00103422)
(1.79047e-05 3.01623e-05 -0.00103585)
(2.17495e-05 3.18087e-05 -0.00103783)
(2.6305e-05 3.33301e-05 -0.00103923)
(3.16702e-05 3.46898e-05 -0.00102666)
(3.72159e-05 3.52072e-05 -0.000965775)
(3.81395e-05 2.95072e-05 -0.000847674)
(1.32334e-05 -4.71423e-06 -0.00301923)
(2.20834e-05 -2.35825e-05 -6.82434e-05)
(-0.000166041 0.000295426 -0.00388042)
(-6.73653e-05 0.000103829 -0.00211936)
(-6.21853e-05 -3.95821e-05 -0.00216536)
(-0.000176221 2.48061e-05 -0.00382932)
(-0.000120068 -2.66922e-05 -0.00152465)
(-0.000531112 -0.00041214 -0.00456907)
(4.58386e-05 1.52596e-05 -0.000184072)
(0.000754385 -0.000712101 -0.00425842)
(9.86302e-05 -8.06589e-05 -0.000398288)
(0.000446754 -0.000360244 -0.00361512)
(0.00027128 -0.000313413 -0.00205473)
(0.000262314 -0.000406434 -0.00346381)
(5.66236e-05 -0.000104586 -0.00165933)
(8.32157e-05 -0.000197854 -0.00233725)
(0.000385692 -0.000429214 -0.002286)
(1.40362e-06 5.40817e-05 -0.00029958)
(2.63923e-05 -3.02899e-05 -0.00372191)
(-4.06889e-05 0.000122363 -0.00146185)
(-0.000164239 0.000184819 -0.00214499)
(-0.000186447 0.000185396 -0.00148265)
(-0.000198375 6.32787e-05 -0.00124882)
(-0.000156285 4.64632e-05 -0.00103421)
(-0.00011934 6.69537e-05 -0.000960093)
(-8.89372e-05 7.18937e-05 -0.000900177)
(-7.37281e-05 6.47511e-05 -0.000881101)
(-6.29722e-05 5.53986e-05 -0.000895145)
(-5.39169e-05 4.70369e-05 -0.000911771)
(-4.61727e-05 3.98796e-05 -0.00092494)
(-3.95355e-05 3.37793e-05 -0.000935872)
(-3.38435e-05 2.85852e-05 -0.000945242)
(-2.8963e-05 2.41661e-05 -0.000953284)
(-2.47797e-05 2.04093e-05 -0.000960172)
(-2.11949e-05 1.72178e-05 -0.000966067)
(-1.8124e-05 1.45088e-05 -0.00097111)
(-1.5494e-05 1.22112e-05 -0.000975421)
(-1.32422e-05 1.02643e-05 -0.000979104)
(-1.13148e-05 8.61595e-06 -0.000982249)
(-9.66538e-06 7.22169e-06 -0.000984932)
(-8.25432e-06 6.0435e-06 -0.000987221)
(-7.04745e-06 5.04893e-06 -0.000989172)
(-6.01547e-06 4.21026e-06 -0.000990833)
(-5.13325e-06 3.50387e-06 -0.000992247)
(-4.37924e-06 2.90959e-06 -0.00099345)
(-3.73495e-06 2.41027e-06 -0.000994471)
(-3.18455e-06 1.99129e-06 -0.000995339)
(-2.71445e-06 1.64025e-06 -0.000996075)
(-2.31302e-06 1.34652e-06 -0.000996699)
(-1.97029e-06 1.10116e-06 -0.000997227)
(-1.67778e-06 8.96608e-07 -0.000997675)
(-1.4282e-06 7.26449e-07 -0.000998054)
(-1.21531e-06 5.85198e-07 -0.000998374)
(-1.03373e-06 4.68158e-07 -0.000998643)
(-8.78851e-07 3.71316e-07 -0.000998868)
(-7.46686e-07 2.91234e-07 -0.000999057)
(-6.33943e-07 2.25206e-07 -0.000999217)
(-5.37817e-07 1.70986e-07 -0.000999352)
(-4.55904e-07 1.26663e-07 -0.000999466)
(-3.86135e-07 9.06155e-08 -0.000999562)
(-3.26738e-07 6.14653e-08 -0.000999642)
(-2.76203e-07 3.80694e-08 -0.00099971)
(-2.33286e-07 1.95609e-08 -0.000999768)
(-1.96882e-07 5.12366e-09 -0.000999816)
(-1.66025e-07 -5.96175e-09 -0.000999856)
(-1.39887e-07 -1.43106e-08 -0.000999888)
(-1.17755e-07 -2.04425e-08 -0.000999915)
(-9.90211e-08 -2.47926e-08 -0.000999936)
(-8.31644e-08 -2.77237e-08 -0.000999954)
(-6.97424e-08 -2.95361e-08 -0.000999968)
(-5.83845e-08 -3.0473e-08 -0.000999979)
(-4.87767e-08 -3.07326e-08 -0.000999987)
(-4.06526e-08 -3.04757e-08 -0.000999994)
(-3.37866e-08 -2.9832e-08 -0.000999999)
(-2.79876e-08 -2.89053e-08 -0.001)
(-2.30941e-08 -2.77784e-08 -0.00100001)
(-1.89692e-08 -2.65163e-08 -0.00100001)
(-1.54975e-08 -2.517e-08 -0.00100001)
(-1.25813e-08 -2.37787e-08 -0.00100001)
(-1.01367e-08 -2.2373e-08 -0.00100001)
(-8.09157e-09 -2.09766e-08 -0.00100001)
(-6.38949e-09 -1.9605e-08 -0.00100001)
(-4.98416e-09 -1.82686e-08 -0.00100001)
(-3.8354e-09 -1.69751e-08 -0.00100001)
(-2.90809e-09 -1.57304e-08 -0.00100001)
(-2.17128e-09 -1.4539e-08 -0.00100001)
(-1.59747e-09 -1.34049e-08 -0.00100001)
(-1.16205e-09 -1.23314e-08 -0.00100001)
(-8.42879e-10 -1.13216e-08 -0.00100001)
(-6.19951e-10 -1.03787e-08 -0.00100001)
(-4.75215e-10 -9.50585e-09 -0.00100001)
(-3.92418e-10 -8.70599e-09 -0.00100001)
(-3.57054e-10 -7.98209e-09 -0.00100001)
(-3.56338e-10 -7.33695e-09 -0.00100001)
(-3.79206e-10 -6.77309e-09 -0.00100001)
(-4.16244e-10 -6.29262e-09 -0.001)
(-4.61091e-10 -5.89591e-09 -0.001)
(-5.2358e-10 -5.56812e-09 -0.001)
(-5.8158e-10 -5.32655e-09 -0.001)
(-6.68454e-10 -5.12844e-09 -0.001)
)
;
    }
    procBoundary3to2
    {
        type            processor;
        value           nonuniform List<vector> 
180
(
(-7.36666e-10 2.41618e-09 -0.000999962)
(-1.69791e-09 5.58264e-09 -0.000999962)
(-2.80656e-09 9.25685e-09 -0.000999961)
(-3.95057e-09 1.3086e-08 -0.00099996)
(-5.1241e-09 1.70684e-08 -0.000999958)
(-6.33678e-09 2.12478e-08 -0.000999955)
(-7.60082e-09 2.56752e-08 -0.000999952)
(-8.9307e-09 3.04065e-08 -0.000999948)
(-1.03433e-08 3.55033e-08 -0.000999943)
(-1.18585e-08 4.10337e-08 -0.000999938)
(-1.3499e-08 4.7073e-08 -0.000999931)
(-1.52911e-08 5.37047e-08 -0.000999923)
(-1.72645e-08 6.1022e-08 -0.000999914)
(-1.9453e-08 6.91279e-08 -0.000999904)
(-2.18944e-08 7.81373e-08 -0.000999892)
(-2.46312e-08 8.81778e-08 -0.000999878)
(-2.77104e-08 9.93911e-08 -0.000999862)
(-3.11848e-08 1.11935e-07 -0.000999845)
(-3.51127e-08 1.25985e-07 -0.000999825)
(-3.95591e-08 1.41737e-07 -0.000999802)
(-4.45963e-08 1.59408e-07 -0.000999777)
(-5.03053e-08 1.79241e-07 -0.000999748)
(-5.67765e-08 2.01509e-07 -0.000999716)
(-6.41114e-08 2.26515e-07 -0.00099968)
(-7.24246e-08 2.54599e-07 -0.00099964)
(-8.18452e-08 2.86142e-07 -0.000999595)
(-9.25198e-08 3.21575e-07 -0.000999544)
(-1.04614e-07 3.61376e-07 -0.000999487)
(-1.18318e-07 4.06088e-07 -0.000999424)
(-1.33847e-07 4.56319e-07 -0.000999352)
(-1.51447e-07 5.12753e-07 -0.000999272)
(-1.71399e-07 5.76164e-07 -0.000999181)
(-1.94023e-07 6.4742e-07 -0.00099908)
(-2.19688e-07 7.275e-07 -0.000998965)
(-2.48814e-07 8.17509e-07 -0.000998837)
(-2.81882e-07 9.18693e-07 -0.000998693)
(-3.19443e-07 1.03245e-06 -0.00099853)
(-3.62127e-07 1.16038e-06 -0.000998348)
(-4.1066e-07 1.30425e-06 -0.000998142)
(-4.65868e-07 1.46608e-06 -0.000997911)
(-5.28704e-07 1.64816e-06 -0.00099765)
(-6.00257e-07 1.85305e-06 -0.000997357)
(-6.81779e-07 2.08365e-06 -0.000997027)
(-7.74708e-07 2.34325e-06 -0.000996656)
(-8.80695e-07 2.63556e-06 -0.000996237)
(-1.00164e-06 2.96477e-06 -0.000995766)
(-1.13972e-06 3.33562e-06 -0.000995235)
(-1.29746e-06 3.75349e-06 -0.000994637)
(-1.47774e-06 4.22447e-06 -0.000993962)
(-1.6839e-06 4.75546e-06 -0.000993202)
(-1.91976e-06 5.35427e-06 -0.000992344)
(-2.18977e-06 6.02976e-06 -0.000991375)
(-2.49901e-06 6.79195e-06 -0.000990282)
(-2.85338e-06 7.65213e-06 -0.000989048)
(-3.25965e-06 8.623e-06 -0.000987653)
(-3.72565e-06 9.71908e-06 -0.000986078)
(-4.26041e-06 1.09567e-05 -0.000984297)
(-4.87435e-06 1.23545e-05 -0.000982284)
(-5.57948e-06 1.39338e-05 -0.000980006)
(-6.38966e-06 1.5719e-05 -0.00097743)
(-7.32092e-06 1.77376e-05 -0.000974514)
(-8.39174e-06 2.00209e-05 -0.000971214)
(-9.62352e-06 2.26046e-05 -0.000967475)
(-1.10409e-05 2.55292e-05 -0.00096324)
(-1.26726e-05 2.88408e-05 -0.00095844)
(-1.45514e-05 3.25921e-05 -0.000952998)
(-1.67156e-05 3.68428e-05 -0.000946826)
(-1.92093e-05 4.16613e-05 -0.000939824)
(-2.20835e-05 4.71254e-05 -0.000931877)
(-2.53972e-05 5.33237e-05 -0.000922854)
(-2.92188e-05 6.03576e-05 -0.000912606)
(-3.36271e-05 6.83424e-05 -0.000900962)
(-3.87134e-05 7.74101e-05 -0.000887726)
(-4.45834e-05 8.77111e-05 -0.000872671)
(-5.13594e-05 9.94172e-05 -0.000855609)
(-5.9187e-05 0.000112727 -0.000836573)
(-6.82226e-05 0.000127849 -0.000814844)
(-7.84038e-05 0.000144694 -0.000781445)
(-8.8256e-05 0.000160306 -0.000711922)
(-9.02574e-05 0.000155768 -0.000599705)
(-3.88157e-05 4.37201e-05 -0.00193083)
(2.77245e-05 -3.4754e-05 -9.03799e-05)
(-2.38621e-05 0.000139799 -0.00289003)
(3.5807e-05 -1.83245e-05 -0.00052066)
(-9.40191e-05 -7.56409e-05 -0.00341008)
(3.70786e-05 -4.84094e-05 -0.000682471)
(-8.05017e-05 -0.000198225 -0.00297012)
(-0.000163944 -0.000164673 -0.00139512)
(-0.000330189 0.000196533 -0.00249502)
(-1.34012e-06 -4.19428e-06 -0.000445108)
(1.39819e-05 3.31562e-05 -0.0043974)
(7.68988e-05 -4.73853e-05 -0.00154861)
(0.00018815 -0.000183097 -0.00205237)
(-3.44814e-05 -0.000223922 -0.00271548)
(1.26733e-05 5.47979e-06 -0.000307762)
(0.000128312 -0.000219475 -0.00291178)
(3.16556e-05 -2.66308e-05 -0.00128675)
(0.000124457 -6.81167e-05 -0.00174708)
(2.91187e-05 -3.51302e-05 -0.00236798)
(9.94639e-05 -5.61885e-05 -0.00045001)
(0.000190886 -1.31147e-06 -0.00256497)
(0.000288673 3.89567e-05 -0.00129629)
(0.000158905 -0.000109463 -0.00118227)