/*--------------------------------*- C++ -*----------------------------------*\
| =========                 |                                                 |
| \\      /  F ield         | OpenFOAM: The Open Source CFD Toolbox           |
|  \\    /   O peration     | Version:  5.x                                   |
|   \\  /    A nd           | Web:      www.OpenFOAM.org                      |
|    \\/     M anipulation  |                                                 |
\*---------------------------------------------------------------------------*/
FoamFile
{
    version     2.0;
    format      ascii;
    class       surfaceScalarField;
    location    "90000";
    object      phi;
}
// * * * * * * * * * * * * * * * * * * * * * * * * * * * * * * * * * * * * * //

dimensions      [0 3 -1 0 0 0 0];

internalField   nonuniform List<scalar> 
5825
(
-4.47882e-05
0.000245029
-1000
-5.239e-05
0.000215849
-1000
-4.90561e-05
0.000209449
-1000
-2.78896e-05
0.000205948
-1000
0.000205124
-1000
-6.05356e-05
0.000199258
-999.999
-6.00538e-05
0.000186168
-999.999
-5.02641e-05
0.000183363
-1000
-2.78773e-05
0.000178298
-1000
0.000174379
-1000
-7.36886e-05
0.000143139
-999.999
-6.97792e-05
0.000134043
-999.999
-5.37849e-05
0.000129624
-999.999
-3.16142e-05
0.000125703
-999.999
0.000122186
-999.999
-8.06759e-05
6.97039e-05
-999.999
-7.2693e-05
6.68425e-05
-999.999
-5.75195e-05
6.33278e-05
-999.999
-3.41523e-05
6.23959e-05
-999.999
6.10786e-05
-999.999
-8.48252e-05
-999.999
-7.53187e-05
-999.999
-6.0227e-05
-999.999
-3.43999e-05
-999.999
-999.999
-0.000109853
0.00066653
-1000
-0.000128893
0.000599313
-1000
-0.000117421
0.000566127
-1000
-6.41245e-05
0.000550589
-1000
0.000540537
-1000
-0.000154403
0.000534099
-999.999
-0.000155055
0.000498687
-999.999
-0.000128155
0.000483119
-999.999
-7.21907e-05
0.000465607
-1000
0.000450483
-1000
-0.000195443
0.000373442
-999.999
-0.000182641
0.000349815
-999.999
-0.000144596
0.000334956
-999.999
-8.5092e-05
0.000324778
-999.999
0.000314533
-999.999
-0.000215634
0.000181788
-999.999
-0.000194682
0.000172016
-999.999
-0.000155933
0.000162254
-999.999
-9.02559e-05
0.000159873
-999.999
0.00015786
-999.999
-0.000227592
-999.998
-0.000204461
-999.999
-0.00016141
-999.999
-9.03504e-05
-999.999
-999.999
-0.000269121
0.00109302
-1000
-0.000242494
0.00102919
-1000
-0.000187699
0.000994089
-1000
-9.70112e-05
0.000958385
-1000
0.000929925
-1000
-0.00029361
0.000898232
-999.999
-0.000278082
0.000856304
-999.999
-0.000215475
0.000828659
-999.999
-0.0001226
0.000799184
-1000
0.000774971
-1000
-0.000348222
0.000617438
-999.999
-0.000316213
0.000593554
-999.999
-0.000244486
0.000573535
-999.999
-0.000140891
0.000559746
-999.999
0.000549168
-999.999
-0.00037296
0.000305043
-999.998
-0.000332211
0.000293737
-999.999
-0.000257527
0.000282786
-999.999
-0.000144405
0.000281726
-999.999
0.0002825
-999.999
-0.000389681
-999.998
-0.000342576
-999.998
-0.000260097
-999.999
-0.000140584
-999.999
-999.999
-0.000538369
0.00152709
-999.999
-0.000408848
0.00152287
-1000
-0.000285628
0.0014984
-1000
-0.000150566
0.00144624
-1000
0.00140562
-1000
-0.000516884
0.00129054
-999.999
-0.000443702
0.00126935
-999.999
-0.00032674
0.00124393
-999.999
-0.000183572
0.00121179
-1000
0.00119017
-1000
-0.000546777
0.000899699
-999.998
-0.000478423
0.000889912
-999.999
-0.000357951
0.000874733
-999.999
-0.000198343
0.000864381
-999.999
0.000860825
-999.999
-0.000559816
0.000453146
-999.998
-0.000488906
0.000453584
-999.998
-0.000366102
0.000448604
-999.998
-0.000196837
0.000451192
-999.999
0.000458423
-999.999
-0.000570037
-999.998
-0.0004925
-999.998
-0.000363163
-999.998
-0.000187325
-999.998
-999.998
-0.000870128
0.00209294
-1000
-0.000650618
0.00215782
-1000
-0.000441124
0.00214833
-1000
-0.000238746
0.0021009
-1000
0.00206459
-1000
-0.000799492
0.00179053
-999.999
-0.000661992
0.00180975
-999.999
-0.000476296
0.00179736
-999.999
-0.000260638
0.00177625
-999.999
0.00176642
-1000
-0.000794168
0.00127927
-999.998
-0.0006798
0.00129534
-999.998
-0.000497892
0.00129224
-999.998
-0.00026556
0.00128992
-999.999
0.00129386
-999.999
-0.000784451
0.000665263
-999.997
-0.000678433
0.000683837
-999.998
-0.000498337
0.000687414
-999.998
-0.000258041
0.0006924
-999.998
0.000701439
-999.998
-0.000775889
-999.997
-0.000673401
-999.997
-0.000491253
-999.997
-0.00024592
-999.998
-999.998
-0.00118458
0.00299412
-1000
-0.000948938
0.00304739
-1000
-0.000658527
0.00304952
-1000
-0.000354635
0.00302367
-1000
0.00300446
-1000
-0.00112071
0.00254322
-999.998
-0.000942509
0.00257597
-999.999
-0.000676981
0.00257704
-999.999
-0.000361555
0.00257151
-999.999
0.00257125
-999.999
-0.00109739
0.00184931
-999.997
-0.000939073
0.00187741
-999.998
-0.00068353
0.00188135
-999.998
-0.000355456
0.00188378
-999.998
0.00188914
-999.998
-0.0010751
0.00099331
-999.996
-0.000932712
0.00101166
-999.997
-0.000680133
0.00101443
-999.997
-0.00034497
0.00101781
-999.997
0.00102315
-999.997
-0.00105923
-999.996
-0.000927668
-999.996
-0.000674499
-999.997
-0.000335356
-999.997
-999.997
-0.00151672
0.00428574
-999.999
-0.00129189
0.00430698
-1000
-0.000930503
0.0043147
-1000
-0.000495982
0.00430769
-1000
0.00430058
-1000
-0.00149986
0.00365224
-999.998
-0.0012962
0.00366672
-999.998
-0.000937878
0.00366825
-999.999
-0.000491131
0.00366878
-999.999
0.00366921
-999.999
-0.0014957
0.00268817
-999.996
-0.00128783
0.00269376
-999.997
-0.000936292
0.00268939
-999.997
-0.000481519
0.00268899
-999.997
0.00268886
-999.998
-0.00149326
0.00145864
-999.995
-0.00129141
0.00145018
-999.996
-0.000936351
0.00144333
-999.996
-0.000474937
0.00144198
-999.996
0.00144059
-999.997
-0.00149743
-999.994
-0.00129502
-999.995
-0.00093461
-999.995
-0.000471211
-999.996
-999.996
-0.00200134
0.00602492
-999.999
-0.00173345
0.00604235
-1000
-0.0012644
0.00604654
-1000
-0.000665991
0.00604521
-1000
0.0060386
-1000
-0.00202154
0.00517338
-999.997
-0.00174923
0.00516138
-999.998
-0.00127025
0.00515072
-999.998
-0.000659125
0.00514679
-999.999
0.00513936
-999.999
-0.00204452
0.00382926
-999.995
-0.0017553
0.00378958
-999.995
-0.00127245
0.00376811
-999.996
-0.000654349
0.00376064
-999.997
0.00375132
-999.997
-0.00208511
0.0020552
-999.993
-0.00177599
0.0020154
-999.994
-0.00127896
0.00200088
-999.995
-0.000655004
0.00199616
-999.995
0.00199088
-999.995
-0.00212016
-999.992
-0.00178567
-999.993
-0.00127934
-999.994
-0.000653849
-999.994
-999.995
-0.00272271
0.00835678
-999.999
-0.00233029
0.00837878
-1000
-0.00169303
0.0083734
-1000
-0.000886374
0.00836753
-1000
0.00835217
-1000
-0.00273572
0.00718797
-999.996
-0.0023394
0.00715805
-999.997
-0.00169891
0.00713298
-999.997
-0.00088265
0.00712131
-999.998
0.0071024
-999.998
-0.00277906
0.00529744
-999.993
-0.00236465
0.00523238
-999.994
-0.00171063
0.00520087
-999.995
-0.000886129
0.00518842
-999.995
0.00517247
-999.996
-0.00284141
0.00279947
-999.991
-0.00239365
0.00275613
-999.992
-0.00172159
0.00274356
-999.993
-0.000890661
0.00274009
-999.993
0.00273612
-999.994
-0.00287779
-999.99
-0.00240027
-999.991
-0.00172073
-999.992
-0.000885495
-999.992
-999.993
-0.00366695
0.0115347
-999.999
-0.00312237
0.0115115
-1000
-0.00226825
0.0114932
-1000
-0.00119239
0.0114792
-1000
0.0114512
-1000
-0.00368775
0.00985036
-999.994
-0.0031314
0.00982387
-999.995
-0.00227717
0.00979003
-999.997
-0.00119239
0.00977368
-999.997
0.00974658
-999.998
-0.00373826
0.00720355
-999.99
-0.00316693
0.00715461
-999.992
-0.00229566
0.0071256
-999.993
-0.00119939
0.00711454
-999.994
0.00709898
-999.994
-0.00378561
0.00378127
-999.988
-0.00319159
0.00376349
-999.989
-0.00230567
0.00375707
-999.99
-0.0011991
0.00375787
-999.991
0.00375674
-999.991
-0.00379408
-999.986
-0.00319068
-999.988
-0.00229966
-999.989
-0.00118842
-999.99
-999.99
-0.00490679
0.0158096
-999.998
-0.00420142
0.0157537
-1000
-0.00307297
0.015712
-1000
-0.00162631
0.0156924
-1000
0.0156552
-1000
-0.0049814
0.0134455
-999.992
-0.00423429
0.0134226
-999.994
-0.0030868
0.013386
-999.995
-0.00162538
0.0133716
-999.997
0.0133433
-999.997
-0.00502886
0.0097752
-999.987
-0.00426885
0.00976079
-999.989
-0.00310293
0.00974134
-999.99
-0.00162483
0.00973896
-999.991
0.00972635
-999.992
-0.0050477
0.00514108
-999.983
-0.00428415
0.00514708
-999.985
-0.00310435
0.00514517
-999.987
-0.00161529
0.00515006
-999.988
0.00514471
-999.988
-0.0050305
-999.981
-0.00427579
-999.983
-0.003092
-999.985
-0.00160474
-999.986
-999.986
-0.00665451
0.0216036
-999.997
-0.00572165
0.0215163
-1000
-0.00419761
0.02146
-1000
-0.00222033
0.0214432
-1000
0.0214018
-1000
-0.0067886
0.0183447
-999.989
-0.00577765
0.0183157
-999.992
-0.00421121
0.0182823
-999.994
-0.00221266
0.0182761
-999.995
0.0182474
-999.996
-0.00682982
0.013318
-999.982
-0.00580802
0.0133154
-999.985
-0.00421664
0.0133071
-999.987
-0.00220114
0.0133151
-999.988
0.0132956
-999.989
-0.00683529
0.00701963
-999.977
-0.00581357
0.00702785
-999.98
-0.00420688
0.00703031
-999.982
-0.00219006
0.00703461
-999.983
0.00701638
-999.984
-0.00681229
-999.974
-0.00579722
-999.977
-0.00419251
-999.979
-0.00218723
-999.981
-999.982
-0.00912341
0.0294288
-999.996
-0.00784146
0.0293386
-999.999
-0.00572384
0.0292888
-1000
-0.00300707
0.0292813
-1000
0.029229
-1000.01
-0.00927737
0.0249986
-999.985
-0.00789144
0.0249634
-999.988
-0.00572992
0.0249386
-999.991
-0.00299442
0.0249419
-999.993
0.0248985
-999.995
-0.00931996
0.0181522
-999.976
-0.00791256
0.0181456
-999.979
-0.00572403
0.0181475
-999.982
-0.00298189
0.0181567
-999.984
0.0181144
-999.985
-0.00932768
0.00956289
-999.969
-0.00790831
0.00956611
-999.973
-0.00571185
0.00957217
-999.975
-0.00298227
0.00956957
-999.978
0.00953873
-999.979
-0.00930452
-999.965
-0.00788424
-999.969
-0.00570068
-999.972
-0.00298435
-999.974
-999.975
-0.0125051
0.0399805
-999.994
-0.0107008
0.0399149
-999.999
-0.0077603
0.0398915
-1000
-0.00405506
0.0398905
-1000.01
0.0398083
-1000.01
-0.0126312
0.0339814
-999.98
-0.0107213
0.0339577
-999.984
-0.00775774
0.0339482
-999.988
-0.00404727
0.0339517
-999.991
0.0338734
-999.993
-0.0126664
0.0246852
-999.967
-0.0107275
0.0246833
-999.972
-0.00775018
0.0246893
-999.976
-0.00404872
0.024686
-999.979
0.0246169
-999.98
-0.0126702
0.0129933
-999.958
-0.0107185
0.0129975
-999.963
-0.00774857
0.0130007
-999.967
-0.00406035
0.0129919
-999.97
0.0129563
-999.971
-0.0126393
-999.953
-0.0106914
-999.958
-0.0077391
-999.962
-0.00405793
-999.965
-999.966
-0.0170212
0.0542573
-999.993
-0.0145016
0.0542173
-999.999
-0.0104932
0.0542155
-1000
-0.00548808
0.0542093
-1000.01
0.0540798
-1000.01
-0.0171043
0.0461301
-999.973
-0.014499
0.0461299
-999.979
-0.010492
0.0461291
-999.984
-0.00549521
0.0461187
-999.988
0.046
-999.99
-0.0171157
0.0335324
-999.956
-0.0144968
0.0335383
-999.962
-0.0104961
0.0335344
-999.967
-0.00550919
0.0335168
-999.971
0.0334311
-999.973
-0.0171119
0.0176573
-999.943
-0.0144964
0.0176571
-999.95
-0.0105067
0.0176507
-999.955
-0.00551762
0.0176417
-999.959
0.0175988
-999.961
-0.017077
-999.937
-0.0144713
-999.943
-0.0104917
-999.948
-0.00550977
-999.952
-999.954
-0.0230276
0.0736671
-999.99
-0.0195889
0.0736344
-999.999
-0.0142079
0.0736232
-1000.01
-0.00747035
0.0735999
-1000.01
0.0734193
-1000.01
-0.0230999
0.0626642
-999.963
-0.0196002
0.0626628
-999.971
-0.0142217
0.0626456
-999.979
-0.00748401
0.0626179
-999.984
0.0624683
-999.987
-0.0231072
0.0455798
-999.94
-0.0196141
0.0455662
-999.948
-0.0142408
0.0455413
-999.956
-0.00749194
0.04552
-999.961
0.0454166
-999.964
-0.0231208
0.0240183
-999.923
-0.0196338
0.0239958
-999.932
-0.0142535
0.0239792
-999.939
-0.00749115
0.0239673
-999.944
0.0239039
-999.947
-0.0230962
-999.914
-0.0196095
-999.922
-0.0142333
-999.93
-0.0074862
-999.935
-999.938
-0.0311398
0.100144
-999.987
-0.0265008
0.100069
-999.998
-0.0192805
0.100018
-1000.01
-0.010174
0.0999796
-1000.02
0.0997547
-1000.02
-0.031248
0.085215
-999.95
-0.0265566
0.0851637
-999.961
-0.0193076
0.0851117
-999.971
-0.0101726
0.0850759
-999.978
0.0848909
-999.982
-0.031299
0.0619881
-999.918
-0.0266059
0.0619258
-999.93
-0.0193321
0.061882
-999.94
-0.0101649
0.0618569
-999.947
0.061713
-999.951
-0.0313575
0.0326606
-999.895
-0.0266449
0.0326122
-999.907
-0.0193463
0.0325852
-999.917
-0.0101678
0.0325609
-999.924
0.0324755
-999.928
-0.0313419
-999.883
-0.0266177
-999.895
-0.0193275
-999.904
-0.0101604
-999.912
-999.915
-0.04224
0.136177
-999.982
-0.0359456
0.136043
-999.998
-0.0261632
0.135956
-1000.01
-0.0137964
0.135915
-1000.02
0.13563
-1000.03
-0.0423965
0.11589
-999.932
-0.0360367
0.115774
-999.947
-0.026189
0.115692
-999.961
-0.0137743
0.115646
-999.97
0.115389
-999.975
-0.0425116
0.0842762
-999.889
-0.0361177
0.0841723
-999.905
-0.0262192
0.0841107
-999.918
-0.0137693
0.0840637
-999.928
0.0838565
-999.933
-0.0426098
0.0443801
-999.858
-0.0361754
0.0443202
-999.874
-0.0262522
0.0442775
-999.887
-0.0137852
0.0442418
-999.897
0.0441374
-999.902
-0.0425832
-999.841
-0.0361457
-999.857
-0.0262296
-999.87
-0.0137635
-999.88
-999.885
-0.0573906
0.185119
-999.976
-0.0487693
0.184946
-999.997
-0.0354271
0.184841
-1000.01
-0.0186345
0.184784
-1000.03
0.184377
-1000.03
-0.0575768
0.157553
-999.907
-0.0488757
0.157386
-999.929
-0.0354614
0.157271
-999.946
-0.0186215
0.157187
-999.959
0.156805
-999.966
-0.0577458
0.114553
-999.849
-0.048992
0.11442
-999.87
-0.0355266
0.114318
-999.888
-0.0186469
0.114228
-999.901
0.11394
-999.909
-0.0578738
0.060322
-999.807
-0.0490908
0.0602463
-999.828
-0.0355979
0.0601766
-999.846
-0.0186754
0.060128
-999.859
0.0599781
-999.867
-0.0578338
-999.784
-0.0490636
-999.805
-0.0355681
-999.823
-0.0186541
-999.836
-999.844
-0.0778546
0.251656
-999.967
-0.0660475
0.251413
-999.996
-0.047886
0.251256
-1000.02
-0.025157
0.25113
-1000.04
0.250525
-1000.05
-0.0781072
0.214211
-999.874
-0.0662083
0.213956
-999.903
-0.0479815
0.213755
-999.927
-0.0251915
0.213583
-999.945
0.21303
-999.954
-0.0783662
0.155774
-999.795
-0.0664144
0.155558
-999.824
-0.0481284
0.155365
-999.848
-0.0252606
0.155208
-999.866
0.154797
-999.876
-0.0785759
0.0820668
-999.737
-0.0666055
0.0819266
-999.767
-0.048262
0.0818026
-999.791
-0.0253163
0.0817079
-999.809
0.0814759
-999.819
-0.0785631
-999.706
-0.0666005
-999.735
-0.0482536
-999.76
-0.0253172
-999.778
-999.788
-0.105395
0.342186
-999.956
-0.089306
0.341764
-999.994
-0.0646984
0.341456
-1000.03
-0.0339957
0.341201
-1000.05
0.340332
-1000.06
-0.105832
0.291345
-999.83
-0.0896235
0.290871
-999.868
-0.0649157
0.290479
-999.901
-0.0340881
0.290165
-999.924
0.289378
-999.937
-0.106315
0.211946
-999.722
-0.0900259
0.21152
-999.761
-0.0651986
0.211154
-999.794
-0.0342137
0.210872
-999.818
0.210272
-999.831
-0.106737
0.111705
-999.643
-0.0903914
0.111426
-999.683
-0.0654511
0.111191
-999.716
-0.0343294
0.111008
-999.74
0.110678
-999.753
-0.106816
-999.6
-0.0904579
-999.64
-0.0655011
-999.674
-0.0343473
-999.698
-999.711
-0.142577
0.465264
-999.941
-0.12066
0.464536
-999.992
-0.0873644
0.463968
-1000.04
-0.0459013
0.463529
-1000.07
0.462314
-1000.08
-0.143329
0.396314
-999.769
-0.121245
0.395433
-999.821
-0.0877539
0.394708
-999.865
-0.0460586
0.394158
-999.897
0.393027
-999.914
-0.144236
0.288452
-999.622
-0.121994
0.287637
-999.675
-0.0882666
0.286963
-999.72
-0.0462872
0.286456
-999.752
0.28558
-999.77
-0.145058
0.15206
-999.515
-0.122675
0.151549
-999.569
-0.0887388
0.151124
-999.614
-0.0465042
0.150815
-999.647
0.150341
-999.664
-0.145312
-999.457
-0.122884
-999.511
-0.0888744
-999.556
-0.046556
-999.589
-999.607
-0.192758
0.632461
-999.921
-0.162809
0.631275
-999.99
-0.117734
0.630313
-1000.05
-0.0617978
0.629591
-1000.09
0.627863
-1000.11
-0.193987
0.539108
-999.688
-0.163803
0.537545
-999.758
-0.118396
0.536245
-999.817
-0.0620815
0.535274
-999.859
0.53361
-999.882
-0.19561
0.392643
-999.488
-0.165151
0.391168
-999.56
-0.119327
0.389949
-999.619
-0.0625187
0.389051
-999.662
0.387744
-999.686
-0.197113
0.207067
-999.342
-0.166393
0.206163
-999.415
-0.120189
0.205421
-999.476
-0.0629301
0.204882
-999.52
0.204152
-999.544
-0.197693
-999.262
-0.166861
-999.336
-0.120506
-999.397
-0.0630908
-999.442
-999.466
-0.260021
0.859638
-999.895
-0.219084
0.857648
-999.987
-0.158138
0.856002
-1000.06
-0.0829007
0.854763
-1000.12
0.852233
-1000.15
-0.262095
0.733437
-999.579
-0.220791
0.730658
-999.672
-0.159303
0.728317
-999.75
-0.083456
0.726575
-999.806
0.724056
-999.837
-0.264997
0.534688
-999.307
-0.223227
0.532056
-999.403
-0.161016
0.529857
-999.483
-0.0843086
0.528234
-999.541
0.52621
-999.573
-0.267703
0.282204
-999.107
-0.225484
0.280597
-999.206
-0.162608
0.279258
-999.288
-0.0851114
0.278254
-999.347
0.277105
-999.38
-0.268911
-998.997
-0.226485
-999.097
-0.163336
-999.181
-0.085492
-999.241
-999.275
-0.349477
1.16829
-999.863
-0.293646
1.16481
-999.984
-0.211516
1.16187
-1000.08
-0.110759
1.15969
-1000.16
1.15588
-1000.2
-0.35312
0.998067
-999.433
-0.296693
0.993055
-999.557
-0.21361
0.98877
-999.66
-0.111858
0.98559
-999.734
0.981651
-999.775
-0.358387
0.728672
-999.062
-0.30117
0.723941
-999.191
-0.216802
0.719913
-999.299
-0.113534
0.716934
-999.375
0.71372
-999.418
-0.363287
0.385059
-998.789
-0.305324
0.382165
-998.922
-0.21977
0.379677
-999.033
-0.115079
0.37784
-999.113
0.376003
-999.157
-0.365715
-998.638
-0.307417
-998.774
-0.221281
-998.888
-0.115883
-998.969
-999.014
-0.467542
1.58711
-999.823
-0.391614
1.58116
-999.98
-0.281424
1.57574
-1000.11
-0.147269
1.57197
-1000.2
1.56607
-1000.25
-0.473831
1.35856
-999.241
-0.397177
1.34955
-999.402
-0.285095
1.34152
-999.538
-0.14942
1.33565
-999.633
1.32922
-999.687
-0.483395
0.994115
-998.736
-0.4056
0.985623
-998.905
-0.291102
0.978138
-999.05
-0.152785
0.972739
-999.151
0.967497
-999.209
-0.492253
0.526255
-998.36
-0.413321
0.521074
-998.536
-0.296535
0.516456
-998.688
-0.155725
0.513143
-998.794
0.510096
-998.855
-0.496957
-998.151
-0.417512
-998.332
-0.299498
-998.489
-0.157384
-998.598
-998.662
-0.621178
2.15422
-999.778
-0.518963
2.14482
-999.976
-0.371833
2.1344
-1000.14
-0.194747
2.12845
-1000.26
2.11886
-1000.33
-0.631261
1.8497
-998.994
-0.529417
1.83388
-999.193
-0.377642
1.81823
-999.374
-0.198952
1.80739
-999.491
1.79617
-999.564
-0.648337
1.35826
-998.306
-0.545866
1.34346
-998.517
-0.389044
1.32933
-998.718
-0.206032
1.31985
-998.846
1.31097
-998.93
-0.663907
0.720928
-997.788
-0.560341
0.711993
-998.008
-0.398625
0.703241
-998.224
-0.21162
0.697305
-998.358
0.692015
-998.448
-0.67257
-997.498
-0.568674
-997.724
-0.404304
-997.95
-0.21503
-998.09
-998.185
-0.815146
2.91857
-999.743
-0.68286
2.90792
-999.97
-0.486519
2.88567
-1000.19
-0.25643
2.87929
-1000.33
2.86233
-1000.43
-0.827845
2.51807
-998.7
-0.703805
2.4927
-998.902
-0.492601
2.45963
-999.159
-0.264715
2.43984
-999.28
2.41804
-999.384
-0.857241
1.85903
-997.768
-0.738156
1.83589
-997.979
-0.51462
1.80782
-998.289
-0.280766
1.79263
-998.433
1.77679
-998.57
-0.882791
0.990614
-997.053
-0.765946
0.976851
-997.266
-0.530055
0.959072
-997.611
-0.29131
0.948981
-997.753
0.939102
-997.902
-0.89786
-996.648
-0.783088
-996.862
-0.540628
-997.234
-0.298521
-997.383
-997.544
-1.0451
3.93593
-999.765
-0.895239
3.94749
-999.961
-0.627383
3.88873
-1000.28
-0.33897
3.89878
-1000.44
3.86354
-1000.59
-1.04957
3.42257
-998.42
-0.94047
3.3933
-998.457
-0.619969
3.31322
-998.904
-0.354528
3.2776
-998.924
3.2277
-999.103
-1.10024
2.54703
-997.167
-1.01795
2.52321
-997.191
-0.665809
2.46084
-997.789
-0.394234
2.44402
-997.871
2.41312
-998.149
-1.13901
1.36501
-996.186
-1.07177
1.35092
-996.161
-0.685707
1.31032
-996.846
-0.413068
1.29562
-996.877
1.27482
-997.176
-1.16475
-995.617
-1.10792
-995.568
-0.705534
-996.326
-0.429047
-996.364
-996.698
-1.29114
5.24832
-999.983
-1.18302
5.3979
-999.963
-0.795487
5.20669
-1000.53
-0.460649
5.31818
-1000.69
5.22568
-1000.98
-1.26261
4.63136
-998.335
-1.26262
4.63529
-997.694
-0.728794
4.41828
-998.649
-0.47655
4.35182
-998.21
4.22954
-998.583
-1.36796
3.48623
-996.644
-1.44348
3.508
-995.988
-0.848015
3.35294
-997.319
-0.584156
3.36622
-997.149
3.29814
-997.802
-1.42859
1.8852
-995.294
-1.53515
1.89478
-994.441
-0.859774
1.79287
-995.962
-0.608179
1.77741
-995.54
1.72701
-996.213
-1.47712
-994.476
-1.60995
-993.54
-0.902019
-995.241
-0.645286
-994.843
-995.617
-1.53905
6.84894
-1000.72
-1.58508
7.50578
-1000.09
-1.02538
6.90136
-1001.22
-0.664954
7.36875
-1001.36
7.09346
-1001.97
-1.41771
6.24273
-998.85
-1.61882
6.33467
-996.322
-0.761933
5.78763
-998.392
-0.605687
5.69353
-996.691
5.4171
-997.513
-1.68574
4.76929
-996.407
-2.07374
4.96101
-994.226
-1.13285
4.58421
-997.056
-0.923143
4.72233
-996.387
4.55766
-997.866
-1.77616
2.61985
-994.542
-2.1764
2.71063
-991.79
-1.0665
2.45912
-994.946
-0.90732
2.44474
-993.422
2.32975
-994.893
-1.8752
-993.295
-2.33699
-990.368
-1.17394
-993.945
-1.00344
-992.569
-994.291
-1.78831
8.63477
-1002.56
-2.14744
10.6331
-1000.66
-1.43331
9.00429
-1002.77
-1.03534
10.2982
-1002.93
9.55866
-1004.17
-1.35892
8.47994
-1000.94
-1.78801
8.64361
-993.903
-0.582837
7.47264
-998.066
-0.650369
7.41238
-993.737
6.80382
-995.408
-2.10676
6.54183
-996.705
-3.02305
7.15668
-991.823
-1.67708
6.32299
-997.253
-1.57251
6.73324
-995.813
6.3394
-998.974
-2.19085
3.70332
-994.234
-2.96446
3.97676
-987.837
-1.28665
3.39019
-993.691
-1.3551
3.42986
-990.05
3.20623
-993.115
-2.40444
-992.12
-3.35145
-985.444
-1.59459
-992.311
-1.62048
-989.113
-992.705
-2.00326
10.1521
-1006.44
-2.93004
15.1449
-1002.07
-2.20083
11.3555
-1005.67
-1.72754
14.3296
-1006.08
12.6278
-1008.49
-0.694306
11.9168
-1007.25
-1.15133
11.9128
-990.214
0.0633371
9.64899
-997.574
-0.421208
9.65297
-988.576
8.31261
-991.514
-2.75346
8.98184
-997.611
-4.51255
10.4711
-988.623
-2.76294
8.81939
-998.173
-2.90014
9.68573
-995.709
8.82658
-1002.39
-2.6484
5.42206
-995.108
-3.73878
6.04004
-982.316
-1.47262
4.7753
-991.914
-2.0925
5.06691
-984.812
4.62815
-991.009
-3.13554
-990.86
-4.74186
-977.798
-2.27832
-990
-2.755
-983.57
-990.832
-2.09177
9.76755
-1013.38
-3.96402
21.2724
-1004.99
-3.68006
13.5895
-1010.32
-3.05833
19.6885
-1011.95
16.2403
-1016.46
2.28793
17.9827
-1026.15
1.52832
16.6968
-984.879
2.56406
12.5909
-997.612
0.369896
12.5828
-979.277
9.61595
-984.52
-3.92515
12.7406
-998.677
-6.96018
15.399
-984.29
-4.97344
12.4639
-1000.03
-5.76193
14.1291
-996.467
12.3379
-1010.87
-3.0897
8.38456
-998.513
-3.94864
9.70039
-975.758
-1.5853
7.0033
-988.817
-3.54164
7.98184
-976.708
7.14583
-989.359
-4.23172
-988.867
-6.56497
-965.764
-3.41298
-986.149
-4.96518
-974.036
-988.651
-2.20151
5.77755
-1026.4
-5.38171
29.202
-1010.96
-6.76115
14.795
-1016.83
-5.73041
26.8291
-1022.9
20.1449
-1030.86
11.6079
30.43
-1078.17
7.53734
23.3397
-974.946
8.20571
17.1323
-1000.62
1.86844
16.1877
-962.298
9.56993
-972.077
-6.52107
19.9836
-997.954
-11.2888
22.4234
-978.606
-9.72854
18.2431
-1002.7
-12.2301
20.98
-998.758
17.3953
-1030.93
-3.7406
13.693
-1005.86
-1.85207
16.8793
-972.103
-1.57288
10.6719
-981.525
-6.93735
13.5122
-963.876
12.0963
-990.998
-6.22913
-983.925
-8.8204
-946.294
-5.3035
-978.994
-9.47131
-956.356
-986.027
-3.19783
-5.56016
-1049.58
-6.9082
39.4973
-1025.33
-12.9578
13.6078
-1025.04
-10.4909
36.8381
-1044.72
23.7598
-1056.48
31.3029
54.4718
-1201.21
22.5851
31.2995
-958.031
19.5602
24.2645
-1008.25
5.79925
20.8138
-932.513
5.64764
-948.165
-13.0154
34.3765
-990.595
-18.8644
31.1527
-972.611
-19.6834
28.7483
-1006.37
-26.8413
32.7266
-1003.51
25.3832
-1077.5
-5.99147
22.6397
-1016.86
4.88135
32.1366
-983.96
-1.25372
16.4653
-963.107
-15.6026
25.653
-942.454
23.0695
-1004.29
-10.6707
-970.495
-11.2793
-913.549
-7.92483
-965.883
-18.7316
-919.896
-981.688
16.5029
-74.1924
-1132.49
19.3805
52.3228
-1073.34
-20.8322
-9.82259
-1000.12
-14.5711
50.9656
-1085.27
25.4063
-1080.04
104.324
134.658
-1604.69
70.4456
45.051
-916.881
49.766
55.1728
-1052.56
14.3536
35.784
-881.919
-6.70039
-901.705
-11.8598
80.5698
-973.194
-14.8919
40.2282
-964.756
-33.5326
49.36
-981.916
-60.279
57.9929
-998.975
37.8702
-1182.35
-3.17855
46.3322
-1044.41
33.5556
76.7942
-1057.26
3.5297
35.0436
-918.765
-45.9033
64.8142
-899.842
72.5595
-1084.88
-4.13449
-936.432
4.4934
-845.382
-3.18453
-923.161
-32.0302
-826.236
-941.159
-48.7555
-96.068
-1150.92
-55.6358
64.1606
-1107.59
-60.6253
20.6938
-1063.02
-55.6762
56.9467
-1148.55
24.8993
-1198.91
165.618
214.576
-2217.44
130.774
21.4846
-839.362
65.9487
46.0009
-1013.05
28.8351
11.6052
-799.464
-69.8251
-778.146
-82.7897
127.909
-853.629
-77.3639
27.0685
-975.766
-96.3853
70.5058
-987.399
-131.982
44.7033
-996.477
14.3803
-1398.54
-39.5584
53.7099
-976.744
43.8802
68.1855
-1181.82
-16.4216
19.3447
-807.302
-73.3554
39.3917
-837.596
29.8107
-1173.66
-60.7563
-819.718
-43.7779
-794.175
-63.0478
-884.546
-103.445
-746.447
-1014.79
68.6405
-649.804
-1642.1
248.818
102.334
-1653.28
-69.3891
-215.396
-730.889
-22.8961
142.679
-1438.05
41.2073
-1184.02
693.141
842.881
-5073.3
461.626
25.3718
-530.886
251.752
238.171
-1256.74
114.344
116.839
-636.216
-246.942
-375.653
-73.7092
484.882
-625.333
17.9509
12.5794
-1054.63
-162.553
206.525
-775.25
-350.077
232.21
-924.324
106.058
-2101.62
-91.1742
181.423
-945.398
308.242
448.199
-2016.85
30.7181
94.4587
-417.711
-362.587
389.997
-602.078
565.729
-1995.92
-44.4321
-562.879
90.4518
-480.86
152.944
-852.58
-19.6096
-183.897
-468.674
-366.332
622.122
-1037.67
-623.962
183.684
-1131.94
-133.762
294.366
-1540.52
-264.265
3.56777
-1210.66
98.2469
-1793.73
-275.18
-476.976
-3134.68
-229.788
-116.806
-275.787
-13.9493
32.184
-1210.4
-11.9807
-132.164
-502.453
33.7946
-323.181
-273.025
-329.142
-412.654
-345.734
-17.2731
-1081.46
-151.876
55.4148
-992.339
-202.373
-112.739
-893.251
-194.331
-2075.87
4.67099
-79.7489
-922.975
-91.3475
-183.847
-1754.26
-58.9494
-10.3381
-384.357
114.88
-220.522
-668.125
-708.76
-1366.61
51.6399
-481.014
-216.373
-396.694
-515.529
-563.762
-654.553
-265.394
-1831.99
0.787956
-0.598799
-1076.73
120.296
12.6339
-1412.87
24.3699
-148.423
-1319.66
107.119
22.2622
-1321.38
81.617
-1654.68
62.5542
35.8401
-3591.15
-3.47623
-59.8794
-137.243
18.9087
87.1256
-1468.33
2.88414
7.6562
-471.822
-62.1801
-176.5
-9.08828
-8.89101
-348.159
12.2815
-89.4366
-1073.27
-13.8958
40.3638
-919.4
-79.933
0.437459
-819.995
-72.9606
-2145.02
-30.5454
-16.7711
-914.428
61.1975
69.2805
-2004.72
-14.9637
-24.1487
-243.683
-47.7249
-2.48377
-632.443
203.523
-1690.82
54.7968
-448.533
-8.45434
-264.163
21.3039
-617.669
95.9148
-342.489
-1532.55
916.119
-106.369
-2255.03
803.477
2.03846
-1423.38
-145.987
-40.3453
-141.834
137.51
147.212
-1759.75
-99.2627
-1461.72
-261.853
446.214
-4689.48
-9.22946
7.11987
-394.948
-41.012
66.201
-1543.09
-73.797
-11.3469
-280.478
33.2161
-382.776
269.187
213.044
-428.506
218.438
137.073
-1152.47
-118.752
-39.6251
-476.383
-140.063
-79.7945
-730.237
-425.29
-1826.57
115.49
-70.4943
-547.888
-66.0699
29.7283
-1715.81
-47.4266
46.7692
-348.72
-210.108
-34.0817
-515.474
-193.87
-2132.35
36.2751
-513.556
-64.0913
-134.068
-116.049
-518.942
-0.04414
-492.575
-1726.46
-14.0509
1339.32
-1671.25
-9.67539
-67.9185
-1129.94
-15.0883
-52.3633
-4.34353
319.243
37.2665
-2177.2
-234.11
-960.146
-43.6752
-351.573
-2719.47
16.2696
-122.204
-400.607
-53.3135
-146.111
-1379.76
-74.1204
-93.7356
-128.669
-85.6232
-605.383
-41.9124
6.87551
-499.783
-55.2485
35.7784
-1297.12
-14.8677
-24.2084
-638.666
194.903
-54.9553
-978.789
-189.679
-1527.62
-32.0605
-56.8958
-273.948
-150.901
-78.8537
-1482.34
-15.2481
11.5348
-520.117
185.973
-27.131
-744.52
-759.191
-1376.87
24.4841
-819.086
17.3964
-205.834
-92.7796
-397.231
-164.493
-447.993
-2650.15
-266.312
-848.137
-29.0067
-193.343
-17.2229
-1125.19
147.591
-9.26459
-350.469
98.9959
-66.1707
-2014.74
-65.6244
-412.608
61.689
-871.649
-2500.74
-76.2496
-161.215
-118.676
-164.005
-519.148
-782.123
66.308
-108.429
-316.725
-178.246
-426.453
422.99
41.0332
-2216.87
207.344
-262.814
-979.876
-18.1616
-442.424
-489.885
378.933
-50.1186
-1434.19
-332.849
-994.079
272.839
-39.4688
-516.558
22.5299
-168.24
-1326.61
167.241
0.406307
-1107.66
155.429
24.026
-806.852
-345.041
-1209.24
104.11
-1812.01
14.4891
-284.453
36.3693
-418.705
-106.456
-281.141
-3101.64
38.1013
97.9393
-675.777
99.5517
-44.66
-1164.32
96.9386
-15.0244
-437.941
-321.856
134.887
-1041.14
52.0537
-548.373
-249.937
-1223.15
-949.12
23.5549
162.261
-599.089
-34.9425
1.67323
-740.324
98.8251
36.2593
-351.865
62.0818
-337.656
636.286
-506.391
-3536.17
114.278
48.4321
-344.038
-15.8849
-156.698
-201.35
124.051
-94.6533
-1443.22
-330.18
-477.766
88.4298
-471.515
-610.772
-109.607
-24.5198
-1055.62
-241.176
-41.8446
-1090.94
230.077
24.9999
-1397.76
-900.393
-408.955
49.443
-3141.01
141.008
-400.537
-88.0905
-231.452
24.3886
-368.62
-3977.65
-205.849
174.215
-602.689
-96.3824
73.528
-1034.63
1.62958
19.3022
-560.696
-221.848
-3.41829
-13.801
-65.9981
-548.205
-264.842
-64.3033
-186.789
-14.3081
116.788
-892.882
-7.66031
37.0348
-764.704
-0.421133
170.852
-533.374
0.890963
-404.966
61.573
24.1183
-3998.55
-19.7898
54.3261
-200.213
116.835
187.906
-488.846
4.80867
146.038
-1306.38
3.41136
-475.478
299.182
-396.816
-478.3
399.934
-46.1839
-1055.86
171.325
2.6646
-677.09
449.561
-11.4861
-1518.47
67.594
-23.5766
240.75
-3992.36
83.7912
-289.762
-0.460539
-144.536
1039.91
-1420.48
-2870.14
-0.257455
-16.5114
-603.724
-12.4022
47.2362
-1016.47
-16.7366
-72.6115
-754.863
-11.7937
-68.7429
-14.7973
45.642
-624.11
200.762
1231.59
-1776.46
39.9541
126.637
-811.476
-242.366
51.5634
-606.559
-332.012
98.2644
-610.735
96.9379
-788.274
-196.351
1450.88
-4489.76
-152.067
56.9105
-174.769
-145.516
233.435
-677.268
-237.049
143.821
-1260.4
-134.118
-481.47
145.844
1429.03
-399.655
-49.181
4.87161
-808.796
-87.0915
34.3063
-440.052
-140.177
154.823
-1476.39
2.94277
-300.815
251.99
-2585.81
-8.7953
-24.1058
32.4297
-151.454
9.14117
-1242.37
-2858.06
152.218
2460.73
-3615.3
292.139
148.23
-1679.87
-118.591
-17.3919
-386.19
478.065
2.53324
-730.842
83.6628
-797.188
59.1759
2849.28
-2146.92
-77.3587
36.9005
-563.612
6.22229
-101.846
-605.686
62.1417
-150.046
-514.076
-105.025
-537.444
15.87
-130.05
-1278.61
-1.07144
-65.749
-55.1786
212.477
34.4289
-1027.09
60.7298
-50.3379
-1208.36
159.45
-685.215
21.7706
541.165
-1103.33
36.7623
-52.9935
-836.544
-193.087
0.634698
-176.408
185.514
443.14
-2348.47
832.554
-788.406
-29.6752
-1629.64