FoamFile
{version 2.0; format ascii;class Cloud<passiveParticle>; location 0;object  positions;}
348
(
( 4122.43 4330.69 499.583 ) 0 
( 1694.73 2198.73 499.568 ) 0 
( 5.14062 1963.33 498.401 ) 0 
( 2488.78 1591.31 498.719 ) 0 
( 1042.42 4454.79 497.72 ) 0 
( 3476.89 1743.34 498.406 ) 0 
( 1555.74 3188.83 498.199 ) 0 
( 440.165 1063.56 499.101 ) 0 
( 4584.61 3423.27 497.328 ) 0 
( 3123.61 4368.9 499.394 ) 0 
( 3132.24 805.805 498.647 ) 0 
( 4034.73 2573.11 498.396 ) 0 
( 57.265 4620.36 498.168 ) 0 
( 1497.2 1183.4 497.667 ) 0 
( 511.908 66.9995 499.086 ) 0 
( 689.254 2691.11 498.116 ) 0 
( 1460.32 3888.92 1204.98 ) 0 
( 1624.97 192.134 497.632 ) 0 
( 3586.03 3482.59 498.017 ) 0 
( 3075.38 3245.62 1321.84 ) 0 
( 259.787 3066.75 1317.81 ) 0 
( 4134.61 764.781 498.592 ) 0 
( 2580.5 3529.44 498.976 ) 0 
( 2953.8 2602.74 498.357 ) 0 
( 438.337 3658.5 498.855 ) 0 
( 4512.08 1690.8 497.453 ) 0 
( 4147.13 4922.93 1309.66 ) 0 
( 889.087 1827.83 960.808 ) 0 
( 2267.27 760.749 1008.43 ) 0 
( 4000.83 1421.6 1311.54 ) 0 
( 2481.77 2207.96 1284.69 ) 0 
( 2085.33 3123.03 1341.41 ) 0 
( 4627.44 443.146 1312.05 ) 0 
( 3004.21 1357.47 1321.86 ) 0 
( 4998.69 1370.69 1308.62 ) 0 
( 3622 497.357 1312.55 ) 0 
( 628.505 4883.15 1299.24 ) 0 
( 2042.31 4371.12 498.463 ) 0 
( 3521.22 1226.18 2165.88 ) 0 
( 1028.45 619.622 1174.29 ) 0 
( 2581.73 4123.41 1302.48 ) 0 
( 3146.19 4967.51 1299.79 ) 0 
( 187.137 4542.59 2127.58 ) 0 
( 441.652 2173.92 1785.06 ) 0 
( 1758.71 1529.09 1396.78 ) 0 
( 3476.35 2331.43 1304.64 ) 0 
( 1184.67 2693.15 1364.79 ) 0 
( 1808.04 4811.7 1362.93 ) 0 
( 2523.51 4796.47 2060.52 ) 0 
( 2646.36 2774.95 2089.73 ) 0 
( 3613.3 4083.18 1383.72 ) 0 
( 4531.19 2268.7 1310.72 ) 0 
( 4606.5 4000.22 1313.58 ) 0 
( 734.447 3746.4 1874.56 ) 0 
( 4600.51 4606.97 2139.62 ) 0 
( 3991.18 2195.4 2147.6 ) 0 
( 4513.62 1346.44 2181.04 ) 0 
( 4070.62 3155.32 1308.48 ) 0 
( 1956.71 3973.31 2067.93 ) 0 
( 3583.55 3108.11 2176.48 ) 0 
( 1052.93 1448.57 2098.72 ) 0 
( 2982.52 3906.52 2191.52 ) 0 
( 2440.73 1536.12 2127.84 ) 0 
( 1778.57 2281.45 2054.23 ) 0 
( 4122.19 427.523 2172.57 ) 0 
( 455.894 654.613 1990.43 ) 0 
( 3942.28 1631.63 2975.38 ) 0 
( 4930.23 999.064 3019.58 ) 0 
( 1831.26 726.982 1988.36 ) 0 
( 3578.91 4710.08 2160.53 ) 0 
( 3120.64 2077.67 2622.73 ) 0 
( 2259.77 3.18689 2570.25 ) 0 
( 1184 3844.99 2761.92 ) 0 
( 192.808 3729.34 2712.8 ) 0 
( 2757.17 399.88 1801.2 ) 0 
( 1881.68 4713.31 2820.34 ) 0 
( 1183.82 4606 2114.36 ) 0 
( 1595.55 1752.34 2881.51 ) 0 
( 1853.43 3124.96 2585.22 ) 0 
( 926.559 2870.55 2313.16 ) 0 
( 4579.61 3418.66 2126.42 ) 0 
( 3905.65 3916.09 2668.43 ) 0 
( 1234.11 2705.4 3249.36 ) 0 
( 2217.82 3843.12 3175.36 ) 0 
( 2960 4576.1 2932.69 ) 0 
( 3527.91 2978.27 3720.41 ) 0 
( 485.199 122.611 3243.62 ) 0 
( 4002.68 647.423 3136.94 ) 0 
( 3094.89 525.678 2736.51 ) 0 
( 650.363 1053.21 2922.91 ) 0 
( 641.684 2042.65 2792.22 ) 0 
( 2948.39 3205 2938.97 ) 0 
( 4125.6 2776.72 2946.21 ) 0 
( 2190.54 946.201 2895.19 ) 0 
( 1358.43 359.382 2806.89 ) 0 
( 578.126 4545.89 3137.25 ) 0 
( 88.3176 2814.91 3101.48 ) 0 
( 4781.49 21.171 3155.74 ) 0 
( 4836.08 2075.57 2991.86 ) 0 
( 4504.42 1592.94 3800.37 ) 0 
( 3040.58 1349.27 3299.55 ) 0 
( 2335.88 2437.86 3125.88 ) 0 
( 3587.81 1988.28 3838.68 ) 0 
( 681.011 3482.62 3547.12 ) 0 
( 2565.59 3203.95 3860.43 ) 0 
( 458.731 1195.08 3892.41 ) 0 
( 2054.17 107.82 3541.7 ) 0 
( 3509.03 4929.48 3775.96 ) 0 
( 4365.81 3579.04 3488.06 ) 0 
( 2972.32 452.166 3729.95 ) 0 
( 1433.75 1024.74 3546.66 ) 0 
( 1419.57 4455.71 3666.97 ) 0 
( 3443.4 3958.61 3551.45 ) 0 
( 4430.75 4558.23 3669.16 ) 0 
( 1824.71 2536.51 4037.47 ) 0 
( 1615 3503.33 3894.51 ) 0 
( 2109.47 808.799 4250.71 ) 0 
( 2945.12 1346.77 4341.14 ) 0 
( 2196.98 1659.56 3735.69 ) 0 
( 532.552 4401.54 4124.65 ) 0 
( 2609.84 4455.7 3860.14 ) 0 
( 487.149 2187.18 3768.68 ) 0 
( 1237.5 1721 4233.91 ) 0 
( 1100.27 213.265 4024.32 ) 0 
( 4433.37 2586.24 3876.32 ) 0 
( 4756.06 636.962 3941.82 ) 0 
( 4060.61 3945.21 4366.78 ) 0 
( 1788.66 3192.98 4826.46 ) 0 
( 3810.16 929.431 4073.18 ) 0 
( 3555.39 2971.34 4719.16 ) 0 
( 3074.89 3811.63 4466.93 ) 0 
( 258.166 499.997 4582.21 ) 0 
( 934.072 2894.86 4315.06 ) 0 
( 450.471 1440.23 4860.06 ) 0 
( 2767.22 2328.43 4295.44 ) 0 
( 388.85 3621.11 4732.41 ) 0 
( 1900.2 4809.52 4466.9 ) 0 
( 2104.63 1719.87 4729.36 ) 0 
( 4758.12 1106.68 4823.63 ) 0 
( 1290.91 4044.99 4667.32 ) 0 
( 4109.09 1853.35 4680.82 ) 0 
( 3206.79 1937.61 5102.77 ) 0 
( 3616.26 1027.32 5046.65 ) 0 
( 2934.77 371.335 4723.28 ) 0 
( 696.876 434.797 5477.57 ) 0 
( 3267.97 4755.97 4731.74 ) 0 
( 4519.33 2747.48 4858.31 ) 0 
( 2663.89 2836 5149.83 ) 0 
( 4061.38 4368.54 5279.79 ) 0 
( 4206.36 280.394 4720.31 ) 0 
( 1359.96 2313.75 5027.38 ) 0 
( 1257.22 860.682 4768.01 ) 0 
( 2267.71 4051.75 5004.08 ) 0 
( 242.38 3678.32 5948.36 ) 0 
( 3557.37 121.607 5462.34 ) 0 
( 1944.46 430.898 5350.2 ) 0 
( 362.062 4435.79 5308.28 ) 0 
( 3851.12 2540.01 5570.94 ) 0 
( 1117.77 3514.17 5494.16 ) 0 
( 4985.57 1968.48 5275.48 ) 0 
( 2677.45 84.8013 5932.26 ) 0 
( 2659.16 1128.21 5312.76 ) 0 
( 3353.31 938.928 6006.94 ) 0 
( 500.723 2770.8 5244.32 ) 0 
( 4767.71 3680.2 5117.64 ) 0 
( 28.3112 1964.89 5596.39 ) 0 
( 4150.27 1591.57 5672.5 ) 0 
( 1799.17 2833.25 5757.56 ) 0 
( 3170.57 3896.86 5456.03 ) 0 
( 1543.84 4582.48 5469.27 ) 0 
( 4847.66 2923.72 5785.96 ) 0 
( 4401.9 625.661 5636.6 ) 0 
( 1809.36 170.587 6418.96 ) 0 
( 1599.94 2010.02 6287.62 ) 0 
( 2006.93 1123.83 6068.96 ) 0 
( 1175.15 1481.62 5546.71 ) 0 
( 4031.47 3501.1 5772.34 ) 0 
( 2441.96 4995.34 5283.38 ) 0 
( 3121.78 3066.01 6007.48 ) 0 
( 2371.65 2022.2 5651.88 ) 0 
( 4513.39 4831.61 6054.59 ) 0 
( 2318.45 3669.71 5925.56 ) 0 
( 1078.26 841.998 6306.68 ) 0 
( 886.314 2808.45 6164.99 ) 0 
( 3314 4841.41 5744.2 ) 0 
( 1061.01 4164.05 6249.6 ) 0 
( 4677.14 1319.26 6480.67 ) 0 
( 2691.75 612.442 6779.62 ) 0 
( 4899.16 3893.8 6084.92 ) 0 
( 4324.28 2249.83 6401.14 ) 0 
( 640.351 1738.99 6353.52 ) 0 
( 3321.72 4107.15 6420.97 ) 0 
( 149.499 770.846 6668.96 ) 0 
( 241.592 3351.25 6892.67 ) 0 
( 4807.13 328.089 6499.98 ) 0 
( 2233.75 4629.96 6188.6 ) 0 
( 3526.87 64.0009 6458.41 ) 0 
( 3521.44 2661.44 6828.06 ) 0 
( 858.197 124.197 6964.56 ) 0 
( 1604.11 3387.99 6564.39 ) 0 
( 2833.75 4834.34 6958.83 ) 0 
( 4035 743.928 6984.75 ) 0 
( 2681.86 3459.54 6832.37 ) 0 
( 1040.13 2809.88 7152.1 ) 0 
( 4249.99 4196.67 6779.92 ) 0 
( 4380.98 2285.29 7398.02 ) 0 
( 3259.98 1933.84 6100.6 ) 0 
( 2412.79 2558.4 6495.05 ) 0 
( 1818.05 1017.6 7044.42 ) 0 
( 3202.03 20.448 7401.45 ) 0 
( 4369.73 3211.29 6665.6 ) 0 
( 1324.36 4929.46 6833.45 ) 0 
( 3709.42 1688.59 6958.22 ) 0 
( 3595.73 3576.74 7221.61 ) 0 
( 2377.96 1490.15 7727.36 ) 0 
( 2569.59 1603.28 6742.77 ) 0 
( 1998.73 2988.67 7389.44 ) 0 
( 856.371 1241.01 7195.63 ) 0 
( 3641.76 4564.65 7480.18 ) 0 
( 256.504 4436.38 7537.17 ) 0 
( 1676.76 2047.94 7283.53 ) 0 
( 3231.67 1012.8 7518.79 ) 0 
( 1962.71 4188.83 7042.07 ) 0 
( 1024.75 3885.88 7208.84 ) 0 
( 3952.56 417.824 7925.7 ) 0 
( 393.171 3510.75 7886.45 ) 0 
( 768.334 2062.7 7756.52 ) 0 
( 1883.22 3806.1 7960.63 ) 0 
( 4935.64 545.07 8046.11 ) 0 
( 2429.33 496.363 7816.81 ) 0 
( 1189.91 4667.31 7809.81 ) 0 
( 1427.86 1356.51 8008.14 ) 0 
( 1439.67 397.036 7729.93 ) 0 
( 4432.26 3250.96 7661.59 ) 0 
( 2778.06 4079.19 7610.23 ) 0 
( 3593.23 2731.83 7821.9 ) 0 
( 2767.44 2351.88 7405.16 ) 0 
( 2133.63 4959.47 7659.88 ) 0 
( 4096.51 1401.82 7833.33 ) 0 
( 2128.14 2382.18 8172.82 ) 0 
( 2072.86 931.933 8641.76 ) 0 
( 3242.37 1834.98 8114.4 ) 0 
( 1299 2981.77 8101.79 ) 0 
( 3567.43 3855.35 8180.26 ) 0 
( 4364.52 4457.95 8161.92 ) 0 
( 110.294 4259.45 8509.59 ) 0 
( 1436.04 164.939 8707.56 ) 0 
( 2728.59 3180.62 8044.8 ) 0 
( 505.907 676.881 7950.25 ) 0 
( 4840.43 1430.31 8498.45 ) 0 
( 510.435 1488.95 8532.84 ) 0 
( 1069.45 3850.57 8538 ) 0 
( 3792.37 4404.67 8984.13 ) 0 
( 429.526 2664.88 8478.37 ) 0 
( 2056.8 3262.54 8780.31 ) 0 
( 4051.23 895.528 8798.12 ) 0 
( 3192.59 2620.71 8730.75 ) 0 
( 2441.52 4461.38 8469.94 ) 0 
( 4242.66 2223.26 8386.05 ) 0 
( 3062.68 930.303 8500.54 ) 0 
( 2561 1779.97 8842.4 ) 0 
( 3291.99 4965.64 8324.99 ) 0 
( 1197.11 1048.19 9109.12 ) 0 
( 4963.18 2233.66 9079.05 ) 0 
( 1272.17 2129.4 8622.88 ) 0 
( 4316.95 3386.43 8644.73 ) 0 
( 232.618 3443.54 9072.76 ) 0 
( 3467.95 214.728 9239.52 ) 0 
( 3976.4 3607.17 9558.13 ) 0 
( 3629.2 1770.77 9032.88 ) 0 
( 2469.99 193.352 9185.22 ) 0 
( 2915.16 4877.95 9246.15 ) 0 
( 1945.58 2418.44 9302.72 ) 0 
( 4969.41 3187.91 9374.15 ) 0 
( 1518.92 4714.7 8758.99 ) 0 
( 168.442 1347.97 9461.79 ) 0 
( 4833.33 4209.38 9009.26 ) 0 
( 1137.85 3019.24 9087.46 ) 0 
( 723.42 4346.67 9332.53 ) 0 
( 2990.9 3575.9 8946.59 ) 0 
( 4037.32 2653.51 9264.66 ) 0 
( 2195.73 4068.67 9355.26 ) 0 
( 547.492 442.179 9645.12 ) 0 
( 2292.09 1170.1 9586.9 ) 0 
( 1475.92 1699.75 9813.6 ) 0 
( 1534.91 4696.43 9798.96 ) 0 
( 4744.37 1194.31 9464.37 ) 0 
( 1340.18 2746.46 10027.3 ) 0 
( 3283.98 1092.35 9680.87 ) 0 
( 4830.07 103.6 9416.97 ) 0 
( 2954.56 2253.38 9629.3 ) 0 
( 694.291 2196.58 9438.58 ) 0 
( 4334.81 4527.92 9814.54 ) 0 
( 2520.41 387.35 10164.5 ) 0 
( 4572.82 2690.97 10145.3 ) 0 
( 2501.53 3145.49 9704.37 ) 0 
( 3126.76 4074.4 9802.13 ) 0 
( 3539.67 4796.13 10357 ) 0 
( 4116.09 1835.46 9902.73 ) 0 
( 375.085 2997.48 9955.41 ) 0 
( 804.881 103.07 10549.2 ) 0 
( 1359.63 3712.65 9771.47 ) 0 
( 1528.78 643.544 9960.64 ) 0 
( 4106.12 578.22 9924.13 ) 0 
( 4731.2 3681.29 10209.7 ) 0 
( 2179.09 2252.14 10260.2 ) 0 
( 442.163 4936.86 10100 ) 0 
( 2470.92 4787.21 10136.7 ) 0 
( 1884.76 3028.67 10816.7 ) 0 
( 634.478 1606.31 10344 ) 0 
( 1738.71 1295.24 10688.8 ) 0 
( 3596 2577.61 10323.4 ) 0 
( 2959.37 3295.63 10601.3 ) 0 
( 557.958 3904.51 10336.1 ) 0 
( 2175.33 3852.8 10331.1 ) 0 
( 3791.91 3841.58 10512.2 ) 0 
( 4671.33 1217.16 10460.7 ) 0 
( 2703.93 1425.36 10461.2 ) 0 
( 3680.07 1249.58 10585 ) 0 
( 2866.63 2373.3 10975.7 ) 0 
( 3422.69 35.42 10411.3 ) 0 
( 367.641 2457 10796 ) 0 
( 2899.11 4249.39 10895 ) 0 
( 515.894 914.719 11055.9 ) 0 
( 4259.3 2062.41 10865.5 ) 0 
( 344.482 4578.17 11043.1 ) 0 
( 4135.97 3051.17 11018.5 ) 0 
( 1329.32 2191.23 10858.2 ) 0 
( 1375.57 4108.51 10873.2 ) 0 
( 4683.18 4519.52 10751.7 ) 0 
( 4190.04 10.7602 11051.6 ) 0 
( 2515.29 3416.08 11488.9 ) 0 
( 3840.71 4583.72 11286.3 ) 0 
( 2444.43 902.499 11277.4 ) 0 
( 1434.92 501.746 11215.4 ) 0 
( 3386.46 569.072 11255.8 ) 0 
( 3498.44 1747.61 11432.6 ) 0 
( 3051 1098.83 12047.6 ) 0 
( 3482.89 3666.26 11459.4 ) 0 
( 938.417 3231.08 11067.9 ) 0 
( 661.219 1802.37 11492.3 ) 0 
( 233.495 2887.85 11688.2 ) 0 
( 2899.92 111.643 12000 ) 0 
( 2107.66 1885.51 11406.3 ) 0 
( 4736.62 2483.24 11636.6 ) 0 
( 2114.29 4331.76 11508.6 ) 0 
( 4273.78 1031.23 11359.1 ) 0 
( 4774.87 9.72773 11862.5 ) 0 
)
