/*--------------------------------*- C++ -*----------------------------------*\
| =========                 |                                                 |
| \\      /  F ield         | OpenFOAM: The Open Source CFD Toolbox           |
|  \\    /   O peration     | Version:  5.x                                   |
|   \\  /    A nd           | Web:      www.OpenFOAM.org                      |
|    \\/     M anipulation  |                                                 |
\*---------------------------------------------------------------------------*/
FoamFile
{
    version     2.0;
    format      ascii;
    class       volScalarField;
    location    "0.05";
    object      p;
}
// * * * * * * * * * * * * * * * * * * * * * * * * * * * * * * * * * * * * * //

dimensions      [0 2 -2 0 0 0 0];

internalField   nonuniform List<scalar> 
2250
(
2.48409e-10
2.73847e-10
3.23227e-10
3.94388e-10
4.9034e-10
2.49518e-10
2.78248e-10
3.32973e-10
4.08473e-10
5.04208e-10
2.44803e-10
2.73576e-10
3.28549e-10
4.05062e-10
5.05627e-10
2.31408e-10
2.56885e-10
3.09235e-10
3.88153e-10
5.0369e-10
1.96166e-10
2.17159e-10
2.66385e-10
3.59001e-10
5.29432e-10
7.16739e-10
7.86412e-10
9.25438e-10
1.11951e-09
1.3626e-09
7.15084e-10
7.91186e-10
9.42549e-10
1.14613e-09
1.39291e-09
6.99605e-10
7.76542e-10
9.29429e-10
1.13779e-09
1.40369e-09
6.61041e-10
7.33506e-10
8.81998e-10
1.09964e-09
1.40523e-09
5.77826e-10
6.49316e-10
7.94454e-10
1.04646e-09
1.45845e-09
1.12076e-09
1.22093e-09
1.43214e-09
1.71607e-09
2.03661e-09
1.10697e-09
1.21616e-09
1.44356e-09
1.74228e-09
2.08313e-09
1.08013e-09
1.19243e-09
1.42344e-09
1.7319e-09
2.10725e-09
1.02019e-09
1.13004e-09
1.35843e-09
1.68129e-09
2.1082e-09
9.02668e-10
1.01513e-09
1.25521e-09
1.6306e-09
2.20039e-09
1.44101e-09
1.56083e-09
1.82352e-09
2.17114e-09
2.54199e-09
1.41446e-09
1.54829e-09
1.83056e-09
2.19694e-09
2.59837e-09
1.37514e-09
1.51331e-09
1.80256e-09
2.18222e-09
2.61923e-09
1.28871e-09
1.42471e-09
1.72331e-09
2.12527e-09
2.61854e-09
1.10502e-09
1.25969e-09
1.60917e-09
2.09592e-09
2.8072e-09
1.68343e-09
1.82204e-09
2.11907e-09
2.50905e-09
2.92503e-09
1.65257e-09
1.80927e-09
2.12507e-09
2.52744e-09
2.95432e-09
1.59984e-09
1.76007e-09
2.08366e-09
2.49514e-09
2.93557e-09
1.4863e-09
1.64994e-09
1.99789e-09
2.43323e-09
2.90849e-09
1.25157e-09
1.46813e-09
1.89141e-09
2.40545e-09
3.07171e-09
1.86135e-09
2.01526e-09
2.32458e-09
2.72483e-09
3.15713e-09
1.83301e-09
2.00433e-09
2.32422e-09
2.71977e-09
3.12698e-09
1.77449e-09
1.95021e-09
2.27316e-09
2.66856e-09
3.06735e-09
1.67011e-09
1.86144e-09
2.20762e-09
2.61635e-09
3.01804e-09
1.50932e-09
1.75887e-09
2.14566e-09
2.57199e-09
3.03e-09
1.969e-09
2.11772e-09
2.414e-09
2.79308e-09
3.20598e-09
1.93506e-09
2.09729e-09
2.39504e-09
2.75943e-09
3.13931e-09
1.88353e-09
2.0544e-09
2.34868e-09
2.71036e-09
3.08968e-09
1.83035e-09
2.02173e-09
2.32046e-09
2.68915e-09
3.08228e-09
1.82193e-09
2.02225e-09
2.30285e-09
2.6582e-09
3.0556e-09
1.9938e-09
2.10988e-09
2.38498e-09
2.74503e-09
3.15107e-09
1.93292e-09
2.06452e-09
2.34264e-09
2.69682e-09
3.08995e-09
1.89061e-09
2.03751e-09
2.30994e-09
2.6609e-09
3.05963e-09
1.87603e-09
2.03634e-09
2.29425e-09
2.64585e-09
3.07264e-09
1.91561e-09
2.03636e-09
2.25155e-09
2.60396e-09
3.06832e-09
1.9699e-09
2.04962e-09
2.32025e-09
2.68793e-09
3.11769e-09
1.87035e-09
1.97929e-09
2.26196e-09
2.63291e-09
3.05126e-09
1.82292e-09
1.95338e-09
2.2288e-09
2.58172e-09
2.96979e-09
1.78477e-09
1.92128e-09
2.1719e-09
2.49924e-09
2.85777e-09
1.70838e-09
1.80925e-09
2.02277e-09
2.32581e-09
2.6318e-09
2.01063e-09
2.08449e-09
2.36345e-09
2.73763e-09
3.1672e-09
1.88412e-09
2.00035e-09
2.28884e-09
2.65592e-09
3.05906e-09
1.80024e-09
1.93537e-09
2.20787e-09
2.53952e-09
2.87976e-09
1.67057e-09
1.80707e-09
2.05206e-09
2.33545e-09
2.56462e-09
1.41688e-09
1.54668e-09
1.76512e-09
1.9576e-09
1.90064e-09
2.25654e-09
2.35612e-09
2.62557e-09
2.97321e-09
3.3711e-09
2.11065e-09
2.24346e-09
2.50291e-09
2.83122e-09
3.21906e-09
1.92899e-09
2.06254e-09
2.29693e-09
2.59861e-09
2.94499e-09
1.63345e-09
1.75883e-09
1.97273e-09
2.23711e-09
2.44989e-09
1.19409e-09
1.32304e-09
1.52226e-09
1.66269e-09
1.41245e-09
2.78004e-09
2.89797e-09
3.13129e-09
3.44967e-09
3.86096e-09
2.57374e-09
2.69299e-09
2.90328e-09
3.21655e-09
3.6534e-09
2.1979e-09
2.2969e-09
2.49056e-09
2.80527e-09
3.23008e-09
1.6382e-09
1.72267e-09
1.91026e-09
2.20342e-09
2.49651e-09
9.45081e-10
1.03064e-09
1.20577e-09
1.37062e-09
1.13345e-09
3.57226e-09
3.67085e-09
3.8771e-09
4.21423e-09
4.68845e-09
3.2182e-09
3.29498e-09
3.49357e-09
3.85365e-09
4.35561e-09
2.55037e-09
2.60782e-09
2.81424e-09
3.18903e-09
3.67707e-09
1.63003e-09
1.68482e-09
1.89424e-09
2.24052e-09
2.59795e-09
5.6854e-10
6.35757e-10
8.23081e-10
1.03885e-09
8.59453e-10
4.66005e-09
4.72532e-09
4.9542e-09
5.34919e-09
5.84469e-09
4.08388e-09
4.14031e-09
4.38839e-09
4.81034e-09
5.3141e-09
3.06293e-09
3.12113e-09
3.38731e-09
3.81358e-09
4.31468e-09
1.70803e-09
1.78103e-09
2.0426e-09
2.43606e-09
2.8668e-09
1.72147e-10
2.786e-10
5.11637e-10
8.07603e-10
8.2468e-10
6.22998e-09
6.3007e-09
6.59827e-09
7.04744e-09
7.52776e-09
5.40746e-09
5.49886e-09
5.81654e-09
6.26979e-09
6.75981e-09
3.98186e-09
4.08181e-09
4.3976e-09
4.84179e-09
5.35757e-09
2.09417e-09
2.20506e-09
2.49394e-09
2.90687e-09
3.42244e-09
-4.16771e-11
9.42243e-11
3.29742e-10
6.80517e-10
9.81652e-10
8.609e-09
8.73125e-09
9.10203e-09
9.60473e-09
1.01524e-08
7.51384e-09
7.65905e-09
8.0276e-09
8.5254e-09
9.09598e-09
5.56515e-09
5.70183e-09
6.05382e-09
6.546e-09
7.13233e-09
2.95934e-09
3.09195e-09
3.40416e-09
3.84987e-09
4.40485e-09
-4.59836e-12
1.09801e-10
3.24026e-10
6.86943e-10
1.07719e-09
1.21434e-08
1.2312e-08
1.27437e-08
1.33438e-08
1.40627e-08
1.06701e-08
1.08421e-08
1.1274e-08
1.18949e-08
1.26374e-08
7.9904e-09
8.15599e-09
8.59805e-09
9.23025e-09
9.95795e-09
4.39104e-09
4.56236e-09
4.98387e-09
5.56349e-09
6.19843e-09
2.35601e-10
3.74344e-10
7.11004e-10
1.20089e-09
1.57425e-09
1.7178e-08
1.73664e-08
1.78885e-08
1.86464e-08
1.95375e-08
1.51563e-08
1.53601e-08
1.59211e-08
1.67234e-08
1.76386e-08
1.14927e-08
1.17316e-08
1.23364e-08
1.31554e-08
1.40626e-08
6.5449e-09
6.81612e-09
7.43092e-09
8.22557e-09
9.05514e-09
7.26195e-10
1.00611e-09
1.62234e-09
2.37913e-09
2.86468e-09
2.41989e-08
2.44376e-08
2.51157e-08
2.60617e-08
2.71014e-08
2.14587e-08
2.17593e-08
2.24949e-08
2.34758e-08
2.45626e-08
1.64927e-08
1.68554e-08
1.76259e-08
1.86178e-08
1.97369e-08
9.69766e-09
1.0095e-08
1.08906e-08
1.19005e-08
1.29984e-08
1.61849e-09
2.07105e-09
2.93956e-09
3.95967e-09
4.74288e-09
3.39466e-08
3.43094e-08
3.51761e-08
3.63238e-08
3.75779e-08
3.02813e-08
3.07199e-08
3.1615e-08
3.27861e-08
3.41246e-08
2.35057e-08
2.39816e-08
2.489e-08
2.60937e-08
2.75201e-08
1.41302e-08
1.46271e-08
1.55798e-08
1.68491e-08
1.83244e-08
2.99476e-09
3.57089e-09
4.61613e-09
5.93604e-09
7.27694e-09
4.73744e-08
4.78955e-08
4.89528e-08
5.03595e-08
5.19445e-08
4.24226e-08
4.29813e-08
4.40444e-08
4.54941e-08
4.71868e-08
3.30732e-08
3.36391e-08
3.47347e-08
3.62678e-08
3.80931e-08
2.01231e-08
2.07182e-08
2.18878e-08
2.35197e-08
2.54408e-08
4.84396e-09
5.51532e-09
6.76384e-09
8.46957e-09
1.0355e-08
6.56396e-08
6.63218e-08
6.76338e-08
6.94285e-08
7.14758e-08
5.88544e-08
5.95472e-08
6.08905e-08
6.27557e-08
6.48977e-08
4.59409e-08
4.66501e-08
4.80653e-08
5.00382e-08
5.22921e-08
2.81195e-08
2.88758e-08
3.03707e-08
3.24342e-08
3.4765e-08
7.15894e-09
7.95057e-09
9.49918e-09
1.16244e-08
1.38146e-08
9.03149e-08
9.12145e-08
9.29346e-08
9.52724e-08
9.79315e-08
8.10079e-08
8.19339e-08
8.37216e-08
8.61298e-08
8.88324e-08
6.32742e-08
6.42395e-08
6.61095e-08
6.86103e-08
7.13757e-08
3.88242e-08
3.98357e-08
4.17765e-08
4.43759e-08
4.72607e-08
1.0014e-08
1.10236e-08
1.30478e-08
1.57803e-08
1.861e-08
1.23669e-07
1.24905e-07
1.27206e-07
1.30222e-07
1.33582e-07
1.10964e-07
1.12245e-07
1.14617e-07
1.1769e-07
1.21063e-07
8.67169e-08
8.80442e-08
9.04927e-08
9.3664e-08
9.71298e-08
5.32211e-08
5.45933e-08
5.71405e-08
6.04832e-08
6.41974e-08
1.36239e-08
1.50217e-08
1.77556e-08
2.1359e-08
2.52643e-08
1.68839e-07
1.70548e-07
1.73618e-07
1.775e-07
1.81645e-07
1.51538e-07
1.5329e-07
1.56421e-07
1.60376e-07
1.64589e-07
1.18459e-07
1.20263e-07
1.23491e-07
1.27605e-07
1.32007e-07
7.26497e-08
7.45202e-08
7.7918e-08
8.22921e-08
8.70178e-08
1.8346e-08
2.03299e-08
2.40087e-08
2.86681e-08
3.36472e-08
2.30024e-07
2.32407e-07
2.36576e-07
2.41708e-07
2.46941e-07
2.06501e-07
2.08925e-07
2.13159e-07
2.18414e-07
2.23785e-07
1.61463e-07
1.63946e-07
1.6832e-07
1.73813e-07
1.79476e-07
9.89436e-08
1.01524e-07
1.06145e-07
1.11976e-07
1.18083e-07
2.46742e-08
2.74613e-08
3.24044e-08
3.85772e-08
4.51512e-08
3.12835e-07
3.16296e-07
3.22196e-07
3.29264e-07
3.36103e-07
2.80939e-07
2.84427e-07
2.90408e-07
2.97644e-07
3.04647e-07
2.1975e-07
2.23287e-07
2.29449e-07
2.36977e-07
2.44412e-07
1.34612e-07
1.38268e-07
1.44697e-07
1.52653e-07
1.60798e-07
3.32966e-08
3.71644e-08
4.38935e-08
5.24196e-08
6.14954e-08
4.24699e-07
4.29989e-07
4.38769e-07
4.48924e-07
4.58033e-07
3.81582e-07
3.86856e-07
3.95739e-07
4.06072e-07
4.15414e-07
2.98709e-07
3.04012e-07
3.13072e-07
3.23737e-07
3.33766e-07
1.83071e-07
1.88449e-07
1.97719e-07
2.08954e-07
2.19995e-07
4.50414e-08
5.04728e-08
6.00085e-08
7.20805e-08
8.43832e-08
5.7519e-07
5.83725e-07
5.97467e-07
6.12727e-07
6.25219e-07
5.17153e-07
5.25605e-07
5.39435e-07
5.54827e-07
5.67761e-07
4.0551e-07
4.13893e-07
4.27805e-07
4.43615e-07
4.57573e-07
2.48907e-07
2.57153e-07
2.71224e-07
2.87766e-07
3.03112e-07
6.09801e-08
6.9062e-08
8.33658e-08
1.00888e-07
1.17902e-07
7.76261e-07
7.90885e-07
8.1329e-07
8.37406e-07
8.55565e-07
6.98653e-07
7.12956e-07
7.35368e-07
7.59493e-07
7.78358e-07
5.49506e-07
5.63385e-07
5.85743e-07
6.10278e-07
6.30416e-07
3.38215e-07
3.51507e-07
3.73913e-07
3.99069e-07
4.21083e-07
8.31897e-08
9.5932e-08
1.18193e-07
1.44246e-07
1.68662e-07
1.042e-06
1.06862e-06
1.10611e-06
1.14636e-06
1.17468e-06
9.38962e-07
9.64341e-07
1.00202e-06
1.04161e-06
1.07078e-06
7.42525e-07
7.66727e-07
8.04072e-07
8.43589e-07
8.73912e-07
4.5879e-07
4.812e-07
5.18316e-07
5.57531e-07
5.90271e-07
1.15445e-07
1.3589e-07
1.71422e-07
2.11096e-07
2.46748e-07
1.38716e-06
1.43891e-06
1.50179e-06
1.57256e-06
1.62e-06
1.25073e-06
1.29787e-06
1.36285e-06
1.42975e-06
1.47867e-06
9.99476e-07
1.04404e-06
1.10782e-06
1.17364e-06
1.22182e-06
6.19019e-07
6.57948e-07
7.22625e-07
7.84648e-07
8.3634e-07
1.64808e-07
1.97225e-07
2.55563e-07
3.17096e-07
3.70238e-07
1.82386e-06
1.93314e-06
2.03186e-06
2.16473e-06
2.25227e-06
1.63956e-06
1.72931e-06
1.84371e-06
1.95677e-06
2.0523e-06
1.34084e-06
1.4281e-06
1.53632e-06
1.65051e-06
1.73067e-06
8.21785e-07
8.9016e-07
1.01342e-06
1.10779e-06
1.20018e-06
2.52233e-07
2.99205e-07
3.95972e-07
4.90324e-07
5.71406e-07
2.35306e-06
2.59892e-06
2.72787e-06
2.99786e-06
3.17419e-06
2.08672e-06
2.25719e-06
2.46658e-06
2.6444e-06
2.87161e-06
1.80527e-06
1.99221e-06
2.15751e-06
2.37397e-06
2.50145e-06
1.0412e-06
1.15438e-06
1.43228e-06
1.53893e-06
1.75451e-06
4.35912e-07
4.92032e-07
6.52337e-07
7.85266e-07
9.07211e-07
2.9395e-06
3.48144e-06
3.61148e-06
4.18516e-06
4.53252e-06
2.52655e-06
2.84728e-06
3.26822e-06
3.48478e-06
4.05878e-06
2.4472e-06
2.87749e-06
3.05426e-06
3.53855e-06
3.68117e-06
1.22369e-06
1.36024e-06
2.06502e-06
2.05795e-06
2.64316e-06
8.00436e-07
8.70679e-07
1.15004e-06
1.31893e-06
1.47729e-06
3.49342e-06
4.64973e-06
4.70057e-06
5.95544e-06
6.58656e-06
2.86489e-06
3.46516e-06
4.36014e-06
4.52642e-06
5.79078e-06
3.26934e-06
4.27438e-06
4.30108e-06
5.57002e-06
5.46048e-06
1.38306e-06
1.48295e-06
3.13716e-06
2.76794e-06
4.1151e-06
1.42564e-06
1.56458e-06
2.08927e-06
2.3346e-06
2.45677e-06
4.00028e-06
7.16462e-06
6.54627e-06
9.25296e-06
1.10273e-05
3.02057e-06
4.53e-06
6.46627e-06
6.03398e-06
8.38622e-06
4.48042e-06
7.19707e-06
7.2559e-06
1.02536e-05
8.8596e-06
1.86212e-06
1.81736e-06
5.98943e-06
4.0618e-06
6.52677e-06
2.41779e-06
2.8072e-06
4.30089e-06
4.45347e-06
4.30386e-06
-1.16575e-06
3.52456e-07
1.45012e-06
5.89107e-06
6.94874e-06
-1.10431e-06
-7.99875e-07
2.225e-06
4.79584e-06
8.46926e-06
2.02696e-07
1.93159e-06
1.64452e-06
6.43287e-06
5.27915e-06
-3.0477e-06
-1.63254e-06
2.10087e-06
2.70631e-06
6.7167e-06
1.29692e-06
4.00807e-07
1.23149e-06
2.44542e-06
2.65033e-06
5.73797e-06
2.24587e-05
1.30054e-05
2.82185e-05
3.57733e-05
4.26231e-06
9.8917e-06
1.71404e-05
1.31639e-05
1.76239e-05
9.11651e-06
2.50867e-05
2.24839e-05
4.23349e-05
2.77272e-05
8.43146e-06
5.56389e-06
2.5934e-05
1.37475e-05
1.78958e-05
1.09165e-05
1.41292e-05
2.00716e-05
2.05429e-05
1.4407e-05
-1.71887e-05
-2.46224e-05
-3.95342e-06
-5.02747e-06
4.09703e-06
-1.05776e-05
-1.83888e-05
-4.70582e-06
8.965e-06
3.1148e-05
-1.20582e-05
-1.60823e-05
3.66344e-08
9.3934e-07
1.12621e-05
-1.9991e-05
-5.53557e-06
-5.57734e-06
4.43998e-06
2.90351e-05
4.82048e-06
1.0199e-05
7.22797e-06
8.99983e-06
2.39034e-05
-2.6929e-05
2.71283e-05
-4.11368e-06
2.31331e-05
8.48353e-05
-1.22865e-06
-2.39141e-05
2.06153e-05
-1.34557e-05
-6.61231e-05
-3.69753e-05
3.13111e-05
5.92199e-05
0.000171193
5.62483e-05
-8.01308e-06
-2.28695e-05
6.05708e-05
8.69211e-06
-6.1835e-05
-7.80423e-06
2.69488e-05
4.65809e-05
1.19082e-05
-9.70059e-06
0.000736318
0.00106291
0.00101728
0.000570344
0.000880091
0.00139683
0.000852462
0.000821637
0.000627336
0.000490237
0.00127876
0.000713895
0.000966724
0.00101816
0.000722454
0.000589965
0.000501841
0.00106666
0.000798582
0.000220864
0.000250908
0.000699125
0.000728146
0.000365749
0.000123041
0.0020626
0.00158796
0.00177728
0.00166744
0.000947894
0.0018361
0.00188159
0.00152045
0.00156861
0.00113205
0.00183992
0.00156912
0.00138909
0.00199776
0.00139525
0.00143562
0.00145014
0.00132775
0.00160861
0.00114035
0.00152132
0.00163877
0.00124474
0.00174137
0.00148442
0.00205842
0.00191686
0.00202266
0.00206016
0.0019944
0.00222069
0.00217386
0.00214248
0.00204773
0.00153962
0.00219415
0.00210054
0.00189906
0.00177657
0.00195491
0.00216756
0.00262268
0.00183329
0.00163927
0.00187053
0.00222232
0.00219596
0.00202813
0.00200715
0.00210555
0.00212276
0.00216631
0.00247555
0.0024149
0.00276278
0.00256627
0.00244099
0.00257312
0.00280769
0.00336353
0.00228435
0.00232534
0.00226
0.0021019
0.00227383
0.00344631
0.00245619
0.00246726
0.00253884
0.0024891
0.0024382
0.0026235
0.00233962
0.00272594
0.00287615
0.00383357
0.00313418
0.00363681
0.00310608
0.00355361
0.00289433
0.00291863
0.00315314
0.00322747
0.00327915
0.00301785
0.00316701
0.00260712
0.00305265
0.00319465
0.00352307
0.00341944
0.00282229
0.00336282
0.00291718
0.00303529
0.00288259
0.00292586
0.00331649
0.00306756
0.00461677
0.00465391
0.00397863
0.00419449
0.00408765
0.0040185
0.00349912
0.0039039
0.00364828
0.00351171
0.00368755
0.00364101
0.00436187
0.00376043
0.00426983
0.00350977
0.0035025
0.003505
0.00394003
0.0036658
0.0033022
0.00324227
0.00396388
0.00388368
0.00339533
0.00515318
0.00510692
0.00410111
0.00453395
0.00438198
0.00473288
0.00462455
0.00446208
0.00434613
0.00439928
0.0044349
0.00429894
0.00443107
0.00448384
0.00452538
0.0046679
0.00404399
0.00434513
0.00429587
0.00444903
0.00435553
0.00461845
0.00436024
0.00438101
0.00434152
0.00550341
0.00557615
0.00532015
0.00491822
0.00572211
0.00520251
0.00551881
0.00521739
0.00493586
0.00580609
0.00492842
0.00497727
0.00483937
0.00502867
0.00481031
0.00497978
0.00500537
0.00487164
0.00486609
0.0049587
0.00480377
0.00475955
0.00455627
0.00441877
0.00480796
0.00554532
0.0057612
0.0058146
0.00544813
0.00575787
0.00568258
0.00577262
0.00601185
0.00551179
0.00599812
0.00561213
0.00560103
0.00544672
0.00536585
0.005562
0.00494067
0.00560042
0.00549811
0.0054316
0.00492224
0.00509925
0.00526901
0.00530392
0.00496208
0.00522115
0.0061734
0.00612638
0.00606
0.00604916
0.00604227
0.00624969
0.00611618
0.00604741
0.00600235
0.00609396
0.00605994
0.00610779
0.00608071
0.00565955
0.0059527
0.00599196
0.00612759
0.00596022
0.00588693
0.00595911
0.00607561
0.00604159
0.0060481
0.00587763
0.00588471
0.00623179
0.00624518
0.00621657
0.00618579
0.0062008
0.00622771
0.00624005
0.0061418
0.0062052
0.00616549
0.00619332
0.00622484
0.0062393
0.00616956
0.00620847
0.0061699
0.0062233
0.00620098
0.00617474
0.00617819
0.00621009
0.00620405
0.00620545
0.00616651
0.00614211
0.00618009
0.00617422
0.00618389
0.00616772
0.00614517
0.00618662
0.00617959
0.00617852
0.00617137
0.00616565
0.00618835
0.00618035
0.00617997
0.00617526
0.00616691
0.00617513
0.00617865
0.00618714
0.00617419
0.00616851
0.00618544
0.00618709
0.00617721
0.00616293
0.00616379
0.00618656
0.00618354
0.00617833
0.00617464
0.00617564
0.00618259
0.00618151
0.00616488
0.00617252
0.00616822
0.00618042
0.00618173
0.00617849
0.00616835
0.00617299
0.0061703
0.00617332
0.0061696
0.00616381
0.00617098
0.00618203
0.0061818
0.00617614
0.00616201
0.00616367
0.00617946
0.00617791
0.00617754
0.00617545
0.00617372
0.00617908
0.00617794
0.00617581
0.00617543
0.00617344
0.0061801
0.00617902
0.00617805
0.0061744
0.00617509
0.00617576
0.00617423
0.00617461
0.00617144
0.00617285
0.00618066
0.00617931
0.00617602
0.00617131
0.00617084
0.00617808
0.00617709
0.00617664
0.00617568
0.00617528
0.00617737
0.00617667
0.00617525
0.00617531
0.00617483
0.00617825
0.0061775
0.00617681
0.00617462
0.00617527
0.00617508
0.00617445
0.00617421
0.00617256
0.00617393
0.00617861
0.00617774
0.00617599
0.00617341
0.00617309
0.00617704
0.00617654
0.00617629
0.00617579
0.00617574
0.0061766
0.00617621
0.00617573
0.00617552
0.00617553
0.00617722
0.00617673
0.00617633
0.00617525
0.00617552
0.00617536
0.00617495
0.00617487
0.00617405
0.00617475
0.00617749
0.00617686
0.00617593
0.00617468
0.0061744
0.00617647
0.00617623
0.00617609
0.00617586
0.0061759
0.00617624
0.00617604
0.00617587
0.0061757
0.00617577
0.00617659
0.00617631
0.00617607
0.00617554
0.00617565
0.00617556
0.00617534
0.00617532
0.00617492
0.00617524
0.0061768
0.00617643
0.00617593
0.00617526
0.00617504
0.00617617
0.00617605
0.00617598
0.00617588
0.00617592
0.00617607
0.00617597
0.00617589
0.00617579
0.00617585
0.00617622
0.00617607
0.00617593
0.00617568
0.00617573
0.00617571
0.0061756
0.00617558
0.00617539
0.0061755
0.00617633
0.00617616
0.00617587
0.00617552
0.00617537
0.00617601
0.00617595
0.00617592
0.00617588
0.00617591
0.00617597
0.00617592
0.00617588
0.00617583
0.00617586
0.00617601
0.00617594
0.00617586
0.00617575
0.00617577
0.0061758
0.00617575
0.00617572
0.00617562
0.00617564
0.00617609
0.00617599
0.00617582
0.00617564
0.00617554
0.00617592
0.0061759
0.00617587
0.00617586
0.00617588
0.00617591
0.00617588
0.00617585
0.00617583
0.00617584
0.00617591
0.00617587
0.00617583
0.00617579
0.00617578
0.00617583
0.00617581
0.00617577
0.00617572
0.0061757
0.00617594
0.00617588
0.0061758
0.0061757
0.00617564
0.00617587
0.00617586
0.00617585
0.00617584
0.00617585
0.00617586
0.00617585
0.00617583
0.00617582
0.00617583
0.00617585
0.00617584
0.00617581
0.00617579
0.00617579
0.00617583
0.00617581
0.00617579
0.00617576
0.00617574
0.00617586
0.00617583
0.00617578
0.00617574
0.0061757
0.00617583
0.00617583
0.00617582
0.00617582
0.00617583
0.00617583
0.00617582
0.00617582
0.00617581
0.00617581
0.00617582
0.00617582
0.0061758
0.00617579
0.00617579
0.00617582
0.0061758
0.00617579
0.00617577
0.00617575
0.00617582
0.0061758
0.00617578
0.00617575
0.00617572
0.00617581
0.00617581
0.0061758
0.0061758
0.00617581
0.00617581
0.0061758
0.0061758
0.0061758
0.0061758
0.0061758
0.0061758
0.00617579
0.00617578
0.00617578
0.0061758
0.00617579
0.00617578
0.00617577
0.00617576
0.0061758
0.00617579
0.00617577
0.00617575
0.00617574
0.00617579
0.00617579
0.00617579
0.00617579
0.00617579
0.00617579
0.00617579
0.00617579
0.00617578
0.00617578
0.00617579
0.00617579
0.00617578
0.00617577
0.00617577
0.00617579
0.00617578
0.00617577
0.00617576
0.00617576
0.00617578
0.00617578
0.00617577
0.00617575
0.00617574
0.00617578
0.00617578
0.00617578
0.00617578
0.00617578
0.00617578
0.00617578
0.00617578
0.00617577
0.00617577
0.00617578
0.00617577
0.00617577
0.00617577
0.00617576
0.00617577
0.00617577
0.00617577
0.00617576
0.00617575
0.00617577
0.00617577
0.00617576
0.00617575
0.00617574
0.00617577
0.00617577
0.00617577
0.00617577
0.00617577
0.00617577
0.00617577
0.00617577
0.00617576
0.00617576
0.00617577
0.00617577
0.00617576
0.00617576
0.00617576
0.00617577
0.00617576
0.00617576
0.00617576
0.00617575
0.00617576
0.00617576
0.00617576
0.00617575
0.00617574
0.00617576
0.00617576
0.00617576
0.00617576
0.00617576
0.00617576
0.00617576
0.00617576
0.00617576
0.00617576
0.00617576
0.00617576
0.00617576
0.00617576
0.00617575
0.00617576
0.00617576
0.00617575
0.00617575
0.00617575
0.00617576
0.00617575
0.00617575
0.00617575
0.00617574
0.00617576
0.00617576
0.00617576
0.00617576
0.00617575
0.00617576
0.00617576
0.00617576
0.00617575
0.00617575
0.00617576
0.00617575
0.00617575
0.00617575
0.00617575
0.00617575
0.00617575
0.00617575
0.00617575
0.00617575
0.00617575
0.00617575
0.00617575
0.00617575
0.00617574
0.00617575
0.00617575
0.00617575
0.00617575
0.00617575
0.00617575
0.00617575
0.00617575
0.00617575
0.00617575
0.00617575
0.00617575
0.00617575
0.00617575
0.00617575
0.00617575
0.00617575
0.00617575
0.00617575
0.00617575
0.00617575
0.00617575
0.00617575
0.00617574
0.00617574
0.00617575
0.00617575
0.00617575
0.00617575
0.00617575
0.00617575
0.00617575
0.00617575
0.00617575
0.00617575
0.00617575
0.00617575
0.00617575
0.00617575
0.00617575
0.00617575
0.00617575
0.00617575
0.00617575
0.00617574
0.00617575
0.00617575
0.00617575
0.00617574
0.00617574
0.00617575
0.00617575
0.00617575
0.00617575
0.00617575
0.00617575
0.00617575
0.00617575
0.00617575
0.00617575
0.00617575
0.00617575
0.00617575
0.00617575
0.00617575
0.00617575
0.00617575
0.00617575
0.00617574
0.00617574
0.00617575
0.00617574
0.00617574
0.00617574
0.00617574
0.00617575
0.00617575
0.00617575
0.00617575
0.00617575
0.00617575
0.00617575
0.00617575
0.00617575
0.00617574
0.00617575
0.00617575
0.00617575
0.00617574
0.00617574
0.00617574
0.00617574
0.00617574
0.00617574
0.00617574
0.00617574
0.00617574
0.00617574
0.00617574
0.00617574
0.00617575
0.00617575
0.00617575
0.00617574
0.00617574
0.00617575
0.00617575
0.00617574
0.00617574
0.00617574
0.00617574
0.00617574
0.00617574
0.00617574
0.00617574
0.00617574
0.00617574
0.00617574
0.00617574
0.00617574
0.00617574
0.00617574
0.00617574
0.00617574
0.00617574
0.00617574
0.00617574
0.00617574
0.00617574
0.00617574
0.00617574
0.00617574
0.00617574
0.00617574
0.00617574
0.00617574
0.00617574
0.00617574
0.00617574
0.00617574
0.00617574
0.00617574
0.00617574
0.00617574
0.00617574
0.00617574
0.00617574
0.00617574
0.00617574
0.00617574
0.00617574
0.00617574
0.00617574
0.00617574
0.00617574
0.00617574
0.00617574
0.00617574
0.00617574
0.00617574
0.00617574
0.00617574
0.00617574
0.00617574
0.00617574
0.00617574
0.00617574
0.00617574
0.00617574
0.00617574
0.00617574
0.00617574
0.00617574
0.00617574
0.00617574
0.00617574
0.00617574
0.00617574
0.00617574
0.00617574
0.00617574
0.00617574
0.00617574
0.00617574
0.00617574
0.00617574
0.00617574
0.00617574
0.00617574
0.00617574
0.00617574
0.00617574
0.00617574
0.00617574
0.00617574
0.00617574
0.00617574
0.00617574
0.00617574
0.00617574
0.00617574
0.00617574
0.00617574
0.00617574
0.00617574
0.00617574
0.00617574
0.00617574
0.00617574
0.00617574
0.00617574
0.00617574
0.00617574
0.00617574
0.00617574
0.00617574
0.00617574
0.00617574
0.00617574
0.00617574
0.00617574
0.00617574
0.00617574
0.00617574
0.00617574
0.00617574
0.00617574
0.00617574
0.00617574
0.00617574
0.00617574
0.00617574
0.00617574
0.00617574
0.00617574
0.00617574
0.00617574
0.00617574
0.00617574
0.00617574
0.00617574
0.00617574
0.00617574
0.00617574
0.00617574
0.00617574
0.00617574
0.00617574
0.00617574
0.00617574
0.00617574
0.00617574
0.00617574
0.00617574
0.00617574
0.00617574
0.00617574
0.00617574
0.00617574
0.00617574
0.00617574
0.00617574
0.00617574
0.00617574
0.00617574
0.00617574
0.00617574
0.00617574
0.00617574
0.00617574
0.00617574
0.00617574
0.00617574
0.00617574
0.00617574
0.00617574
0.00617574
0.00617574
0.00617574
0.00617574
0.00617574
0.00617574
0.00617574
0.00617574
0.00617574
0.00617574
0.00617574
0.00617574
0.00617574
0.00617574
0.00617574
0.00617574
0.00617574
0.00617574
0.00617574
0.00617574
0.00617574
0.00617574
0.00617574
0.00617574
0.00617574
0.00617574
0.00617574
0.00617574
0.00617574
0.00617574
0.00617574
0.00617574
0.00617574
0.00617574
0.00617574
0.00617574
0.00617574
0.00617574
0.00617574
0.00617574
0.00617574
0.00617574
0.00617574
0.00617574
0.00617574
0.00617574
0.00617574
0.00617574
0.00617574
0.00617574
0.00617574
0.00617574
0.00617574
0.00617574
0.00617574
0.00617574
0.00617574
0.00617574
0.00617574
0.00617574
0.00617574
0.00617574
0.00617574
0.00617574
0.00617574
0.00617574
0.00617574
0.00617574
0.00617574
0.00617574
0.00617574
0.00617574
0.00617574
0.00617574
0.00617574
0.00617574
0.00617574
0.00617574
0.00617574
0.00617574
0.00617574
0.00617574
0.00617574
0.00617574
0.00617574
0.00617574
0.00617574
0.00617574
0.00617574
0.00617574
0.00617574
0.00617574
0.00617574
0.00617574
0.00617574
0.00617574
0.00617574
0.00617574
0.00617574
0.00617574
0.00617574
0.00617574
0.00617574
0.00617574
0.00617574
0.00617574
0.00617574
0.00617574
0.00617574
0.00617574
0.00617574
0.00617574
0.00617574
0.00617574
0.00617574
0.00617574
0.00617574
0.00617574
0.00617574
0.00617574
0.00617574
0.00617574
0.00617574
0.00617574
0.00617574
0.00617574
0.00617574
0.00617574
0.00617574
0.00617574
0.00617574
0.00617574
0.00617574
0.00617574
0.00617574
0.00617574
0.00617574
0.00617574
0.00617574
0.00617574
0.00617574
0.00617574
0.00617574
0.00617574
0.00617574
0.00617574
0.00617574
0.00617574
0.00617574
0.00617574
0.00617574
0.00617574
0.00617574
0.00617574
0.00617574
0.00617574
0.00617574
0.00617574
0.00617574
0.00617574
0.00617574
0.00617574
0.00617574
0.00617574
0.00617574
0.00617574
0.00617574
0.00617574
0.00617574
0.00617574
0.00617574
0.00617574
0.00617574
0.00617574
0.00617574
0.00617574
0.00617574
0.00617574
0.00617574
0.00617574
0.00617574
0.00617574
0.00617574
0.00617574
0.00617574
0.00617574
0.00617574
0.00617574
0.00617574
0.00617574
0.00617574
0.00617574
0.00617574
0.00617574
0.00617574
0.00617574
0.00617574
0.00617574
0.00617574
0.00617574
0.00617574
0.00617574
0.00617574
0.00617574
0.00617574
0.00617574
0.00617574
0.00617574
0.00617574
0.00617574
0.00617574
0.00617574
0.00617574
0.00617574
0.00617574
0.00617574
0.00617574
0.00617574
0.00617574
0.00617574
0.00617574
0.00617574
0.00617574
0.00617574
0.00617574
0.00617574
0.00617574
0.00617574
0.00617574
0.00617574
0.00617574
0.00617574
0.00617574
0.00617574
0.00617574
0.00617574
0.00617574
0.00617574
0.00617574
0.00617574
0.00617574
0.00617574
0.00617574
0.00617574
0.00617574
0.00617574
0.00617574
0.00617574
0.00617574
)
;

boundaryField
{
    inlet
    {
        type            zeroGradient;
    }
    outlet
    {
        type            fixedValue;
        value           uniform 0;
    }
    repeat_boundary
    {
        type            zeroGradient;
    }
    procBoundary0to1
    {
        type            processor;
        value           nonuniform List<scalar> 
450
(
5.12611e-10
5.29647e-10
5.27342e-10
5.0883e-10
4.9082e-10
1.44938e-09
1.48619e-09
1.48424e-09
1.41942e-09
1.28423e-09
2.20622e-09
2.2602e-09
2.2717e-09
2.16677e-09
1.85345e-09
2.7827e-09
2.85304e-09
2.87918e-09
2.79282e-09
2.4988e-09
3.2071e-09
3.2616e-09
3.27671e-09
3.25829e-09
3.16129e-09
3.45697e-09
3.45364e-09
3.43093e-09
3.46338e-09
3.55307e-09
3.532e-09
3.48248e-09
3.44002e-09
3.47862e-09
3.60289e-09
3.53087e-09
3.48764e-09
3.46114e-09
3.49065e-09
3.53555e-09
3.55532e-09
3.52232e-09
3.49507e-09
3.52801e-09
3.59356e-09
3.63802e-09
3.567e-09
3.47455e-09
3.47486e-09
3.68628e-09
3.85989e-09
3.72937e-09
3.51175e-09
3.34903e-09
3.55473e-09
4.37147e-09
4.17106e-09
3.76748e-09
3.2883e-09
3.17378e-09
5.22259e-09
4.88379e-09
4.2094e-09
3.3094e-09
2.66666e-09
6.41418e-09
5.86215e-09
4.84115e-09
3.43732e-09
2.08968e-09
8.16999e-09
7.39157e-09
5.96759e-09
3.9714e-09
1.7204e-09
1.09007e-08
9.86847e-09
7.9405e-09
5.26937e-09
2.15722e-09
1.49361e-08
1.35373e-08
1.09239e-08
7.40436e-09
3.48371e-09
2.05734e-08
1.86677e-08
1.51243e-08
1.03535e-08
5.06132e-09
2.83533e-08
2.57937e-08
2.09855e-08
1.43915e-08
6.82067e-09
3.90834e-08
3.56315e-08
2.90755e-08
2.00158e-08
9.503e-09
5.37195e-08
4.90063e-08
4.00097e-08
2.75701e-08
1.31891e-08
7.35291e-08
6.70444e-08
5.45869e-08
3.73417e-08
1.73795e-08
1.00335e-07
9.13545e-08
7.40698e-08
5.01941e-08
2.24262e-08
1.36518e-07
1.24116e-07
1.00365e-07
6.76418e-08
2.92545e-08
1.85279e-07
1.68348e-07
1.35985e-07
9.13401e-08
3.85887e-08
2.51314e-07
2.28339e-07
1.84345e-07
1.23477e-07
5.14026e-08
3.41251e-07
3.10095e-07
2.50422e-07
1.67618e-07
6.92675e-08
4.64069e-07
4.21918e-07
3.41242e-07
2.28836e-07
9.46289e-08
6.32153e-07
5.7537e-07
4.66693e-07
3.14318e-07
1.31622e-07
8.62878e-07
7.86648e-07
6.41102e-07
4.34825e-07
1.86856e-07
1.18047e-06
1.07796e-06
8.85403e-07
6.06268e-07
2.70955e-07
1.61839e-06
1.47839e-06
1.23158e-06
8.51592e-07
4.02999e-07
2.2225e-06
2.01886e-06
1.73319e-06
1.19924e-06
6.18588e-07
3.05381e-06
2.71758e-06
2.48759e-06
1.66933e-06
9.84648e-07
4.20334e-06
3.60328e-06
3.65475e-06
2.29323e-06
1.62087e-06
5.86522e-06
4.82693e-06
5.55308e-06
3.24777e-06
2.75322e-06
8.58168e-06
6.93613e-06
9.67905e-06
5.27046e-06
5.72572e-06
8.47165e-06
6.34006e-06
6.15291e-06
3.00491e-06
2.12994e-07
2.51922e-05
2.00962e-05
3.66519e-05
1.76936e-05
2.3817e-05
2.61722e-05
2.91801e-05
3.11638e-06
9.37021e-06
-1.29144e-05
3.64471e-05
9.03434e-05
5.92257e-05
-6.43059e-05
-1.42729e-05
0.000472348
0.000803309
0.00070444
0.000700443
0.000730994
0.00237295
0.00201808
0.001409
0.00196744
0.00113853
0.00262733
0.0025798
0.00280574
0.00254952
0.00138206
0.00300619
0.00268207
0.00290118
0.00274834
0.00271016
0.00345783
0.0034857
0.00362836
0.00307183
0.00322704
0.00398183
0.0044022
0.00408666
0.00474797
0.00323084
0.00486672
0.00467889
0.00433376
0.00495646
0.00447802
0.00500518
0.00483099
0.00496682
0.0046547
0.00493907
0.00533396
0.00514278
0.00527753
0.00494373
0.00510356
0.0059227
0.00607129
0.00604194
0.00594765
0.00555361
0.00619048
0.00620467
0.00621524
0.0061931
0.00616251
0.00618494
0.00617879
0.00616047
0.0061454
0.00615886
0.00617599
0.00617719
0.00617322
0.00616871