/*--------------------------------*- C++ -*----------------------------------*\
| =========                 |                                                 |
| \\      /  F ield         | OpenFOAM: The Open Source CFD Toolbox           |
|  \\    /   O peration     | Version:  5.x                                   |
|   \\  /    A nd           | Web:      www.OpenFOAM.org                      |
|    \\/     M anipulation  |                                                 |
\*---------------------------------------------------------------------------*/
FoamFile
{
    version     2.0;
    format      ascii;
    class       surfaceScalarField;
    location    "0.05";
    object      phi;
}
// * * * * * * * * * * * * * * * * * * * * * * * * * * * * * * * * * * * * * //

dimensions      [0 3 -1 0 0 0 0];

internalField   nonuniform List<scalar> 
5825
(
-7.21232e-17
-5.93957e-17
-9.99998e-10
-1.30884e-16
-6.34851e-17
-9.99998e-10
-1.78459e-16
-6.74038e-17
-9.99999e-10
-2.10646e-16
-7.16214e-17
-9.99999e-10
-7.55889e-17
-9.99999e-10
-7.62459e-17
-1.06341e-16
-9.99998e-10
-1.35131e-16
-1.09756e-16
-9.99998e-10
-1.83157e-16
-1.11312e-16
-9.99999e-10
-2.15393e-16
-1.15629e-16
-9.99999e-10
-1.24731e-16
-9.99999e-10
-7.94033e-17
-1.39787e-16
-9.99998e-10
-1.36796e-16
-1.3906e-16
-9.99999e-10
-1.87191e-16
-1.37148e-16
-9.99999e-10
-2.25016e-16
-1.40692e-16
-9.99999e-10
-1.5039e-16
-1e-09
-7.8338e-17
-1.56201e-16
-9.99999e-10
-1.35304e-16
-1.48543e-16
-9.99999e-10
-1.90744e-16
-1.40715e-16
-9.99999e-10
-2.37546e-16
-1.42675e-16
-1e-09
-1.6166e-16
-1e-09
-6.87783e-17
-9.99999e-10
-1.24978e-16
-9.99999e-10
-1.88887e-16
-9.99999e-10
-2.58363e-16
-1e-09
-1e-09
-2.01588e-16
-1.63864e-16
-9.99998e-10
-3.68067e-16
-1.72367e-16
-9.99998e-10
-4.97222e-16
-1.81485e-16
-9.99998e-10
-5.74496e-16
-1.92974e-16
-9.99999e-10
-2.1169e-16
-9.99999e-10
-2.10161e-16
-2.9527e-16
-9.99998e-10
-3.78265e-16
-3.0343e-16
-9.99998e-10
-5.0969e-16
-3.09505e-16
-9.99998e-10
-5.94073e-16
-3.26308e-16
-9.99999e-10
-3.60838e-16
-9.99999e-10
-2.17729e-16
-3.87648e-16
-9.99998e-10
-3.84919e-16
-3.8767e-16
-9.99998e-10
-5.25527e-16
-3.87982e-16
-9.99999e-10
-6.28065e-16
-4.06418e-16
-9.99999e-10
-4.35404e-16
-9.99999e-10
-2.17551e-16
-4.42862e-16
-9.99998e-10
-3.86471e-16
-4.32037e-16
-9.99999e-10
-5.43819e-16
-4.20629e-16
-9.99999e-10
-6.68697e-16
-4.34138e-16
-9.99999e-10
-4.72629e-16
-1e-09
-2.02924e-16
-9.99999e-10
-3.71109e-16
-9.99999e-10
-5.44804e-16
-9.99999e-10
-7.11654e-16
-1e-09
-1e-09
-3.39923e-16
-2.7525e-16
-9.99997e-10
-6.23707e-16
-2.83547e-16
-9.99997e-10
-8.37044e-16
-2.96323e-16
-9.99998e-10
-9.48048e-16
-3.16579e-16
-9.99998e-10
-3.58726e-16
-9.99999e-10
-3.48416e-16
-4.97255e-16
-9.99997e-10
-6.38667e-16
-5.07352e-16
-9.99997e-10
-8.59283e-16
-5.20371e-16
-9.99998e-10
-9.91925e-16
-5.52713e-16
-9.99998e-10
-6.16781e-16
-9.99999e-10
-3.57607e-16
-6.53599e-16
-9.99998e-10
-6.52129e-16
-6.56192e-16
-9.99998e-10
-8.90676e-16
-6.67862e-16
-9.99998e-10
-1.05455e-15
-7.09398e-16
-9.99998e-10
-7.71046e-16
-9.99999e-10
-3.59056e-16
-7.49166e-16
-9.99998e-10
-6.64536e-16
-7.40986e-16
-9.99998e-10
-9.32421e-16
-7.53848e-16
-9.99998e-10
-1.12901e-15
-8.0623e-16
-9.99999e-10
-9.0595e-16
-9.99999e-10
-3.47996e-16
-9.99998e-10
-6.76286e-16
-9.99998e-10
-9.72032e-16
-9.99999e-10
-1.22803e-15
-9.99999e-10
-1e-09
-5.00686e-16
-4.04103e-16
-9.99996e-10
-9.19186e-16
-4.11429e-16
-9.99996e-10
-1.23678e-15
-4.27315e-16
-9.99997e-10
-1.40149e-15
-4.52113e-16
-9.99997e-10
-5.00405e-16
-9.99998e-10
-5.07939e-16
-7.23266e-16
-9.99996e-10
-9.39268e-16
-7.32369e-16
-9.99997e-10
-1.26568e-15
-7.51513e-16
-9.99997e-10
-1.45516e-15
-7.90834e-16
-9.99997e-10
-8.57559e-16
-9.99998e-10
-5.13513e-16
-9.51274e-16
-9.99997e-10
-9.58471e-16
-9.54385e-16
-9.99997e-10
-1.30413e-15
-9.83364e-16
-9.99997e-10
-1.52221e-15
-1.04075e-15
-9.99998e-10
-1.12456e-15
-9.99998e-10
-5.12664e-16
-1.06401e-15
-9.99997e-10
-9.87898e-16
-1.07703e-15
-9.99997e-10
-1.3616e-15
-1.13883e-15
-9.99998e-10
-1.61578e-15
-1.24279e-15
-9.99998e-10
-1.46666e-15
-9.99999e-10
-5.20454e-16
-9.99998e-10
-1.04836e-15
-9.99998e-10
-1.4579e-15
-9.99998e-10
-1.83007e-15
-9.99999e-10
-9.99999e-10
-7.02503e-16
-5.67935e-16
-9.99995e-10
-1.28961e-15
-5.73141e-16
-9.99995e-10
-1.7421e-15
-5.87978e-16
-9.99996e-10
-1.99678e-15
-6.04145e-16
-9.99996e-10
-6.22152e-16
-9.99997e-10
-7.07446e-16
-1.00923e-15
-9.99995e-10
-1.31041e-15
-1.01383e-15
-9.99995e-10
-1.7646e-15
-1.03319e-15
-9.99996e-10
-2.02321e-15
-1.06297e-15
-9.99997e-10
-1.09292e-15
-9.99997e-10
-7.0618e-16
-1.33709e-15
-9.99996e-10
-1.32976e-15
-1.34396e-15
-9.99996e-10
-1.79349e-15
-1.38563e-15
-9.99996e-10
-2.05419e-15
-1.43513e-15
-9.99997e-10
-1.48016e-15
-9.99998e-10
-7.07979e-16
-1.49645e-15
-9.99996e-10
-1.37177e-15
-1.54833e-15
-9.99996e-10
-1.84308e-15
-1.63192e-15
-9.99997e-10
-2.1078e-15
-1.72346e-15
-9.99998e-10
-1.90228e-15
-9.99998e-10
-7.53726e-16
-9.99997e-10
-1.45481e-15
-9.99997e-10
-1.92815e-15
-9.99998e-10
-2.27799e-15
-9.99998e-10
-9.99999e-10
-9.5956e-16
-7.86744e-16
-9.99993e-10
-1.76423e-15
-7.87272e-16
-9.99994e-10
-2.38809e-15
-7.93457e-16
-9.99994e-10
-2.76307e-15
-7.89557e-16
-9.99995e-10
-7.63264e-16
-9.99996e-10
-9.59932e-16
-1.4108e-15
-9.99993e-10
-1.77655e-15
-1.4107e-15
-9.99994e-10
-2.39151e-15
-1.42215e-15
-9.99994e-10
-2.74717e-15
-1.43482e-15
-9.99995e-10
-1.42921e-15
-9.99996e-10
-9.54095e-16
-1.91053e-15
-9.99994e-10
-1.78798e-15
-1.92649e-15
-9.99994e-10
-2.40346e-15
-1.96175e-15
-9.99995e-10
-2.74126e-15
-1.98659e-15
-9.99996e-10
-1.97617e-15
-9.99997e-10
-9.64541e-16
-2.22817e-15
-9.99995e-10
-1.82364e-15
-2.29297e-15
-9.99995e-10
-2.42826e-15
-2.33901e-15
-9.99996e-10
-2.73042e-15
-2.34978e-15
-9.99997e-10
-2.34772e-15
-9.99998e-10
-1.02149e-15
-9.99996e-10
-1.87096e-15
-9.99996e-10
-2.43991e-15
-9.99997e-10
-2.72547e-15
-9.99998e-10
-9.99999e-10
-1.28204e-15
-1.0801e-15
-9.99991e-10
-2.37943e-15
-1.07415e-15
-9.99991e-10
-3.23153e-15
-1.06992e-15
-9.99992e-10
-3.76212e-15
-1.05408e-15
-9.99993e-10
-1.01767e-15
-9.99995e-10
-1.27629e-15
-1.98772e-15
-9.99991e-10
-2.38161e-15
-1.98677e-15
-9.99992e-10
-3.22408e-15
-1.98835e-15
-9.99992e-10
-3.73777e-15
-1.99477e-15
-9.99994e-10
-1.99691e-15
-9.99995e-10
-1.26987e-15
-2.75148e-15
-9.99992e-10
-2.38346e-15
-2.77053e-15
-9.99992e-10
-3.23003e-15
-2.78431e-15
-9.99993e-10
-3.73859e-15
-2.79851e-15
-9.99994e-10
-2.79678e-15
-9.99996e-10
-1.28238e-15
-3.30292e-15
-9.99993e-10
-2.398e-15
-3.33068e-15
-9.99994e-10
-3.2437e-15
-3.32538e-15
-9.99994e-10
-3.73184e-15
-3.30299e-15
-9.99996e-10
-3.22386e-15
-9.99997e-10
-1.2987e-15
-9.99995e-10
-2.39482e-15
-9.99995e-10
-3.22867e-15
-9.99996e-10
-3.65095e-15
-9.99997e-10
-9.99999e-10
-1.69645e-15
-1.47426e-15
-9.99987e-10
-3.20782e-15
-1.46867e-15
-9.99988e-10
-4.38451e-15
-1.46503e-15
-9.99989e-10
-5.13499e-15
-1.45768e-15
-9.99991e-10
-1.4431e-15
-9.99993e-10
-1.69106e-15
-2.79681e-15
-9.99988e-10
-3.21212e-15
-2.80167e-15
-9.99989e-10
-4.38786e-15
-2.79996e-15
-9.9999e-10
-5.13468e-15
-2.80605e-15
-9.99991e-10
-2.82338e-15
-9.99993e-10
-1.68901e-15
-3.8983e-15
-9.99989e-10
-3.21089e-15
-3.91221e-15
-9.9999e-10
-4.39426e-15
-3.90815e-15
-9.99991e-10
-5.14948e-15
-3.92009e-15
-9.99993e-10
-3.95978e-15
-9.99994e-10
-1.6939e-15
-4.654e-15
-9.99991e-10
-3.20693e-15
-4.64348e-15
-9.99991e-10
-4.40636e-15
-4.62619e-15
-9.99992e-10
-5.17491e-15
-4.6411e-15
-9.99994e-10
-4.63469e-15
-9.99996e-10
-1.67001e-15
-9.99992e-10
-3.19117e-15
-9.99993e-10
-4.43553e-15
-9.99994e-10
-5.16835e-15
-9.99996e-10
-9.99998e-10
-2.2683e-15
-2.02501e-15
-9.99983e-10
-4.35465e-15
-2.03362e-15
-9.99984e-10
-5.98134e-15
-2.03926e-15
-9.99986e-10
-7.02726e-15
-2.04064e-15
-9.99988e-10
-2.02618e-15
-9.9999e-10
-2.27702e-15
-3.9093e-15
-9.99984e-10
-4.37109e-15
-3.92548e-15
-9.99985e-10
-5.99672e-15
-3.92207e-15
-9.99986e-10
-7.03048e-15
-3.91186e-15
-9.99989e-10
-3.89502e-15
-9.99991e-10
-2.28334e-15
-5.42092e-15
-9.99985e-10
-4.36793e-15
-5.43338e-15
-9.99986e-10
-5.98685e-15
-5.41874e-15
-9.99988e-10
-7.01198e-15
-5.40574e-15
-9.9999e-10
-5.41013e-15
-9.99993e-10
-2.28325e-15
-6.36415e-15
-9.99988e-10
-4.35277e-15
-6.36191e-15
-9.99988e-10
-5.97458e-15
-6.35433e-15
-9.9999e-10
-7.00382e-15
-6.36729e-15
-9.99992e-10
-6.36634e-15
-9.99995e-10
-2.26468e-15
-9.9999e-10
-4.34484e-15
-9.99991e-10
-5.99961e-15
-9.99992e-10
-7.00107e-15
-9.99994e-10
-9.99997e-10
-3.09064e-15
-2.81531e-15
-9.99977e-10
-5.92825e-15
-2.84018e-15
-9.99978e-10
-8.14322e-15
-2.84286e-15
-9.99981e-10
-9.55696e-15
-2.82873e-15
-9.99984e-10
-2.78944e-15
-9.99987e-10
-3.11572e-15
-5.42192e-15
-9.99978e-10
-5.9453e-15
-5.44342e-15
-9.9998e-10
-8.14781e-15
-5.42637e-15
-9.99982e-10
-9.54125e-15
-5.38766e-15
-9.99985e-10
-5.32403e-15
-9.99988e-10
-3.12369e-15
-7.46554e-15
-9.9998e-10
-5.92829e-15
-7.47911e-15
-9.99982e-10
-8.10939e-15
-7.45263e-15
-9.99984e-10
-9.47912e-15
-7.40487e-15
-9.99987e-10
-7.32802e-15
-9.9999e-10
-3.11989e-15
-8.70932e-15
-9.99983e-10
-5.90157e-15
-8.73151e-15
-9.99984e-10
-8.06263e-15
-8.72181e-15
-9.99986e-10
-9.39773e-15
-8.67279e-15
-9.99989e-10
-8.52637e-15
-9.99993e-10
-3.11911e-15
-9.99987e-10
-5.88895e-15
-9.99988e-10
-8.0185e-15
-9.9999e-10
-9.24968e-15
-9.99993e-10
-9.99996e-10
-4.24425e-15
-3.91796e-15
-9.99969e-10
-8.04903e-15
-3.93788e-15
-9.99971e-10
-1.1042e-14
-3.91614e-15
-9.99974e-10
-1.29593e-14
-3.87762e-15
-9.99978e-10
-3.83765e-15
-9.99983e-10
-4.26443e-15
-7.44903e-15
-9.99971e-10
-8.04638e-15
-7.45767e-15
-9.99972e-10
-1.10289e-14
-7.41782e-15
-9.99975e-10
-1.29507e-14
-7.36547e-15
-9.99979e-10
-7.29705e-15
-9.99984e-10
-4.25476e-15
-1.02194e-14
-9.99973e-10
-8.00687e-15
-1.02245e-14
-9.99975e-10
-1.09771e-14
-1.01848e-14
-9.99978e-10
-1.2886e-14
-1.0123e-14
-9.99982e-10
-1.00039e-14
-9.99987e-10
-4.23567e-15
-1.19596e-14
-9.99977e-10
-7.96768e-15
-1.19789e-14
-9.99979e-10
-1.09161e-14
-1.19539e-14
-9.99982e-10
-1.27761e-14
-1.18626e-14
-9.99986e-10
-1.16374e-14
-9.9999e-10
-4.22333e-15
-9.99982e-10
-7.93748e-15
-9.99983e-10
-1.08163e-14
-9.99986e-10
-1.25529e-14
-9.9999e-10
-9.99995e-10
-5.79604e-15
-5.38405e-15
-9.99958e-10
-1.09113e-14
-5.37425e-15
-9.9996e-10
-1.49901e-14
-5.32948e-15
-9.99964e-10
-1.76485e-14
-5.28809e-15
-9.9997e-10
-5.26379e-15
-9.99976e-10
-5.78671e-15
-1.01442e-14
-9.9996e-10
-1.08922e-14
-1.01316e-14
-9.99962e-10
-1.49841e-14
-1.00797e-14
-9.99966e-10
-1.76646e-14
-1.00265e-14
-9.99972e-10
-9.95943e-15
-9.99978e-10
-5.7496e-15
-1.39184e-14
-9.99964e-10
-1.08412e-14
-1.39127e-14
-9.99966e-10
-1.49328e-14
-1.38609e-14
-9.9997e-10
-1.75995e-14
-1.37817e-14
-9.99975e-10
-1.36441e-14
-9.99982e-10
-5.71071e-15
-1.6354e-14
-9.99969e-10
-1.07897e-14
-1.63552e-14
-9.99971e-10
-1.48544e-14
-1.63007e-14
-9.99975e-10
-1.7466e-14
-1.618e-14
-9.9998e-10
-1.59358e-14
-9.99987e-10
-5.67057e-15
-9.99975e-10
-1.0731e-14
-9.99977e-10
-1.47276e-14
-9.99981e-10
-1.72239e-14
-9.99986e-10
-9.99993e-10
-7.86038e-15
-7.30324e-15
-9.99943e-10
-1.48305e-14
-7.26972e-15
-9.99946e-10
-2.04296e-14
-7.22731e-15
-9.99951e-10
-2.40875e-14
-7.19584e-15
-9.99959e-10
-7.15292e-15
-9.99968e-10
-7.82781e-15
-1.37676e-14
-9.99946e-10
-1.4823e-14
-1.37518e-14
-9.99948e-10
-2.04469e-14
-1.37019e-14
-9.99954e-10
-2.40988e-14
-1.36339e-14
-9.99962e-10
-1.35382e-14
-9.9997e-10
-7.77929e-15
-1.89296e-14
-9.99951e-10
-1.47741e-14
-1.89291e-14
-9.99953e-10
-2.0382e-14
-1.88594e-14
-9.99959e-10
-2.40024e-14
-1.87392e-14
-9.99967e-10
-1.85728e-14
-9.99975e-10
-7.73393e-15
-2.22777e-14
-9.99958e-10
-1.47035e-14
-2.22805e-14
-9.9996e-10
-2.02623e-14
-2.21863e-14
-9.99966e-10
-2.38288e-14
-2.20202e-14
-9.99973e-10
-2.17546e-14
-9.99982e-10
-7.68279e-15
-9.99966e-10
-1.46076e-14
-9.99969e-10
-2.0101e-14
-9.99974e-10
-2.35632e-14
-9.99982e-10
-9.99991e-10
-1.06636e-14
-9.88266e-15
-9.99922e-10
-2.0236e-14
-9.86012e-15
-9.99926e-10
-2.78904e-14
-9.82968e-15
-9.99934e-10
-3.28133e-14
-9.78438e-15
-9.99944e-10
-9.70283e-15
-9.99956e-10
-1.06428e-14
-1.87286e-14
-9.99926e-10
-2.02531e-14
-1.87295e-14
-9.9993e-10
-2.79108e-14
-1.86666e-14
-9.99937e-10
-3.28072e-14
-1.85614e-14
-9.99948e-10
-1.84452e-14
-9.9996e-10
-1.05996e-14
-2.5794e-14
-9.99933e-10
-2.01906e-14
-2.58057e-14
-9.99937e-10
-2.78085e-14
-2.56998e-14
-9.99944e-10
-3.26916e-14
-2.55362e-14
-9.99955e-10
-2.53676e-14
-9.99967e-10
-1.05509e-14
-3.03612e-14
-9.99942e-10
-2.00825e-14
-3.03832e-14
-9.99946e-10
-2.76446e-14
-3.02483e-14
-9.99954e-10
-3.25108e-14
-3.00432e-14
-9.99964e-10
-2.97628e-14
-9.99976e-10
-1.05015e-14
-9.99954e-10
-1.99458e-14
-9.99958e-10
-2.74506e-14
-9.99965e-10
-3.22305e-14
-9.99975e-10
-9.99987e-10
-1.45396e-14
-1.34468e-14
-9.99894e-10
-2.76589e-14
-1.34513e-14
-9.999e-10
-3.8066e-14
-1.34036e-14
-9.9991e-10
-4.46987e-14
-1.3315e-14
-9.99924e-10
-1.32155e-14
-9.99941e-10
-1.45466e-14
-2.556e-14
-9.99899e-10
-2.76751e-14
-2.5564e-14
-9.99905e-10
-3.8065e-14
-2.54519e-14
-9.99915e-10
-4.47026e-14
-2.52979e-14
-9.99929e-10
-2.5162e-14
-9.99946e-10
-1.44913e-14
-3.52097e-14
-9.99909e-10
-2.75627e-14
-3.52151e-14
-9.99914e-10
-3.7913e-14
-3.50483e-14
-9.99924e-10
-4.45701e-14
-3.48298e-14
-9.99938e-10
-3.46272e-14
-9.99955e-10
-1.44149e-14
-4.14475e-14
-9.99922e-10
-2.73924e-14
-4.14624e-14
-9.99927e-10
-3.76939e-14
-4.12516e-14
-9.99937e-10
-4.43635e-14
-4.09797e-14
-9.99951e-10
-4.06775e-14
-9.99968e-10
-1.43347e-14
-9.99937e-10
-2.71792e-14
-9.99943e-10
-3.74268e-14
-9.99953e-10
-4.40612e-14
-9.99966e-10
-9.99983e-10
-1.98783e-14
-1.83714e-14
-9.99856e-10
-3.77847e-14
-1.83746e-14
-9.99863e-10
-5.19592e-14
-1.82798e-14
-9.99877e-10
-6.10408e-14
-1.81508e-14
-9.99897e-10
-1.80308e-14
-9.9992e-10
-1.98848e-14
-3.49124e-14
-9.99863e-10
-3.77752e-14
-3.48948e-14
-9.9987e-10
-5.19482e-14
-3.4723e-14
-9.99884e-10
-6.10607e-14
-3.45106e-14
-9.99904e-10
-3.42913e-14
-9.99926e-10
-1.97877e-14
-4.80771e-14
-9.99876e-10
-3.76028e-14
-4.80641e-14
-9.99883e-10
-5.17386e-14
-4.78212e-14
-9.99897e-10
-6.08455e-14
-4.74994e-14
-9.99916e-10
-4.71491e-14
-9.99939e-10
-1.96638e-14
-5.65941e-14
-9.99894e-10
-3.73552e-14
-5.65621e-14
-9.99901e-10
-5.14164e-14
-5.62312e-14
-9.99915e-10
-6.04919e-14
-5.5815e-14
-9.99934e-10
-5.53259e-14
-9.99957e-10
-1.95043e-14
-9.99915e-10
-3.70221e-14
-9.99922e-10
-5.10047e-14
-9.99936e-10
-6.00026e-14
-9.99955e-10
-9.99977e-10
-2.71482e-14
-2.50922e-14
-9.99804e-10
-5.15855e-14
-2.50707e-14
-9.99814e-10
-7.09733e-14
-2.49416e-14
-9.99833e-10
-8.34565e-14
-2.47852e-14
-9.99859e-10
-2.46027e-14
-9.99891e-10
-2.71311e-14
-4.76743e-14
-9.99813e-10
-5.15712e-14
-4.76494e-14
-9.99823e-10
-7.09773e-14
-4.74297e-14
-9.99842e-10
-8.34636e-14
-4.71293e-14
-9.99869e-10
-4.6765e-14
-9.999e-10
-2.69996e-14
-6.56458e-14
-9.99831e-10
-5.13512e-14
-6.56286e-14
-9.99841e-10
-7.06817e-14
-6.52998e-14
-9.9986e-10
-8.31035e-14
-6.48342e-14
-9.99886e-10
-6.42843e-14
-9.99917e-10
-2.68322e-14
-7.72238e-14
-9.99855e-10
-5.10159e-14
-7.71582e-14
-9.99865e-10
-7.02156e-14
-7.67242e-14
-9.99884e-10
-8.25471e-14
-7.61501e-14
-9.99911e-10
-7.53797e-14
-9.99941e-10
-2.65934e-14
-9.99884e-10
-5.05795e-14
-9.99894e-10
-6.96487e-14
-9.99913e-10
-8.17768e-14
-9.99939e-10
-9.99969e-10
-3.70387e-14
-3.42512e-14
-9.99732e-10
-7.04523e-14
-3.42336e-14
-9.99746e-10
-9.69808e-14
-3.40856e-14
-9.99772e-10
-1.1403e-13
-3.38682e-14
-9.99809e-10
-3.35827e-14
-9.99851e-10
-3.70272e-14
-6.51384e-14
-9.99745e-10
-7.04605e-14
-6.51328e-14
-9.99759e-10
-9.69827e-14
-6.48289e-14
-9.99785e-10
-1.14003e-13
-6.437e-14
-9.99821e-10
-6.38247e-14
-9.99864e-10
-3.68773e-14
-8.96659e-14
-9.9977e-10
-7.01564e-14
-8.96407e-14
-9.99783e-10
-9.65313e-14
-8.91781e-14
-9.9981e-10
-1.13462e-13
-8.852e-14
-9.99845e-10
-8.77504e-14
-9.99888e-10
-3.66479e-14
-1.05357e-13
-9.99803e-10
-6.96849e-14
-1.05289e-13
-9.99817e-10
-9.58727e-14
-1.04753e-13
-9.99843e-10
-1.12683e-13
-1.03989e-13
-9.99878e-10
-1.029e-13
-9.9992e-10
-3.63433e-14
-9.99842e-10
-6.91456e-14
-9.99856e-10
-9.51179e-14
-9.99882e-10
-1.11595e-13
-9.99917e-10
-9.99958e-10
-5.05796e-14
-4.68211e-14
-9.99635e-10
-9.62639e-14
-4.68316e-14
-9.99654e-10
-1.3249e-13
-4.66116e-14
-9.9969e-10
-1.55728e-13
-4.62576e-14
-9.99739e-10
-4.58357e-14
-9.99798e-10
-5.05986e-14
-8.90758e-14
-9.99653e-10
-9.62573e-14
-8.90541e-14
-9.99672e-10
-1.32436e-13
-8.85656e-14
-9.99707e-10
-1.55657e-13
-8.78567e-14
-9.99757e-10
-8.70554e-14
-9.99815e-10
-5.03797e-14
-1.22511e-13
-9.99686e-10
-9.57687e-14
-1.22427e-13
-9.99705e-10
-1.31738e-13
-1.21737e-13
-9.9974e-10
-1.54865e-13
-1.20781e-13
-9.99789e-10
-1.19664e-13
-9.99847e-10
-5.00174e-14
-1.43812e-13
-9.99732e-10
-9.50665e-14
-1.43719e-13
-9.99751e-10
-1.30782e-13
-1.42965e-13
-9.99786e-10
-1.53737e-13
-1.41849e-13
-9.99834e-10
-1.4034e-13
-9.99891e-10
-4.96008e-14
-9.99786e-10
-9.43055e-14
-9.99804e-10
-1.29677e-13
-9.99839e-10
-1.52229e-13
-9.99887e-10
-9.99944e-10
-6.91426e-14
-6.41019e-14
-9.99502e-10
-1.31511e-13
-6.40896e-14
-9.99528e-10
-1.80958e-13
-6.37015e-14
-9.99577e-10
-2.12717e-13
-6.31447e-14
-9.99645e-10
-6.25278e-14
-9.99724e-10
-6.91416e-14
-1.21832e-13
-9.99526e-10
-1.31414e-13
-1.21714e-13
-9.99552e-10
-1.80809e-13
-1.20944e-13
-9.99601e-10
-2.12578e-13
-1.19896e-13
-9.99668e-10
-1.18715e-13
-9.99748e-10
-6.87535e-14
-1.67425e-13
-9.99572e-10
-1.30644e-13
-1.6723e-13
-9.99598e-10
-1.79775e-13
-1.66201e-13
-9.99646e-10
-2.11411e-13
-1.64793e-13
-9.99713e-10
-1.63143e-13
-9.99792e-10
-6.81806e-14
-1.96467e-13
-9.99635e-10
-1.296e-13
-1.96288e-13
-9.9966e-10
-1.78367e-13
-1.95123e-13
-9.99708e-10
-2.09752e-13
-1.93455e-13
-9.99774e-10
-1.91413e-13
-9.99852e-10
-6.75594e-14
-9.99709e-10
-1.28423e-13
-9.99734e-10
-1.7671e-13
-9.99781e-10
-2.07712e-13
-9.99846e-10
-9.99923e-10
-9.45099e-14
-8.77845e-14
-9.9932e-10
-1.79629e-13
-8.76724e-14
-9.99355e-10
-2.47196e-13
-8.70506e-14
-9.99423e-10
-2.90658e-13
-8.62228e-14
-9.99515e-10
-8.52937e-14
-9.99624e-10
-9.44127e-14
-1.66656e-13
-9.99353e-10
-1.79402e-13
-1.66391e-13
-9.99389e-10
-2.46921e-13
-1.65247e-13
-9.99456e-10
-2.90379e-13
-1.63706e-13
-9.99548e-10
-1.61932e-13
-9.99656e-10
-9.37815e-14
-2.28946e-13
-9.99416e-10
-1.78258e-13
-2.28602e-13
-9.99451e-10
-2.454e-13
-2.27061e-13
-9.99518e-10
-2.88628e-13
-2.24944e-13
-9.99609e-10
-2.22461e-13
-9.99716e-10
-9.29244e-14
-2.68652e-13
-9.99502e-10
-1.767e-13
-2.68287e-13
-9.99537e-10
-2.43283e-13
-2.66463e-13
-9.99603e-10
-2.86135e-13
-2.63947e-13
-9.99693e-10
-2.6096e-13
-9.99799e-10
-9.19571e-14
-9.99604e-10
-1.74857e-13
-9.99638e-10
-2.40779e-13
-9.99702e-10
-2.8315e-13
-9.99791e-10
-9.99895e-10
-1.29158e-13
-1.2024e-13
-9.99071e-10
-2.45444e-13
-1.20002e-13
-9.99119e-10
-3.37837e-13
-1.19082e-13
-9.99211e-10
-3.97303e-13
-1.17838e-13
-9.99338e-10
-1.1639e-13
-9.99487e-10
-1.28939e-13
-2.28157e-13
-9.99117e-10
-2.45061e-13
-2.27712e-13
-9.99165e-10
-3.37345e-13
-2.26003e-13
-9.99257e-10
-3.96737e-13
-2.23658e-13
-9.99383e-10
-2.20904e-13
-9.99531e-10
-1.27996e-13
-3.13388e-13
-9.99203e-10
-2.43353e-13
-3.128e-13
-9.99251e-10
-3.35028e-13
-3.10433e-13
-9.99342e-10
-3.94014e-13
-3.07177e-13
-9.99467e-10
-3.03341e-13
-9.99613e-10
-1.2671e-13
-3.67647e-13
-9.99322e-10
-2.40965e-13
-3.66929e-13
-9.99369e-10
-3.31772e-13
-3.64093e-13
-9.99459e-10
-3.90174e-13
-3.60225e-13
-9.99582e-10
-3.55544e-13
-9.99726e-10
-1.25172e-13
-9.99461e-10
-2.38101e-13
-9.99507e-10
-3.27913e-13
-9.99595e-10
-3.85495e-13
-9.99716e-10
-9.99858e-10
-1.76589e-13
-1.64866e-13
-9.98729e-10
-3.35586e-13
-1.64481e-13
-9.98796e-10
-4.61922e-13
-1.63102e-13
-9.98922e-10
-5.43291e-13
-1.61186e-13
-9.99096e-10
-1.58914e-13
-9.993e-10
-1.7623e-13
-3.12754e-13
-9.98793e-10
-3.34939e-13
-3.12017e-13
-9.98859e-10
-4.61028e-13
-3.09393e-13
-9.98985e-10
-5.42221e-13
-3.05776e-13
-9.99157e-10
-3.01518e-13
-9.9936e-10
-1.74815e-13
-4.29425e-13
-9.98912e-10
-3.32319e-13
-4.28397e-13
-9.98978e-10
-4.57448e-13
-4.24743e-13
-9.99102e-10
-5.38005e-13
-4.19757e-13
-9.99272e-10
-4.13929e-13
-9.99473e-10
-1.7284e-13
-5.03465e-13
-9.99075e-10
-3.28638e-13
-5.02182e-13
-9.9914e-10
-4.52463e-13
-4.97852e-13
-9.99262e-10
-5.32182e-13
-4.91967e-13
-9.9943e-10
-4.84904e-13
-9.99627e-10
-1.70444e-13
-9.99266e-10
-3.24272e-13
-9.9933e-10
-4.46581e-13
-9.99449e-10
-5.2512e-13
-9.99614e-10
-9.99808e-10
-2.41611e-13
-2.2639e-13
-9.98261e-10
-4.5907e-13
-2.25755e-13
-9.98353e-10
-6.31814e-13
-2.23629e-13
-9.98526e-10
-7.43167e-13
-2.20687e-13
-9.98764e-10
-2.17228e-13
-9.99043e-10
-2.41011e-13
-4.29277e-13
-9.98349e-10
-4.57941e-13
-4.28033e-13
-9.9844e-10
-6.30262e-13
-4.23992e-13
-9.98612e-10
-7.41343e-13
-4.18477e-13
-9.98848e-10
-4.12042e-13
-9.99126e-10
-2.38845e-13
-5.89034e-13
-9.98514e-10
-4.53909e-13
-5.87282e-13
-9.98604e-10
-6.24798e-13
-5.81696e-13
-9.98773e-10
-7.34965e-13
-5.74122e-13
-9.99006e-10
-5.65333e-13
-9.99281e-10
-2.35806e-13
-6.90017e-13
-9.98739e-10
-4.4829e-13
-6.87887e-13
-9.98827e-10
-6.1723e-13
-6.81309e-13
-9.98994e-10
-7.26186e-13
-6.72335e-13
-9.99223e-10
-6.61751e-13
-9.99493e-10
-2.32165e-13
-9.99001e-10
-4.41668e-13
-9.99088e-10
-6.08257e-13
-9.99251e-10
-7.15604e-13
-9.99475e-10
-9.99739e-10
-3.30796e-13
-3.11347e-13
-9.97619e-10
-6.283e-13
-3.10268e-13
-9.97746e-10
-8.64573e-13
-3.06993e-13
-9.97983e-10
-1.01698e-12
-3.0255e-13
-9.98309e-10
-2.97398e-13
-9.98692e-10
-3.29766e-13
-5.90024e-13
-9.97741e-10
-6.26383e-13
-5.87943e-13
-9.97866e-10
-8.62019e-13
-5.81769e-13
-9.98102e-10
-1.01405e-12
-5.73426e-13
-9.98425e-10
-5.63748e-13
-9.98806e-10
-3.26434e-13
-8.08922e-13
-9.97968e-10
-6.20229e-13
-8.06009e-13
-9.98092e-10
-8.53748e-13
-7.97483e-13
-9.98324e-10
-1.00444e-12
-7.85944e-13
-9.98643e-10
-7.72565e-13
-9.99019e-10
-3.21776e-13
-9.46642e-13
-9.98279e-10
-6.11668e-13
-9.43156e-13
-9.984e-10
-8.42227e-13
-9.33041e-13
-9.98628e-10
-9.9107e-13
-9.19199e-13
-9.98941e-10
-9.0304e-13
-9.9931e-10
-3.16247e-13
-9.98641e-10
-6.01507e-13
-9.98759e-10
-8.28394e-13
-9.98981e-10
-9.74911e-13
-9.99286e-10
-9.99647e-10
-4.53298e-13
-4.2892e-13
-9.96737e-10
-8.60498e-13
-4.27106e-13
-9.96911e-10
-1.18373e-12
-4.22098e-13
-9.97237e-10
-1.39234e-12
-4.15411e-13
-9.97685e-10
-4.07706e-13
-9.9821e-10
-4.51557e-13
-8.12274e-13
-9.96906e-10
-8.57344e-13
-8.08813e-13
-9.97079e-10
-1.17961e-12
-7.99375e-13
-9.97402e-10
-1.38763e-12
-7.86745e-13
-9.97846e-10
-7.72187e-13
-9.98368e-10
-4.46408e-13
-1.11246e-12
-9.97222e-10
-8.4795e-13
-1.10762e-12
-9.97392e-10
-1.16709e-12
-1.09453e-12
-9.9771e-10
-1.37315e-12
-1.07695e-12
-9.98147e-10
-1.05674e-12
-9.98661e-10
-4.39219e-13
-1.30022e-12
-9.97652e-10
-8.3484e-13
-1.29445e-12
-9.97818e-10
-1.14954e-12
-1.27877e-12
-9.98129e-10
-1.35293e-12
-1.25757e-12
-9.98556e-10
-1.2332e-12
-9.9906e-10
-4.30698e-13
-9.98152e-10
-8.19126e-13
-9.98312e-10
-1.12838e-12
-9.98614e-10
-1.32856e-12
-9.99031e-10
-9.99523e-10
-6.22042e-13
-5.92114e-13
-9.95523e-10
-1.17959e-12
-5.89051e-13
-9.95765e-10
-1.62157e-12
-5.81378e-13
-9.96214e-10
-1.90681e-12
-5.71289e-13
-9.96828e-10
-5.59762e-13
-9.97547e-10
-6.19102e-13
-1.12045e-12
-9.95759e-10
-1.17445e-12
-1.11464e-12
-9.95998e-10
-1.61498e-12
-1.10013e-12
-9.96443e-10
-1.89932e-12
-1.08101e-12
-9.97052e-10
-1.0593e-12
-9.97766e-10
-6.11037e-13
-1.53245e-12
-9.96199e-10
-1.16004e-12
-1.52437e-12
-9.96433e-10
-1.59602e-12
-1.50414e-12
-9.9687e-10
-1.87768e-12
-1.47747e-12
-9.97469e-10
-1.44731e-12
-9.98172e-10
-5.99806e-13
-1.78829e-12
-9.96796e-10
-1.13984e-12
-1.77858e-12
-9.97023e-10
-1.56942e-12
-1.75418e-12
-9.97449e-10
-1.84747e-12
-1.72201e-12
-9.98034e-10
-1.6856e-12
-9.98722e-10
-5.86426e-13
-9.97488e-10
-1.11547e-12
-9.97706e-10
-1.53737e-12
-9.98118e-10
-1.81106e-12
-9.98686e-10
-9.99356e-10
-8.55547e-13
-8.19391e-13
-9.93848e-10
-1.61894e-12
-8.14099e-13
-9.94187e-10
-2.2225e-12
-8.02303e-13
-9.94808e-10
-2.61132e-12
-7.87078e-13
-9.95652e-10
-7.70124e-13
-9.96635e-10
-8.50502e-13
-1.5494e-12
-9.94178e-10
-1.61063e-12
-1.53948e-12
-9.94512e-10
-2.21203e-12
-1.51701e-12
-9.95126e-10
-2.59977e-12
-1.48818e-12
-9.95963e-10
-1.45631e-12
-9.96938e-10
-8.37647e-13
-2.11536e-12
-9.94795e-10
-1.58838e-12
-2.10156e-12
-9.9512e-10
-2.18344e-12
-2.0701e-12
-9.95721e-10
-2.5679e-12
-2.02987e-12
-9.96542e-10
-1.98537e-12
-9.97504e-10
-8.1973e-13
-2.46337e-12
-9.95629e-10
-1.55707e-12
-2.44679e-12
-9.9594e-10
-2.14336e-12
-2.40879e-12
-9.96523e-10
-2.52324e-12
-2.36006e-12
-9.97324e-10
-2.30585e-12
-9.98265e-10
-7.98338e-13
-9.96589e-10
-1.51927e-12
-9.96886e-10
-2.09491e-12
-9.97446e-10
-2.46906e-12
-9.98221e-10
-9.99137e-10
-1.1814e-12
-1.13715e-12
-9.9153e-10
-2.22557e-12
-1.1276e-12
-9.92015e-10
-3.0478e-12
-1.10942e-12
-9.92876e-10
-3.57469e-12
-1.08639e-12
-9.94038e-10
-1.0621e-12
-9.95379e-10
-1.17247e-12
-2.14978e-12
-9.91992e-10
-2.21218e-12
-2.13214e-12
-9.92467e-10
-3.03129e-12
-2.09708e-12
-9.93319e-10
-3.55753e-12
-2.05375e-12
-9.94468e-10
-2.00791e-12
-9.958e-10
-1.15128e-12
-2.92745e-12
-9.92866e-10
-2.17755e-12
-2.90296e-12
-9.93322e-10
-2.9884e-12
-2.85376e-12
-9.94153e-10
-3.51143e-12
-2.7932e-12
-9.9528e-10
-2.72892e-12
-9.96592e-10
-1.12168e-12
-3.3997e-12
-9.94034e-10
-2.12875e-12
-3.37093e-12
-9.94465e-10
-2.92818e-12
-3.31137e-12
-9.95266e-10
-3.4467e-12
-3.23774e-12
-9.9636e-10
-3.15865e-12
-9.97647e-10
-1.08682e-12
-9.95375e-10
-2.06978e-12
-9.95777e-10
-2.85523e-12
-9.96542e-10
-3.36777e-12
-9.97598e-10
-9.98853e-10
-1.64355e-12
-1.58309e-12
-9.88303e-10
-3.06602e-12
-1.5642e-12
-9.89028e-10
-4.18269e-12
-1.53667e-12
-9.90222e-10
-4.88901e-12
-1.50122e-12
-9.9183e-10
-1.46769e-12
-9.93652e-10
-1.62651e-12
-2.99709e-12
-9.88952e-10
-3.04498e-12
-2.96363e-12
-9.89649e-10
-4.15642e-12
-2.9087e-12
-9.90835e-10
-4.86464e-12
-2.84327e-12
-9.92418e-10
-2.7793e-12
-9.94232e-10
-1.58969e-12
-4.0643e-12
-9.90208e-10
-2.99073e-12
-4.01809e-12
-9.90866e-10
-4.09199e-12
-3.94038e-12
-9.9202e-10
-4.79974e-12
-3.8488e-12
-9.93566e-10
-3.75924e-12
-9.95357e-10
-1.53802e-12
-4.70478e-12
-9.91856e-10
-2.91381e-12
-4.65263e-12
-9.92455e-10
-4.00121e-12
-4.55762e-12
-9.93561e-10
-4.70886e-12
-4.44723e-12
-9.95054e-10
-4.33557e-12
-9.96818e-10
-1.47872e-12
-9.9375e-10
-2.82015e-12
-9.94289e-10
-3.89243e-12
-9.95329e-10
-4.59806e-12
-9.96769e-10
-9.98496e-10
-2.31889e-12
-2.20948e-12
-9.83774e-10
-4.23298e-12
-2.16614e-12
-9.84947e-10
-5.74783e-12
-2.12898e-12
-9.86578e-10
-6.67581e-12
-2.07033e-12
-9.88832e-10
-2.02788e-12
-9.91305e-10
-2.28235e-12
-4.20993e-12
-9.84668e-10
-4.20378e-12
-4.1411e-12
-9.85752e-10
-5.70336e-12
-4.05578e-12
-9.87409e-10
-6.64434e-12
-3.95476e-12
-9.89592e-10
-3.86927e-12
-9.92078e-10
-2.21445e-12
-5.66492e-12
-9.86539e-10
-4.11855e-12
-5.56855e-12
-9.87535e-10
-5.60549e-12
-5.44586e-12
-9.89143e-10
-6.55631e-12
-5.30406e-12
-9.91266e-10
-5.18735e-12
-9.93715e-10
-2.11586e-12
-6.54128e-12
-9.88863e-10
-3.99647e-12
-6.43859e-12
-9.89704e-10
-5.46579e-12
-6.28182e-12
-9.91256e-10
-6.43565e-12
-6.11888e-12
-9.93269e-10
-5.96767e-12
-9.95714e-10
-2.00587e-12
-9.91626e-10
-3.84157e-12
-9.92314e-10
-5.30656e-12
-9.93723e-10
-6.28874e-12
-9.95671e-10
-9.98073e-10
-3.35777e-12
-3.07945e-12
-9.77337e-10
-5.83922e-12
-2.95852e-12
-9.79507e-10
-7.92274e-12
-2.93688e-12
-9.81558e-10
-9.0961e-12
-2.81715e-12
-9.84841e-10
-2.78028e-12
-9.88244e-10
-3.26761e-12
-5.99239e-12
-9.78488e-10
-5.82421e-12
-5.83846e-12
-9.80316e-10
-7.83217e-12
-5.71241e-12
-9.82625e-10
-9.06854e-12
-5.54861e-12
-9.85624e-10
-5.43587e-12
-9.89164e-10
-3.13751e-12
-7.92627e-12
-9.81467e-10
-5.69132e-12
-7.69591e-12
-9.83123e-10
-7.68122e-12
-7.5164e-12
-9.85349e-10
-8.94942e-12
-7.27695e-12
-9.88269e-10
-7.15079e-12
-9.91647e-10
-2.92521e-12
-9.18161e-12
-9.84683e-10
-5.50674e-12
-8.95524e-12
-9.85863e-10
-7.44894e-12
-8.67722e-12
-9.88153e-10
-8.80988e-12
-8.44565e-12
-9.90739e-10
-8.24597e-12
-9.94276e-10
-2.6899e-12
-9.89068e-10
-5.22439e-12
-9.89786e-10
-7.22456e-12
-9.91663e-10
-8.63115e-12
-9.9422e-10
-9.9763e-10
-5.08545e-12
-4.24165e-12
-9.6801e-10
-7.95505e-12
-3.86366e-12
-9.72774e-10
-1.10143e-11
-4.00455e-12
-9.74494e-10
-1.23835e-11
-3.67573e-12
-9.79796e-10
-3.71526e-12
-9.8472e-10
-4.82454e-12
-8.7412e-12
-9.69164e-10
-8.09564e-12
-8.37334e-12
-9.72535e-10
-1.0749e-11
-8.21942e-12
-9.75757e-10
-1.24265e-11
-7.9301e-12
-9.79692e-10
-7.73495e-12
-9.85486e-10
-4.5913e-12
-1.1078e-11
-9.7454e-10
-7.88091e-12
-1.04386e-11
-9.77768e-10
-1.05316e-11
-1.02875e-11
-9.8063e-10
-1.22099e-11
-9.77241e-12
-9.84748e-10
-9.75757e-12
-9.89447e-10
-4.06808e-12
-1.31685e-11
-9.78524e-10
-7.69042e-12
-1.26069e-11
-9.80072e-10
-1.00345e-11
-1.20371e-11
-9.84059e-10
-1.21364e-11
-1.17535e-11
-9.86656e-10
-1.14379e-11
-9.92594e-10
-3.44871e-12
-9.8683e-10
-7.05044e-12
-9.86891e-10
-9.76433e-12
-9.89283e-10
-1.19253e-11
-9.92279e-10
-9.97301e-10
-8.23254e-12
-5.76611e-12
-9.54011e-10
-1.06717e-11
-4.63157e-12
-9.65704e-10
-1.56549e-11
-5.50066e-12
-9.6401e-10
-1.69055e-11
-4.45375e-12
-9.74092e-10
-4.77519e-12
-9.81708e-10
-7.41988e-12
-1.3283e-11
-9.54227e-10
-1.13273e-11
-1.23097e-11
-9.6095e-10
-1.45856e-11
-1.23218e-11
-9.65677e-10
-1.72786e-11
-1.1705e-11
-9.69748e-10
-1.1124e-11
-9.81589e-10
-7.13339e-12
-1.54201e-11
-9.65269e-10
-1.07749e-11
-1.35348e-11
-9.72902e-10
-1.45347e-11
-1.38884e-11
-9.75303e-10
-1.65858e-11
-1.24663e-11
-9.81936e-10
-1.30258e-11
-9.87925e-10
-5.62459e-12
-1.95839e-11
-9.68736e-10
-1.1172e-11
-1.81619e-11
-9.69898e-10
-1.30765e-11
-1.68043e-11
-9.79238e-10
-1.70495e-11
-1.67446e-11
-9.78404e-10
-1.5786e-11
-9.91575e-10
-3.92153e-12
-9.87205e-10
-9.2457e-12
-9.84393e-10
-1.28354e-11
-9.87377e-10
-1.66574e-11
-9.89523e-10
-9.97261e-10
-1.43525e-11
-7.93347e-12
-9.31725e-10
-1.41942e-11
-4.73013e-12
-9.61132e-10
-2.30102e-11
-8.16722e-12
-9.47027e-10
-2.28347e-11
-4.71839e-12
-9.69549e-10
-5.88874e-12
-9.81252e-10
-1.2063e-11
-2.10861e-11
-9.29011e-10
-1.63392e-11
-1.81572e-11
-9.43247e-10
-1.93582e-11
-1.94641e-11
-9.51361e-10
-2.42887e-11
-1.76983e-11
-9.51838e-10
-1.59719e-11
-9.78882e-10
-1.21672e-11
-2.2335e-11
-9.51853e-10
-1.43878e-11
-1.67119e-11
-9.72127e-10
-2.07689e-11
-1.91788e-11
-9.69208e-10
-2.18034e-11
-1.48773e-11
-9.83722e-10
-1.71829e-11
-9.87454e-10
-7.77605e-12
-2.98981e-11
-9.53397e-10
-1.72954e-11
-2.64766e-11
-9.50614e-10
-1.67222e-11
-2.32369e-11
-9.75753e-10