/*--------------------------------*- C++ -*----------------------------------*\
| =========                 |                                                 |
| \\      /  F ield         | OpenFOAM: The Open Source CFD Toolbox           |
|  \\    /   O peration     | Version:  5.x                                   |
|   \\  /    A nd           | Web:      www.OpenFOAM.org                      |
|    \\/     M anipulation  |                                                 |
\*---------------------------------------------------------------------------*/
FoamFile
{
    version     2.0;
    format      ascii;
    class       volVectorField;
    location    "0.05";
    object      stored_U;
}
// * * * * * * * * * * * * * * * * * * * * * * * * * * * * * * * * * * * * * //

dimensions      [0 1 -1 0 0 0 0];

internalField   nonuniform List<vector> 
2250
(
(-2.3653e-11 -2.94215e-11 -0.000999998)
(-6.49677e-11 -2.97526e-11 -0.000999998)
(-9.55421e-11 -2.90501e-11 -0.000999998)
(-1.12461e-10 -2.89886e-11 -0.000999998)
(-1.34988e-10 -3.1024e-11 -0.000999998)
(-2.39747e-11 -8.54599e-11 -0.000999998)
(-6.46874e-11 -8.74861e-11 -0.000999998)
(-9.49929e-11 -8.74079e-11 -0.000999998)
(-1.14669e-10 -8.89423e-11 -0.000999998)
(-1.37253e-10 -9.29883e-11 -0.000999999)
(-2.55433e-11 -1.33275e-10 -0.000999998)
(-6.68824e-11 -1.362e-10 -0.000999998)
(-9.72124e-11 -1.37276e-10 -0.000999998)
(-1.1828e-10 -1.39637e-10 -0.000999999)
(-1.45024e-10 -1.39986e-10 -0.000999999)
(-2.66288e-11 -1.74079e-10 -0.000999998)
(-6.84201e-11 -1.72789e-10 -0.000999998)
(-9.84316e-11 -1.69307e-10 -0.000999999)
(-1.17393e-10 -1.63412e-10 -0.000999999)
(-1.61639e-10 -1.4461e-10 -0.000999999)
(-2.39486e-11 -1.77696e-10 -0.000999999)
(-6.17867e-11 -1.79576e-10 -0.000999999)
(-8.78201e-11 -1.83946e-10 -0.000999999)
(-9.35482e-11 -1.97443e-10 -0.000999999)
(-2.01957e-10 -2.38728e-10 -0.000999999)
(-6.76332e-11 -8.42057e-11 -0.000999998)
(-1.84655e-10 -8.47244e-11 -0.000999998)
(-2.70919e-10 -8.30708e-11 -0.000999998)
(-3.21641e-10 -8.39356e-11 -0.000999998)
(-3.80882e-10 -9.14174e-11 -0.000999998)
(-6.81227e-11 -2.41751e-10 -0.000999998)
(-1.83727e-10 -2.45791e-10 -0.000999998)
(-2.70646e-10 -2.46296e-10 -0.000999998)
(-3.30599e-10 -2.52896e-10 -0.000999998)
(-3.86731e-10 -2.67726e-10 -0.000999998)
(-7.13316e-11 -3.73088e-10 -0.000999998)
(-1.89098e-10 -3.78754e-10 -0.000999998)
(-2.7855e-10 -3.83556e-10 -0.000999998)
(-3.43694e-10 -3.94555e-10 -0.000999998)
(-4.05064e-10 -4.01707e-10 -0.000999999)
(-7.31086e-11 -4.81797e-10 -0.000999998)
(-1.93503e-10 -4.77166e-10 -0.000999998)
(-2.8645e-10 -4.7307e-10 -0.000999998)
(-3.48782e-10 -4.66819e-10 -0.000999999)
(-4.43956e-10 -4.08252e-10 -0.000999999)
(-6.58906e-11 -4.98886e-10 -0.000999999)
(-1.79501e-10 -5.009e-10 -0.000999999)
(-2.68178e-10 -5.10667e-10 -0.000999999)
(-2.78912e-10 -5.4121e-10 -0.000999999)
(-5.68848e-10 -6.68605e-10 -0.000999999)
(-1.21365e-10 -1.45845e-10 -0.000999997)
(-3.32429e-10 -1.45119e-10 -0.000999997)
(-4.92044e-10 -1.43132e-10 -0.000999997)
(-5.99474e-10 -1.45783e-10 -0.000999998)
(-6.92045e-10 -1.57164e-10 -0.000999998)
(-1.20587e-10 -4.12238e-10 -0.000999997)
(-3.30038e-10 -4.14511e-10 -0.000999997)
(-4.9362e-10 -4.17128e-10 -0.000999998)
(-6.14704e-10 -4.30794e-10 -0.000999998)
(-6.98829e-10 -4.57139e-10 -0.000999998)
(-1.2309e-10 -6.27513e-10 -0.000999998)
(-3.37143e-10 -6.32722e-10 -0.000999998)
(-5.09261e-10 -6.44635e-10 -0.000999998)
(-6.40698e-10 -6.70059e-10 -0.000999998)
(-7.17001e-10 -6.97032e-10 -0.000999999)
(-1.24658e-10 -7.99695e-10 -0.000999998)
(-3.45989e-10 -7.96029e-10 -0.000999998)
(-5.30959e-10 -8.03207e-10 -0.000999998)
(-6.67166e-10 -8.17731e-10 -0.000999998)
(-7.47241e-10 -7.59391e-10 -0.000999999)
(-1.17923e-10 -8.54623e-10 -0.000999998)
(-3.39083e-10 -8.55827e-10 -0.000999998)
(-5.30897e-10 -8.6477e-10 -0.000999999)
(-5.96879e-10 -8.84314e-10 -0.000999999)
(-9.07527e-10 -1.04314e-09 -0.000999999)
(-1.90265e-10 -2.14959e-10 -0.000999996)
(-5.25853e-10 -2.11948e-10 -0.000999997)
(-7.86731e-10 -2.1001e-10 -0.000999997)
(-9.76243e-10 -2.13577e-10 -0.000999997)
(-1.10658e-09 -2.23827e-10 -0.000999998)
(-1.87212e-10 -6.03252e-10 -0.000999997)
(-5.21503e-10 -6.01572e-10 -0.000999997)
(-7.89862e-10 -6.05581e-10 -0.000999997)
(-9.9207e-10 -6.21986e-10 -0.000999997)
(-1.11512e-09 -6.48423e-10 -0.000999998)
(-1.87808e-10 -9.13328e-10 -0.000999997)
(-5.28057e-10 -9.16943e-10 -0.000999997)
(-8.08681e-10 -9.3289e-10 -0.000999997)
(-1.02112e-09 -9.64262e-10 -0.000999998)
(-1.13401e-09 -1.00222e-09 -0.000999998)
(-1.89078e-10 -1.15821e-09 -0.000999997)
(-5.39284e-10 -1.15702e-09 -0.000999997)
(-8.37174e-10 -1.17231e-09 -0.000999998)
(-1.0615e-09 -1.20435e-09 -0.000999998)
(-1.15486e-09 -1.17436e-09 -0.000999999)
(-1.84287e-10 -1.28044e-09 -0.000999998)
(-5.3976e-10 -1.28475e-09 -0.000999998)
(-8.55883e-10 -1.29699e-09 -0.000999998)
(-1.02313e-09 -1.31041e-09 -0.000999999)
(-1.29052e-09 -1.44248e-09 -0.000999999)
(-2.81753e-10 -2.98867e-10 -0.000999995)
(-7.87752e-10 -2.93745e-10 -0.000999996)
(-1.19131e-09 -2.92023e-10 -0.000999996)
(-1.49205e-09 -2.94916e-10 -0.000999997)
(-1.66775e-09 -2.99918e-10 -0.000999997)
(-2.76591e-10 -8.39246e-10 -0.000999996)
(-7.81851e-10 -8.33416e-10 -0.000999996)
(-1.19479e-09 -8.37287e-10 -0.000999996)
(-1.50294e-09 -8.50354e-10 -0.000999997)
(-1.67671e-09 -8.6425e-10 -0.000999997)
(-2.74817e-10 -1.27425e-09 -0.000999996)
(-7.85676e-10 -1.27499e-09 -0.000999996)
(-1.21059e-09 -1.28949e-09 -0.000999997)
(-1.52205e-09 -1.31352e-09 -0.000999997)
(-1.69765e-09 -1.33495e-09 -0.000999998)
(-2.74841e-10 -1.61366e-09 -0.000999996)
(-7.94572e-10 -1.61379e-09 -0.000999997)
(-1.23332e-09 -1.62753e-09 -0.000999997)
(-1.54849e-09 -1.65163e-09 -0.000999998)
(-1.72393e-09 -1.62747e-09 -0.000999998)
(-2.71732e-10 -1.82386e-09 -0.000999997)
(-7.96245e-10 -1.83134e-09 -0.000999997)
(-1.2483e-09 -1.84879e-09 -0.000999998)
(-1.52197e-09 -1.87172e-09 -0.000999998)
(-1.83272e-09 -1.97852e-09 -0.000999999)
(-4.05992e-10 -4.10425e-10 -0.000999994)
(-1.14544e-09 -4.02907e-10 -0.000999994)
(-1.74645e-09 -4.00946e-10 -0.000999995)
(-2.19593e-09 -4.0211e-10 -0.000999996)
(-2.43287e-09 -4.0189e-10 -0.000999996)
(-3.98457e-10 -1.1568e-09 -0.000999994)
(-1.13735e-09 -1.14608e-09 -0.000999995)
(-1.74896e-09 -1.14815e-09 -0.000999995)
(-2.2011e-09 -1.15551e-09 -0.000999996)
(-2.4392e-09 -1.15686e-09 -0.000999997)
(-3.93819e-10 -1.76599e-09 -0.000999995)
(-1.13674e-09 -1.76261e-09 -0.000999995)
(-1.75924e-09 -1.77284e-09 -0.000999996)
(-2.20899e-09 -1.78531e-09 -0.000999996)
(-2.45665e-09 -1.78715e-09 -0.000999997)
(-3.91695e-10 -2.23516e-09 -0.000999995)
(-1.14076e-09 -2.23692e-09 -0.000999996)
(-1.77166e-09 -2.24687e-09 -0.000999996)
(-2.21561e-09 -2.2572e-09 -0.000999997)
(-2.48429e-09 -2.20846e-09 -0.000999998)
(-3.91299e-10 -2.54691e-09 -0.000999996)
(-1.14403e-09 -2.5545e-09 -0.000999997)
(-1.77931e-09 -2.57032e-09 -0.000999997)
(-2.17062e-09 -2.59678e-09 -0.000999998)
(-2.59277e-09 -2.70606e-09 -0.000999999)
(-5.74096e-10 -5.64123e-10 -0.000999992)
(-1.63118e-09 -5.5414e-10 -0.000999992)
(-2.50186e-09 -5.51384e-10 -0.000999993)
(-3.15006e-09 -5.51056e-10 -0.000999994)
(-3.47729e-09 -5.4885e-10 -0.000999995)
(-5.64122e-10 -1.59899e-09 -0.000999992)
(-1.6204e-09 -1.58355e-09 -0.000999993)
(-2.50342e-09 -1.58323e-09 -0.000999993)
(-3.15342e-09 -1.58712e-09 -0.000999994)
(-3.48133e-09 -1.58567e-09 -0.000999996)
(-5.56754e-10 -2.45427e-09 -0.000999993)
(-1.61546e-09 -2.44771e-09 -0.000999993)
(-2.51018e-09 -2.45485e-09 -0.000999994)
(-3.15862e-09 -2.46244e-09 -0.000999995)
(-3.49002e-09 -2.46227e-09 -0.000999996)
(-5.52963e-10 -3.10472e-09 -0.000999994)
(-1.61629e-09 -3.11014e-09 -0.000999994)
(-2.51816e-09 -3.12172e-09 -0.000999995)
(-3.16107e-09 -3.13211e-09 -0.000999996)
(-3.50562e-09 -3.10213e-09 -0.000999997)
(-5.56412e-10 -3.53367e-09 -0.000999995)
(-1.62648e-09 -3.54042e-09 -0.000999995)
(-2.53196e-09 -3.54845e-09 -0.000999996)
(-3.13904e-09 -3.56383e-09 -0.000999997)
(-3.57914e-09 -3.63863e-09 -0.000999999)
(-8.00807e-10 -7.77754e-10 -0.000999989)
(-2.28832e-09 -7.66295e-10 -0.00099999)
(-3.52555e-09 -7.63014e-10 -0.000999991)
(-4.44142e-09 -7.62251e-10 -0.000999992)
(-4.89929e-09 -7.60618e-10 -0.000999994)
(-7.89382e-10 -2.21821e-09 -0.00099999)
(-2.27631e-09 -2.20095e-09 -0.00099999)
(-3.52801e-09 -2.19957e-09 -0.000999991)
(-4.44727e-09 -2.20315e-09 -0.000999993)
(-4.90367e-09 -2.20652e-09 -0.000999994)
(-7.80946e-10 -3.42092e-09 -0.000999991)
(-2.26979e-09 -3.41476e-09 -0.000999991)
(-3.53439e-09 -3.42165e-09 -0.000999992)
(-4.45694e-09 -3.43082e-09 -0.000999994)
(-4.90231e-09 -3.44399e-09 -0.000999995)
(-7.76877e-10 -4.32703e-09 -0.000999992)
(-2.27057e-09 -4.33786e-09 -0.000999993)
(-3.54407e-09 -4.35598e-09 -0.000999994)
(-4.46994e-09 -4.3771e-09 -0.000999995)
(-4.89279e-09 -4.39334e-09 -0.000999997)
(-7.83837e-10 -4.89444e-09 -0.000999994)
(-2.29047e-09 -4.90247e-09 -0.000999994)
(-3.57331e-09 -4.9022e-09 -0.000999995)
(-4.49429e-09 -4.89434e-09 -0.000999997)
(-4.89949e-09 -4.90054e-09 -0.000999998)
(-1.10805e-09 -1.07525e-09 -0.000999985)
(-3.17954e-09 -1.06414e-09 -0.000999986)
(-4.91386e-09 -1.06098e-09 -0.000999987)
(-6.19112e-09 -1.05988e-09 -0.000999989)
(-6.8304e-09 -1.05768e-09 -0.000999992)
(-1.09699e-09 -3.08292e-09 -0.000999986)
(-3.16911e-09 -3.06823e-09 -0.000999987)
(-4.91865e-09 -3.06674e-09 -0.000999988)
(-6.19928e-09 -3.06914e-09 -0.00099999)
(-6.83429e-09 -3.073e-09 -0.000999992)
(-1.08975e-09 -4.77109e-09 -0.000999987)
(-3.16353e-09 -4.7695e-09 -0.000999988)
(-4.92399e-09 -4.77592e-09 -0.00099999)
(-6.20929e-09 -4.78519e-09 -0.000999991)
(-6.81883e-09 -4.80865e-09 -0.000999994)
(-1.0866e-09 -6.03522e-09 -0.000999989)
(-3.16496e-09 -6.05062e-09 -0.00099999)
(-4.93434e-09 -6.07038e-09 -0.000999991)
(-6.23247e-09 -6.10059e-09 -0.000999993)
(-6.76806e-09 -6.17518e-09 -0.000999996)
(-1.09405e-09 -6.77178e-09 -0.000999992)
(-3.18714e-09 -6.78187e-09 -0.000999992)
(-4.97351e-09 -6.77193e-09 -0.000999994)
(-6.31408e-09 -6.72643e-09 -0.000999995)
(-6.66618e-09 -6.62632e-09 -0.000999998)
(-1.52641e-09 -1.48789e-09 -0.00099998)
(-4.39227e-09 -1.47871e-09 -0.000999981)
(-6.79933e-09 -1.4751e-09 -0.000999983)
(-8.56372e-09 -1.47138e-09 -0.000999986)
(-9.45131e-09 -1.46437e-09 -0.000999989)
(-1.5173e-09 -4.28168e-09 -0.000999981)
(-4.38476e-09 -4.2723e-09 -0.000999982)
(-6.80446e-09 -4.26778e-09 -0.000999984)
(-8.56877e-09 -4.262e-09 -0.000999987)
(-9.45077e-09 -4.25436e-09 -0.00099999)
(-1.51198e-09 -6.63856e-09 -0.000999983)
(-4.37855e-09 -6.64267e-09 -0.000999984)
(-6.80177e-09 -6.64223e-09 -0.000999986)
(-8.56671e-09 -6.64059e-09 -0.000999988)
(-9.41506e-09 -6.65776e-09 -0.000999991)
(-1.5092e-09 -8.39446e-09 -0.000999986)
(-4.37598e-09 -8.40995e-09 -0.000999987)
(-6.80238e-09 -8.41785e-09 -0.000999988)
(-8.58492e-09 -8.44153e-09 -0.000999991)
(-9.31399e-09 -8.55868e-09 -0.000999994)
(-1.51197e-09 -9.3504e-09 -0.000999989)
(-4.38584e-09 -9.36008e-09 -0.00099999)
(-6.83274e-09 -9.3352e-09 -0.000999991)
(-8.70754e-09 -9.24409e-09 -0.000999994)
(-9.08236e-09 -9.01997e-09 -0.000999997)
(-2.09672e-09 -2.05513e-09 -0.000999973)
(-6.04356e-09 -2.04788e-09 -0.000999974)
(-9.36157e-09 -2.04164e-09 -0.000999977)
(-1.17848e-08 -2.03168e-09 -0.00099998)
(-1.30136e-08 -2.01653e-09 -0.000999985)
(-2.08954e-09 -5.92673e-09 -0.000999974)
(-6.03731e-09 -5.92139e-09 -0.000999976)
(-9.36248e-09 -5.90741e-09 -0.000999978)
(-1.17814e-08 -5.88431e-09 -0.000999982)
(-1.30071e-08 -5.85589e-09 -0.000999986)
(-2.08439e-09 -9.19404e-09 -0.000999977)
(-6.02443e-09 -9.20037e-09 -0.000999978)
(-9.34201e-09 -9.18327e-09 -0.000999981)
(-1.17559e-08 -9.1586e-09 -0.000999984)
(-1.29498e-08 -9.15682e-09 -0.000999988)
(-2.07899e-09 -1.16141e-08 -0.00099998)
(-6.00931e-09 -1.16226e-08 -0.000999982)
(-9.32071e-09 -1.16058e-08 -0.000999984)
(-1.17558e-08 -1.16102e-08 -0.000999988)
(-1.28032e-08 -1.17414e-08 -0.000999992)
(-2.07144e-09 -1.28714e-08 -0.000999984)
(-5.99384e-09 -1.2877e-08 -0.000999986)
(-9.32879e-09 -1.28335e-08 -0.000999988)
(-1.18915e-08 -1.27002e-08 -0.000999992)
(-1.24638e-08 -1.23741e-08 -0.000999996)
(-2.87257e-09 -2.82723e-09 -0.000999963)
(-8.28992e-09 -2.82062e-09 -0.000999965)
(-1.28462e-08 -2.80935e-09 -0.000999969)
(-1.61688e-08 -2.79088e-09 -0.000999973)
(-1.7869e-08 -2.76635e-09 -0.000999979)
(-2.86603e-09 -8.16408e-09 -0.000999965)
(-8.28193e-09 -8.15875e-09 -0.000999967)
(-1.28399e-08 -8.12963e-09 -0.00099997)
(-1.61556e-08 -8.08386e-09 -0.000999975)
(-1.78589e-08 -8.03232e-09 -0.000999981)
(-2.85762e-09 -1.26651e-08 -0.000999969)
(-8.25569e-09 -1.26679e-08 -0.00099997)
(-1.27953e-08 -1.26274e-08 -0.000999974)
(-1.61025e-08 -1.25717e-08 -0.000999978)
(-1.77841e-08 -1.25442e-08 -0.000999984)
(-2.8457e-09 -1.59766e-08 -0.000999973)
(-8.22054e-09 -1.5974e-08 -0.000999975)
(-1.27437e-08 -1.59285e-08 -0.000999978)
(-1.60735e-08 -1.59029e-08 -0.000999983)
(-1.76177e-08 -1.60572e-08 -0.000999989)
(-2.82554e-09 -1.76612e-08 -0.000999979)
(-8.17698e-09 -1.76624e-08 -0.000999981)
(-1.27231e-08 -1.76015e-08 -0.000999984)
(-1.62312e-08 -1.74489e-08 -0.000999989)
(-1.72055e-08 -1.70496e-08 -0.000999994)
(-3.92696e-09 -3.87288e-09 -0.00099995)
(-1.13465e-08 -3.86562e-09 -0.000999952)
(-1.75934e-08 -3.84797e-09 -0.000999957)
(-2.21478e-08 -3.82079e-09 -0.000999964)
(-2.44996e-08 -3.78606e-09 -0.000999971)
(-3.9198e-09 -1.11955e-08 -0.000999952)
(-1.13351e-08 -1.11868e-08 -0.000999955)
(-1.75807e-08 -1.11402e-08 -0.00099996)
(-2.21268e-08 -1.10716e-08 -0.000999966)
(-2.44889e-08 -1.09963e-08 -0.000999974)
(-3.90516e-09 -1.737e-08 -0.000999957)
(-1.12915e-08 -1.73661e-08 -0.000999959)
(-1.75111e-08 -1.73005e-08 -0.000999964)
(-2.20465e-08 -1.72126e-08 -0.000999971)
(-2.44009e-08 -1.71525e-08 -0.000999978)
(-3.88412e-09 -2.18856e-08 -0.000999963)
(-1.12331e-08 -2.18732e-08 -0.000999966)
(-1.74272e-08 -2.17999e-08 -0.000999971)
(-2.19804e-08 -2.17364e-08 -0.000999977)
(-2.42369e-08 -2.18788e-08 -0.000999985)
(-3.85242e-09 -2.41785e-08 -0.000999971)
(-1.11639e-08 -2.41781e-08 -0.000999973)
(-1.73727e-08 -2.41012e-08 -0.000999978)
(-2.21254e-08 -2.39472e-08 -0.000999984)
(-2.3823e-08 -2.35422e-08 -0.000999992)
(-5.36267e-09 -5.29057e-09 -0.000999932)
(-1.55137e-08 -5.28218e-09 -0.000999935)
(-2.40737e-08 -5.25728e-09 -0.000999942)
(-3.03129e-08 -5.22134e-09 -0.00099995)
(-3.35594e-08 -5.17655e-09 -0.000999961)
(-5.35441e-09 -1.53087e-08 -0.000999935)
(-1.54988e-08 -1.52957e-08 -0.000999938)
(-2.40568e-08 -1.52299e-08 -0.000999945)
(-3.0288e-08 -1.51387e-08 -0.000999954)
(-3.35498e-08 -1.50368e-08 -0.000999964)
(-5.33177e-09 -2.37613e-08 -0.000999941)
(-1.54353e-08 -2.37504e-08 -0.000999945)
(-2.39617e-08 -2.3658e-08 -0.000999951)
(-3.01778e-08 -2.35359e-08 -0.00099996)
(-3.3443e-08 -2.34244e-08 -0.00099997)
(-5.30018e-09 -2.99187e-08 -0.00099995)
(-1.53512e-08 -2.99002e-08 -0.000999953)
(-2.38423e-08 -2.97952e-08 -0.00099996)
(-3.00564e-08 -2.9675e-08 -0.000999969)
(-3.32778e-08 -2.97244e-08 -0.000999979)
(-5.25824e-09 -3.3065e-08 -0.00099996)
(-1.52546e-08 -3.30649e-08 -0.000999964)
(-2.37344e-08 -3.29635e-08 -0.00099997)
(-3.0107e-08 -3.2801e-08 -0.000999979)
(-3.29133e-08 -3.24415e-08 -0.000999989)
(-7.32283e-09 -7.22e-09 -0.000999907)
(-2.12055e-08 -7.20993e-09 -0.000999911)
(-3.29309e-08 -7.17578e-09 -0.00099992)
(-4.14752e-08 -7.12904e-09 -0.000999932)
(-4.59406e-08 -7.07347e-09 -0.000999947)
(-7.31295e-09 -2.09086e-08 -0.000999911)
(-2.11864e-08 -2.08908e-08 -0.000999916)
(-3.29099e-08 -2.08007e-08 -0.000999925)
(-4.14489e-08 -2.06801e-08 -0.000999937)
(-4.59289e-08 -2.05425e-08 -0.000999951)
(-7.28063e-09 -3.24698e-08 -0.00099992)
(-2.10981e-08 -3.24524e-08 -0.000999925)
(-3.27816e-08 -3.2325e-08 -0.000999933)
(-4.12961e-08 -3.21561e-08 -0.000999945)
(-4.57776e-08 -3.19696e-08 -0.00099996)
(-7.23653e-09 -4.08799e-08 -0.000999932)
(-2.09812e-08 -4.08573e-08 -0.000999936)
(-3.26137e-08 -4.07069e-08 -0.000999945)
(-4.10963e-08 -4.05059e-08 -0.000999957)
(-4.55639e-08 -4.03711e-08 -0.000999971)
(-7.1831e-09 -4.52031e-08 -0.000999946)
(-2.08472e-08 -4.51994e-08 -0.00099995)
(-3.24274e-08 -4.50468e-08 -0.000999959)
(-4.09603e-08 -4.48294e-08 -0.000999971)
(-4.52336e-08 -4.45031e-08 -0.000999985)
(-1.00015e-08 -9.85257e-09 -0.000999873)
(-2.89845e-08 -9.83951e-09 -0.000999879)
(-4.50397e-08 -9.79226e-09 -0.000999891)
(-5.67383e-08 -9.72884e-09 -0.000999908)
(-6.28632e-08 -9.65551e-09 -0.000999927)
(-9.98869e-09 -2.85507e-08 -0.000999879)
(-2.89584e-08 -2.85259e-08 -0.000999885)
(-4.50106e-08 -2.83996e-08 -0.000999897)
(-5.6705e-08 -2.8231e-08 -0.000999914)
(-6.28392e-08 -2.8038e-08 -0.000999933)
(-9.94348e-09 -4.43585e-08 -0.000999891)
(-2.88342e-08 -4.43324e-08 -0.000999897)
(-4.48284e-08 -4.415e-08 -0.000999909)
(-5.64845e-08 -4.39052e-08 -0.000999926)
(-6.25999e-08 -4.36233e-08 -0.000999945)
(-9.88225e-09 -5.58581e-08 -0.000999907)
(-2.86676e-08 -5.5827e-08 -0.000999913)
(-4.45835e-08 -5.5607e-08 -0.000999925)
(-5.61824e-08 -5.52995e-08 -0.000999942)
(-6.22609e-08 -5.49822e-08 -0.000999961)
(-9.8103e-09 -6.17929e-08 -0.000999926)
(-2.84768e-08 -6.17738e-08 -0.000999933)
(-4.42971e-08 -6.15283e-08 -0.000999944)
(-5.58597e-08 -6.11835e-08 -0.000999961)
(-6.18315e-08 -6.07597e-08 -0.00099998)
(-1.3661e-08 -1.34485e-08 -0.000999827)
(-3.96147e-08 -1.34309e-08 -0.000999835)
(-6.159e-08 -1.33644e-08 -0.000999852)
(-7.76006e-08 -1.32737e-08 -0.000999874)
(-8.59914e-08 -1.31682e-08 -0.000999901)
(-1.36438e-08 -3.89917e-08 -0.000999835)
(-3.95772e-08 -3.89552e-08 -0.000999844)
(-6.15439e-08 -3.8772e-08 -0.00099986)
(-7.75456e-08 -3.85232e-08 -0.000999883)
(-8.59428e-08 -3.82398e-08 -0.000999909)
(-1.35794e-08 -6.06026e-08 -0.000999851)
(-3.93962e-08 -6.05588e-08 -0.00099986)
(-6.12721e-08 -6.02855e-08 -0.000999876)
(-7.72156e-08 -5.99177e-08 -0.000999899)
(-8.55709e-08 -5.95071e-08 -0.000999925)
(-1.34907e-08 -7.63224e-08 -0.000999874)
(-3.91481e-08 -7.62674e-08 -0.000999882)
(-6.09029e-08 -7.59355e-08 -0.000999898)
(-7.67726e-08 -7.54823e-08 -0.000999921)
(-8.50331e-08 -7.50048e-08 -0.000999947)
(-1.33854e-08 -8.44615e-08 -0.0009999)
(-3.88646e-08 -8.44115e-08 -0.000999908)
(-6.04817e-08 -8.40299e-08 -0.000999924)
(-7.62849e-08 -8.34871e-08 -0.000999946)
(-8.43477e-08 -8.28069e-08 -0.000999972)
(-1.86606e-08 -1.83653e-08 -0.000999764)
(-5.41406e-08 -1.83413e-08 -0.000999775)
(-8.42074e-08 -1.82454e-08 -0.000999798)
(-1.06113e-07 -1.8112e-08 -0.000999829)
(-1.176e-07 -1.79539e-08 -0.000999865)
(-1.86371e-08 -5.32682e-08 -0.000999775)
(-5.40842e-08 -5.3211e-08 -0.000999787)
(-8.41296e-08 -5.2939e-08 -0.000999809)
(-1.06014e-07 -5.25644e-08 -0.00099984)
(-1.1751e-07 -5.21333e-08 -0.000999877)
(-1.85421e-08 -8.28085e-08 -0.000999797)
(-5.38131e-08 -8.27284e-08 -0.000999809)
(-8.37164e-08 -8.23123e-08 -0.000999831)
(-1.05508e-07 -8.1749e-08 -0.000999862)
(-1.16952e-07 -8.11233e-08 -0.000999898)
(-1.84082e-08 -1.0428e-07 -0.000999828)
(-5.34353e-08 -1.04175e-07 -0.000999839)
(-8.31503e-08 -1.03665e-07 -0.000999861)
(-1.04833e-07 -1.02977e-07 -0.000999892)
(-1.16151e-07 -1.0226e-07 -0.000999928)
(-1.82485e-08 -1.1543e-07 -0.000999864)
(-5.30012e-08 -1.1533e-07 -0.000999875)
(-8.25109e-08 -1.14761e-07 -0.000999897)
(-1.04104e-07 -1.13956e-07 -0.000999927)
(-1.15118e-07 -1.12922e-07 -0.000999962)
(-2.54935e-08 -2.5096e-08 -0.000999678)
(-7.3991e-08 -2.50605e-08 -0.000999694)
(-1.15113e-07 -2.49189e-08 -0.000999724)
(-1.4508e-07 -2.4721e-08 -0.000999767)
(-1.60803e-07 -2.44817e-08 -0.000999817)
(-2.54587e-08 -7.28063e-08 -0.000999693)
(-7.39004e-08 -7.27112e-08 -0.000999709)
(-1.1498e-07 -7.23044e-08 -0.00099974)
(-1.44905e-07 -7.17409e-08 -0.000999782)
(-1.60633e-07 -7.10784e-08 -0.000999832)
(-2.53149e-08 -1.13185e-07 -0.000999724)
(-7.34914e-08 -1.13041e-07 -0.00099974)
(-1.14355e-07 -1.12412e-07 -0.00099977)
(-1.44127e-07 -1.11551e-07 -0.000999812)
(-1.59794e-07 -1.10571e-07 -0.000999861)
(-2.51121e-08 -1.42501e-07 -0.000999765)
(-7.29197e-08 -1.42315e-07 -0.000999781)
(-1.13491e-07 -1.41534e-07 -0.000999811)
(-1.43074e-07 -1.4047e-07 -0.000999853)
(-1.58618e-07 -1.39321e-07 -0.000999902)
(-2.48717e-08 -1.57759e-07 -0.000999814)
(-7.22559e-08 -1.57573e-07 -0.00099983)
(-1.125e-07 -1.56725e-07 -0.00099986)
(-1.41914e-07 -1.55547e-07 -0.000999901)
(-1.57156e-07 -1.54071e-07 -0.000999949)
(-3.48337e-08 -3.43193e-08 -0.00099956)
(-1.01121e-07 -3.42622e-08 -0.000999582)
(-1.57346e-07 -3.40499e-08 -0.000999624)
(-1.98325e-07 -3.37542e-08 -0.000999682)
(-2.1986e-07 -3.33959e-08 -0.00099975)
(-3.47776e-08 -9.95711e-08 -0.000999582)
(-1.00969e-07 -9.94112e-08 -0.000999604)
(-1.57119e-07 -9.88014e-08 -0.000999645)
(-1.98028e-07 -9.79562e-08 -0.000999703)
(-2.1955e-07 -9.69537e-08 -0.000999771)
(-3.45601e-08 -1.54779e-07 -0.000999623)
(-1.00354e-07 -1.54534e-07 -0.000999645)
(-1.56179e-07 -1.53591e-07 -0.000999687)
(-1.9685e-07 -1.52293e-07 -0.000999744)
(-2.18274e-07 -1.50784e-07 -0.000999811)
(-3.42566e-08 -1.94815e-07 -0.00099968)
(-9.94979e-08 -1.94504e-07 -0.000999702)
(-1.54878e-07 -1.93321e-07 -0.000999743)
(-1.95235e-07 -1.91702e-07 -0.0009998)
(-2.1651e-07 -1.89885e-07 -0.000999866)
(-3.38992e-08 -2.15672e-07 -0.000999747)
(-9.84952e-08 -2.15344e-07 -0.000999769)
(-1.53364e-07 -2.14056e-07 -0.000999809)
(-1.93414e-07 -2.12282e-07 -0.000999865)
(-2.14389e-07 -2.10141e-07 -0.000999931)
(-4.76044e-08 -4.69706e-08 -0.0009994)
(-1.38212e-07 -4.68775e-08 -0.00099943)
(-2.15082e-07 -4.65569e-08 -0.000999487)
(-2.7111e-07 -4.61122e-08 -0.000999566)
(-3.00629e-07 -4.55825e-08 -0.000999659)
(-4.75124e-08 -1.36277e-07 -0.000999429)
(-1.37957e-07 -1.36013e-07 -0.000999459)
(-2.14697e-07 -1.35095e-07 -0.000999516)
(-2.7062e-07 -1.33825e-07 -0.000999595)
(-3.00098e-07 -1.32327e-07 -0.000999688)
(-4.71856e-08 -2.11803e-07 -0.000999486)
(-1.37033e-07 -2.11398e-07 -0.000999516)
(-2.13285e-07 -2.09981e-07 -0.000999573)
(-2.68847e-07 -2.0803e-07 -0.000999651)
(-2.98154e-07 -2.05749e-07 -0.000999743)
(-4.67326e-08 -2.66504e-07 -0.000999565)
(-1.3575e-07 -2.65994e-07 -0.000999594)
(-2.1133e-07 -2.64207e-07 -0.00099965)
(-2.66406e-07 -2.61768e-07 -0.000999727)
(-2.9547e-07 -2.58974e-07 -0.000999818)
(-4.62001e-08 -2.94983e-07 -0.000999656)
(-1.3424e-07 -2.94423e-07 -0.000999685)
(-2.0904e-07 -2.92453e-07 -0.000999741)
(-2.63613e-07 -2.89738e-07 -0.000999817)
(-2.92271e-07 -2.8652e-07 -0.000999907)
(-6.50749e-08 -6.43454e-08 -0.00099918)
(-1.88951e-07 -6.41948e-08 -0.000999221)
(-2.94061e-07 -6.37087e-08 -0.0009993)
(-3.70681e-07 -6.30377e-08 -0.000999408)
(-4.1117e-07 -6.22498e-08 -0.000999536)
(-6.49256e-08 -1.86678e-07 -0.000999221)
(-1.8853e-07 -1.86248e-07 -0.000999262)
(-2.93421e-07 -1.84858e-07 -0.00099934)
(-3.6988e-07 -1.82941e-07 -0.000999448)
(-4.10292e-07 -1.80697e-07 -0.000999575)
(-6.44341e-08 -2.9007e-07 -0.000999299)
(-1.87134e-07 -2.89408e-07 -0.00099934)
(-2.91285e-07 -2.87262e-07 -0.000999417)
(-3.67207e-07 -2.84317e-07 -0.000999524)
(-4.07345e-07 -2.8087e-07 -0.00099965)
(-6.37532e-08 -3.64847e-07 -0.000999407)
(-1.85198e-07 -3.6401e-07 -0.000999447)
(-2.8833e-07 -3.61298e-07 -0.000999523)
(-3.63513e-07 -3.57601e-07 -0.000999629)
(-4.03259e-07 -3.53319e-07 -0.000999753)
(-6.29501e-08 -4.03686e-07 -0.000999533)
(-1.82909e-07 -4.0275e-07 -0.000999572)
(-2.84851e-07 -3.99737e-07 -0.000999647)
(-3.59228e-07 -3.95582e-07 -0.000999751)
(-3.98401e-07 -3.90706e-07 -0.000999873)
(-8.89928e-08 -8.82396e-08 -0.00099888)
(-2.58407e-07 -8.79972e-08 -0.000998936)
(-4.0217e-07 -8.72593e-08 -0.000999044)
(-5.06996e-07 -8.62454e-08 -0.000999192)
(-5.62554e-07 -8.50634e-08 -0.000999367)
(-8.87517e-08 -2.55968e-07 -0.000998936)
(-2.5772e-07 -2.5527e-07 -0.000998992)
(-4.01121e-07 -2.53157e-07 -0.000999099)
(-5.05694e-07 -2.50258e-07 -0.000999247)
(-5.61126e-07 -2.4688e-07 -0.000999421)
(-8.80081e-08 -3.97609e-07 -0.000999044)
(-2.55601e-07 -3.96526e-07 -0.000999099)
(-3.97881e-07 -3.93262e-07 -0.000999205)
(-5.01654e-07 -3.88796e-07 -0.000999351)
(-5.56665e-07 -3.83579e-07 -0.000999523)
(-8.6975e-08 -4.99876e-07 -0.000999191)
(-2.52658e-07 -4.98499e-07 -0.000999246)
(-3.93391e-07 -4.94364e-07 -0.00099935)
(-4.96047e-07 -4.88723e-07 -0.000999494)
(-5.50464e-07 -4.82142e-07 -0.000999664)
(-8.57508e-08 -5.5278e-07 -0.000999364)
(-2.49169e-07 -5.51233e-07 -0.000999418)
(-3.88071e-07 -5.46618e-07 -0.000999521)
(-4.89432e-07 -5.40276e-07 -0.000999662)
(-5.43116e-07 -5.32888e-07 -0.000999828)
(-1.21767e-07 -1.2115e-07 -0.000998469)
(-3.53557e-07 -1.2076e-07 -0.000998545)
(-5.5025e-07 -1.1964e-07 -0.000998693)
(-6.93737e-07 -1.1811e-07 -0.000998896)
(-7.69996e-07 -1.16337e-07 -0.000999136)
(-1.21377e-07 -3.51357e-07 -0.000998546)
(-3.52443e-07 -3.50226e-07 -0.000998622)
(-5.48554e-07 -3.47013e-07 -0.000998769)
(-6.91647e-07 -3.4263e-07 -0.000998971)
(-7.67698e-07 -3.3754e-07 -0.00099921)
(-1.20245e-07 -5.45545e-07 -0.000998694)
(-3.49217e-07 -5.43778e-07 -0.00099877)
(-5.43636e-07 -5.38801e-07 -0.000998915)
(-6.85533e-07 -5.32019e-07 -0.000999115)
(-7.60944e-07 -5.24117e-07 -0.00099935)
(-1.18667e-07 -6.85457e-07 -0.000998898)
(-3.44727e-07 -6.83199e-07 -0.000998972)
(-5.36795e-07 -6.76876e-07 -0.000999115)
(-6.77012e-07 -6.68252e-07 -0.000999311)
(-7.51535e-07 -6.58179e-07 -0.000999543)
(-1.1679e-07 -7.57441e-07 -0.000999135)
(-3.39385e-07 -7.54896e-07 -0.000999208)
(-5.28642e-07 -7.47805e-07 -0.000999348)
(-6.66836e-07 -7.3811e-07 -0.00099954)
(-7.4039e-07 -7.26862e-07 -0.000999767)
(-1.66726e-07 -1.66564e-07 -0.000997905)
(-4.84024e-07 -1.65931e-07 -0.00099801)
(-7.53211e-07 -1.64231e-07 -0.000998212)
(-9.49683e-07 -1.61928e-07 -0.000998491)
(-1.05439e-06 -1.59265e-07 -0.000998819)
(-1.66094e-07 -4.82908e-07 -0.000998011)
(-4.82227e-07 -4.81074e-07 -0.000998116)
(-7.505e-07 -4.76186e-07 -0.000998317)
(-9.46362e-07 -4.69561e-07 -0.000998595)
(-1.05071e-06 -4.61882e-07 -0.000998921)
(-1.64359e-07 -7.49362e-07 -0.000998216)
(-4.77304e-07 -7.46489e-07 -0.00099832)
(-7.43031e-07 -7.3889e-07 -0.000998518)
(-9.37103e-07 -7.28585e-07 -0.000998792)
(-1.04049e-06 -7.16622e-07 -0.000999114)
(-1.61937e-07 -9.40822e-07 -0.000998497)
(-4.70431e-07 -9.37137e-07 -0.000998598)
(-7.32597e-07 -9.27443e-07 -0.000998793)
(-9.24161e-07 -9.14279e-07 -0.000999061)
(-1.02624e-06 -8.98973e-07 -0.000999378)
(-1.59048e-07 -1.03866e-06 -0.000998824)
(-4.62222e-07 -1.03448e-06 -0.000998923)
(-7.20108e-07 -1.02355e-06 -0.000999113)
(-9.08633e-07 -1.0087e-06 -0.000999375)
(-1.00928e-06 -9.9152e-07 -0.000999685)
(-2.28493e-07 -2.29367e-07 -0.000997131)
(-6.63118e-07 -2.28338e-07 -0.000997275)
(-1.03156e-06 -2.25752e-07 -0.000997553)
(-1.30054e-06 -2.22281e-07 -0.000997936)
(-1.4443e-06 -2.18281e-07 -0.000998385)
(-2.27463e-07 -6.64725e-07 -0.000997279)
(-6.60227e-07 -6.61744e-07 -0.000997422)
(-1.02726e-06 -6.54288e-07 -0.000997698)
(-1.2953e-06 -6.44276e-07 -0.000998078)
(-1.4385e-06 -6.32726e-07 -0.000998525)
(-2.24785e-07 -1.03072e-06 -0.000997562)
(-6.52679e-07 -1.02604e-06 -0.000997704)
(-1.0159e-06 -1.01441e-06 -0.000997976)
(-1.28132e-06 -9.98782e-07 -0.00099835)
(-1.42309e-06 -9.80756e-07 -0.000998791)
(-2.21043e-07 -1.29275e-06 -0.000997949)
(-6.42117e-07 -1.28674e-06 -0.000998088)
(-9.99998e-07 -1.27184e-06 -0.000998354)
(-1.26174e-06 -1.25181e-06 -0.000998721)
(-1.4016e-06 -1.22871e-06 -0.000999153)
(-2.16567e-07 -1.42552e-06 -0.0009984)
(-6.29457e-07 -1.41867e-06 -0.000998535)
(-9.8089e-07 -1.40178e-06 -0.000998794)
(-1.23819e-06 -1.37903e-06 -0.000999151)
(-1.37592e-06 -1.35285e-06 -0.000999573)
(-3.13571e-07 -3.16448e-07 -0.000996067)
(-9.09371e-07 -3.14757e-07 -0.000996267)
(-1.41355e-06 -3.10805e-07 -0.000996649)
(-1.78145e-06 -3.05577e-07 -0.000997173)
(-1.97872e-06 -2.99615e-07 -0.000997789)
(-3.11875e-07 -9.16695e-07 -0.000996272)
(-9.04703e-07 -9.11797e-07 -0.000996471)
(-1.40675e-06 -9.00378e-07 -0.00099685)
(-1.77328e-06 -8.85283e-07 -0.000997371)
(-1.96972e-06 -8.68063e-07 -0.000997983)
(-3.07683e-07 -1.42006e-06 -0.000996666)
(-8.93041e-07 -1.41238e-06 -0.000996861)
(-1.38949e-06 -1.39452e-06 -0.000997233)
(-1.75231e-06 -1.37092e-06 -0.000997746)
(-1.94669e-06 -1.34401e-06 -0.000998349)
(-3.01828e-07 -1.77869e-06 -0.000997202)
(-8.7671e-07 -1.76883e-06 -0.000997392)
(-1.36528e-06 -1.7459e-06 -0.000997756)
(-1.72289e-06 -1.71554e-06 -0.000998256)
(-1.91458e-06 -1.68095e-06 -0.000998847)
(-2.94834e-07 -1.9584e-06 -0.000997824)
(-8.571e-07 -1.94716e-06 -0.000998009)
(-1.33607e-06 -1.92099e-06 -0.000998361)
(-1.68736e-06 -1.8862e-06 -0.000998848)
(-1.87601e-06 -1.84654e-06 -0.000999423)
(-4.31317e-07 -4.37563e-07 -0.000994603)
(-1.2489e-06 -4.34709e-07 -0.000994881)
(-1.93823e-06 -4.28648e-07 -0.000995407)
(-2.4404e-06 -4.20796e-07 -0.000996127)
(-2.71041e-06 -4.12026e-07 -0.000996969)
(-4.28454e-07 -1.26708e-06 -0.000994889)
(-1.2413e-06 -1.25885e-06 -0.000995164)
(-1.92753e-06 -1.24128e-06 -0.000995686)
(-2.42786e-06 -1.21859e-06 -0.0009964)
(-2.69677e-06 -1.19327e-06 -0.000997237)
(-4.21737e-07 -1.96055e-06 -0.000995437)
(-1.22307e-06 -1.94769e-06 -0.000995706)
(-1.9013e-06 -1.92011e-06 -0.000996218)
(-2.39668e-06 -1.88459e-06 -0.00099692)
(-2.66286e-06 -1.84497e-06 -0.000997744)
(-4.12383e-07 -2.45132e-06 -0.000996182)
(-1.19753e-06 -2.43492e-06 -0.000996443)
(-1.86443e-06 -2.39943e-06 -0.00099694)
(-2.35289e-06 -2.35361e-06 -0.000997624)
(-2.61556e-06 -2.30246e-06 -0.000998431)
(-4.01279e-07 -2.6935e-06 -0.000997044)
(-1.16689e-06 -2.67494e-06 -0.000997295)
(-1.81982e-06 -2.63425e-06 -0.000997774)
(-2.29972e-06 -2.58119e-06 -0.000998437)
(-2.55851e-06 -2.52169e-06 -0.000999222)
(-5.95817e-07 -6.06554e-07 -0.000992581)
(-1.71935e-06 -6.0149e-07 -0.000992974)
(-2.65987e-06 -5.92208e-07 -0.000993702)
(-3.34267e-06 -5.80388e-07 -0.00099469)
(-3.7098e-06 -5.67755e-07 -0.000995839)
(-5.90739e-07 -1.75651e-06 -0.000992981)
(-1.70677e-06 -1.74206e-06 -0.000993368)
(-2.6431e-06 -1.7149e-06 -0.000994089)
(-3.32374e-06 -1.68083e-06 -0.000995068)
(-3.68966e-06 -1.64435e-06 -0.00099621)
(-5.79555e-07 -2.71403e-06 -0.000993752)
(-1.67768e-06 -2.69165e-06 -0.000994127)
(-2.60312e-06 -2.6487e-06 -0.000994831)
(-3.27793e-06 -2.59537e-06 -0.000995792)
(-3.641e-06 -2.53824e-06 -0.000996917)
(-5.64025e-07 -3.38538e-06 -0.000994791)