FoamFile
{version 2.0; format ascii;class Cloud<passiveParticle>; location 0;object  positions;}
41
(
( -67.7779 -326.83 99.8293 ) 0 
( -236.781 -433.41 99.7866 ) 0 
( -138.47 -139.876 99.8311 ) 0 
( -485.705 -332.774 99.7836 ) 0 
( -342.471 -138.189 99.8537 ) 0 
( -436.545 -45.7569 284.438 ) 0 
( -241.551 -268.622 212.75 ) 0 
( -414.939 -404.823 272.18 ) 0 
( -106.333 -224.831 353.323 ) 0 
( -239.725 -61.5503 253.25 ) 0 
( -135.502 -423.54 281.576 ) 0 
( -452.347 -229.696 361.094 ) 0 
( -304.001 -117.384 434.069 ) 0 
( -67.6928 -174.2 542.808 ) 0 
( -29.0139 -385.073 446.713 ) 0 
( -135.114 -11.4613 448.118 ) 0 
( -489.052 -413.829 457.563 ) 0 
( -281.211 -327.965 399.363 ) 0 
( -391.091 -255.274 549.663 ) 0 
( -178.811 -338.507 570.7 ) 0 
( -244.704 -129.977 624.557 ) 0 
( -146.48 -279.136 758.824 ) 0 
( -27.8035 -452.483 635.416 ) 0 
( -57.4451 -101.892 733.649 ) 0 
( -336.889 -396.067 680.772 ) 0 
( -462.908 -280.067 784.334 ) 0 
( -439.717 -111.375 679.629 ) 0 
( -299.641 -163.042 813.9 ) 0 
( -450.144 -42.6882 867.137 ) 0 
( -175.811 -476.715 767.579 ) 0 
( -174.724 -234.43 955.893 ) 0 
( -305.209 -362.669 875.325 ) 0 
( -378.902 -216.039 989.622 ) 0 
( -121.767 -42.424 973.271 ) 0 
( -254.699 -498.735 1012.86 ) 0 
( -71.6991 -421.803 929.188 ) 0 
( -364.753 -34.4558 1072.18 ) 0 
( -142.553 -362.111 1106.4 ) 0 
( -72.7776 -38.3043 1167.1 ) 0 
( -246.01 -182.441 1135.33 ) 0 
( -395.591 -384.164 1096.6 ) 0 
)
