FoamFile
{version 2.0; format ascii;class vectorField; location 0;object  v;}
41
(
( -2.13702e-06 -3.38118e-06 -2.58615e-05 )  
( -3.74129e-06 9.18158e-06 -3.32722e-05 )  
( -1.36125e-06 -1.03605e-05 -3.975e-05 )  
( -7.77117e-05 -1.29466e-05 -4.55248e-05 )  
( 7.2766e-06 -3.10017e-06 -5.59202e-05 )  
( 1.4648e-05 -2.50971e-05 -0.000104949 )  
( 2.92633e-05 3.05633e-05 -8.27523e-05 )  
( -3.98303e-05 1.95808e-06 -0.000122206 )  
( -5.79202e-05 -5.70828e-05 -4.50357e-05 )  
( -3.04703e-05 2.25055e-05 -0.000118093 )  
( 2.96112e-06 1.32741e-05 -0.000135901 )  
( 0.000103383 -4.68537e-05 -0.000137326 )  
( 6.17285e-05 -8.07829e-05 -0.000142162 )  
( 1.99137e-05 1.83383e-05 -0.000102966 )  
( -2.25823e-05 -5.84271e-05 -0.000150383 )  
( 1.06201e-05 -6.31254e-05 -0.000193681 )  
( 0.00016502 8.9069e-05 -4.81336e-05 )  
( 1.46581e-05 -0.000125196 -0.000180545 )  
( 9.66587e-05 -9.12356e-05 -0.000132203 )  
( -2.71947e-05 -0.000159467 -0.000234742 )  
( 3.05369e-05 6.83983e-05 -0.000166178 )  
( 2.11127e-05 -1.69532e-05 -0.000318793 )  
( 6.02316e-05 -3.30907e-05 -0.00024684 )  
( 4.47878e-05 -3.5963e-05 -0.000292757 )  
( 4.13062e-05 -8.1878e-05 -9.3217e-05 )  
( 0.000212252 -1.90995e-05 -0.000104124 )  
( 0.000135824 5.74572e-06 -0.000148752 )  
( -3.99935e-05 -6.65852e-05 -0.000222495 )  
( 5.80265e-05 -4.48203e-05 -0.000115869 )  
( 2.17763e-05 -7.60841e-06 -0.000216575 )  
( 0.000106409 -3.35765e-05 -0.000138449 )  
( 0.000165822 -7.27007e-05 -5.76084e-05 )  
( 0.000102996 -8.86289e-05 -5.17394e-05 )  
( -7.00534e-05 -5.3062e-05 -0.000379216 )  
( 0.000137085 0.000125669 9.15083e-06 )  
( -2.60652e-05 3.72512e-05 -0.00020617 )  
( 0.000164392 1.36236e-05 -0.00012557 )  
( 0.000427681 0.000153722 -3.36196e-05 )  
( -0.000306837 0.00042559 -0.000382092 )  
( 4.92759e-05 -3.37398e-05 -0.00016233 )  
( 3.52417e-06 -3.65721e-05 -4.88795e-06 )  
)
