FoamFile
{version 2.0; format ascii;class Cloud<passiveParticle>; location 0;object  positions;}
353
(
( -0.690863 -1.05999 0.499858 ) 0 
( -0.976512 -3.62445 0.499474 ) 0 
( -0.321938 -2.84212 0.499755 ) 0 
( -2.36945 -3.19337 0.499727 ) 0 
( -3.07574 -0.650888 0.499906 ) 0 
( -2.00745 -0.963521 0.499825 ) 0 
( -4.74435 -1.75228 0.4999 ) 0 
( -4.07033 -0.753945 0.499556 ) 0 
( -1.96916 -1.97446 0.499681 ) 0 
( -4.94233 -4.19904 0.499785 ) 0 
( -3.98309 -2.40069 0.499856 ) 0 
( -3.40036 -3.24658 0.499718 ) 0 
( -1.42554 -1.44785 1.15296 ) 0 
( -2.84078 -4.07521 0.499975 ) 0 
( -1.84429 -4.15891 0.499978 ) 0 
( -0.18993 -4.32102 1.21594 ) 0 
( -2.9302 -2.36409 0.499661 ) 0 
( -0.0744046 -1.75569 1.38018 ) 0 
( -3.48546 -1.54856 0.66085 ) 0 
( -4.81598 -2.55582 1.09073 ) 0 
( -0.912272 -2.03497 0.499662 ) 0 
( -0.751378 -0.0654129 0.582055 ) 0 
( -2.35654 -0.33928 1.19843 ) 0 
( -4.38477 -3.37715 0.615201 ) 0 
( -0.823126 -4.61404 0.499596 ) 0 
( -3.744 -3.83868 1.2284 ) 0 
( -1.48685 -2.80794 0.768552 ) 0 
( -0.838983 -2.39834 1.42794 ) 0 
( -4.46022 -0.369066 1.33553 ) 0 
( -0.0640262 -3.47436 1.94422 ) 0 
( -0.656355 -0.927911 1.52394 ) 0 
( -2.18713 -4.73578 1.25252 ) 0 
( -2.61188 -1.76847 1.23704 ) 0 
( -4.38924 -4.6024 1.23112 ) 0 
( -4.25109 -1.3582 1.27521 ) 0 
( -3.35352 -4.7591 1.23561 ) 0 
( -4.61784 -3.49451 1.61712 ) 0 
( -1.37837 -0.250185 1.38558 ) 0 
( -2.90508 -2.94371 1.31361 ) 0 
( -1.8251 -2.29561 1.55785 ) 0 
( -1.51014 -0.994447 2.0402 ) 0 
( -0.331055 -0.0488304 2.68195 ) 0 
( -3.83775 -4.43571 2.04831 ) 0 
( -2.62161 -1.01116 1.88958 ) 0 
( -3.90492 -2.82772 1.40051 ) 0 
( -0.585033 -4.62705 2.13353 ) 0 
( -0.803442 -1.69984 2.14209 ) 0 
( -1.92554 -3.50107 1.34092 ) 0 
( -4.44968 -2.10156 1.92069 ) 0 
( -1.27378 -4.3258 1.34407 ) 0 
( -3.50458 -1.89357 1.66954 ) 0 
( -0.940313 -3.39188 1.47072 ) 0 
( -4.38083 -0.898743 2.17966 ) 0 
( -2.69045 -2.30945 2.07411 ) 0 
( -4.7668 -1.62228 2.7515 ) 0 
( -1.94896 -4.20936 2.07209 ) 0 
( -1.2772 -2.82094 2.22102 ) 0 
( -0.178337 -2.49175 2.22027 ) 0 
( -0.224488 -1.80977 2.94968 ) 0 
( -0.72819 -0.957752 2.80768 ) 0 
( -3.51243 -0.69567 1.39827 ) 0 
( -4.91055 -4.50861 2.09581 ) 0 
( -4.83671 -2.89413 2.39139 ) 0 
( -2.7791 -4.88738 2.04376 ) 0 
( -2.37478 -0.658103 2.79179 ) 0 
( -2.47254 -3.28228 2.14859 ) 0 
( -3.74844 -2.52073 2.49718 ) 0 
( -3.45516 -1.19956 2.40832 ) 0 
( -3.5663 -3.43001 2.12324 ) 0 
( -1.06119 -3.78382 2.3822 ) 0 
( -2.11092 -1.63041 2.52435 ) 0 
( -2.79127 -3.97546 1.49921 ) 0 
( -4.54074 -2.46269 3.24344 ) 0 
( -4.45548 -4.77274 2.94582 ) 0 
( -0.572285 -3.09322 2.9148 ) 0 
( -0.791681 -4.43385 3.09224 ) 0 
( -2.07444 -2.63013 2.79342 ) 0 
( -1.46113 -0.30174 2.98613 ) 0 
( -2.75302 -4.09699 2.65526 ) 0 
( -3.01223 -1.22723 3.31084 ) 0 
( -1.22422 -2.1255 2.94306 ) 0 
( -4.40015 -3.77923 2.55056 ) 0 
( -3.85181 -1.74481 3.1464 ) 0 
( -0.141161 -0.581589 3.52437 ) 0 
( -1.90429 -3.6263 2.89551 ) 0 
( -3.65488 -4.18847 3.07671 ) 0 
( -3.15887 -3.21511 3.01045 ) 0 
( -3.20013 -0.248217 2.23606 ) 0 
( -1.6078 -1.24112 3.29574 ) 0 
( -4.00948 -0.724377 3.09158 ) 0 
( -4.3815 -1.98992 4.10999 ) 0 
( -0.486936 -3.70298 3.70252 ) 0 
( -2.96652 -2.19435 3.02817 ) 0 
( -1.71191 -4.75837 2.87348 ) 0 
( -2.15571 -2.03157 3.59015 ) 0 
( -3.6049 -2.52261 3.7243 ) 0 
( -2.83572 -4.08581 3.65126 ) 0 
( -3.45825 -0.260841 3.82011 ) 0 
( -0.710034 -1.38311 3.71236 ) 0 
( -1.40388 -2.96559 3.45476 ) 0 
( -4.07715 -3.33678 3.38672 ) 0 
( -0.973673 -4.50922 4.07228 ) 0 
( -4.85745 -4.83377 3.85917 ) 0 
( -4.42265 -0.256083 4.12629 ) 0 
( -2.2589 -1.14919 4.04897 ) 0 
( -3.75428 -1.20226 3.98054 ) 0 
( -0.839201 -0.360827 4.20543 ) 0 
( -2.37507 -3.13095 3.62518 ) 0 
( -1.86074 -3.96188 3.83607 ) 0 
( -3.44538 -3.47019 4.14999 ) 0 
( -4.47628 -1.0712 4.70357 ) 0 
( -0.6965 -2.6491 4.08636 ) 0 
( -1.4132 -1.86165 4.23787 ) 0 
( -3.63383 -4.57909 3.99675 ) 0 
( -0.162956 -1.04507 4.4778 ) 0 
( -1.73251 -0.0175336 3.90527 ) 0 
( -4.94811 -4.78557 4.85366 ) 0 
( -2.27421 -4.86849 3.91945 ) 0 
( -4.56263 -2.38088 5.05358 ) 0 
( -2.98773 -1.8314 4.10729 ) 0 
( -0.1855 -3.34648 4.58846 ) 0 
( -1.10455 -1.10641 4.81609 ) 0 
( -1.15281 -3.59713 4.44065 ) 0 
( -4.41757 -3.9649 4.08609 ) 0 
( -4.72058 -1.12705 3.73582 ) 0 
( -3.67968 -0.236696 4.79492 ) 0 
( -2.81006 -2.75605 4.44334 ) 0 
( -1.73716 -4.41452 4.71865 ) 0 
( -4.29966 -2.97008 4.28978 ) 0 
( -0.209069 -0.147791 4.95185 ) 0 
( -2.25212 -1.99173 4.76614 ) 0 
( -1.03458 -2.83369 5.07517 ) 0 
( -1.74881 -0.3426 4.85052 ) 0 
( -0.793988 -4.32868 5.03888 ) 0 
( -4.11701 -1.37426 5.58599 ) 0 
( -2.86157 -4.39054 4.60297 ) 0 
( -1.79169 -2.77941 4.35715 ) 0 
( -3.09227 -1.04209 4.71239 ) 0 
( -2.60231 -0.255443 4.33705 ) 0 
( -2.28576 -3.5788 4.69855 ) 0 
( -0.537516 -1.92802 4.76044 ) 0 
( -3.81866 -4.15371 4.88243 ) 0 
( -0.0942224 -2.61524 5.33583 ) 0 
( -0.342561 -1.0079 5.46054 ) 0 
( -3.18439 -3.41612 5.1135 ) 0 
( -1.52946 -3.67893 5.36313 ) 0 
( -4.74181 -2.87281 5.90655 ) 0 
( -2.24873 -1.11374 5.24433 ) 0 
( -2.05601 -2.82991 5.31995 ) 0 
( -4.49424 -3.46235 5.13796 ) 0 
( -3.0861 -0.502654 5.55417 ) 0 
( -3.67771 -1.96038 4.81948 ) 0 
( -1.35648 -1.92337 5.33416 ) 0 
( -1.45448 -4.90836 5.54072 ) 0 
( -2.40181 -4.59739 5.46608 ) 0 
( -0.523993 -1.88989 5.89502 ) 0 
( -3.28963 -4.18341 5.74577 ) 0 
( -4.6342 -3.84467 6.15208 ) 0 
( -1.8863 -4.43222 6.30653 ) 0 
( -0.728874 -4.42071 6.03208 ) 0 
( -0.310686 -0.242912 6.10346 ) 0 
( -1.20218 -0.539883 5.66399 ) 0 
( -0.469582 -3.52119 5.5311 ) 0 
( -3.90994 -2.32672 5.80907 ) 0 
( -3.0193 -2.46589 5.37677 ) 0 
( -2.17241 -0.138376 5.73284 ) 0 
( -2.2533 -1.96151 5.77455 ) 0 
( -3.12539 -1.49998 5.61181 ) 0 
( -4.31371 -4.62356 5.61306 ) 0 
( -4.33034 -0.35255 5.5453 ) 0 
( -1.43681 -1.76971 6.31869 ) 0 
( -4.52331 -2.12254 6.5718 ) 0 
( -2.80539 -2.86213 6.26936 ) 0 
( -3.63888 -0.86735 6.30304 ) 0 
( -3.82952 -3.32148 5.87159 ) 0 
( -2.86741 -0.0204263 6.442 ) 0 
( -0.170708 -0.424509 7.07674 ) 0 
( -0.0655384 -1.16752 6.41605 ) 0 
( -2.073 -1.00448 6.22251 ) 0 
( -2.44945 -3.64077 5.75289 ) 0 
( -0.720662 -2.82156 6.19995 ) 0 
( -1.32727 -3.60405 6.33932 ) 0 
( -2.81073 -4.86862 6.33717 ) 0 
( -4.61603 -3.14036 6.8617 ) 0 
( -3.26045 -3.68408 6.61161 ) 0 
( -3.41072 -1.81733 6.51608 ) 0 
( -1.12541 -4.67043 6.91516 ) 0 
( -0.515575 -3.87271 6.85744 ) 0 
( -1.00682 -0.875593 6.58522 ) 0 
( -2.25999 -3.56137 6.73134 ) 0 
( -0.114367 -2.67923 7.01842 ) 0 
( -4.5657 -0.546425 6.49759 ) 0 
( -1.77109 -2.71081 6.27078 ) 0 
( -2.84491 -0.90388 6.90978 ) 0 
( -2.43288 -1.79989 6.7448 ) 0 
( -3.707 -2.75663 6.68874 ) 0 
( -2.87717 -2.55953 7.21951 ) 0 
( -0.772101 -1.07258 7.54382 ) 0 
( -2.04036 -0.298771 6.92989 ) 0 
( -0.63076 -1.83034 6.90689 ) 0 
( -3.73674 -4.56155 6.55628 ) 0 
( -1.55961 -3.88994 7.36465 ) 0 
( -1.03296 -3.05978 7.12471 ) 0 
( -3.29452 -1.59479 7.48401 ) 0 
( -3.69178 -0.146661 6.99413 ) 0 
( -0.0481527 -1.95916 7.70905 ) 0 
( -4.14531 -1.32153 7.03558 ) 0 
( -2.06926 -4.81123 7.21331 ) 0 
( -0.28905 -3.39205 7.70429 ) 0 
( -1.11478 -0.169555 7.28502 ) 0 
( -3.8251 -3.37402 7.46637 ) 0 
( -1.6699 -1.3252 7.1834 ) 0 
( -2.99829 -4.43684 7.21935 ) 0 
( -2.83704 -3.50561 7.54607 ) 0 
( -4.02315 -0.669207 7.78343 ) 0 
( -3.28517 -2.37211 8.11285 ) 0 
( -2.40835 -4.44357 8.07891 ) 0 
( -4.94378 -0.924073 7.48725 ) 0 
( -0.00855261 -1.08303 8.18926 ) 0 
( -1.70835 -2.32542 7.19108 ) 0 
( -1.34842 -3.20559 8.06234 ) 0 
( -1.91069 -0.0251604 7.88286 ) 0 
( -0.551368 -4.35968 7.72993 ) 0 
( -0.570136 -2.6099 8.26004 ) 0 
( -4.93243 -2.3843 7.44589 ) 0 
( -3.77817 -4.32897 7.83586 ) 0 
( -2.83357 -0.0998412 7.5051 ) 0 
( -0.720996 -0.26029 8.19961 ) 0 
( -2.25998 -2.80559 7.96666 ) 0 
( -4.42374 -4.09136 7.11014 ) 0 
( -2.12435 -3.6076 8.54828 ) 0 
( -2.35043 -1.79562 7.7448 ) 0 
( -0.674501 -3.78517 8.53899 ) 0 
( -2.63201 -0.895323 8.07633 ) 0 
( -1.41902 -4.3767 8.22658 ) 0 
( -4.24067 -2.66654 8.11048 ) 0 
( -0.494831 -0.753249 9.03965 ) 0 
( -1.47981 -2.20772 8.15729 ) 0 
( -3.14587 -3.92338 8.50909 ) 0 
( -4.38904 -1.69412 7.93091 ) 0 
( -3.50456 -1.25915 8.40224 ) 0 
( -4.77112 -3.45445 7.79822 ) 0 
( -4.82459 -0.523862 8.39571 ) 0 
( -2.68205 -1.81937 8.68768 ) 0 
( -4.97773 -2.2133 8.71558 ) 0 
( -3.0917 -0.0951365 8.93537 ) 0 
( -3.88019 -2.14461 8.88356 ) 0 
( -4.08512 -3.58067 8.51454 ) 0 
( -0.830687 -1.54233 8.52554 ) 0 
( -4.47227 -1.33592 8.86077 ) 0 
( -4.69712 -4.34445 8.30977 ) 0 
( -1.60951 -0.951565 8.10881 ) 0 
( -3.92126 -4.86238 8.66956 ) 0 
( -3.34436 -3.01485 8.87648 ) 0 
( -1.31765 -4.17157 9.19993 ) 0 
( -0.831666 -2.31568 9.17907 ) 0 
( -4.56258 -2.00265 9.60051 ) 0 
( -1.56577 -0.650291 9.06118 ) 0 
( -1.10527 -1.41395 9.51342 ) 0 
( -2.26203 -4.47224 9.06759 ) 0 
( -2.04074 -2.5539 8.90918 ) 0 
( -1.33876 -3.17372 9.25953 ) 0 
( -0.682368 -4.93619 9.30743 ) 0 
( -4.7457 -3.10774 9.09747 ) 0 
( -4.44575 -0.352065 9.32257 ) 0 
( -0.489127 -0.0206975 9.7202 ) 0 
( -2.53103 -0.910845 9.077 ) 0 
( -3.32686 -1.46461 9.36461 ) 0 
( -1.39037 -2.23705 10.0045 ) 0 
( -2.90657 -2.36341 9.49596 ) 0 
( -0.614118 -4.01756 9.89364 ) 0 
( -4.84994 -1.14769 10.0321 ) 0 
( -3.54259 -0.549034 9.70383 ) 0 
( -2.07638 -1.7327 9.47853 ) 0 
( -3.13847 -4.89879 9.29066 ) 0 
( -3.96025 -2.80013 9.63443 ) 0 
( -2.71144 -3.62141 9.35757 ) 0 
( -1.28278 -0.57253 10.0237 ) 0 
( -1.6976 -4.89456 9.77675 ) 0 
( -3.74252 -4.10204 9.29594 ) 0 
( -0.0527693 -3.18585 9.65276 ) 0 
( -2.1363 -2.89832 9.84304 ) 0 
( -4.017 -3.10211 10.5875 ) 0 
( -0.516175 -1.54462 10.3107 ) 0 
( -3.13945 -3.11867 10.1084 ) 0 
( -3.22093 -1.84345 10.29 ) 0 
( -2.14286 -1.04916 10.2052 ) 0 
( -4.99852 -0.164198 10.1344 ) 0 
( -0.910259 -3.10033 10.16 ) 0 
( -1.67424 -3.76297 10.04 ) 0 
( -2.66348 -0.1998 10.2912 ) 0 
( -0.0282632 -2.41723 10.2919 ) 0 
( -3.9247 -1.14361 10.4112 ) 0 
( -3.86227 -4.38796 10.2512 ) 0 
( -4.15817 -2.11536 10.5081 ) 0 
( -0.843625 -4.94784 10.2942 ) 0 
( -2.26193 -2.06674 10.464 ) 0 
( -4.43235 -3.66053 9.86948 ) 0 
( -4.87477 -2.79927 10.1193 ) 0 
( -2.57488 -4.36562 10.0113 ) 0 
( -0.825273 -4.20227 10.9603 ) 0 
( -1.92176 -0.427594 10.9567 ) 0 
( -2.96719 -1.0135 10.7867 ) 0 
( -1.4373 -1.53811 10.7181 ) 0 
( -2.98603 -2.57306 10.9322 ) 0 
( -4.67133 -0.703734 10.9102 ) 0 
( -0.545693 -0.622953 10.6975 ) 0 
( -2.36686 -3.3937 10.6805 ) 0 
( -3.15044 -4.81693 10.8072 ) 0 
( -1.49179 -2.78272 10.9088 ) 0 
( -3.28444 -3.80436 10.8217 ) 0 
( -0.272493 -3.37282 10.8803 ) 0 
( -4.95951 -3.73865 10.7155 ) 0 
( -4.76461 -2.897 11.2191 ) 0 
( -1.74522 -4.51156 10.6992 ) 0 
( -0.673469 -2.22098 11.0302 ) 0 
( -2.83609 -3.32389 11.5754 ) 0 
( -3.67547 -0.319367 10.9194 ) 0 
( -2.20743 -2.52441 11.5577 ) 0 
( -1.63209 -3.70694 11.2821 ) 0 
( -2.78447 -0.030145 11.2692 ) 0 
( -0.803587 -1.24727 11.4348 ) 0 
( -2.25638 -1.5041 11.2907 ) 0 
( -2.50174 -4.22032 11.2846 ) 0 
( -0.104582 -0.598365 11.7353 ) 0 
( -1.42419 -4.70675 11.6259 ) 0 
( -3.85101 -2.55157 11.4334 ) 0 
( -3.56553 -0.173455 11.9026 ) 0 
( -2.54108 -4.49867 12.2442 ) 0 
( -1.40283 -2.98392 11.9337 ) 0 
( -1.65605 -0.940499 11.8581 ) 0 
( -4.54785 -1.83603 11.3856 ) 0 
( -0.72143 -3.70737 11.8229 ) 0 
( -2.02645 -1.79639 12.2189 ) 0 
( -4.16232 -3.76882 11.3185 ) 0 
( -3.42262 -4.35391 11.6507 ) 0 
( -4.89746 -4.99127 11.4885 ) 0 
( -4.78319 -0.293663 11.8153 ) 0 
( -2.01026 -0.00638388 11.9017 ) 0 
( -1.08562 -2.03673 11.9799 ) 0 
( -3.72926 -1.26167 11.3847 ) 0 
( -3.70216 -3.30406 12.0749 ) 0 
( -1.45574 -4.22008 12.4989 ) 0 
( -0.455085 -2.78566 12.1836 ) 0 
( -4.82658 -1.2464 12.1436 ) 0 
( -4.57484 -2.51181 12.1222 ) 0 
( -0.506597 -1.25113 12.3897 ) 0 
( -2.87767 -0.887918 11.7747 ) 0 
( -4.13262 -0.662715 12.5652 ) 0 
( -3.06073 -1.93563 11.699 ) 0 
( -2.15774 -3.54352 12.2765 ) 0 
( -2.24321 -0.663429 12.6186 ) 0 
( -0.529314 -3.97663 12.7861 ) 0 
)
