FoamFile
{version 2.0; format ascii;class vectorField; location 0;object  v;}
353
(
( 4.80854e-06 1.03666e-06 -2.75954e-07 )  
( 7.5111e-06 1.08912e-06 -6.22344e-07 )  
( 9.20995e-06 3.29836e-06 3.61665e-08 )  
( 6.19323e-06 -3.76841e-07 3.34891e-07 )  
( 4.3461e-06 1.70415e-06 -2.1638e-07 )  
( 6.48099e-06 2.7006e-06 -9.93056e-07 )  
( 3.80717e-06 1.35894e-06 -1.25478e-07 )  
( 4.63321e-06 1.40074e-06 1.80491e-08 )  
( 6.9415e-06 2.17685e-06 -1.16137e-06 )  
( 7.90264e-06 1.05032e-06 4.96652e-07 )  
( 5.45622e-06 1.91305e-06 -4.06616e-07 )  
( 5.05352e-06 2.75219e-06 1.54945e-06 )  
( 1.07053e-05 3.63472e-06 -3.87706e-06 )  
( 1.23662e-06 3.35825e-07 -2.94552e-07 )  
( -4.97257e-07 -3.58866e-07 1.84291e-07 )  
( 1.9555e-06 7.10932e-07 -4.17177e-07 )  
( 6.79845e-06 9.47282e-07 -1.33807e-06 )  
( 9.51568e-06 3.97352e-06 1.3513e-06 )  
( 6.42626e-06 1.49555e-06 -7.22806e-07 )  
( 7.806e-06 -2.55577e-06 -1.19152e-06 )  
( 5.74181e-06 2.0693e-06 2.64778e-07 )  
( 6.36413e-06 2.96312e-07 -3.90328e-07 )  
( 1.0894e-05 3.11214e-06 -5.93146e-07 )  
( 5.77796e-06 1.54119e-06 8.66562e-07 )  
( 3.19638e-06 6.73049e-07 -1.24874e-06 )  
( 9.42495e-06 1.42527e-06 -5.09715e-07 )  
( 7.29279e-06 9.73181e-07 4.54661e-07 )  
( 1.11116e-05 3.34192e-06 -8.30444e-07 )  
( 9.74388e-06 4.40952e-06 -4.39581e-07 )  
( 1.36755e-05 5.94847e-06 -1.42797e-08 )  
( 1.0881e-05 2.2257e-06 -1.61617e-06 )  
( 1.20466e-05 1.41004e-06 -1.08193e-06 )  
( 1.00416e-05 3.25658e-06 -1.74284e-06 )  
( 9.59189e-06 3.02168e-06 -1.98588e-06 )  
( 9.60407e-06 2.54443e-07 -7.54554e-07 )  
( 1.06265e-05 1.69194e-06 -2.01996e-06 )  
( 1.43863e-05 1.222e-06 1.68425e-07 )  
( 1.12866e-05 4.96241e-06 -1.81314e-06 )  
( 1.21155e-05 3.62088e-06 -4.73466e-07 )  
( 1.06134e-05 5.43962e-06 -3.48062e-07 )  
( 1.22591e-05 5.74185e-06 -2.58721e-06 )  
( 1.9322e-05 4.84781e-06 -9.61177e-07 )  
( 1.48731e-05 6.84042e-06 -3.53611e-06 )  
( 1.56951e-05 2.31575e-06 -1.72678e-06 )  
( 1.19252e-05 8.42041e-07 -2.79141e-06 )  
( 1.34809e-05 4.77781e-06 -2.87413e-06 )  
( 1.66767e-05 3.98827e-06 4.56855e-07 )  
( 1.27865e-05 1.53812e-06 -1.23839e-06 )  
( 1.31474e-05 1.8949e-06 -1.54084e-06 )  
( 1.23581e-05 3.14565e-06 7.79496e-07 )  
( 1.186e-05 2.37017e-06 -8.63296e-07 )  
( 1.44944e-05 3.29459e-06 -2.17333e-06 )  
( 1.45724e-05 4.621e-06 -1.8173e-06 )  
( 1.55411e-05 6.15921e-06 -7.12037e-07 )  
( 1.9385e-05 5.51501e-06 -1.27115e-06 )  
( 1.68306e-05 6.13647e-06 1.36259e-06 )  
( 1.58951e-05 3.42813e-06 -2.27059e-06 )  
( 1.48137e-05 5.3885e-06 -2.20787e-06 )  
( 2.3607e-05 4.75391e-06 -1.84286e-06 )  
( 2.25824e-05 4.67751e-06 -1.11656e-06 )  
( 5.56143e-06 3.86283e-06 -5.62414e-07 )  
( 1.75014e-05 7.09499e-06 -3.12871e-06 )  
( 1.56604e-05 3.23593e-06 -5.37403e-07 )  
( 1.34163e-05 7.23877e-06 -2.02221e-06 )  
( 2.31993e-05 1.08109e-06 -3.63071e-06 )  
( 1.62448e-05 6.44569e-06 -3.56814e-07 )  
( 1.86781e-05 3.51254e-06 -3.5077e-06 )  
( 1.71325e-05 8.10135e-06 -1.36649e-07 )  
( 1.79921e-05 2.43094e-06 -2.93806e-06 )  
( 1.69861e-05 5.41249e-06 -1.66703e-06 )  
( 1.93906e-05 3.24974e-06 -1.5184e-06 )  
( 1.08156e-05 2.36926e-06 -1.63259e-06 )  
( 1.98511e-05 6.6149e-06 -2.39107e-06 )  
( 2.20609e-05 6.55391e-06 -5.58565e-06 )  
( 2.06132e-05 6.11224e-06 -7.65872e-07 )  
( 1.69143e-05 6.39575e-06 -2.81044e-06 )  
( 2.01181e-05 6.58309e-06 -1.57696e-06 )  
( 2.21244e-05 2.27345e-06 -1.74918e-06 )  
( 1.81666e-05 7.13139e-06 -6.53955e-07 )  
( 2.24652e-05 4.54161e-06 -2.49191e-06 )  
( 2.21851e-05 4.6674e-06 2.51319e-06 )  
( 1.78924e-05 4.87422e-06 8.12579e-07 )  
( 1.92224e-05 8.48365e-06 3.91197e-07 )  
( 2.28587e-05 7.27641e-06 -1.05047e-06 )  
( 1.91348e-05 6.71508e-06 -1.11087e-06 )  
( 2.13146e-05 7.02851e-06 1.56025e-06 )  
( 2.19415e-05 7.9237e-06 -4.94337e-06 )  
( 1.62883e-05 7.47034e-06 -4.82342e-06 )  
( 2.44394e-05 1.33372e-06 -2.73069e-06 )  
( 1.4457e-05 5.89439e-06 -3.32386e-06 )  
( 2.58611e-05 6.45993e-06 -1.92024e-06 )  
( 2.37664e-05 2.77897e-06 -3.79184e-06 )  
( 1.99279e-05 7.95742e-06 -2.23417e-06 )  
( 1.59347e-05 5.1494e-06 1.26538e-06 )  
( 2.2123e-05 7.84851e-06 -2.17793e-06 )  
( 2.08081e-05 6.64437e-06 -5.12494e-06 )  
( 2.56009e-05 8.46783e-06 -4.04409e-07 )  
( 2.67358e-05 7.41259e-06 -3.20135e-06 )  
( 2.44972e-05 6.21204e-06 -2.6258e-06 )  
( 2.09339e-05 4.57612e-06 -3.00751e-07 )  
( 2.29134e-05 6.84883e-06 -2.09764e-06 )  
( 2.39993e-05 9.30213e-06 -1.97416e-06 )  
( 1.68807e-05 1.33263e-05 -7.63674e-06 )  
( 2.74825e-05 4.90533e-06 -2.00531e-06 )  
( 2.79889e-05 8.67968e-06 -3.03229e-06 )  
( 2.5207e-05 8.53056e-06 -4.96965e-07 )  
( 2.6095e-05 8.03192e-06 1.62818e-06 )  
( 2.1071e-05 8.1268e-06 -1.07841e-06 )  
( 2.52229e-05 9.87981e-06 -5.95474e-07 )  
( 2.64755e-05 1.03038e-05 -1.61432e-06 )  
( 3.13766e-05 1.51691e-05 -4.01498e-06 )  
( 2.42658e-05 2.16325e-06 8.97313e-07 )  
( 2.61967e-05 6.02619e-06 -1.92769e-06 )  
( 2.82771e-05 8.19287e-06 1.57451e-06 )  
( 2.66465e-05 6.52686e-06 -3.21377e-06 )  
( 3.09713e-05 4.33995e-06 -1.55982e-06 )  
( 3.0409e-05 1.02137e-05 -7.00828e-06 )  
( 2.69436e-05 8.81543e-06 3.10034e-07 )  
( 3.38387e-05 1.06074e-05 -4.17137e-06 )  
( 2.50047e-05 8.52071e-06 -1.01251e-06 )  
( 3.2437e-05 4.45965e-06 -2.90179e-06 )  
( 2.9802e-05 6.78877e-06 -1.38024e-07 )  
( 2.90736e-05 8.74381e-06 -1.01354e-06 )  
( 2.69384e-05 7.34054e-06 1.58864e-07 )  
( 2.47477e-05 7.05109e-06 -2.20361e-06 )  
( 3.13525e-05 7.22584e-06 -4.57174e-06 )  
( 2.6791e-05 9.75875e-06 -4.0533e-07 )  
( 3.38974e-05 1.01857e-05 -1.07206e-06 )  
( 2.68788e-05 9.11355e-06 -4.03617e-06 )  
( 2.96917e-05 1.10859e-05 1.40846e-06 )  
( 3.00064e-05 9.36872e-06 -1.6963e-06 )  
( 3.56026e-05 5.95362e-06 9.15866e-07 )  
( 3.16058e-05 9.09472e-06 -9.35805e-08 )  
( 3.59274e-05 9.55229e-06 -3.43243e-06 )  
( 3.72945e-05 1.44098e-05 -4.36951e-06 )  
( 3.35289e-05 4.79778e-06 -7.55979e-07 )  
( 2.51468e-05 6.56193e-06 -9.42875e-07 )  
( 2.98316e-05 1.01156e-05 -2.73163e-06 )  
( 3.09772e-05 9.00713e-06 -2.52462e-06 )  
( 2.8897e-05 7.64596e-06 3.93433e-06 )  
( 3.04947e-05 5.23906e-06 -1.0788e-06 )  
( 3.21451e-05 9.86273e-06 8.16011e-07 )  
( 3.42389e-05 1.10425e-05 2.59826e-06 )  
( 3.49787e-05 9.07051e-06 -1.53213e-06 )  
( 3.2702e-05 1.01754e-05 -1.27131e-06 )  
( 3.62661e-05 9.39275e-06 5.09005e-07 )  
( 3.62219e-05 1.57e-05 -3.91104e-06 )  
( 3.02495e-05 9.87136e-06 -7.21698e-07 )  
( 3.51524e-05 9.63975e-06 2.41356e-06 )  
( 3.18634e-05 1.11842e-05 -4.02116e-06 )  
( 3.40251e-05 1.32263e-05 -4.89759e-06 )  
( 2.95068e-05 8.27593e-06 -2.01078e-06 )  
( 3.51913e-05 6.66043e-06 -3.44748e-07 )  
( 4.22117e-05 1.72253e-05 -9.56749e-07 )  
( 4.06804e-05 9.35365e-06 -2.37795e-06 )  
( 4.03224e-05 9.30178e-06 1.01256e-06 )  
( 4.10451e-05 6.93923e-06 -2.62671e-06 )  
( 2.74673e-05 1.17555e-05 -4.13766e-06 )  
( 4.17435e-05 1.57931e-05 -2.77519e-06 )  
( 4.8841e-05 1.48412e-05 -2.72761e-06 )  
( 4.12771e-05 1.26844e-05 -3.41364e-06 )  
( 3.6901e-05 1.36094e-05 1.18929e-07 )  
( 4.27402e-05 7.31484e-06 -2.63229e-06 )  
( 3.63867e-05 1.32005e-05 -5.26799e-06 )  
( 3.44316e-05 1.05533e-05 -8.37293e-07 )  
( 3.4432e-05 1.37512e-05 -2.44812e-06 )  
( 3.60503e-05 1.09564e-05 -1.41988e-06 )  
( 3.76224e-05 1.2373e-05 -4.40856e-06 )  
( 3.49012e-05 1.10675e-05 -4.92549e-07 )  
( 3.88909e-05 1.31223e-05 -2.73587e-06 )  
( 3.9973e-05 1.31043e-05 -2.0403e-06 )  
( 3.89051e-05 1.71073e-05 -4.50425e-06 )  
( 3.6545e-05 9.63471e-06 -5.16363e-07 )  
( 4.08136e-05 1.21043e-05 -3.35885e-06 )  
( 3.10434e-05 1.12527e-05 -1.09438e-07 )  
( 4.19851e-05 1.46351e-05 4.69741e-06 )  
( 4.54707e-05 1.40674e-05 -2.95286e-06 )  
( 4.17543e-05 1.40659e-05 -3.04476e-06 )  
( 4.21727e-05 1.50246e-05 -1.86811e-06 )  
( 3.42394e-05 8.56373e-06 -1.95433e-06 )  
( 4.91084e-05 7.13236e-06 -2.37925e-06 )  
( 4.43776e-05 1.3083e-05 9.93113e-07 )  
( 4.46056e-05 1.05465e-05 -1.4237e-07 )  
( 4.33561e-05 1.25926e-05 -6.90865e-06 )  
( 3.60361e-05 1.16187e-05 -1.26547e-06 )  
( 3.93803e-05 1.43372e-05 -3.19628e-06 )  
( 5.03916e-05 1.39559e-05 -1.99845e-06 )  
( 5.00111e-05 1.48478e-05 -2.05187e-06 )  
( 4.32904e-05 1.75489e-05 -5.14022e-07 )  
( 4.72293e-05 1.20799e-05 -5.15468e-06 )  
( 5.01851e-05 1.66595e-05 -9.01246e-06 )  
( 3.96125e-05 1.54553e-05 -3.22385e-06 )  
( 4.26762e-05 1.11913e-05 9.00014e-07 )  
( 3.86794e-05 1.17777e-05 2.19803e-06 )  
( 4.30524e-05 1.23802e-05 -7.99327e-07 )  
( 3.53029e-05 1.82509e-05 -1.31389e-06 )  
( 4.60725e-05 1.18625e-05 1.04188e-06 )  
( 4.71611e-05 1.46657e-05 -1.12392e-06 )  
( 4.87972e-05 1.74939e-05 -3.68811e-06 )  
( 4.35547e-05 1.36183e-05 -2.24149e-06 )  
( 4.51762e-05 9.61231e-06 -2.07041e-07 )  
( 5.32841e-05 1.85435e-05 -5.35487e-06 )  
( 5.22066e-05 1.70926e-05 -2.27207e-06 )  
( 4.67845e-05 1.34561e-05 -4.03674e-06 )  
( 4.72355e-05 1.78788e-05 -8.34095e-06 )  
( 5.19761e-05 1.4984e-05 -4.78107e-06 )  
( 4.57257e-05 1.39501e-05 -1.21951e-06 )  
( 5.03683e-05 1.07724e-05 -5.67493e-06 )  
( 5.43302e-05 1.52391e-05 -1.73461e-06 )  
( 4.83202e-05 1.80371e-05 -2.2786e-06 )  
( 5.03083e-05 1.46092e-05 -3.14508e-06 )  
( 4.56276e-05 1.43597e-05 -2.3588e-06 )  
( 4.65237e-05 1.65584e-05 -3.16056e-06 )  
( 5.27056e-05 1.45183e-05 -3.88391e-06 )  
( 4.97365e-05 1.62996e-05 -2.2647e-06 )  
( 5.16123e-05 1.66018e-05 1.98014e-07 )  
( 5.52354e-05 1.33341e-05 -5.54721e-06 )  
( 5.0839e-05 1.74486e-05 1.10544e-06 )  
( 5.49758e-05 1.68631e-05 -5.16611e-06 )  
( 4.78605e-05 1.46309e-05 -1.28241e-06 )  
( 5.57441e-05 1.59854e-05 -2.63994e-06 )  
( 5.13116e-05 1.69185e-05 -2.64313e-06 )  
( 4.97519e-05 1.35556e-05 -3.87812e-06 )  
( 5.51791e-05 1.57256e-05 -2.69261e-06 )  
( 4.73606e-05 1.76944e-05 -2.73887e-06 )  
( 4.88029e-05 1.51834e-05 -1.21259e-06 )  
( 4.79853e-05 1.77996e-05 -6.67608e-06 )  
( 5.51539e-05 1.94582e-05 -5.95975e-06 )  
( 5.32317e-05 1.13888e-05 -1.36529e-06 )  
( 4.72048e-05 1.37929e-05 -1.63497e-06 )  
( 5.72023e-05 1.11576e-05 -4.73049e-06 )  
( 4.73409e-05 1.56378e-05 -3.93093e-06 )  
( 6.5529e-05 1.197e-05 -4.09015e-07 )  
( 5.07527e-05 1.7322e-05 -8.0434e-06 )  
( 5.30204e-05 2.11866e-05 -1.8036e-06 )  
( 4.97521e-05 1.67081e-05 -3.2194e-06 )  
( 6.3912e-05 2.46265e-05 -5.01608e-06 )  
( 5.95109e-05 1.9372e-05 -3.2152e-06 )  
( 5.37912e-05 1.60986e-05 -6.06594e-06 )  
( 4.85612e-05 1.51881e-05 -1.15254e-07 )  
( 5.43606e-05 1.7774e-05 -2.87488e-06 )  
( 4.85374e-05 1.84695e-05 -4.8943e-06 )  
( 5.705e-05 1.76688e-05 -2.17426e-07 )  
( 5.2648e-05 2.01837e-05 -4.28233e-06 )  
( 5.44264e-05 1.93909e-05 1.73234e-06 )  
( 5.81519e-05 2.21939e-05 -2.14586e-06 )  
( 5.40123e-05 1.80313e-05 -1.42801e-07 )  
( 5.25114e-05 1.87688e-05 -5.8985e-06 )  
( 6.00162e-05 1.94375e-05 9.66358e-07 )  
( 5.77677e-05 1.9231e-05 1.22625e-06 )  
( 5.14476e-05 1.9345e-05 -6.11392e-06 )  
( 5.76079e-05 1.63413e-05 -3.34191e-06 )  
( 5.67606e-05 2.52159e-05 -6.74379e-06 )  
( 5.71466e-05 1.63242e-05 -6.15266e-07 )  
( 6.30717e-05 1.97799e-05 -1.07997e-06 )  
( 5.85497e-05 2.13271e-05 -4.321e-06 )  
( 5.64773e-05 1.67853e-05 1.44292e-06 )  
( 5.92742e-05 2.18667e-05 -4.13884e-06 )  
( 6.14186e-05 2.32282e-05 -3.76589e-06 )  
( 6.13788e-05 1.76272e-05 -7.03568e-06 )  
( 6.06841e-05 2.13109e-05 -2.71834e-06 )  
( 6.2732e-05 1.96809e-05 1.12702e-06 )  
( 5.88642e-05 1.48568e-05 1.1196e-06 )  
( 5.67757e-05 1.83145e-05 7.113e-07 )  
( 6.11743e-05 1.68933e-05 -1.17869e-06 )  
( 6.68178e-05 2.71531e-05 -6.75378e-06 )  
( 5.92598e-05 2.16103e-05 -3.8645e-06 )  
( 5.63113e-05 1.76055e-05 -6.77967e-07 )  
( 6.10292e-05 1.99301e-05 -5.42216e-06 )  
( 6.25552e-05 1.94881e-05 -2.85403e-06 )  
( 5.93791e-05 1.59849e-05 1.38785e-05 )  
( 6.15685e-05 1.82747e-05 3.58349e-06 )  
( 6.06043e-05 1.91818e-05 -1.50895e-06 )  
( 6.84251e-05 3.47755e-05 -2.0502e-05 )  
( 5.85583e-05 2.50012e-05 -4.78196e-06 )  
( 5.89834e-05 1.88542e-05 1.15908e-06 )  
( 5.58943e-05 1.64446e-05 -6.19742e-06 )  
( 7.01747e-05 2.60007e-05 -4.46797e-06 )  
( 6.3661e-05 1.95858e-05 -7.05067e-06 )  
( 6.13625e-05 2.44106e-05 -8.40762e-06 )  
( 6.51416e-05 2.62209e-05 1.84215e-06 )  
( 6.33628e-05 2.68244e-05 1.10958e-06 )  
( 6.67786e-05 1.70283e-05 -5.65922e-07 )  
( 6.25747e-05 2.43421e-05 -2.53887e-06 )  
( 6.35348e-05 1.87154e-05 -3.54452e-06 )  
( 5.98956e-05 1.80628e-05 -3.80024e-06 )  
( 6.89703e-05 2.87914e-05 -1.64031e-05 )  
( 6.50468e-05 2.01952e-05 -1.81836e-06 )  
( 6.48651e-05 2.52918e-05 3.50848e-06 )  
( 5.73947e-05 2.17679e-05 -3.48705e-06 )  
( 6.27674e-05 2.18592e-05 -2.99315e-06 )  
( 5.25591e-05 2.25851e-05 3.90966e-06 )  
( 6.16114e-05 1.81214e-05 1.80752e-06 )  
( 6.3276e-05 1.83704e-05 1.52986e-06 )  
( 6.30619e-05 1.64767e-05 -2.08479e-07 )  
( 6.34091e-05 3.21105e-05 -3.04583e-07 )  
( 6.04625e-05 1.98426e-05 -5.98205e-06 )  
( 6.46286e-05 1.88016e-05 -1.26068e-06 )  
( 6.12909e-05 1.87862e-05 -2.86276e-06 )  
( 8.43794e-05 2.2151e-05 -2.60739e-06 )  
( 6.0102e-05 3.96653e-05 1.28263e-06 )  
( 6.52375e-05 1.76086e-05 -5.95127e-06 )  
( 6.26512e-05 1.93185e-05 -3.13105e-06 )  
( 6.07094e-05 2.29552e-05 -1.22698e-05 )  
( 6.21447e-05 1.73821e-05 -1.32519e-06 )  
( 6.3398e-05 2.54124e-05 4.53681e-07 )  
( 6.79836e-05 2.51712e-05 -5.05779e-06 )  
( 5.74004e-05 2.03673e-05 6.26547e-07 )  
( 7.07341e-05 2.03305e-05 -4.49962e-06 )  
( 5.1649e-05 2.06372e-05 -5.3898e-06 )  
( 7.38269e-05 1.21851e-05 -4.9134e-06 )  
( 8.25749e-05 3.55547e-05 2.45308e-06 )  
( 6.68311e-05 2.04784e-05 1.90741e-07 )  
( 6.53946e-05 1.31283e-05 6.07214e-06 )  
( 6.53987e-05 1.21348e-05 -1.51825e-05 )  
( 3.93398e-05 3.14532e-05 -3.93534e-06 )  
( 8.60893e-05 5.52125e-06 -5.27206e-06 )  
( 6.42102e-05 1.93164e-05 1.53518e-06 )  
( 5.71955e-05 2.25609e-05 -5.46942e-06 )  
( 4.98977e-05 1.92046e-05 5.648e-06 )  
( 6.67472e-05 2.15419e-05 -3.2036e-06 )  
( 5.59958e-05 2.22438e-05 -1.01652e-05 )  
( 6.26147e-05 2.15654e-05 -7.54761e-06 )  
( 7.68342e-05 8.19131e-06 -1.93927e-05 )  
( 6.00938e-05 2.09995e-05 1.0214e-05 )  
( 9.26133e-05 6.71382e-05 -1.78066e-05 )  
( 6.47973e-05 1.46871e-05 -1.54523e-07 )  
( 7.21339e-05 2.44081e-05 1.56796e-06 )  
( 7.0861e-05 -7.12627e-06 -2.97906e-05 )  
( 4.47335e-05 1.99385e-05 9.19962e-06 )  
( 6.18011e-05 1.88352e-05 -8.96452e-06 )  
( 6.51521e-05 1.65896e-05 -5.10338e-06 )  
( 0.000919191 0.000939305 -0.000610649 )  
( 9.36215e-05 1.44872e-05 -1.44336e-05 )  
( 7.73992e-05 1.80352e-05 -3.30997e-06 )  
( 7.93659e-05 2.38098e-05 -6.2522e-06 )  
( 7.36707e-05 1.98662e-05 -7.37011e-06 )  
( 6.62224e-05 2.93644e-05 -6.36062e-07 )  
( 6.4937e-05 1.80645e-05 -5.39451e-06 )  
( 1.71531e-05 2.81953e-05 -1.50129e-05 )  
( 6.42939e-05 2.49027e-05 3.55905e-06 )  
( 8.24467e-05 1.5562e-05 -1.47246e-06 )  
( 0.000266121 2.38318e-05 -4.31328e-05 )  
( 3.41997e-05 3.19543e-05 1.4948e-05 )  
( 6.6378e-05 2.54528e-05 -1.05124e-05 )  
( 6.22173e-05 2.72595e-05 1.60591e-06 )  
( 6.4301e-05 6.209e-05 -1.46148e-05 )  
( 6.52321e-05 2.00926e-05 -2.86931e-06 )  
( 4.87118e-05 4.01342e-05 -5.3737e-06 )  
( 6.66589e-05 2.18225e-05 -2.13557e-06 )  
( 7.67786e-05 -0.000130876 -1.04254e-05 )  
( -0.00118503 -0.00042767 -0.000812801 )  
( 0.000229733 -0.000161595 0.000324677 )  
)
