FoamFile
{version 2.0; format ascii;class Cloud<passiveParticle>; location 0;object  positions;}
42
(
( -0.000477732 4.20229e-05 9.98645e-05 ) 0 
( -0.000332562 0.000179475 9.98475e-05 ) 0 
( -0.000323905 0.000425882 9.98222e-05 ) 0 
( -0.000494888 0.000322232 9.97873e-05 ) 0 
( -0.000102328 9.36864e-05 9.98797e-05 ) 0 
( -0.000170208 0.000296572 9.99015e-05 ) 0 
( -0.000485722 0.000184607 0.00024435 ) 0 
( -0.000324806 0.000302584 0.000257052 ) 0 
( -0.000218699 0.0001331 0.000257519 ) 0 
( -0.000174137 0.000433473 0.000246042 ) 0 
( -6.89607e-05 0.00026506 0.000269346 ) 0 
( -0.000380745 1.697e-05 0.000272836 ) 0 
( -7.40466e-07 0.000432143 0.000355312 ) 0 
( -0.000353011 0.000167431 0.00040154 ) 0 
( -8.19126e-05 0.000114585 0.000402134 ) 0 
( -0.000409946 1.76832e-05 0.000520976 ) 0 
( -0.000363368 0.000415944 0.000417045 ) 0 
( -0.00020204 0.000297847 0.00041476 ) 0 
( -0.000148869 2.26408e-05 0.000580355 ) 0 
( -0.000145458 0.000222308 0.000591012 ) 0 
( -0.000403536 0.000280446 0.000558486 ) 0 
( -0.000225878 0.000407179 0.000580331 ) 0 
( -2.14403e-05 0.000289224 0.00073287 ) 0 
( -0.000305832 0.000118712 0.0006585 ) 0 
( -0.000496738 0.000340578 0.000724775 ) 0 
( -0.00015669 0.000460997 0.000759944 ) 0 
( -0.000321094 3.89601e-06 0.000821488 ) 0 
( -0.00035163 0.000478038 0.000718635 ) 0 
( -0.000269692 0.000297039 0.000741285 ) 0 
( -0.000441783 0.000162922 0.000798279 ) 0 
( -0.0001127 0.000112718 0.000755111 ) 0 
( -0.000330849 0.000265752 0.000929089 ) 0 
( -0.000139715 0.000312043 0.000892495 ) 0 
( -0.000190017 0.000124128 0.000939142 ) 0 
( -0.000422942 0.000441145 0.000901713 ) 0 
( -0.000352907 8.4629e-05 0.00104817 ) 0 
( -0.000242744 0.000454928 0.000987205 ) 0 
( -1.38347e-05 0.000207666 0.00108331 ) 0 
( -0.000187129 0.000129422 0.00115063 ) 0 
( -0.000407644 0.000452444 0.00110078 ) 0 
( -0.000169859 0.000326589 0.00112212 ) 0 
( -0.000358498 0.000262488 0.00113938 ) 0 
)
