FoamFile
{version 2.0; format ascii;class vectorField; location 0;object  v;}
42
(
( -3.39276e-05 -3.82863e-06 6.81355e-06 )  
( -4.70937e-06 1.24716e-05 -7.08384e-06 )  
( 4.00615e-06 1.55114e-05 -7.90706e-06 )  
( 1.57311e-05 1.90144e-05 6.11378e-06 )  
( -3.4155e-06 1.74967e-05 -9.30986e-06 )  
( -3.34769e-05 6.62276e-06 -5.58087e-06 )  
( 1.86271e-05 7.95087e-05 2.29687e-05 )  
( 7.39347e-06 8.34633e-06 -1.95266e-05 )  
( 8.43652e-07 6.51944e-06 -2.06779e-05 )  
( -1.03003e-05 2.21183e-05 2.39792e-06 )  
( -9.43815e-06 1.45278e-05 -2.19771e-05 )  
( -2.39815e-05 1.30539e-05 -2.34535e-06 )  
( -8.78944e-05 2.81993e-05 2.295e-05 )  
( 3.07686e-06 1.87585e-05 -3.33438e-05 )  
( -3.04582e-05 3.26418e-05 1.64384e-05 )  
( -1.28368e-05 1.99849e-05 -7.8879e-05 )  
( 3.12845e-05 -1.23853e-06 -5.03444e-05 )  
( 3.04672e-05 1.57637e-05 -2.9212e-05 )  
( 2.28457e-05 -2.88882e-06 -9.47989e-05 )  
( 5.71318e-06 -6.0941e-05 -1.76453e-05 )  
( 1.22205e-05 9.46497e-06 -2.20054e-05 )  
( -4.12886e-05 -2.68456e-05 -8.47317e-05 )  
( -3.12937e-05 -8.63252e-05 3.59434e-05 )  
( -1.09549e-06 -2.15419e-05 -9.47525e-05 )  
( 3.97202e-06 -2.00516e-05 -1.67383e-05 )  
( -9.42033e-05 -6.6452e-05 -0.000113304 )  
( -1.43711e-05 -0.000101634 -0.000134572 )  
( -4.05799e-05 -5.95376e-05 -0.000103234 )  
( -5.15825e-05 -5.45836e-05 -0.000104205 )  
( 6.16128e-06 -5.01438e-05 -0.000113279 )  
( -6.52232e-05 -0.000101348 -5.85851e-05 )  
( -3.61631e-05 -0.000107069 -0.000159984 )  
( -7.9538e-05 9.58518e-05 -7.78115e-05 )  
( -6.30238e-05 -3.82715e-05 -0.000124903 )  
( 5.15996e-05 -8.11602e-05 -7.98861e-05 )  
( 2.09621e-06 3.95799e-05 -5.81072e-05 )  
( 4.46257e-05 -3.5904e-05 -5.34807e-05 )  
( 2.61294e-05 6.59055e-05 -0.00013182 )  
( 8.4383e-06 -3.28574e-07 0.000143611 )  
( -5.817e-06 4.26765e-05 -0.000163466 )  
( 9.9331e-05 3.06822e-05 8.58257e-05 )  
( 5.37166e-05 0.000100462 6.5862e-05 )  
)
