/*--------------------------------*- C++ -*----------------------------------*\
| =========                 |                                                 |
| \\      /  F ield         | OpenFOAM: The Open Source CFD Toolbox           |
|  \\    /   O peration     | Version:  5.x                                   |
|   \\  /    A nd           | Web:      www.OpenFOAM.org                      |
|    \\/     M anipulation  |                                                 |
\*---------------------------------------------------------------------------*/
FoamFile
{
    version     2.0;
    format      ascii;
    class       volScalarField;
    location    "30000";
    object      p;
}
// * * * * * * * * * * * * * * * * * * * * * * * * * * * * * * * * * * * * * //

dimensions      [0 2 -2 0 0 0 0];

internalField   nonuniform List<scalar> 
2250
(
1.66305e-09
1.74388e-09
1.81524e-09
1.87232e-09
1.89938e-09
1.81412e-09
1.81501e-09
1.82573e-09
1.83523e-09
1.83559e-09
1.93701e-09
1.88383e-09
1.84401e-09
1.81448e-09
1.79684e-09
2.03296e-09
1.93702e-09
1.85994e-09
1.80505e-09
1.77807e-09
2.08217e-09
1.96096e-09
1.86657e-09
1.80269e-09
1.77443e-09
5.08252e-09
5.32655e-09
5.47802e-09
5.57595e-09
5.61167e-09
5.53332e-09
5.51855e-09
5.49929e-09
5.48405e-09
5.46665e-09
5.8513e-09
5.67637e-09
5.53543e-09
5.43604e-09
5.38608e-09
6.07519e-09
5.79056e-09
5.56796e-09
5.41862e-09
5.35434e-09
6.17675e-09
5.83477e-09
5.58156e-09
5.42086e-09
5.35937e-09
8.79381e-09
9.05345e-09
9.17856e-09
9.22425e-09
9.22598e-09
9.37905e-09
9.31345e-09
9.21468e-09
9.13519e-09
9.09445e-09
9.77832e-09
9.49253e-09
9.25078e-09
9.08721e-09
9.02109e-09
1.00223e-08
9.6051e-09
9.28121e-09
9.07613e-09
9.00329e-09
1.01083e-08
9.6391e-09
9.29783e-09
9.09408e-09
9.03223e-09
1.30222e-08
1.30452e-08
1.29979e-08
1.29321e-08
1.28957e-08
1.34085e-08
1.32334e-08
1.30383e-08
1.28935e-08
1.28411e-08
1.36869e-08
1.33477e-08
1.30542e-08
1.28626e-08
1.2803e-08
1.38292e-08
1.34006e-08
1.30647e-08
1.28625e-08
1.28098e-08
1.38507e-08
1.34078e-08
1.30823e-08
1.28991e-08
1.28651e-08
1.77169e-08
1.73486e-08
1.7073e-08
1.68859e-08
1.6812e-08
1.76395e-08
1.73362e-08
1.70681e-08
1.68829e-08
1.68275e-08
1.76234e-08
1.73078e-08
1.70337e-08
1.68596e-08
1.68231e-08
1.7576e-08
1.72635e-08
1.70089e-08
1.68638e-08
1.68504e-08
1.75148e-08
1.72411e-08
1.70255e-08
1.69144e-08
1.69258e-08
2.24274e-08
2.18744e-08
2.1448e-08
2.11703e-08
2.10555e-08
2.19938e-08
2.1641e-08
2.13555e-08
2.11611e-08
2.11044e-08
2.16745e-08
2.14541e-08
2.12566e-08
2.11326e-08
2.11227e-08
2.14406e-08
2.13166e-08
2.11958e-08
2.11344e-08
2.11608e-08
2.1318e-08
2.12743e-08
2.12093e-08
2.11883e-08
2.12407e-08
2.68609e-08
2.64204e-08
2.60089e-08
2.57084e-08
2.55678e-08
2.63555e-08
2.60865e-08
2.58517e-08
2.56818e-08
2.56279e-08
2.59016e-08
2.58141e-08
2.5717e-08
2.56548e-08
2.56643e-08
2.55821e-08
2.56325e-08
2.56393e-08
2.56547e-08
2.57048e-08
2.54476e-08
2.55841e-08
2.5645e-08
2.56978e-08
2.5771e-08
3.10032e-08
3.08368e-08
3.05752e-08
3.03402e-08
3.02186e-08
3.06651e-08
3.05614e-08
3.04321e-08
3.03245e-08
3.02879e-08
3.02847e-08
3.03201e-08
3.0321e-08
3.03222e-08
3.03453e-08
3.00102e-08
3.01608e-08
3.02556e-08
3.03287e-08
3.03881e-08
2.99058e-08
3.01149e-08
3.02514e-08
3.03548e-08
3.04314e-08
3.49744e-08
3.50799e-08
3.50225e-08
3.49324e-08
3.48853e-08
3.48985e-08
3.49651e-08
3.49724e-08
3.49668e-08
3.49716e-08
3.47145e-08
3.48434e-08
3.4939e-08
3.50135e-08
3.50577e-08
3.45616e-08
3.47556e-08
3.49158e-08
3.50437e-08
3.51135e-08
3.44993e-08
3.47233e-08
3.49134e-08
3.50621e-08
3.51374e-08
3.89611e-08
3.92217e-08
3.93498e-08
3.94427e-08
3.95013e-08
3.90794e-08
3.92745e-08
3.94273e-08
3.95525e-08
3.96201e-08
3.90826e-08
3.92973e-08
3.94996e-08
3.96664e-08
3.9748e-08
3.90541e-08
3.93055e-08
3.95459e-08
3.97422e-08
3.98325e-08
3.90377e-08
3.93114e-08
3.95701e-08
3.97707e-08
3.98505e-08
4.29897e-08
4.33652e-08
4.36468e-08
4.39097e-08
4.40629e-08
4.32502e-08
4.35563e-08
4.38527e-08
4.41125e-08
4.42485e-08
4.33896e-08
4.37149e-08
4.40409e-08
4.43104e-08
4.44394e-08
4.34726e-08
4.38329e-08
4.41781e-08
4.44505e-08
4.45697e-08
4.35223e-08
4.39031e-08
4.425e-08
4.45064e-08
4.46052e-08
4.68926e-08
4.75347e-08
4.8002e-08
4.84044e-08
4.86217e-08
4.74234e-08
4.79052e-08
4.83564e-08
4.8737e-08
4.89331e-08
4.77379e-08
4.82168e-08
4.8678e-08
4.90438e-08
4.92202e-08
4.7957e-08
4.84581e-08
4.89198e-08
4.92652e-08
4.94224e-08
4.80952e-08
4.86022e-08
4.90477e-08
4.9366e-08
4.95069e-08
5.06638e-08
5.17508e-08
5.24745e-08
5.30046e-08
5.32722e-08
5.16454e-08
5.23996e-08
5.30381e-08
5.35318e-08
5.37809e-08
5.22347e-08
5.29168e-08
5.35307e-08
5.39895e-08
5.42155e-08
5.26377e-08
5.33013e-08
5.38938e-08
5.43205e-08
5.45321e-08
5.28734e-08
5.35173e-08
5.40823e-08
5.4488e-08
5.46951e-08
5.46546e-08
5.61302e-08
5.71275e-08
5.77898e-08
5.81138e-08
5.60461e-08
5.71078e-08
5.7968e-08
5.85889e-08
5.88978e-08
5.69434e-08
5.78815e-08
5.86854e-08
5.92617e-08
5.95549e-08
5.75632e-08
5.84371e-08
5.92015e-08
5.97499e-08
6.00401e-08
5.78998e-08
5.87274e-08
5.94642e-08
6.00074e-08
6.03005e-08
5.90541e-08
6.0764e-08
6.20192e-08
6.28355e-08
6.32398e-08
6.06971e-08
6.20788e-08
6.32017e-08
6.39936e-08
6.43928e-08
6.18797e-08
6.3146e-08
6.42077e-08
6.49662e-08
6.53621e-08
6.27302e-08
6.39056e-08
6.49255e-08
6.56705e-08
6.60685e-08
6.31685e-08
6.42837e-08
6.52872e-08
6.60376e-08
6.64372e-08
6.36593e-08
6.5639e-08
6.72063e-08
6.8252e-08
6.87923e-08
6.55426e-08
6.73402e-08
6.88163e-08
6.98677e-08
7.04123e-08
6.7027e-08
6.87463e-08
7.01847e-08
7.12286e-08
7.1775e-08
6.81202e-08
6.97505e-08
7.11628e-08
7.22042e-08
7.27474e-08
6.86653e-08
7.02441e-08
7.16532e-08
7.26975e-08
7.32348e-08
6.83325e-08
7.07746e-08
7.28039e-08
7.4224e-08
7.49813e-08
7.05517e-08
7.29487e-08
7.49484e-08
7.63968e-08
7.71561e-08
7.24093e-08
7.47696e-08
7.67661e-08
7.82248e-08
7.89789e-08
7.37789e-08
7.60798e-08
7.80683e-08
7.95228e-08
8.02648e-08
7.44583e-08
7.67317e-08
7.87182e-08
8.01659e-08
8.08924e-08
7.3016e-08
7.62317e-08
7.89773e-08
8.09715e-08
8.20395e-08
7.57623e-08
7.90243e-08
8.17975e-08
8.38169e-08
8.48692e-08
7.81452e-08
8.13986e-08
8.4183e-08
8.62058e-08
8.72406e-08
7.98857e-08
8.31164e-08
8.58932e-08
8.79023e-08
8.89185e-08
8.07588e-08
8.39876e-08
8.6751e-08
8.87436e-08
8.97371e-08
7.7523e-08
8.20506e-08
8.58957e-08
8.8707e-08
9.01997e-08
8.12451e-08
8.57623e-08
8.96194e-08
9.2413e-08
9.38555e-08
8.4449e-08
8.89294e-08
9.27674e-08
9.5536e-08
9.6948e-08
8.676e-08
9.12222e-08
9.50292e-08
9.77704e-08
9.91574e-08
8.79316e-08
9.2405e-08
9.61813e-08
9.88944e-08
1.00253e-07
8.19629e-08
8.83975e-08
9.37887e-08
9.7694e-08
9.9756e-08
8.72325e-08
9.3476e-08
9.87679e-08
1.02583e-07
1.04552e-07
9.16643e-08
9.77836e-08
1.02991e-07
1.06739e-07
1.08653e-07
9.48567e-08
1.00904e-07
1.06037e-07
1.0973e-07
1.11608e-07
9.64815e-08
1.02526e-07
1.07608e-07
1.11255e-07
1.13093e-07
8.68137e-08
9.5637e-08
1.03049e-07
1.08395e-07
1.11213e-07
9.41439e-08
1.02624e-07
1.09785e-07
1.14953e-07
1.17633e-07
1.00278e-07
1.0853e-07
1.1552e-07
1.20554e-07
1.23144e-07
1.04731e-07
1.12821e-07
1.19668e-07
1.24598e-07
1.27126e-07
1.06997e-07
1.15047e-07
1.21816e-07
1.26674e-07
1.29149e-07
9.23827e-08
1.04253e-07
1.14312e-07
1.21599e-07
1.25411e-07
1.02454e-07
1.1385e-07
1.23494e-07
1.30474e-07
1.34105e-07
1.10921e-07
1.21959e-07
1.31298e-07
1.38039e-07
1.41538e-07
1.1708e-07
1.27852e-07
1.36948e-07
1.43508e-07
1.46905e-07
1.20242e-07
1.30908e-07
1.39878e-07
1.46333e-07
1.49668e-07
9.88998e-08
1.14921e-07
1.28541e-07
1.38457e-07
1.43603e-07
1.12755e-07
1.28066e-07
1.41055e-07
1.5047e-07
1.55382e-07
1.24446e-07
1.39173e-07
1.51641e-07
1.60662e-07
1.65369e-07
1.3289e-07
1.47215e-07
1.59296e-07
1.68024e-07
1.72574e-07
1.3729e-07
1.51393e-07
1.63278e-07
1.71854e-07
1.76326e-07
1.06928e-07
1.28641e-07
1.47097e-07
1.60542e-07
1.67544e-07
1.25917e-07
1.4652e-07
1.64007e-07
1.76689e-07
1.83322e-07
1.41981e-07
1.61636e-07
1.78284e-07
1.90335e-07
1.96634e-07
1.53495e-07
1.72532e-07
1.8859e-07
2.00184e-07
2.06246e-07
1.59564e-07
1.78212e-07
1.93961e-07
2.05324e-07
2.11273e-07
1.17178e-07
1.46686e-07
1.71721e-07
1.89895e-07
1.99434e-07
1.43115e-07
1.70838e-07
1.94337e-07
2.11364e-07
2.20295e-07
1.65016e-07
1.91251e-07
2.13444e-07
2.29484e-07
2.37888e-07
1.80705e-07
2.05941e-07
2.27216e-07
2.4256e-07
2.50595e-07
1.88991e-07
2.13611e-07
2.34392e-07
2.49378e-07
2.57228e-07
1.30379e-07
1.70502e-07
2.04459e-07
2.29055e-07
2.42002e-07
1.65794e-07
2.03071e-07
2.34578e-07
2.5738e-07
2.69356e-07
1.95577e-07
2.30518e-07
2.59983e-07
2.81255e-07
2.92419e-07
2.16967e-07
2.50248e-07
2.78266e-07
2.98461e-07
3.09035e-07
2.28174e-07
2.60536e-07
2.87783e-07
3.07419e-07
3.17684e-07
1.47857e-07
2.02146e-07
2.48098e-07
2.81419e-07
2.98943e-07
1.96032e-07
2.45988e-07
2.8811e-07
3.18559e-07
3.34529e-07
2.36492e-07
2.82794e-07
3.2172e-07
3.49778e-07
3.64473e-07
2.65541e-07
3.09202e-07
3.45839e-07
3.7219e-07
3.85959e-07
2.80609e-07
3.22923e-07
3.58372e-07
3.83834e-07
3.97112e-07
1.71625e-07
2.44781e-07
3.06734e-07
3.51664e-07
3.75262e-07
2.37027e-07
3.03583e-07
3.59594e-07
3.99978e-07
4.21113e-07
2.91841e-07
3.52754e-07
4.03769e-07
4.40411e-07
4.59549e-07
3.3101e-07
3.87882e-07
4.35297e-07
4.69239e-07
4.86928e-07
3.51211e-07
4.06038e-07
4.51605e-07
4.84128e-07
5.01045e-07
2.04021e-07
3.02582e-07
3.85836e-07
4.46077e-07
4.77722e-07
2.93151e-07
3.81327e-07
4.55211e-07
5.08257e-07
5.36014e-07
3.6724e-07
4.46712e-07
5.12785e-07
5.59988e-07
5.84637e-07
4.19717e-07
4.93017e-07
5.53444e-07
5.96383e-07
6.18739e-07
4.46711e-07
5.16783e-07
5.74281e-07
6.14983e-07
6.36179e-07
2.48787e-07
3.8136e-07
4.92832e-07
5.73434e-07
6.15795e-07
3.70603e-07
4.8665e-07
5.83074e-07
6.51959e-07
6.88075e-07
4.70497e-07
5.73127e-07
6.57356e-07
7.17129e-07
7.48522e-07
5.40499e-07
6.33503e-07
7.08778e-07
7.61736e-07
7.89474e-07
5.76341e-07
6.64171e-07
7.3479e-07
7.84261e-07
8.10155e-07
3.12608e-07
4.90011e-07
6.38627e-07
7.46293e-07
8.0311e-07
4.79356e-07
6.30131e-07
7.53997e-07
8.41734e-07
8.88093e-07
6.13564e-07
7.43838e-07
8.48775e-07
9.22691e-07
9.62374e-07
7.06324e-07
8.21408e-07
9.11793e-07
9.7445e-07
1.00798e-06
7.53189e-07
8.60188e-07
9.43208e-07
1.00031e-06
1.03093e-06
4.07763e-07
6.42614e-07
8.40171e-07
9.83924e-07
1.06126e-06
6.36765e-07
8.26708e-07
9.81909e-07
1.08875e-06
1.14658e-06
8.15417e-07
9.7557e-07
1.10204e-06
1.19038e-06
1.24148e-06
9.36682e-07
1.07313e-06
1.17463e-06
1.24295e-06
1.28242e-06
9.9645e-07
1.12066e-06
1.21061e-06
1.27021e-06
1.30557e-06
5.60351e-07
8.63085e-07
1.12826e-06
1.32379e-06
1.43509e-06
8.77528e-07
1.09446e-06
1.28254e-06
1.39499e-06
1.46084e-06
1.10849e-06
1.291e-06
1.43769e-06
1.54051e-06
1.61516e-06
1.2639e-06
1.4107e-06
1.50903e-06
1.5697e-06
1.61574e-06
1.33761e-06
1.46637e-06
1.54745e-06
1.5959e-06
1.63772e-06
8.37214e-07
1.19601e-06
1.5717e-06
1.85029e-06
2.02624e-06
1.28919e-06
1.43754e-06
1.6696e-06
1.71687e-06
1.78367e-06
1.55877e-06
1.71566e-06
1.88958e-06
2.0139e-06
2.14884e-06
1.75465e-06
1.86221e-06
1.92034e-06
1.93588e-06
1.99136e-06
1.84272e-06
1.92328e-06
1.96101e-06
1.96528e-06
2.02568e-06
1.40831e-06
1.72596e-06
2.30031e-06
2.69286e-06
2.97206e-06
2.09749e-06
1.79297e-06
2.18049e-06
1.94041e-06
2.05564e-06
2.30596e-06
2.26481e-06
2.51089e-06
2.64787e-06
2.91421e-06
2.57389e-06
2.45437e-06
2.39614e-06
2.26581e-06
2.36175e-06
2.6824e-06
2.50629e-06
2.45563e-06
2.33737e-06
2.47018e-06
2.60782e-06
2.63561e-06
3.44419e-06
3.96317e-06
4.37741e-06
3.85918e-06
2.06171e-06
2.89194e-06
1.96557e-06
2.23062e-06
3.52954e-06
2.93243e-06
3.31792e-06
3.37e-06
3.95906e-06
4.05303e-06
3.21276e-06
2.90328e-06
2.40751e-06
2.75485e-06
4.18855e-06
3.16225e-06
3.06915e-06
2.58686e-06
2.93432e-06
4.91234e-06
4.1684e-06
4.92432e-06
5.70606e-06
6.29348e-06
7.94983e-06
2.34508e-06
3.65529e-06
1.63799e-06
1.97594e-06
5.20417e-06
3.51292e-06
4.09618e-06
3.83528e-06
5.40554e-06
6.50157e-06
4.22732e-06
3.24842e-06
2.04759e-06
3.3028e-06
6.60337e-06
3.7701e-06
3.89388e-06
2.38084e-06
3.33958e-06
3.13418e-07
2.28058e-06
5.45782e-06
6.35622e-06
8.20106e-06
2.16478e-06
-8.35602e-07
-7.81398e-07
-3.21997e-06
-2.64837e-06
2.7516e-07
1.22736e-06
2.50577e-06
1.98942e-06
4.70345e-06
4.09263e-06
2.80704e-06
3.78391e-07
-8.9724e-07
-6.11497e-07
5.42845e-06
3.86003e-06
3.56824e-06
1.04531e-06
3.38914e-06
3.69298e-05
2.73364e-05
1.76034e-05
2.4667e-05
2.26181e-05
6.61144e-05
9.16506e-06
2.42699e-05
9.25735e-06
1.32824e-05
2.36689e-05
1.25862e-05
1.3051e-05
9.71644e-06
2.11692e-05
3.34176e-05
2.29343e-05
1.43472e-05
6.87986e-06
2.16978e-05
3.37152e-05
1.19745e-05
1.78308e-05
2.68364e-07
5.60874e-06
-1.49949e-05
-5.2539e-06
7.60045e-06
-6.79212e-06
1.35233e-05
-3.71297e-05
-1.02618e-05
-3.3815e-05
-2.85853e-05
-2.66238e-05
-2.7427e-05
-1.76607e-05
-1.87328e-05
-2.04983e-05
-1.49284e-05
-1.68498e-05
-1.89696e-05
-2.67167e-05
-1.87111e-05
-3.01116e-05
1.78056e-05
8.97739e-06
-7.09154e-06
1.16285e-05
3.18821e-05
8.59068e-05
9.6599e-05
-5.3599e-05
4.01105e-05
-5.19733e-07
0.000365908
-5.04229e-05
3.75996e-05
-2.90132e-05
-1.15907e-05
-2.95388e-05
-1.7e-05
-4.04089e-05
-3.41763e-05
3.8758e-05
2.11433e-05
7.65656e-05
-3.66079e-05
-4.50132e-05
7.35087e-05
0.000111806
-1.54822e-05
2.97118e-05
-2.66346e-05
-5.96058e-05
0.000911252
0.00075278
0.000368293
0.00074496
0.000528046
0.000997816
0.000539897
0.000595308
0.000613256
0.000939802
0.000946583
0.000601958
0.000373261
0.000577815
0.000683294
0.00055151
0.000483394
0.000563533
0.000743557
0.000899801
0.000705859
0.000508821
0.000506864
0.000884982
0.00095049
0.000912779
0.00113421
0.00110043
0.00133238
0.00120538
0.00106524
0.00138002
0.00111217
0.00126776
0.00142166
0.00131059
0.00147328
0.0014697
0.00163108
0.00135309
0.00119472
0.00124814
0.00163685
0.00162926
0.00141671
0.00169884
0.00157316
0.0014662
0.0016339
0.0016156
0.00152788
0.00170084
0.00197081
0.00170083
0.00162313
0.00174147
0.00179565
0.00179808
0.00195227
0.00179202
0.00265006
0.00195321
0.00198552
0.00205609
0.00187452
0.00240226
0.00194776
0.00220181
0.00205735
0.00198096
0.00243538
0.00201531
0.00215795
0.00195042
0.00207772
0.00294837
0.00247554
0.0023655
0.00183283
0.0023114
0.00235654
0.00270317
0.00232266
0.00251843
0.00225887
0.00286
0.00235121
0.00213552
0.00230829
0.00218235
0.0026007
0.00239002
0.00233029
0.00251193
0.00233022
0.00290501
0.00245623
0.00223779
0.00236519
0.00238204
0.00311625
0.00301516
0.0031697
0.00230264
0.00301951
0.0027903
0.00347156
0.00319997
0.00337923
0.00331307
0.00328431
0.00297831
0.00321728
0.00297789
0.00308009
0.00304241
0.00291728
0.00264734
0.00294915
0.00208603
0.00346028
0.00304503
0.00281525
0.00290807
0.00206128
0.00384604
0.00361771
0.00376713
0.00366919
0.00434756
0.0038996
0.00365131
0.00380424
0.00396315
0.00432919
0.00383261
0.00354174
0.00393645
0.0038953
0.00414886
0.00357297
0.00346031
0.00359869
0.0037544
0.00436904
0.00342059
0.00347148
0.00356783
0.00363657
0.00357963
0.00457612
0.00436055
0.00434606
0.00469451
0.00448319
0.00417638
0.0041271
0.00439112
0.00427353
0.0042781
0.00377416
0.00411246
0.00473019
0.00425923
0.00441593
0.00420686
0.00438124
0.00435649
0.0046422
0.00440016
0.00334697
0.00440215
0.00435645
0.00392486
0.00425197
0.00470171
0.00487554
0.00479415
0.00484091
0.00454405
0.00449512
0.00499138
0.00492283
0.00491219
0.00431638
0.00424614
0.00515435
0.00491738
0.00515084
0.00459556
0.0049564
0.00500628
0.00482234
0.00489274
0.00461476
0.00465286
0.00532366
0.00501852
0.00516545
0.00407197
0.00506958
0.00565282
0.00568358
0.00487574
0.00617367
0.00553863
0.00553532
0.00547777
0.00536819
0.00553069
0.00577553
0.00572847
0.00524407
0.00531632
0.00533838
0.00564646
0.00573923
0.00538069
0.00512712
0.00548527
0.00546493
0.00601237
0.00513865
0.00522936
0.00498756
0.00608572
0.00613544
0.00620331
0.00623636
0.00618481
0.00618907
0.00622928
0.00614135
0.00606046
0.00623004
0.00621064
0.00634806
0.00626196
0.0061182
0.00615884
0.00625034
0.00632662
0.00613011
0.00566642
0.00626428
0.00624328
0.00637099
0.00644269
0.00583695
0.00631376
0.006375
0.00639068
0.0062912
0.00636561
0.00628139
0.00638577
0.00642939
0.00638638
0.00638047
0.00641957
0.0063794
0.00640966
0.00637289
0.00645975
0.00637627
0.00639357
0.00641002
0.00637711
0.00638417
0.00638272
0.00641707
0.0064001
0.00640189
0.00643325
0.00642602
0.00634728
0.00636038
0.00635382
0.00635317
0.0063548
0.00637408
0.00636387
0.00635891
0.00635629
0.00635455
0.00635406
0.0063612
0.00637157
0.00632995
0.00636025
0.00637334
0.00637528
0.00637383
0.00637247
0.0063688
0.00638095
0.00637595
0.00637749
0.0063505
0.00637218
0.00635341
0.00635852
0.00635687
0.00635475
0.00634155
0.00635994
0.00636566
0.00636189
0.00636089
0.00635995
0.00636097
0.00636651
0.00636721
0.00636691
0.00636084
0.00637034
0.00636981
0.00637077
0.00636753
0.00636663
0.00637775
0.00637119
0.00637564
0.00637422
0.00637401
0.00635807
0.00636038
0.00635904
0.00635844
0.00635739
0.006364
0.00636423
0.00636249
0.00636164
0.00636097
0.00636659
0.00636559
0.00636553
0.00636199
0.00636339
0.00636927
0.00636782
0.00636858
0.0063664
0.00636587
0.00637242
0.00636886
0.00637086
0.00636705
0.00636868
0.00636075
0.00636139
0.00636029
0.00635965
0.00635886
0.00636406
0.00636371
0.00636269
0.00636197
0.00636142
0.00636614
0.00636504
0.00636471
0.00636288
0.00636337
0.00636789
0.0063665
0.00636667
0.0063652
0.00636502
0.0063694
0.00636717
0.00636799
0.00636589
0.00636645
0.00636227
0.00636206
0.00636131
0.00636077
0.00636041
0.00636413
0.00636351
0.00636286
0.00636227
0.00636198
0.00636553
0.00636463
0.00636427
0.00636325
0.00636337
0.00636669
0.00636564
0.00636546
0.00636453
0.00636445
0.00636747
0.00636611
0.00636625
0.00636507
0.00636524
0.00636298
0.0063625
0.00636197
0.00636155
0.00636133
0.00636406
0.00636348
0.00636301
0.00636257
0.00636238
0.00636499
0.00636433
0.00636398
0.0063634
0.00636333
0.00636574
0.006365
0.00636476
0.00636416
0.00636408
0.00636619
0.00636536
0.00636522
0.00636455
0.00636455
0.00636326
0.0063628
0.0063624
0.00636209
0.00636194
0.00636395
0.00636349
0.00636312
0.00636281
0.00636267
0.00636458
0.0063641
0.00636378
0.00636343
0.00636333
0.00636507
0.00636457
0.0063643
0.00636393
0.00636384
0.00636535
0.00636483
0.0063646
0.0063642
0.00636413
0.00636336
0.006363
0.0063627
0.00636247
0.00636236
0.00636384
0.00636349
0.00636321
0.00636298
0.00636288
0.00636428
0.00636393
0.00636366
0.00636343
0.00636334
0.00636461
0.00636426
0.00636401
0.00636378
0.00636369
0.00636479
0.00636444
0.00636421
0.00636397
0.00636388
0.0063634
0.00636313
0.00636291
0.00636274
0.00636265
0.00636375
0.00636349
0.00636327
0.00636311
0.00636302
0.00636405
0.0063638
0.00636359
0.00636343
0.00636335
0.00636428
0.00636403
0.00636383
0.00636367
0.00636359
0.00636441
0.00636416
0.00636396
0.0063638
0.00636373
0.00636342
0.00636322
0.00636305
0.00636293
0.00636287
0.00636367
0.00636348
0.00636331
0.00636319
0.00636313
0.00636389
0.0063637
0.00636354
0.00636342
0.00636336
0.00636405
0.00636386
0.00636371
0.00636359
0.00636354
0.00636414
0.00636395
0.0063638
0.00636369
0.00636363
0.00636343
0.00636328
0.00636316
0.00636307
0.00636302
0.00636361
0.00636347
0.00636334
0.00636326
0.00636321
0.00636377
0.00636363
0.00636351
0.00636342
0.00636338
0.00636388
0.00636374
0.00636363
0.00636354
0.0063635
0.00636394
0.00636381
0.00636369
0.00636361
0.00636356
0.00636343
0.00636332
0.00636323
0.00636316
0.00636313
0.00636356
0.00636346
0.00636337
0.0063633
0.00636327
0.00636368
0.00636357
0.00636348
0.00636342
0.00636339
0.00636376
0.00636366
0.00636357
0.00636351
0.00636347
0.0063638
0.0063637
0.00636362
0.00636355
0.00636352
0.00636343
0.00636335
0.00636328
0.00636324
0.00636321
0.00636353
0.00636345
0.00636338
0.00636333
0.00636331
0.00636361
0.00636353
0.00636347
0.00636342
0.0063634
0.00636367
0.00636359
0.00636353
0.00636348
0.00636346
0.0063637
0.00636363
0.00636356
0.00636352
0.00636349
0.00636343
0.00636337
0.00636332
0.00636329
0.00636327
0.0063635
0.00636344
0.00636339
0.00636336
0.00636334
0.00636356
0.0063635
0.00636345
0.00636342
0.0063634
0.0063636
0.00636355
0.0063635
0.00636347
0.00636345
0.00636363
0.00636357
0.00636352
0.00636349
0.00636347
0.00636343
0.00636339
0.00636335
0.00636332
0.00636331
0.00636348
0.00636344
0.0063634
0.00636338
0.00636336
0.00636352
0.00636348
0.00636345
0.00636342
0.00636341
0.00636355
0.00636351
0.00636348
0.00636345
0.00636344
0.00636357
0.00636353
0.0063635
0.00636347
0.00636346
0.00636343
0.0063634
0.00636337
0.00636335
0.00636334
0.00636346
0.00636343
0.00636341
0.00636339
0.00636338
0.0063635
0.00636347
0.00636344
0.00636342
0.00636341
0.00636352
0.00636349
0.00636346
0.00636344
0.00636343
0.00636353
0.0063635
0.00636348
0.00636346
0.00636345
0.00636343
0.0063634
0.00636338
0.00636337
0.00636336
0.00636345
0.00636343
0.00636341
0.0063634
0.00636339
0.00636348
0.00636345
0.00636344
0.00636342
0.00636341
0.00636349
0.00636347
0.00636345
0.00636344
0.00636343
0.0063635
0.00636348
0.00636346
0.00636345
0.00636344
0.00636342
0.00636341
0.00636339
0.00636338
0.00636338
0.00636344
0.00636343
0.00636341
0.0063634
0.0063634
0.00636346
0.00636345
0.00636343
0.00636342
0.00636342
0.00636347
0.00636346
0.00636344
0.00636343
0.00636343
0.00636348
0.00636346
0.00636345
0.00636344
0.00636343
0.00636342
0.00636341
0.0063634
0.00636339
0.00636339
0.00636344
0.00636343
0.00636342
0.00636341
0.0063634
0.00636345
0.00636344
0.00636343
0.00636342
0.00636342
0.00636346
0.00636345
0.00636344
0.00636343
0.00636343
0.00636346
0.00636345
0.00636344
0.00636343
0.00636343
0.00636342
0.00636341
0.00636341
0.0063634
0.0063634
0.00636343
0.00636342
0.00636342
0.00636341
0.00636341
0.00636344
0.00636343
0.00636343
0.00636342
0.00636342
0.00636345
0.00636344
0.00636343
0.00636343
0.00636342
0.00636345
0.00636344
0.00636344
0.00636343
0.00636343
0.00636342
0.00636341
0.00636341
0.0063634
0.0063634
0.00636343
0.00636342
0.00636342
0.00636341
0.00636341
0.00636344
0.00636343
0.00636342
0.00636342
0.00636342
0.00636344
0.00636343
0.00636343
0.00636342
0.00636342
0.00636344
0.00636344
0.00636343
0.00636343
0.00636342
0.00636342
0.00636341
0.00636341
0.00636341
0.00636341
0.00636343
0.00636342
0.00636342
0.00636341
0.00636341
0.00636343
0.00636342
0.00636342
0.00636342
0.00636342
0.00636343
0.00636343
0.00636342
0.00636342
0.00636342
0.00636343
0.00636343
0.00636343
0.00636342
0.00636342
0.00636342
0.00636341
0.00636341
0.00636341
0.00636341
0.00636342
0.00636342
0.00636342
0.00636341
0.00636341
0.00636343
0.00636342
0.00636342
0.00636342
0.00636342
0.00636343
0.00636342
0.00636342
0.00636342
0.00636342
0.00636343
0.00636343
0.00636342
0.00636342
0.00636342
0.00636342
0.00636341
0.00636341
0.00636341
0.00636341
0.00636342
0.00636342
0.00636341
0.00636341
0.00636341
0.00636342
0.00636342
0.00636342
0.00636342
0.00636342
0.00636342
0.00636342
0.00636342
0.00636342
0.00636342
0.00636342
0.00636342
0.00636342
0.00636342
0.00636342
0.00636342
0.00636341
0.00636341
0.00636341
0.00636341
0.00636342
0.00636342
0.00636341
0.00636341
0.00636341
0.00636342
0.00636342
0.00636342
0.00636342
0.00636341
0.00636342
0.00636342
0.00636342
0.00636342
0.00636342
0.00636342
0.00636342
0.00636342
0.00636342
0.00636342
0.00636341
0.00636341
0.00636341
0.00636341
0.00636341
0.00636342
0.00636341
0.00636341
0.00636341
0.00636341
0.00636342
0.00636342
0.00636342
0.00636341
0.00636341
0.00636342
0.00636342
0.00636342
0.00636342
0.00636342
0.00636342
0.00636342
0.00636342
0.00636342
0.00636342
0.00636341
0.00636341
0.00636341
0.00636341
0.00636341
0.00636341
0.00636341
0.00636341
0.00636341
0.00636341
0.00636341
0.00636341
0.00636341
0.00636341
0.00636341
0.00636342
0.00636342
0.00636342
0.00636341
0.00636341
0.00636342
0.00636342
0.00636342
0.00636342
0.00636342
0.00636341
0.00636341
0.00636341
0.00636341
0.00636341
0.00636341
0.00636341
0.00636341
0.00636341
0.00636341
0.00636341
0.00636341
0.00636341
0.00636341
0.00636341
0.00636341
0.00636341
0.00636341
0.00636341
0.00636341
0.00636341
0.00636341
0.00636341
0.00636341
0.00636341
0.00636341
0.00636341
0.00636341
0.00636341
0.00636341
0.00636341
0.00636341
0.00636341
0.00636341
0.00636341
0.00636341
0.00636341
0.00636341
0.00636341
0.00636341
0.00636341
0.00636341
0.00636341
0.00636341
0.00636341
0.00636341
0.00636341
0.00636341
0.00636341
0.00636341
0.00636341
0.00636341
0.00636341
0.00636341
0.00636341
0.00636341
0.00636341
0.00636341
0.00636341
0.00636341
0.00636341
0.00636341
0.00636341
0.00636341
0.00636341
0.00636341
0.00636341
0.00636341
0.00636341
0.00636341
0.00636341
0.00636341
0.00636341
0.00636341
0.00636341
0.00636341
0.00636341
0.00636341
0.00636341
0.00636341
0.00636341
0.00636341
0.00636341
0.00636341
0.00636341
0.00636341
0.00636341
0.00636341
0.00636341
0.00636341
0.00636341
0.00636341
0.00636341
0.00636341
0.00636341
0.00636341
0.00636341
0.00636341
0.00636341
0.00636341
0.00636341
0.00636341
0.00636341
0.00636341
0.00636341
0.00636341
0.00636341
0.00636341
0.00636341
0.00636341
0.00636341
0.00636341
0.00636341
0.00636341
0.00636341
0.00636341
0.00636341
0.00636341
0.00636341
0.00636341
0.00636341
0.00636341
0.00636341
0.00636341
0.00636341
0.00636341
0.00636341
0.00636341
0.00636341
0.00636341
0.00636341
0.00636341
0.00636341
0.00636341
0.00636341
0.00636341
0.00636341
0.00636341
0.00636341
0.00636341
0.00636341
0.00636341
0.00636341
0.00636341
0.00636341
0.00636341
0.00636341
0.00636341
0.00636341
0.00636341
0.00636341
0.00636341
0.00636341
0.00636341
0.00636341
0.00636341
0.00636341
0.00636341
0.00636341
0.00636341
0.00636341
0.00636341
0.00636341
0.00636341
0.00636341
0.00636341
0.00636341
0.00636341
0.00636341
0.00636341
0.00636341
0.00636341
0.00636341
0.00636341
0.00636341
0.00636341
0.00636341
0.00636341
0.00636341
0.00636341
0.00636341
0.00636341
0.00636341
0.00636341
0.00636341
0.00636341
0.00636341
0.00636341
0.00636341
0.00636341
0.00636341
0.00636341
0.00636341
0.00636341
0.00636341
0.00636341
0.00636341
0.00636341
0.00636341
0.00636341
0.00636341
0.00636341
0.00636341
0.00636341
0.00636341
0.00636341
0.00636341
0.00636341
0.00636341
0.00636341
0.00636341
0.00636341
0.00636341
0.00636341
0.00636341
0.00636341
0.00636341
0.00636341
0.00636341
0.00636341
0.00636341
0.00636341
0.00636341
0.00636341
0.00636341
0.00636341
0.00636341
0.00636341
0.00636341
0.00636341
0.00636341
0.00636341
0.00636341
0.00636341
0.00636341
0.00636341
0.00636341
0.00636341
0.00636341
0.00636341
0.00636341
0.00636341
0.00636341
0.00636341
0.00636341
0.00636341
0.00636341
0.00636341
0.00636341
0.00636341
0.00636341
0.00636341
0.00636341
0.00636341
0.00636341
0.00636341
0.00636341
0.00636341
0.00636341
0.00636341
0.00636341
0.00636341
0.00636341
0.00636341
0.00636341
0.00636341
0.00636341
0.00636341
0.00636341
0.00636341
0.00636341
0.00636341
0.00636341
0.00636341
0.00636341
)
;

boundaryField
{
    inlet
    {
        type            zeroGradient;
    }
    outlet
    {
        type            fixedValue;
        value           uniform 0;
    }
    repeat_boundary
    {
        type            zeroGradient;
    }
    procBoundary3to1
    {
        type            processor;
        value           nonuniform List<scalar> 
450
(
1.62472e-09
1.71719e-09
1.82492e-09
1.90283e-09
1.93726e-09
5.1333e-09
5.299e-09
5.50705e-09
5.65638e-09
5.71257e-09
9.13258e-09
9.18993e-09
9.27867e-09
9.35514e-09
9.37631e-09
1.34667e-08
1.33367e-08
1.31955e-08
1.31161e-08
1.30846e-08
1.783e-08
1.7591e-08
1.72993e-08
1.70917e-08
1.70147e-08
2.21765e-08
2.19226e-08
2.16041e-08
2.13404e-08
2.12291e-08
2.6664e-08
2.63675e-08
2.60677e-08
2.58005e-08
2.56706e-08
3.11597e-08
3.08242e-08
3.05698e-08
3.0345e-08
3.02286e-08
3.53681e-08
3.51202e-08
3.49804e-08
3.48599e-08
3.48022e-08
3.92067e-08
3.91972e-08
3.92549e-08
3.92986e-08
3.93334e-08
4.29354e-08
4.31505e-08
4.34401e-08
4.36716e-08
4.38025e-08
4.68341e-08
4.71452e-08
4.76267e-08
4.80186e-08
4.82278e-08
5.09476e-08
5.13033e-08
5.1907e-08
5.24101e-08
5.26792e-08
5.50895e-08
5.56024e-08
5.63212e-08
5.69231e-08
5.72458e-08
5.90262e-08
5.99155e-08
6.08551e-08
6.1613e-08
6.20103e-08
6.27001e-08
6.42064e-08
6.55419e-08
6.65687e-08
6.71016e-08
6.62496e-08
6.85694e-08
7.05109e-08
7.19562e-08
7.27138e-08
6.97649e-08
7.30889e-08
7.59033e-08
7.79563e-08
7.90366e-08
7.31806e-08
7.78185e-08
8.18289e-08
8.47199e-08
8.6221e-08
7.64094e-08
8.28344e-08
8.8402e-08
9.24115e-08
9.4463e-08
7.93265e-08
8.81984e-08
9.58114e-08
1.01335e-07
1.04172e-07
8.18565e-08
9.40854e-08
1.04497e-07
1.12091e-07
1.16053e-07
8.42913e-08
1.01037e-07
1.15296e-07
1.25673e-07
1.31141e-07
8.69396e-08
1.09808e-07
1.2933e-07
1.43477e-07
1.50934e-07
8.97886e-08
1.21133e-07
1.47868e-07
1.67226e-07
1.77398e-07
9.30668e-08
1.35982e-07
1.72532e-07
1.99063e-07
2.13011e-07
9.69737e-08
1.55652e-07
2.05607e-07
2.41948e-07
2.61073e-07
1.01519e-07
1.81898e-07
2.5028e-07
3.00011e-07
3.26108e-07
1.07537e-07
2.1753e-07
3.11041e-07
3.78982e-07
4.14556e-07
1.16008e-07
2.66318e-07
3.94014e-07
4.86801e-07
5.35446e-07
1.27766e-07
3.33176e-07
5.07373e-07
6.34372e-07
7.00966e-07
1.44851e-07
4.2511e-07
6.61597e-07
8.35877e-07
9.26567e-07
1.69434e-07
5.49855e-07
8.65952e-07
1.10375e-06
1.22503e-06
1.91924e-07
7.07256e-07
1.11217e-06
1.43064e-06
1.59039e-06
1.51513e-07
8.82454e-07
1.36454e-06
1.795e-06
2.03276e-06
-4.39172e-08
1.04766e-06
1.64038e-06
2.23052e-06
2.73247e-06
-3.35954e-07
9.14921e-07
2.02544e-06
2.79812e-06
4.23259e-06
-1.89866e-06
6.33755e-08
3.3259e-07
1.57849e-07
6.19129e-07
8.99514e-06
2.50804e-06
1.68332e-05
1.728e-05
3.24399e-05
-4.49616e-06
2.10737e-05
1.5171e-06
3.21539e-06
3.65544e-06
-4.42923e-05
-0.000102117
3.79957e-05
1.05597e-05
0.000189116
0.000356895
0.000466052
0.000942672
0.000697196
0.000938111
0.00175665
0.00141025
0.00163017
0.0011501
0.00147721
0.00199743
0.00168051
0.00172673
0.00184162
0.001889
0.00233795
0.00233172
0.00198867
0.00281785
0.0026591
0.00323633
0.00380151
0.00317918
0.00310304
0.00305821
0.0033356
0.00372117
0.00361937
0.00325096
0.0036394
0.00417957
0.004014
0.00433565
0.00415264
0.00429905
0.00475057
0.004836
0.00484518
0.00520125
0.00439407
0.0056086
0.00515274
0.00566075
0.00591418
0.00560191
0.00597128
0.00617852
0.00608833
0.00607597
0.00614378
0.00634087
0.006388
0.00630181
0.00631449
0.00636803
0.00636468
0.00636175
0.00635386
0.00635243
0.00634128
0.0063477
0.00635886
0.0063456