/*--------------------------------*- C++ -*----------------------------------*\
| =========                 |                                                 |
| \\      /  F ield         | OpenFOAM: The Open Source CFD Toolbox           |
|  \\    /   O peration     | Version:  5.x                                   |
|   \\  /    A nd           | Web:      www.OpenFOAM.org                      |
|    \\/     M anipulation  |                                                 |
\*---------------------------------------------------------------------------*/
FoamFile
{
    version     2.0;
    format      ascii;
    class       volVectorField;
    location    "30000";
    object      U;
}
// * * * * * * * * * * * * * * * * * * * * * * * * * * * * * * * * * * * * * //

dimensions      [0 1 -1 0 0 0 0];

internalField   nonuniform List<vector> 
2250
(
(-1.04923e-10 4.48728e-11 -0.000999998)
(-1.8954e-10 1.00919e-10 -0.000999999)
(-1.48128e-10 1.52463e-10 -0.000999999)
(-8.3444e-11 1.91932e-10 -0.000999999)
(-2.74015e-11 2.0638e-10 -0.000999999)
(-6.13518e-11 -3.93135e-11 -0.000999998)
(-1.00911e-10 4.57277e-11 -0.000999999)
(-8.05042e-11 1.19931e-10 -0.000999999)
(-4.65785e-11 1.66395e-10 -0.000999999)
(-1.55673e-11 1.87252e-10 -0.000999999)
(-3.03079e-11 -2.89357e-11 -0.000999998)
(-3.02799e-11 3.48246e-11 -0.000999998)
(-2.74424e-11 8.81578e-11 -0.000999998)
(-1.57218e-11 1.22871e-10 -0.000999998)
(-6.18928e-12 1.37733e-10 -0.000999999)
(3.23289e-12 -1.41227e-11 -0.000999998)
(1.61927e-11 2.71509e-11 -0.000999998)
(7.55174e-12 5.7556e-11 -0.000999998)
(3.28185e-12 7.56632e-11 -0.000999998)
(-4.53968e-13 8.29322e-11 -0.000999998)
(1.75673e-11 -4.47786e-12 -0.000999998)
(4.13361e-11 1.2001e-11 -0.000999998)
(2.10403e-11 2.06577e-11 -0.000999998)
(9.8124e-12 2.55017e-11 -0.000999998)
(1.22488e-12 2.71313e-11 -0.000999998)
(-2.7054e-10 1.97148e-10 -0.000999999)
(-4.79142e-10 3.42398e-10 -0.000999999)
(-3.54805e-10 4.6642e-10 -0.000999999)
(-1.96994e-10 5.58209e-10 -0.000999999)
(-6.36766e-11 5.87996e-10 -0.000999999)
(-1.60831e-10 -3.33539e-11 -0.000999998)
(-2.48934e-10 1.94031e-10 -0.000999999)
(-1.92106e-10 3.71556e-10 -0.000999999)
(-1.11237e-10 4.79378e-10 -0.000999999)
(-3.82189e-11 5.23027e-10 -0.000999999)
(-7.94131e-11 -7.80172e-12 -0.000999998)
(-7.42621e-11 1.54291e-10 -0.000999998)
(-6.94489e-11 2.79111e-10 -0.000999998)
(-4.4482e-11 3.54327e-10 -0.000999998)
(-1.91095e-11 3.8367e-10 -0.000999998)
(-1.72911e-12 1.70669e-11 -0.000999998)
(3.79857e-11 1.17636e-10 -0.000999998)
(7.95451e-12 1.83778e-10 -0.000999998)
(-5.94001e-12 2.18247e-10 -0.000999998)
(-8.22414e-12 2.3049e-10 -0.000999998)
(2.81945e-11 1.20342e-11 -0.000999998)
(9.23843e-11 5.00214e-11 -0.000999998)
(3.11201e-11 6.63896e-11 -0.000999998)
(2.67452e-12 7.32255e-11 -0.000999998)
(-6.45368e-12 7.48415e-11 -0.000999998)
(-3.8183e-10 5.34679e-10 -0.000999999)
(-6.12808e-10 7.1346e-10 -0.000999999)
(-4.38377e-10 8.59073e-10 -0.000999999)
(-2.53048e-10 9.54963e-10 -0.000999999)
(-8.48587e-11 9.83541e-10 -0.000999999)
(-2.66732e-10 2.34786e-10 -0.000999999)
(-3.31034e-10 5.11519e-10 -0.000999999)
(-2.63202e-10 7.03257e-10 -0.000999999)
(-1.63047e-10 8.14994e-10 -0.000999999)
(-5.95917e-11 8.5623e-10 -0.000999999)
(-1.66762e-10 2.30998e-10 -0.000999998)
(-1.44304e-10 4.0919e-10 -0.000999998)
(-1.34864e-10 5.41081e-10 -0.000999998)
(-9.84436e-11 6.14124e-10 -0.000999998)
(-4.21447e-11 6.39009e-10 -0.000999998)
(-8.50246e-11 1.82995e-10 -0.000999998)
(-2.09302e-11 2.90879e-10 -0.000999998)
(-5.82257e-11 3.53112e-10 -0.000999998)
(-6.38925e-11 3.81045e-10 -0.000999998)
(-3.35694e-11 3.87081e-10 -0.000999998)
(-6.03945e-11 7.88692e-11 -0.000999998)
(2.58466e-11 1.13967e-10 -0.000999998)
(-4.45875e-11 1.25527e-10 -0.000999998)
(-6.35969e-11 1.27521e-10 -0.000999998)
(-3.53168e-11 1.25481e-10 -0.000999998)
(-4.28055e-10 1.17654e-09 -0.000999999)
(-6.82356e-10 1.24181e-09 -0.000999999)
(-4.57659e-10 1.35347e-09 -0.000999999)
(-2.88025e-10 1.41589e-09 -0.000999999)
(-1.00686e-10 1.42918e-09 -0.000999999)
(-4.19318e-10 7.63797e-10 -0.000999998)
(-4.21643e-10 1.02347e-09 -0.000999999)
(-3.43256e-10 1.14306e-09 -0.000999999)
(-2.32669e-10 1.21291e-09 -0.000999999)
(-8.84898e-11 1.23002e-09 -0.000999999)
(-3.46629e-10 6.99153e-10 -0.000999998)
(-3.0303e-10 8.20346e-10 -0.000999998)
(-2.68149e-10 8.96827e-10 -0.000999998)
(-1.98735e-10 9.35238e-10 -0.000999998)
(-8.13384e-11 9.42367e-10 -0.000999999)
(-2.96738e-10 4.84851e-10 -0.000999997)
(-2.2394e-10 5.506e-10 -0.000999998)
(-2.28298e-10 5.77502e-10 -0.000999998)
(-1.85281e-10 5.84293e-10 -0.000999998)
(-7.9564e-11 5.79884e-10 -0.000999998)
(-2.9204e-10 1.86407e-10 -0.000999997)
(-2.09901e-10 2.01205e-10 -0.000999997)
(-2.33971e-10 1.9998e-10 -0.000999998)
(-1.94838e-10 1.95136e-10 -0.000999998)
(-8.44515e-11 1.89762e-10 -0.000999998)
(-5.60278e-10 2.02795e-09 -0.000999999)
(-7.85171e-10 1.95096e-09 -0.000999999)
(-5.28341e-10 1.98548e-09 -0.001)
(-3.48715e-10 1.99897e-09 -0.001)
(-1.26373e-10 1.99289e-09 -0.001)
(-6.67531e-10 1.5394e-09 -0.000999998)
(-6.25002e-10 1.70135e-09 -0.000999999)
(-4.96077e-10 1.72827e-09 -0.000999999)
(-3.40757e-10 1.73571e-09 -0.000999999)
(-1.28452e-10 1.72448e-09 -0.000999999)
(-6.63797e-10 1.33319e-09 -0.000999997)
(-5.96384e-10 1.36774e-09 -0.000999998)
(-4.93867e-10 1.36995e-09 -0.000999998)
(-3.49217e-10 1.36013e-09 -0.000999998)
(-1.34357e-10 1.34548e-09 -0.000999999)
(-6.59126e-10 8.88655e-10 -0.000999997)
(-5.88198e-10 8.88263e-10 -0.000999997)
(-5.03593e-10 8.72473e-10 -0.000999998)
(-3.62539e-10 8.54543e-10 -0.000999998)
(-1.40423e-10 8.41365e-10 -0.000999998)
(-6.77705e-10 3.2055e-10 -0.000999997)
(-6.11317e-10 3.09523e-10 -0.000999997)
(-5.26532e-10 2.96307e-10 -0.000999997)
(-3.77929e-10 2.85678e-10 -0.000999998)
(-1.45552e-10 2.79705e-10 -0.000999998)
(-8.95057e-10 2.98427e-09 -0.000999999)
(-1.02698e-09 2.83459e-09 -0.000999999)
(-7.14212e-10 2.79731e-09 -0.001)
(-4.65299e-10 2.77192e-09 -0.001)
(-1.66302e-10 2.74689e-09 -0.001)
(-1.04791e-09 2.48428e-09 -0.000999998)
(-9.77948e-10 2.54408e-09 -0.000999998)
(-7.53622e-10 2.49529e-09 -0.000999999)
(-5.00981e-10 2.4488e-09 -0.000999999)
(-1.81944e-10 2.41157e-09 -0.000999999)
(-1.11591e-09 2.07258e-09 -0.000999997)
(-1.01596e-09 2.0353e-09 -0.000999998)
(-8.09428e-10 1.97902e-09 -0.000999998)
(-5.44359e-10 1.93061e-09 -0.000999998)
(-1.98866e-10 1.89831e-09 -0.000999998)
(-1.14836e-09 1.35636e-09 -0.000999996)
(-1.07147e-09 1.30036e-09 -0.000999997)
(-8.58187e-10 1.2553e-09 -0.000999997)
(-5.77887e-10 1.22195e-09 -0.000999998)
(-2.10441e-10 1.2039e-09 -0.000999998)
(-1.17577e-09 4.69234e-10 -0.000999996)
(-1.11477e-09 4.41995e-10 -0.000999997)
(-8.86048e-10 4.23863e-10 -0.000999997)
(-5.92227e-10 4.12513e-10 -0.000999997)
(-2.14129e-10 4.0764e-10 -0.000999998)
(-1.47135e-09 4.07183e-09 -0.000999999)
(-1.40687e-09 3.93025e-09 -0.001)
(-1.03606e-09 3.85593e-09 -0.001)
(-6.57889e-10 3.80758e-09 -0.001)
(-2.29046e-10 3.77035e-09 -0.001)
(-1.56333e-09 3.61278e-09 -0.000999998)
(-1.46474e-09 3.57604e-09 -0.000999998)
(-1.12001e-09 3.4884e-09 -0.000999999)
(-7.22365e-10 3.41079e-09 -0.000999999)
(-2.5389e-10 3.35788e-09 -0.000999999)
(-1.67679e-09 2.90435e-09 -0.000999997)
(-1.53126e-09 2.83727e-09 -0.000999997)
(-1.20116e-09 2.75763e-09 -0.000999998)
(-7.81817e-10 2.69258e-09 -0.000999998)
(-2.75391e-10 2.65364e-09 -0.000999998)
(-1.72197e-09 1.87666e-09 -0.000999996)
(-1.61138e-09 1.80703e-09 -0.000999996)
(-1.26452e-09 1.75513e-09 -0.000999997)
(-8.21085e-10 1.71964e-09 -0.000999997)
(-2.87609e-10 1.70268e-09 -0.000999997)
(-1.74277e-09 6.378e-10 -0.000999995)
(-1.64948e-09 6.12042e-10 -0.000999996)
(-1.28592e-09 5.96551e-10 -0.000999997)
(-8.29292e-10 5.88172e-10 -0.000999997)
(-2.88513e-10 5.85608e-10 -0.000999997)
(-2.20071e-09 5.42497e-09 -0.000999999)
(-1.98831e-09 5.32889e-09 -0.000999999)
(-1.50858e-09 5.25825e-09 -0.001)
(-9.56632e-10 5.20498e-09 -0.001)
(-3.29631e-10 5.1665e-09 -0.001)
(-2.24942e-09 4.92286e-09 -0.000999997)
(-2.05499e-09 4.86642e-09 -0.000999998)
(-1.59927e-09 4.77601e-09 -0.000999999)
(-1.02276e-09 4.69732e-09 -0.000999999)
(-3.53478e-10 4.64713e-09 -0.000999999)
(-2.34334e-09 3.91799e-09 -0.000999996)
(-2.13516e-09 3.84617e-09 -0.000999997)
(-1.67747e-09 3.77262e-09 -0.000999997)
(-1.07636e-09 3.71357e-09 -0.000999998)
(-3.70804e-10 3.68102e-09 -0.000999998)
(-2.3812e-09 2.50478e-09 -0.000999995)
(-2.20025e-09 2.45749e-09 -0.000999996)
(-1.73162e-09 2.41656e-09 -0.000999996)
(-1.10711e-09 2.38986e-09 -0.000999997)
(-3.78946e-10 2.3789e-09 -0.000999997)
(-2.38784e-09 8.52734e-10 -0.000999994)
(-2.21894e-09 8.39069e-10 -0.000999995)
(-1.74151e-09 8.29742e-10 -0.000999996)
(-1.1072e-09 8.2575e-10 -0.000999996)
(-3.76549e-10 8.25869e-10 -0.000999996)
(-2.99615e-09 7.32036e-09 -0.000999998)
(-2.87288e-09 7.1967e-09 -0.000999999)
(-2.17281e-09 7.15078e-09 -0.001)
(-1.39233e-09 7.10897e-09 -0.001)
(-4.81214e-10 7.0798e-09 -0.001)
(-3.12485e-09 6.49062e-09 -0.000999996)
(-2.81815e-09 6.53969e-09 -0.000999997)
(-2.22583e-09 6.48084e-09 -0.000999998)
(-1.42975e-09 6.42812e-09 -0.000999999)
(-4.91038e-10 6.39899e-09 -0.000999999)
(-3.16852e-09 5.22993e-09 -0.000999994)
(-2.88265e-09 5.18339e-09 -0.000999995)
(-2.28409e-09 5.12973e-09 -0.000999996)
(-1.46165e-09 5.09187e-09 -0.000999997)
(-4.98118e-10 5.07275e-09 -0.000999997)
(-3.19484e-09 3.3431e-09 -0.000999993)
(-2.9182e-09 3.32457e-09 -0.000999994)
(-2.317e-09 3.30057e-09 -0.000999995)
(-1.47676e-09 3.28787e-09 -0.000999995)
(-5.00506e-10 3.28442e-09 -0.000999996)
(-3.18884e-09 1.14716e-09 -0.000999993)
(-2.91939e-09 1.14409e-09 -0.000999993)
(-2.31602e-09 1.14031e-09 -0.000999994)
(-1.46849e-09 1.14048e-09 -0.000999995)
(-4.94438e-10 1.14345e-09 -0.000999995)
(-4.01858e-09 9.94377e-09 -0.000999998)
(-4.01858e-09 9.75506e-09 -0.000999999)
(-3.05785e-09 9.73646e-09 -0.001)
(-1.98065e-09 9.7131e-09 -0.001)
(-6.85781e-10 9.6956e-09 -0.001)
(-4.242e-09 8.65611e-09 -0.000999995)
(-3.85218e-09 8.81233e-09 -0.000999996)
(-3.06294e-09 8.79039e-09 -0.000999998)
(-1.97524e-09 8.77697e-09 -0.000999998)
(-6.76325e-10 8.77261e-09 -0.000999999)
(-4.25846e-09 7.01054e-09 -0.000999993)
(-3.8843e-09 6.99988e-09 -0.000999994)
(-3.0928e-09 6.97035e-09 -0.000999995)
(-1.98128e-09 6.95889e-09 -0.000999996)
(-6.73488e-10 6.95131e-09 -0.000999996)
(-4.2764e-09 4.4946e-09 -0.000999991)
(-3.89217e-09 4.496e-09 -0.000999992)
(-3.10345e-09 4.48801e-09 -0.000999993)
(-1.98057e-09 4.49029e-09 -0.000999994)
(-6.70647e-10 4.49389e-09 -0.000999994)
(-4.26735e-09 1.54984e-09 -0.00099999)
(-3.88323e-09 1.55074e-09 -0.000999991)
(-3.09219e-09 1.5513e-09 -0.000999992)
(-1.96275e-09 1.55591e-09 -0.000999993)
(-6.60105e-10 1.56224e-09 -0.000999993)
(-5.50609e-09 1.34899e-08 -0.000999998)
(-5.40964e-09 1.32959e-08 -0.000999999)
(-4.21036e-09 1.32709e-08 -0.001)
(-2.7335e-09 1.32622e-08 -0.001)
(-9.44265e-10 1.32466e-08 -0.001)
(-5.72568e-09 1.17881e-08 -0.000999994)
(-5.26152e-09 1.19401e-08 -0.000999995)
(-4.18221e-09 1.19469e-08 -0.000999997)
(-2.69585e-09 1.19671e-08 -0.000999998)
(-9.2213e-10 1.1975e-08 -0.000999999)
(-5.74468e-09 9.45856e-09 -0.00099999)
(-5.25084e-09 9.48295e-09 -0.000999992)
(-4.18287e-09 9.47796e-09 -0.000999993)
(-2.68185e-09 9.48907e-09 -0.000999995)
(-9.13467e-10 9.48628e-09 -0.000999995)
(-5.75739e-09 6.07771e-09 -0.000999988)
(-5.24184e-09 6.08805e-09 -0.00099999)
(-4.17544e-09 6.09421e-09 -0.000999991)
(-2.66871e-09 6.10994e-09 -0.000999992)
(-9.06666e-10 6.11696e-09 -0.000999993)
(-5.74761e-09 2.09393e-09 -0.000999987)
(-5.22408e-09 2.09653e-09 -0.000999988)
(-4.15255e-09 2.10168e-09 -0.00099999)
(-2.64193e-09 2.11133e-09 -0.000999991)
(-8.93058e-10 2.11923e-09 -0.000999991)
(-7.62097e-09 1.82781e-08 -0.000999997)
(-7.23411e-09 1.81196e-08 -0.001)
(-5.70678e-09 1.80812e-08 -0.001)
(-3.68584e-09 1.80758e-08 -0.001)
(-1.26867e-09 1.80476e-08 -0.001)
(-7.76639e-09 1.61319e-08 -0.000999992)
(-7.13443e-09 1.62387e-08 -0.000999994)
(-5.66802e-09 1.62633e-08 -0.000999996)
(-3.64335e-09 1.62964e-08 -0.000999998)
(-1.24753e-09 1.62959e-08 -0.000999998)
(-7.78505e-09 1.28509e-08 -0.000999987)
(-7.10267e-09 1.28871e-08 -0.000999989)
(-5.64831e-09 1.29023e-08 -0.000999991)
(-3.6211e-09 1.2925e-08 -0.000999993)
(-1.23785e-09 1.29175e-08 -0.000999994)
(-7.78852e-09 8.25202e-09 -0.000999984)
(-7.08265e-09 8.26872e-09 -0.000999986)
(-5.62922e-09 8.28571e-09 -0.000999988)
(-3.60235e-09 8.30791e-09 -0.00099999)
(-1.23003e-09 8.30918e-09 -0.00099999)
(-7.7757e-09 2.83826e-09 -0.000999982)
(-7.05524e-09 2.84329e-09 -0.000999984)
(-5.59786e-09 2.85227e-09 -0.000999986)
(-3.57435e-09 2.86389e-09 -0.000999988)
(-1.21829e-09 2.86789e-09 -0.000999989)
(-1.04414e-08 2.48216e-08 -0.000999997)
(-9.74257e-09 2.46769e-08 -0.001)
(-7.67121e-09 2.46223e-08 -0.001)
(-4.92338e-09 2.4604e-08 -0.001)
(-1.6902e-09 2.45504e-08 -0.00100001)
(-1.05571e-08 2.20221e-08 -0.000999989)
(-9.64583e-09 2.21343e-08 -0.000999993)
(-7.64317e-09 2.21591e-08 -0.000999995)
(-4.90194e-09 2.21806e-08 -0.000999997)
(-1.68155e-09 2.21514e-08 -0.000999998)
(-1.0573e-08 1.75205e-08 -0.000999983)
(-9.60552e-09 1.75644e-08 -0.000999986)
(-7.62391e-09 1.75825e-08 -0.000999989)
(-4.88715e-09 1.75998e-08 -0.000999991)
(-1.67645e-09 1.75744e-08 -0.000999992)
(-1.05744e-08 1.12514e-08 -0.000999978)
(-9.58329e-09 1.1271e-08 -0.000999981)
(-7.60654e-09 1.12877e-08 -0.000999984)
(-4.87493e-09 1.13019e-08 -0.000999986)
(-1.67286e-09 1.12855e-08 -0.000999987)
(-1.056e-08 3.86901e-09 -0.000999976)
(-9.55073e-09 3.87535e-09 -0.000999979)
(-7.57779e-09 3.88359e-09 -0.000999982)
(-4.85778e-09 3.88967e-09 -0.000999984)
(-1.66797e-09 3.88404e-09 -0.000999985)
(-1.41964e-08 3.38019e-08 -0.000999996)
(-1.31107e-08 3.36185e-08 -0.001)
(-1.02998e-08 3.35285e-08 -0.001)
(-6.5882e-09 3.34772e-08 -0.00100001)
(-2.26023e-09 3.33863e-08 -0.00100001)
(-1.43454e-08 3.01055e-08 -0.000999986)
(-1.30334e-08 3.0207e-08 -0.00099999)
(-1.03096e-08 3.02015e-08 -0.000999994)
(-6.60692e-09 3.01863e-08 -0.000999997)
(-2.27017e-09 3.01125e-08 -0.000999998)
(-1.43856e-08 2.39454e-08 -0.000999977)
(-1.30146e-08 2.39738e-08 -0.000999981)
(-1.03191e-08 2.39685e-08 -0.000999985)
(-6.61736e-09 2.39595e-08 -0.000999988)
(-2.2755e-09 2.39023e-08 -0.000999989)
(-1.4407e-08 1.53827e-08 -0.000999971)
(-1.30096e-08 1.53914e-08 -0.000999975)
(-1.03222e-08 1.53908e-08 -0.000999979)
(-6.62534e-09 1.53814e-08 -0.000999982)
(-2.28088e-09 1.53386e-08 -0.000999983)
(-1.4397e-08 5.29187e-09 -0.000999967)
(-1.29815e-08 5.29548e-09 -0.000999972)
(-1.03086e-08 5.2957e-09 -0.000999976)
(-6.62651e-09 5.28962e-09 -0.000999978)
(-2.28429e-09 5.27191e-09 -0.00099998)
(-1.93196e-08 4.60288e-08 -0.000999995)
(-1.76444e-08 4.57917e-08 -0.001)
(-1.38952e-08 4.56504e-08 -0.00100001)
(-8.89097e-09 4.55527e-08 -0.00100001)
(-3.05369e-09 4.54149e-08 -0.00100001)
(-1.95279e-08 4.12095e-08 -0.000999981)
(-1.76608e-08 4.12198e-08 -0.000999987)
(-1.3972e-08 4.1149e-08 -0.000999992)
(-8.95883e-09 4.10783e-08 -0.000999996)
(-3.08197e-09 4.09518e-08 -0.000999998)
(-1.96247e-08 3.27388e-08 -0.000999969)
(-1.77049e-08 3.27138e-08 -0.000999975)
(-1.40348e-08 3.26604e-08 -0.00099998)
(-9.00674e-09 3.26087e-08 -0.000999984)
(-3.10058e-09 3.25108e-08 -0.000999986)
(-1.96863e-08 2.10306e-08 -0.00099996)
(-1.77382e-08 2.10121e-08 -0.000999966)
(-1.40749e-08 2.09784e-08 -0.000999972)
(-9.0433e-09 2.09371e-08 -0.000999975)
(-3.1165e-09 2.0866e-08 -0.000999977)
(-1.96852e-08 7.23727e-09 -0.000999956)
(-1.77231e-08 7.23316e-09 -0.000999962)
(-1.40819e-08 7.21943e-09 -0.000999967)
(-9.06056e-09 7.19973e-09 -0.000999971)
(-3.12535e-09 7.1714e-09 -0.000999973)
(-2.64219e-08 6.25984e-08 -0.000999994)
(-2.3898e-08 6.23374e-08 -0.001)
(-1.88827e-08 6.21435e-08 -0.00100001)
(-1.21059e-08 6.19986e-08 -0.00100001)
(-4.16494e-09 6.18084e-08 -0.00100002)
(-2.66674e-08 5.63208e-08 -0.000999974)
(-2.40428e-08 5.61994e-08 -0.000999983)
(-1.90391e-08 5.60446e-08 -0.000999989)
(-1.22199e-08 5.59124e-08 -0.000999995)
(-4.20637e-09 5.57316e-08 -0.000999997)
(-2.68325e-08 4.47089e-08 -0.000999958)
(-2.41742e-08 4.46052e-08 -0.000999966)
(-1.91672e-08 4.44874e-08 -0.000999973)
(-1.2308e-08 4.43861e-08 -0.000999978)
(-4.23732e-09 4.4244e-08 -0.000999981)
(-2.69441e-08 2.87209e-08 -0.000999946)
(-2.42629e-08 2.86586e-08 -0.000999954)
(-1.92552e-08 2.8581e-08 -0.000999962)
(-1.23746e-08 2.85076e-08 -0.000999967)
(-4.2622e-09 2.84122e-08 -0.00099997)
(-2.69552e-08 9.88609e-09 -0.00099994)
(-2.42677e-08 9.86699e-09 -0.000999948)
(-1.92801e-08 9.83639e-09 -0.000999955)
(-1.23969e-08 9.80596e-09 -0.000999961)
(-4.26951e-09 9.77207e-09 -0.000999963)
(-3.61557e-08 8.51779e-08 -0.000999991)
(-3.25688e-08 8.48749e-08 -0.001)
(-2.57862e-08 8.46135e-08 -0.00100001)
(-1.65558e-08 8.44169e-08 -0.00100002)
(-5.70086e-09 8.41625e-08 -0.00100002)
(-3.64579e-08 7.68353e-08 -0.000999965)
(-3.28317e-08 7.65867e-08 -0.000999976)
(-2.60238e-08 7.63399e-08 -0.000999986)
(-1.67129e-08 7.61452e-08 -0.000999993)
(-5.75296e-09 7.59035e-08 -0.000999997)
(-3.67099e-08 6.09986e-08 -0.000999943)
(-3.30641e-08 6.07964e-08 -0.000999954)
(-2.62242e-08 6.06008e-08 -0.000999964)
(-1.68412e-08 6.04471e-08 -0.000999971)
(-5.79479e-09 6.02572e-08 -0.000999975)
(-3.6888e-08 3.91947e-08 -0.000999927)
(-3.32277e-08 3.9066e-08 -0.000999938)
(-2.6369e-08 3.89355e-08 -0.000999948)
(-1.69357e-08 3.88326e-08 -0.000999955)
(-5.82525e-09 3.87155e-08 -0.000999959)
(-3.69196e-08 1.34936e-08 -0.000999918)
(-3.32599e-08 1.34488e-08 -0.00099993)
(-2.64054e-08 1.34e-08 -0.00099994)
(-1.69521e-08 1.3363e-08 -0.000999947)
(-5.82574e-09 1.33263e-08 -0.00099995)
(-4.9373e-08 1.16052e-07 -0.000999988)
(-4.44758e-08 1.15619e-07 -0.001)
(-3.52518e-08 1.15249e-07 -0.00100002)
(-2.26379e-08 1.14978e-07 -0.00100003)
(-7.79328e-09 1.14631e-07 -0.00100003)
(-4.98145e-08 1.04757e-07 -0.000999953)
(-4.48697e-08 1.04363e-07 -0.000999968)
(-3.55839e-08 1.04007e-07 -0.000999981)
(-2.28495e-08 1.03737e-07 -0.000999991)
(-7.86139e-09 1.03413e-07 -0.000999996)
(-5.01969e-08 8.31862e-08 -0.000999922)
(-4.52257e-08 8.28558e-08 -0.000999938)
(-3.58728e-08 8.25621e-08 -0.000999951)
(-2.30262e-08 8.23464e-08 -0.000999961)
(-7.91638e-09 8.20939e-08 -0.000999966)
(-5.04769e-08 5.34632e-08 -0.0009999)
(-4.54912e-08 5.32394e-08 -0.000999916)
(-3.60876e-08 5.30436e-08 -0.000999929)
(-2.31529e-08 5.2907e-08 -0.000999939)
(-7.95338e-09 5.27537e-08 -0.000999944)
(-5.05438e-08 1.84069e-08 -0.000999889)
(-4.55586e-08 1.83248e-08 -0.000999905)
(-3.6134e-08 1.82556e-08 -0.000999918)
(-2.31674e-08 1.82111e-08 -0.000999928)
(-7.95229e-09 1.81627e-08 -0.000999933)
(-6.73571e-08 1.58169e-07 -0.000999985)
(-6.07286e-08 1.57517e-07 -0.00100001)
(-4.81334e-08 1.56982e-07 -0.00100002)
(-3.08921e-08 1.56593e-07 -0.00100004)
(-1.06276e-08 1.56105e-07 -0.00100004)
(-6.80207e-08 1.42771e-07 -0.000999936)
(-6.12896e-08 1.42194e-07 -0.000999957)
(-4.85992e-08 1.41685e-07 -0.000999975)
(-3.11878e-08 1.41304e-07 -0.000999988)
(-1.07228e-08 1.40855e-07 -0.000999995)
(-6.85947e-08 1.13401e-07 -0.000999895)
(-6.18143e-08 1.12897e-07 -0.000999916)
(-4.9017e-08 1.12465e-07 -0.000999934)
(-3.14412e-08 1.12158e-07 -0.000999947)
(-1.08018e-08 1.11803e-07 -0.000999954)
(-6.90305e-08 7.28913e-08 -0.000999865)
(-6.2222e-08 7.25377e-08 -0.000999886)
(-4.93306e-08 7.22515e-08 -0.000999904)
(-3.16254e-08 7.20563e-08 -0.000999917)
(-1.08585e-08 7.18301e-08 -0.000999925)
(-6.91513e-08 2.5094e-08 -0.000999849)
(-6.23361e-08 2.49639e-08 -0.00099987)
(-4.94015e-08 2.48658e-08 -0.000999889)
(-3.166e-08 2.48013e-08 -0.000999902)
(-1.08679e-08 2.47246e-08 -0.000999909)
(-9.18335e-08 2.15521e-07 -0.000999979)
(-8.2807e-08 2.14552e-07 -0.00100001)
(-6.55993e-08 2.13759e-07 -0.00100003)
(-4.20798e-08 2.13182e-07 -0.00100005)
(-1.44707e-08 2.12485e-07 -0.00100006)
(-9.28208e-08 1.94538e-07 -0.000999913)
(-8.36279e-08 1.93684e-07 -0.000999942)
(-6.62806e-08 1.92929e-07 -0.000999966)
(-4.25112e-08 1.92366e-07 -0.000999984)
(-1.46093e-08 1.91726e-07 -0.000999993)
(-9.3694e-08 1.54549e-07 -0.000999857)
(-8.44163e-08 1.53784e-07 -0.000999886)
(-6.69079e-08 1.53136e-07 -0.000999911)
(-4.2899e-08 1.52672e-07 -0.000999928)
(-1.47355e-08 1.52148e-07 -0.000999938)
(-9.43687e-08 9.93433e-08 -0.000999816)
(-8.50358e-08 9.88063e-08 -0.000999845)
(-6.73824e-08 9.83756e-08 -0.00099987)
(-4.31927e-08 9.80697e-08 -0.000999888)
(-1.48342e-08 9.77255e-08 -0.000999898)
(-9.45717e-08 3.41972e-08 -0.000999795)
(-8.52236e-08 3.40029e-08 -0.000999824)
(-6.75129e-08 3.38543e-08 -0.000999849)
(-4.32731e-08 3.37478e-08 -0.000999867)
(-1.48613e-08 3.3629e-08 -0.000999877)
(-1.25076e-07 2.93623e-07 -0.000999973)
(-1.12725e-07 2.92155e-07 -0.00100001)
(-8.9272e-08 2.90944e-07 -0.00100004)
(-5.72586e-08 2.90065e-07 -0.00100007)
(-1.96901e-08 2.89061e-07 -0.00100008)
(-1.26587e-07 2.65076e-07 -0.000999883)
(-1.14004e-07 2.63739e-07 -0.000999921)
(-9.03145e-08 2.62573e-07 -0.000999954)
(-5.7915e-08 2.61711e-07 -0.000999978)
(-1.99029e-08 2.60778e-07 -0.000999991)
(-1.27951e-07 2.1061e-07 -0.000999806)
(-1.15228e-07 2.09427e-07 -0.000999845)
(-9.12886e-08 2.08423e-07 -0.000999879)
(-5.85301e-08 2.07692e-07 -0.000999903)
(-2.01101e-08 2.06915e-07 -0.000999916)
(-1.29003e-07 1.35385e-07 -0.00099975)
(-1.16185e-07 1.34564e-07 -0.00099979)
(-9.20343e-08 1.33889e-07 -0.000999824)
(-5.90045e-08 1.33397e-07 -0.000999848)
(-2.02725e-08 1.32887e-07 -0.000999862)
(-1.29348e-07 4.66033e-08 -0.000999721)
(-1.16506e-07 4.63098e-08 -0.000999761)
(-9.22775e-08 4.60723e-08 -0.000999795)
(-5.91562e-08 4.58979e-08 -0.00099982)
(-2.03219e-08 4.57236e-08 -0.000999833)
(-1.70236e-07 3.99966e-07 -0.000999963)
(-1.53303e-07 3.97721e-07 -0.00100002)
(-1.21382e-07 3.95845e-07 -0.00100006)
(-7.78498e-08 3.94482e-07 -0.00100009)
(-2.67698e-08 3.93019e-07 -0.00100011)
(-1.72584e-07 3.61194e-07 -0.000999841)
(-1.55345e-07 3.59058e-07 -0.000999894)
(-1.2302e-07 3.57215e-07 -0.000999938)
(-7.88863e-08 3.55861e-07 -0.000999971)
(-2.71148e-08 3.54484e-07 -0.000999988)
(-1.74744e-07 2.87036e-07 -0.000999736)
(-1.57282e-07 2.85167e-07 -0.00099979)
(-1.24562e-07 2.83577e-07 -0.000999836)
(-7.98678e-08 2.82413e-07 -0.000999869)
(-2.74481e-08 2.81268e-07 -0.000999887)
(-1.7641e-07 1.84544e-07 -0.00099966)
(-1.58795e-07 1.83256e-07 -0.000999715)
(-1.25754e-07 1.82175e-07 -0.000999761)
(-8.06248e-08 1.81386e-07 -0.000999795)
(-2.7704e-08 1.80634e-07 -0.000999813)
(-1.77014e-07 6.35315e-08 -0.00099962)
(-1.59355e-07 6.30712e-08 -0.000999675)
(-1.2619e-07 6.26864e-08 -0.000999722)
(-8.0896e-08 6.24071e-08 -0.000999756)
(-2.77934e-08 6.21475e-08 -0.000999774)
(-2.31582e-07 5.44796e-07 -0.000999951)
(-2.08342e-07 5.4134e-07 -0.00100002)
(-1.64916e-07 5.38407e-07 -0.00100008)
(-1.05743e-07 5.36266e-07 -0.00100012)
(-3.63516e-08 5.34115e-07 -0.00100015)
(-2.3525e-07 4.9223e-07 -0.000999784)
(-2.11621e-07 4.8879e-07 -0.000999856)
(-1.6753e-07 4.85845e-07 -0.000999917)
(-1.07411e-07 4.83687e-07 -0.000999961)
(-3.692e-08 4.81631e-07 -0.000999985)
(-2.38707e-07 3.91304e-07 -0.000999642)
(-2.14727e-07 3.88301e-07 -0.000999715)
(-1.69997e-07 3.85749e-07 -0.000999777)
(-1.08984e-07 3.83881e-07 -0.000999823)
(-3.74542e-08 3.82173e-07 -0.000999847)
(-2.41394e-07 2.51658e-07 -0.000999538)
(-2.17164e-07 2.49591e-07 -0.000999613)
(-1.71923e-07 2.47841e-07 -0.000999676)
(-1.10208e-07 2.46567e-07 -0.000999722)
(-3.78685e-08 2.4543e-07 -0.000999747)
(-2.42464e-07 8.66515e-08 -0.000999483)
(-2.18143e-07 8.59122e-08 -0.000999559)
(-1.72692e-07 8.52866e-08 -0.000999623)
(-1.10698e-07 8.48337e-08 -0.000999669)
(-3.80378e-08 8.44328e-08 -0.000999694)
(-3.1485e-07 7.42054e-07 -0.000999935)
(-2.82923e-07 7.36694e-07 -0.00100003)
(-2.23855e-07 7.32097e-07 -0.00100011)
(-1.43473e-07 7.28707e-07 -0.00100017)
(-4.93092e-08 7.25521e-07 -0.0010002)
(-3.20629e-07 6.70938e-07 -0.000999708)
(-2.88191e-07 6.65377e-07 -0.000999805)
(-2.28046e-07 6.60635e-07 -0.000999888)
(-1.46166e-07 6.57156e-07 -0.000999948)
(-5.02365e-08 6.54055e-07 -0.00099998)
(-3.26199e-07 5.3365e-07 -0.000999513)
(-2.93224e-07 5.28773e-07 -0.000999614)
(-2.32046e-07 5.24624e-07 -0.000999699)
(-1.48727e-07 5.21582e-07 -0.00099976)
(-5.11098e-08 5.18981e-07 -0.000999794)
(-3.3059e-07 3.4337e-07 -0.000999371)
(-2.97201e-07 3.40002e-07 -0.000999474)
(-2.35201e-07 3.37139e-07 -0.000999561)
(-1.50747e-07 3.35045e-07 -0.000999624)
(-5.18005e-08 3.3329e-07 -0.000999658)
(-3.32478e-07 1.18265e-07 -0.000999296)
(-2.98911e-07 1.17058e-07 -0.0009994)
(-2.36558e-07 1.16032e-07 -0.000999488)
(-1.51627e-07 1.15283e-07 -0.000999552)
(-5.2109e-08 1.14659e-07 -0.000999587)
(-4.27711e-07 1.01064e-06 -0.000999914)
(-3.8387e-07 1.00226e-06 -0.00100004)
(-3.03495e-07 9.95033e-07 -0.00100015)
(-1.94435e-07 9.89649e-07 -0.00100023)
(-6.68197e-08 9.84884e-07 -0.00100027)
(-4.36889e-07 9.14602e-07 -0.000999604)
(-3.92277e-07 9.05647e-07 -0.000999737)
(-3.10233e-07 8.9797e-07 -0.000999849)
(-1.98795e-07 8.92303e-07 -0.000999931)
(-6.83232e-08 8.87575e-07 -0.000999974)
(-4.45929e-07 7.28096e-07 -0.000999338)
(-4.005e-07 7.20112e-07 -0.000999476)
(-3.16798e-07 7.13285e-07 -0.000999592)
(-2.03021e-07 7.08261e-07 -0.000999676)
(-6.97724e-08 7.04239e-07 -0.000999722)
(-4.53178e-07 4.68844e-07 -0.000999144)
(-4.07066e-07 4.63288e-07 -0.000999285)
(-3.22034e-07 4.58547e-07 -0.000999405)
(-2.06393e-07 4.55057e-07 -0.000999491)
(-7.09306e-08 4.52329e-07 -0.000999538)
(-4.56488e-07 1.61559e-07 -0.000999041)
(-4.10061e-07 1.59561e-07 -0.000999185)
(-3.24426e-07 1.5786e-07 -0.000999306)
(-2.07947e-07 1.56605e-07 -0.000999394)
(-7.14701e-08 1.55636e-07 -0.000999442)
(-5.80114e-07 1.37626e-06 -0.000999887)
(-5.20049e-07 1.363e-06 -0.00100006)
(-4.10796e-07 1.3515e-06 -0.00100021)
(-2.63095e-07 1.3429e-06 -0.00100031)
(-9.04135e-08 1.3357e-06 -0.00100037)
(-5.94886e-07 1.24685e-06 -0.000999464)
(-5.33532e-07 1.23235e-06 -0.000999645)
(-4.21697e-07 1.21981e-06 -0.000999797)
(-2.70192e-07 1.2105e-06 -0.000999907)
(-9.28669e-08 1.2032e-06 -0.000999966)
(-6.09752e-07 9.93949e-07 -0.000999101)
(-5.4709e-07 9.8075e-07 -0.000999289)
(-4.32581e-07 9.69404e-07 -0.000999448)
(-2.77238e-07 9.6102e-07 -0.000999563)
(-9.52958e-08 9.547e-07 -0.000999625)
(-6.21848e-07 6.408e-07 -0.000998835)
(-5.58046e-07 6.31534e-07 -0.000999029)
(-4.41359e-07 6.23594e-07 -0.000999193)
(-2.82918e-07 6.17723e-07 -0.000999313)
(-9.72527e-08 6.13414e-07 -0.000999378)
(-6.27641e-07 2.20977e-07 -0.000998694)
(-5.63302e-07 2.17634e-07 -0.000998892)
(-4.45578e-07 2.14774e-07 -0.000999059)
(-2.85659e-07 2.12656e-07 -0.00099918)
(-9.81979e-08 2.11126e-07 -0.000999247)
(-7.84989e-07 1.87357e-06 -0.000999852)
(-7.02751e-07 1.85238e-06 -0.00100008)
(-5.54712e-07 1.83391e-06 -0.00100028)
(-3.55202e-07 1.82001e-06 -0.00100042)
(-1.2206e-07 1.80896e-06 -0.00100049)
(-8.09011e-07 1.70007e-06 -0.000999278)
(-7.24701e-07 1.67623e-06 -0.000999521)
(-5.72535e-07 1.65553e-06 -0.000999726)
(-3.66876e-07 1.64009e-06 -0.000999875)
(-1.26121e-07 1.62858e-06 -0.000999955)
(-8.33788e-07 1.35798e-06 -0.000998781)
(-7.47294e-07 1.33591e-06 -0.000999037)
(-5.90775e-07 1.31686e-06 -0.000999254)
(-3.78784e-07 1.3027e-06 -0.000999412)
(-1.30258e-07 1.29256e-06 -0.000999497)
(-8.5417e-07 8.77117e-07 -0.000998414)
(-7.65782e-07 8.61496e-07 -0.000998682)
(-6.05656e-07 8.48046e-07 -0.000998908)
(-3.88475e-07 8.38071e-07 -0.000999073)
(-1.33615e-07 8.31108e-07 -0.000999163)
(-8.64335e-07 3.02806e-07 -0.00099822)
(-7.75026e-07 2.97157e-07 -0.000998493)
(-6.13104e-07 2.92292e-07 -0.000998725)
(-3.93327e-07 2.88692e-07 -0.000998893)
(-1.35297e-07 2.86214e-07 -0.000998986)
(-1.05892e-06 2.54885e-06 -0.000999811)
(-9.46245e-07 2.51485e-06 -0.00100012)
(-7.46501e-07 2.48495e-06 -0.00100038)
(-4.78095e-07 2.46223e-06 -0.00100056)
(-1.64336e-07 2.44489e-06 -0.00100066)
(-1.09821e-06 2.31846e-06 -0.00099903)
(-9.82364e-07 2.27881e-06 -0.000999357)
(-7.7599e-07 2.24422e-06 -0.000999632)
(-4.9759e-07 2.2182e-06 -0.000999833)
(-1.71179e-07 2.19964e-06 -0.000999941)
(-1.13992e-06 1.85767e-06 -0.000998349)
(-1.02048e-06 1.82034e-06 -0.000998698)
(-8.07008e-07 1.78796e-06 -0.000998994)
(-5.18085e-07 1.76368e-06 -0.000999211)
(-1.78373e-07 1.74702e-06 -0.000999329)
(-1.17456e-06 1.20332e-06 -0.000997842)
(-1.05202e-06 1.17672e-06 -0.00099821)
(-8.32521e-07 1.15373e-06 -0.000998523)
(-5.34838e-07 1.13657e-06 -0.000998752)
(-1.84218e-07 1.12507e-06 -0.000998878)
(-1.19242e-06 4.16136e-07 -0.000997571)
(-1.06828e-06 4.06502e-07 -0.00099795)
(-8.4568e-07 3.98179e-07 -0.000998271)
(-5.43482e-07 3.91989e-07 -0.000998507)
(-1.87243e-07 3.87877e-07 -0.000998638)
(-1.42193e-06 3.46351e-06 -0.000999764)
(-1.26779e-06 3.40861e-06 -0.00100017)
(-1.00007e-06 3.35979e-06 -0.0010005)
(-6.41222e-07 3.3222e-06 -0.00100075)
(-2.20659e-07 3.29426e-06 -0.00100088)
(-1.48675e-06 3.16234e-06 -0.000998704)
(-1.32761e-06 3.09575e-06 -0.000999139)
(-1.0493e-06 3.03727e-06 -0.000999508)
(-6.74209e-07 2.9927e-06 -0.000999778)
(-2.32391e-07 2.96192e-06 -0.000999925)
(-1.55764e-06 2.54605e-06 -0.000997768)
(-1.39285e-06 2.48223e-06 -0.000998244)
(-1.10298e-06 2.42653e-06 -0.000998647)
(-7.10305e-07 2.38423e-06 -0.000998946)
(-2.45246e-07 2.35607e-06 -0.000999112)
(-1.61691e-06 1.65661e-06 -0.000997062)
(-1.44705e-06 1.61103e-06 -0.00099757)
(-1.14712e-06 1.57146e-06 -0.000998003)
(-7.39625e-07 1.5416e-06 -0.000998324)
(-2.55582e-07 1.52214e-06 -0.000998504)
(-1.64814e-06 5.74443e-07 -0.000996681)
(-1.4756e-06 5.57963e-07 -0.000997207)
(-1.17045e-06 5.43645e-07 -0.000997656)
(-7.5517e-07 5.32844e-07 -0.000997989)
(-2.61082e-07 5.25857e-07 -0.000998177)
(-1.89666e-06 4.69692e-06 -0.00099972)
(-1.68659e-06 4.60761e-06 -0.00100024)
(-1.33221e-06 4.52712e-06 -0.00100067)
(-8.57102e-07 4.46432e-06 -0.001001)
(-2.9578e-07 4.41799e-06 -0.00100118)
(-2.00448e-06 4.31418e-06 -0.000998287)
(-1.78598e-06 4.20119e-06 -0.000998858)
(-1.41435e-06 4.10123e-06 -0.000999344)
(-9.12938e-07 4.02383e-06 -0.000999705)
(-3.1604e-07 3.97102e-06 -0.000999908)
(-2.12643e-06 3.4997e-06 -0.000996995)
(-1.89954e-06 3.38941e-06 -0.000997638)
(-1.50938e-06 3.29248e-06 -0.00099819)
(-9.7877e-07 3.2174e-06 -0.000998607)
(-3.40119e-07 3.16798e-06 -0.000998848)