/*--------------------------------*- C++ -*----------------------------------*\
| =========                 |                                                 |
| \\      /  F ield         | OpenFOAM: The Open Source CFD Toolbox           |
|  \\    /   O peration     | Version:  5.x                                   |
|   \\  /    A nd           | Web:      www.OpenFOAM.org                      |
|    \\/     M anipulation  |                                                 |
\*---------------------------------------------------------------------------*/
FoamFile
{
    version     2.0;
    format      ascii;
    class       volScalarField;
    location    "80000";
    object      p;
}
// * * * * * * * * * * * * * * * * * * * * * * * * * * * * * * * * * * * * * //

dimensions      [0 2 -2 0 0 0 0];

internalField   nonuniform List<scalar> 
2250
(
1.36814e-10
1.20208e-10
1.27916e-10
1.498e-10
1.7695e-10
1.15189e-10
1.04064e-10
1.24512e-10
1.57204e-10
1.86461e-10
1.08838e-10
1.04106e-10
1.35797e-10
1.80392e-10
2.16754e-10
1.0815e-10
1.12305e-10
1.62872e-10
2.24775e-10
2.82484e-10
9.58905e-11
1.20879e-10
2.04658e-10
2.86835e-10
3.44988e-10
4.45379e-10
4.20135e-10
4.48013e-10
4.93072e-10
5.34746e-10
4.08826e-10
4.01659e-10
4.55968e-10
5.18878e-10
5.56769e-10
4.04066e-10
4.11218e-10
4.94527e-10
5.90482e-10
6.56609e-10
4.09136e-10
4.39336e-10
5.73247e-10
7.21281e-10
8.61413e-10
3.90065e-10
4.79104e-10
6.9133e-10
8.97338e-10
1.08473e-09
8.63434e-10
8.60816e-10
8.9774e-10
9.19679e-10
9.05497e-10
8.51476e-10
8.65841e-10
9.23864e-10
9.57185e-10
9.40968e-10
8.63096e-10
8.90729e-10
9.87738e-10
1.0714e-09
1.10539e-09
8.87493e-10
9.46564e-10
1.11168e-09
1.27775e-09
1.41184e-09
9.00637e-10
1.03718e-09
1.28637e-09
1.53678e-09
1.75511e-09
1.44317e-09
1.46503e-09
1.47262e-09
1.4296e-09
1.34019e-09
1.47222e-09
1.49576e-09
1.50904e-09
1.4698e-09
1.38523e-09
1.50343e-09
1.53321e-09
1.58506e-09
1.59902e-09
1.56642e-09
1.56249e-09
1.62276e-09
1.73902e-09
1.83293e-09
1.88091e-09
1.65526e-09
1.77844e-09
1.95626e-09
2.10805e-09
2.15318e-09
2.12284e-09
2.14101e-09
2.09632e-09
1.99183e-09
1.87437e-09
2.17644e-09
2.18113e-09
2.13078e-09
2.02752e-09
1.91528e-09
2.22688e-09
2.23504e-09
2.21524e-09
2.15075e-09
2.06338e-09
2.33608e-09
2.37332e-09
2.39616e-09
2.37752e-09
2.30882e-09
2.54561e-09
2.61782e-09
2.65667e-09
2.62739e-09
2.44381e-09
2.78467e-09
2.76224e-09
2.67379e-09
2.545e-09
2.4454e-09
2.82561e-09
2.791e-09
2.69764e-09
2.57409e-09
2.4792e-09
2.89589e-09
2.87199e-09
2.80186e-09
2.69968e-09
2.60749e-09
3.05615e-09
3.0642e-09
3.01883e-09
2.93318e-09
2.82501e-09
3.36152e-09
3.38698e-09
3.33886e-09
3.21307e-09
2.97629e-09
3.346e-09
3.26675e-09
3.16384e-09
3.04304e-09
2.95366e-09
3.34721e-09
3.27639e-09
3.17821e-09
3.06993e-09
2.99608e-09
3.43451e-09
3.38646e-09
3.30886e-09
3.21719e-09
3.15702e-09
3.61425e-09
3.60085e-09
3.54526e-09
3.4693e-09
3.41615e-09
3.91473e-09
3.91769e-09
3.8776e-09
3.79272e-09
3.70239e-09
3.83471e-09
3.71841e-09
3.62501e-09
3.51783e-09
3.40643e-09
3.80018e-09
3.71662e-09
3.6357e-09
3.54792e-09
3.47966e-09
3.88664e-09
3.8299e-09
3.7698e-09
3.70937e-09
3.69038e-09
4.02341e-09
3.99495e-09
3.96561e-09
3.94296e-09
3.97914e-09
4.184e-09
4.17873e-09
4.19993e-09
4.23176e-09
4.33725e-09
4.37543e-09
4.26265e-09
4.17892e-09
4.07644e-09
3.96017e-09
4.32972e-09
4.25549e-09
4.18382e-09
4.10734e-09
4.06132e-09
4.37877e-09
4.32216e-09
4.27301e-09
4.2396e-09
4.26541e-09
4.41341e-09
4.37275e-09
4.36638e-09
4.3934e-09
4.50269e-09
4.37035e-09
4.36508e-09
4.438e-09
4.57441e-09
4.83547e-09
5.09898e-09
5.0128e-09
4.91795e-09
4.81431e-09
4.74466e-09
5.05331e-09
4.98622e-09
4.89786e-09
4.82204e-09
4.81282e-09
5.02512e-09
4.96331e-09
4.89927e-09
4.86843e-09
4.91067e-09
4.94304e-09
4.8907e-09
4.87112e-09
4.89673e-09
5.00317e-09
4.76662e-09
4.75476e-09
4.80636e-09
4.93478e-09
5.1939e-09
6.06499e-09
5.98798e-09
5.86027e-09
5.74935e-09
5.71224e-09
5.99614e-09
5.91083e-09
5.7856e-09
5.69324e-09
5.67507e-09
5.87012e-09
5.78808e-09
5.68527e-09
5.62103e-09
5.61617e-09
5.69888e-09
5.62618e-09
5.54952e-09
5.51016e-09
5.52783e-09
5.50354e-09
5.44681e-09
5.39038e-09
5.39169e-09
5.47983e-09
7.28188e-09
7.17737e-09
7.01779e-09
6.89572e-09
6.82721e-09
7.14927e-09
7.02708e-09
6.87286e-09
6.7587e-09
6.69369e-09
6.92944e-09
6.81947e-09
6.68113e-09
6.57634e-09
6.51284e-09
6.68872e-09
6.58646e-09
6.44846e-09
6.33825e-09
6.2772e-09
6.48486e-09
6.36107e-09
6.19749e-09
6.07976e-09
6.02867e-09
8.80053e-09
8.65653e-09
8.49265e-09
8.37172e-09
8.27909e-09
8.58178e-09
8.43634e-09
8.28697e-09
8.17451e-09
8.10096e-09
8.27383e-09
8.14908e-09
8.00594e-09
7.88774e-09
7.80845e-09
7.93576e-09
7.81676e-09
7.65803e-09
7.51225e-09
7.41095e-09
7.62175e-09
7.47678e-09
7.28468e-09
7.10718e-09
6.97731e-09
1.07667e-08
1.06071e-08
1.04571e-08
1.03356e-08
1.02553e-08
1.04646e-08
1.03251e-08
1.01936e-08
1.00784e-08
9.99855e-09
1.00388e-08
9.91663e-09
9.77561e-09
9.62936e-09
9.50169e-09
9.52488e-09
9.40831e-09
9.23908e-09
9.03513e-09
8.83199e-09
8.97973e-09
8.85982e-09
8.65403e-09
8.37975e-09
8.08484e-09
1.33696e-08
1.32157e-08
1.30417e-08
1.28474e-08
1.26854e-08
1.29783e-08
1.28452e-08
1.26769e-08
1.24674e-08
1.22518e-08
1.23462e-08
1.22135e-08
1.20138e-08
1.17465e-08
1.14471e-08
1.15272e-08
1.13909e-08
1.11431e-08
1.07959e-08
1.04038e-08
1.06091e-08
1.04652e-08
1.0156e-08
9.71729e-09
9.23045e-09
1.67628e-08
1.65967e-08
1.63103e-08
1.59235e-08
1.5503e-08
1.6236e-08
1.60674e-08
1.57642e-08
1.53419e-08
1.4854e-08
1.52622e-08
1.50724e-08
1.47253e-08
1.42473e-08
1.36954e-08
1.39575e-08
1.37422e-08
1.33348e-08
1.27895e-08
1.21876e-08
1.24472e-08
1.21877e-08
1.17004e-08
1.10922e-08
1.04426e-08
2.10731e-08
2.08453e-08
2.03628e-08
1.97017e-08
1.89383e-08
2.03286e-08
2.00717e-08
1.95628e-08
1.88739e-08
1.80814e-08
1.88667e-08
1.85785e-08
1.80381e-08
1.73245e-08
1.65127e-08
1.68789e-08
1.65518e-08
1.59648e-08
1.522e-08
1.43977e-08
1.45368e-08
1.4148e-08
1.34946e-08
1.27238e-08
1.18475e-08
2.64927e-08
2.61498e-08
2.54226e-08
2.44485e-08
2.33192e-08
2.54354e-08
2.50548e-08
2.43141e-08
2.33356e-08
2.22085e-08
2.33514e-08
2.2951e-08
2.22077e-08
2.12327e-08
2.01091e-08
2.05049e-08
2.00772e-08
1.93155e-08
1.83376e-08
1.72146e-08
1.71512e-08
1.66812e-08
1.58822e-08
1.48896e-08
1.36942e-08
3.3363e-08
3.28562e-08
3.18397e-08
3.04769e-08
2.88727e-08
3.18908e-08
3.13614e-08
3.03537e-08
2.89982e-08
2.73966e-08
2.90412e-08
2.85172e-08
2.75262e-08
2.61759e-08
2.45626e-08
2.51431e-08
2.46124e-08
2.36159e-08
2.22565e-08
2.06132e-08
2.05732e-08
2.00228e-08
1.8999e-08
1.75854e-08
1.57961e-08
4.22124e-08
4.14888e-08
4.00952e-08
3.81851e-08
3.58998e-08
4.02004e-08
3.94821e-08
3.81086e-08
3.61985e-08
3.3895e-08
3.63669e-08
3.56703e-08
3.43058e-08
3.23781e-08
3.00232e-08
3.10985e-08
3.03993e-08
2.9018e-08
2.7045e-08
2.46041e-08
2.49209e-08
2.42089e-08
2.27853e-08
2.0688e-08
1.79589e-08
5.37888e-08
5.27804e-08
5.08539e-08
4.81623e-08
4.49312e-08
5.10627e-08
5.00782e-08
4.81599e-08
4.54473e-08
4.21647e-08
4.58838e-08
4.49107e-08
4.29717e-08
4.02146e-08
3.68659e-08
3.8718e-08
3.77271e-08
3.57523e-08
3.29289e-08
2.95173e-08
3.0291e-08
2.92779e-08
2.72501e-08
2.4317e-08
2.06895e-08
6.91145e-08
6.77209e-08
6.50321e-08
6.1256e-08
5.6748e-08
6.54181e-08
6.40403e-08
6.13324e-08
5.75146e-08
5.29334e-08
5.83578e-08
5.69606e-08
5.42023e-08
5.03276e-08
4.57065e-08
4.85525e-08
4.71164e-08
4.43098e-08
4.03748e-08
3.57519e-08
3.69931e-08
3.55116e-08
3.26611e-08
2.86958e-08
2.40515e-08
8.95604e-08
8.7629e-08
8.38807e-08
7.8645e-08
7.2451e-08
8.45288e-08
8.25864e-08
7.8799e-08
7.35171e-08
6.72633e-08
7.4882e-08
7.28926e-08
6.90424e-08
6.37084e-08
5.74376e-08
6.14971e-08
5.94563e-08
5.5556e-08
5.0158e-08
4.38301e-08
4.56996e-08
4.36152e-08
3.96877e-08
3.42418e-08
2.78037e-08
1.16969e-07
1.14289e-07
1.09112e-07
1.01934e-07
9.34995e-08
1.10116e-07
1.07401e-07
1.02176e-07
9.49619e-08
8.65055e-08
9.69964e-08
9.42205e-08
8.89346e-08
8.16711e-08
7.31879e-08
7.88512e-08
7.60275e-08
7.06901e-08
6.33257e-08
5.46442e-08
5.7462e-08
5.46356e-08
4.92597e-08
4.17379e-08
3.27481e-08
1.53853e-07
1.5015e-07
1.43064e-07
1.33289e-07
1.21826e-07
1.4455e-07
1.40792e-07
1.33651e-07
1.23838e-07
1.12366e-07
1.26805e-07
1.22985e-07
1.15772e-07
1.05859e-07
9.42747e-08
1.02344e-07
9.84787e-08
9.11684e-08
8.10589e-08
6.91039e-08
7.35521e-08
6.96894e-08
6.22562e-08
5.18814e-08
3.95313e-08
2.03647e-07
1.98558e-07
1.88936e-07
1.75652e-07
1.6014e-07
1.91059e-07
1.85903e-07
1.76202e-07
1.62831e-07
1.47232e-07
1.67134e-07
1.61909e-07
1.52061e-07
1.38444e-07
1.2252e-07
1.34211e-07
1.28903e-07
1.18833e-07
1.04857e-07
8.83227e-08
9.54173e-08
9.00484e-08
7.97078e-08
6.53691e-08
4.82745e-08
2.71021e-07
2.64038e-07
2.51108e-07
2.32977e-07
2.12221e-07
2.54025e-07
2.46973e-07
2.33873e-07
2.15552e-07
1.94488e-07
2.21785e-07
2.14613e-07
2.01171e-07
1.82391e-07
1.60635e-07
1.77417e-07
1.70074e-07
1.56202e-07
1.36863e-07
1.14202e-07
1.24992e-07
1.17506e-07
1.03175e-07
8.3361e-08
5.98818e-08
3.62311e-07
3.52604e-07
3.35598e-07
3.10374e-07
2.83407e-07
3.39384e-07
3.29603e-07
3.12175e-07
2.86708e-07
2.58907e-07
2.95883e-07
2.85883e-07
2.67742e-07
2.41632e-07
2.12425e-07
2.36061e-07
2.25778e-07
2.06857e-07
1.79997e-07
1.49336e-07
1.65028e-07
1.54538e-07
1.34846e-07
1.07376e-07
7.53827e-08
4.8619e-07
4.71864e-07
4.51183e-07
4.13707e-07
3.82198e-07
4.55209e-07
4.40956e-07
4.19127e-07
3.81885e-07
3.47982e-07
3.96401e-07
3.81919e-07
3.58439e-07
3.20903e-07
2.83633e-07
3.16028e-07
3.01182e-07
2.76154e-07
2.38009e-07
1.97478e-07
2.19296e-07
2.04396e-07
1.7783e-07
1.3946e-07
9.59557e-08
6.54829e-07
6.30569e-07
6.12029e-07
5.47868e-07
5.23488e-07
6.12888e-07
5.89613e-07
5.6766e-07
5.06154e-07
4.74938e-07
5.32987e-07
5.10002e-07
4.83535e-07
4.24334e-07
3.83954e-07
4.2638e-07
4.03119e-07
3.731e-07
3.14897e-07
2.65311e-07
2.92854e-07
2.70887e-07
2.36556e-07
1.81783e-07
1.23934e-07
8.84825e-07
8.3876e-07
8.38696e-07
7.17888e-07
7.28553e-07
8.28383e-07
7.86004e-07
7.77209e-07
6.65189e-07
6.59035e-07
7.1762e-07
6.77346e-07
6.56868e-07
5.54189e-07
5.26904e-07
5.82323e-07
5.4146e-07
5.14085e-07
4.14897e-07
3.64775e-07
3.90941e-07
3.56519e-07
3.15785e-07
2.34231e-07
1.61193e-07
1.1975e-06
1.11051e-06
1.15562e-06
9.33069e-07
1.02349e-06
1.12384e-06
1.04805e-06
1.07226e-06
8.73082e-07
9.2302e-07
9.61803e-07
8.91694e-07
8.89285e-07
7.13039e-07
7.22883e-07
8.09583e-07
7.34906e-07
7.25774e-07
5.49151e-07
5.14051e-07
5.15497e-07
4.60199e-07
4.15649e-07
2.92214e-07
2.05663e-07
1.62001e-06
1.46359e-06
1.59306e-06
1.20524e-06
1.4463e-06
1.53163e-06
1.40507e-06
1.48625e-06
1.1529e-06
1.29766e-06
1.28105e-06
1.16585e-06
1.1929e-06
9.03643e-07
9.80167e-07
1.1441e-06
1.01141e-06
1.04327e-06
7.37193e-07
7.38846e-07
6.69942e-07
5.81221e-07
5.33972e-07
3.48124e-07
2.51119e-07
2.18733e-06
1.92444e-06
2.19127e-06
1.54759e-06
2.05722e-06
2.08801e-06
1.88459e-06
2.05634e-06
1.52701e-06
1.822e-06
1.70668e-06
1.53232e-06
1.58823e-06
1.13756e-06
1.31417e-06
1.62897e-06
1.39717e-06
1.5103e-06
9.87694e-07
1.06628e-06
8.70047e-07
7.27777e-07
6.75231e-07
3.96517e-07
2.95227e-07
2.91748e-06
2.48887e-06
2.98306e-06
1.94898e-06
2.92135e-06
2.78335e-06
2.47372e-06
2.78905e-06
1.99512e-06
2.50439e-06
2.24728e-06
2.01383e-06
2.06625e-06
1.41382e-06
1.72349e-06
2.28478e-06
1.88073e-06
2.15655e-06
1.27493e-06
1.51689e-06
1.10326e-06
8.77206e-07
8.1753e-07
4.15329e-07
3.39603e-07
3.29317e-06
2.81139e-06
3.82406e-06
2.30648e-06
3.81439e-06
3.23841e-06
2.846e-06
3.53483e-06
2.46172e-06
3.22751e-06
2.43636e-06
2.16328e-06
2.45723e-06
1.63449e-06
2.16522e-06
2.69313e-06
2.0863e-06
2.86073e-06
1.4765e-06
2.07724e-06
9.85355e-07
6.89945e-07
8.71846e-07
3.52637e-07
4.22417e-07
9.11473e-06
7.95435e-06
9.28848e-06
6.20329e-06
1.05643e-05
8.4926e-06
7.98738e-06
8.52996e-06
6.88939e-06
7.72963e-06
7.95292e-06
7.9421e-06
6.73256e-06
5.65066e-06
5.60403e-06
8.76795e-06
7.46611e-06
8.21265e-06
5.29206e-06
5.61879e-06
5.58481e-06
5.04959e-06
3.95427e-06
2.95193e-06
1.76418e-06
-4.73429e-07
-1.59773e-06
1.18513e-06
-1.75964e-06
1.60756e-06
-5.94788e-07
-1.20928e-06
4.41341e-07
-1.3011e-06
-1.17925e-07
-1.38095e-06
-1.83419e-06
-1.21493e-06
-2.92823e-06
-2.27547e-06
-1.25494e-06
-2.61381e-06
-3.06654e-07
-3.57697e-06
-1.86552e-06
-4.0452e-06
-4.83766e-06
-3.49724e-06
-5.324e-06
-2.58743e-06
2.26576e-05
1.85529e-05
2.49257e-05
1.31096e-05
3.74773e-05
1.84467e-05
1.94134e-05
2.12206e-05
1.98648e-05
1.56734e-05
2.07367e-05
2.49896e-05
1.58868e-05
1.67425e-05
1.1496e-05
2.62708e-05
2.13195e-05
2.70237e-05
1.38115e-05
2.03265e-05
1.35193e-05
1.38318e-05
8.29426e-06
7.03023e-06
5.31599e-06
-1.17829e-05
-1.01819e-05
-1.7462e-06
-5.76781e-06
-1.95816e-05
-8.42548e-06
-7.82183e-06
-4.46715e-06
-8.61802e-06
-4.33416e-06
-8.42193e-06
-1.42229e-05
-3.86271e-06
-9.79726e-06
-1.2439e-05
-1.19477e-05
-1.18802e-05
-9.38381e-06
-9.15246e-06
-1.5424e-05
-1.33753e-05
-1.56132e-05
-1.07245e-05
-1.39729e-05
2.35191e-06
5.23899e-05
2.37746e-05
3.89844e-05
-1.69738e-06
0.000178305
1.95001e-05
3.42479e-05
3.4345e-05
5.34879e-05
-2.84843e-05
3.19828e-05
8.44739e-05
1.79957e-05
3.94256e-05
-1.74095e-05
7.34899e-05
5.04873e-05
8.12246e-05
1.80704e-05
9.12295e-05
4.71374e-06
2.94427e-05
-1.42035e-05
3.99285e-06
-2.33145e-06
0.00109159
0.00117819
0.000715044
0.00097328
0.00082046
0.00128612
0.0010667
0.00121146
0.000828354
0.000910801
0.00105925
0.000924991
0.000863407
0.000667591
0.000895546
0.000914919
0.000812034
0.000683223
0.000815886
0.000511027
0.000985999
0.000855771
0.000836099
0.000601881
0.000638927
0.00146593
0.00195466
0.00181809
0.00158282
0.00129893
0.00185755
0.00170291
0.0019603
0.00159155
0.00159458
0.00178013
0.00171309
0.00186199
0.00134814
0.00182176
0.00192304
0.00132672
0.0012833
0.00146224
0.00124861
0.00167833
0.00137522
0.00151984
0.00177793
0.00185648
0.00241365
0.00235533
0.00251087
0.00248695
0.00257436
0.00222382
0.00234219
0.00270757
0.00216563
0.00225404
0.00242728
0.00247216
0.00258753
0.00290871
0.0021847
0.0025241
0.00253473
0.00225483
0.0024738
0.00257836
0.00295901
0.00264035
0.00243354
0.00304939
0.00226539
0.00296187
0.00267705
0.00317019
0.00388944
0.00409983
0.00301209
0.00360112
0.0032211
0.00373492
0.00397926
0.00277887
0.00282183
0.00323214
0.00393395
0.00342996
0.00285261
0.00315303
0.00342275
0.00354811
0.00339844
0.00305223
0.00308544
0.00389357
0.00354484
0.00335928
0.00437875
0.00475623
0.00402529
0.00449203
0.00455087
0.00434427
0.00477074
0.00398828
0.00444129
0.00469091
0.00378443
0.00402773
0.00406814
0.00435539
0.00445178
0.00360223
0.0039981
0.00409719
0.00457704
0.00435295
0.00399492
0.00399924
0.00419282
0.00387065
0.00499314
0.00541448
0.00534759
0.00469431
0.00495146
0.00473595
0.00499395
0.0052208
0.0048966
0.00497231
0.00497934
0.00537189
0.00517271
0.00471201
0.00491473
0.00478982
0.00487351
0.00497872
0.00485826
0.00516695
0.00529959
0.00497895
0.00511437
0.00460864
0.00528274
0.00520691
0.00580603
0.0059059
0.00561683
0.0055136
0.00537938
0.00570976
0.0057143
0.0052609
0.00548947
0.00547646
0.00589002
0.0058574
0.00609779
0.00558462
0.00534116
0.00564525
0.0056849
0.00563349
0.00554147
0.00543923
0.0049443
0.0055754
0.00566293
0.00579255
0.00550488
0.00654078
0.0062019
0.00671347
0.00640304
0.00600716
0.0064823
0.00603048
0.00582928
0.00600502
0.00589947
0.00666206
0.00628813
0.0062803
0.00615321
0.00614833
0.00701003
0.0063168
0.00631267
0.00605939
0.00588452
0.00624811
0.00613495
0.00603603
0.00597427
0.00638616
0.00652975
0.00636171
0.00647066
0.0063769
0.00640276
0.00665945
0.00633717
0.006898
0.00649059
0.00616319
0.00658753
0.00657064
0.00635089
0.00663857
0.00644156
0.00656064
0.00656088
0.00657043
0.00659506
0.00661099
0.00645686
0.00660598
0.00639853
0.00677546
0.00689149
0.00668318
0.00728037
0.00718898
0.00714988
0.0069083
0.00721678
0.00718558
0.00725152
0.00719055
0.00715371
0.00667992
0.00704704
0.00681703
0.00717854
0.00681514
0.00684613
0.00706903
0.00680657
0.007009
0.00698153
0.00744688
0.00703647
0.00683004
0.00694954
0.00699508
0.00727026
0.00729361
0.00724529
0.0072778
0.00723688
0.00723217
0.00725012
0.00724884
0.00727061
0.00724648
0.0072561
0.00724913
0.00725022
0.00726092
0.00718609
0.00726
0.00725388
0.00723343
0.00724877
0.00721114
0.00726523
0.00725622
0.00720571
0.00719125
0.00722077
0.00721069
0.00720042
0.00720248
0.00717489
0.00719532
0.0071885
0.00719912
0.00720429
0.00719309
0.0071915
0.00719536
0.00718761
0.00719648
0.00717586
0.00718663
0.00719674
0.00719682
0.00720815
0.00718861
0.00719387
0.00721295
0.00721095
0.00720724
0.0071892
0.00720188
0.00721313
0.00721468
0.0072142
0.00720849
0.00720252
0.00721096
0.00720952
0.00721017
0.00720653
0.0072014
0.00721499
0.00721188
0.0072078
0.00720171
0.00719899
0.00721046
0.00720816
0.00720469
0.00719784
0.00719657
0.00721286
0.007209
0.00720091
0.00719013
0.00719277
0.00720054
0.00719809
0.00720082
0.00719256
0.00719832
0.00719891
0.00719861
0.00720027
0.00719454
0.0071974
0.00720096
0.00719826
0.00720095
0.00719314
0.00719774
0.00719987
0.00719823
0.00720121
0.00719565
0.00719814
0.00720431
0.00720295
0.00720227
0.00719761
0.00719889
0.00720318
0.00720183
0.00720237
0.0071984
0.00719876
0.00720228
0.007201
0.00720139
0.00719816
0.00719833
0.00720331
0.00720165
0.00720156
0.00719739
0.00719847
0.00720129
0.00720018
0.00720059
0.00719722
0.00719838
0.00720318
0.00720178
0.00720127
0.00719794
0.00719845
0.00720102
0.00720006
0.00720042
0.00719762
0.00719844
0.0072006
0.00719988
0.00720012
0.00719785
0.0071983
0.00720124
0.00720029
0.00720048
0.00719778
0.00719843
0.00720033
0.00719958
0.00719992
0.00719783
0.00719846
0.00720168
0.00720081
0.00720064
0.00719856
0.00719881
0.00720017
0.00719955
0.00719964
0.00719794
0.00719826
0.00719994
0.00719943
0.00719949
0.00719804
0.00719823
0.00720036
0.00719976
0.00719976
0.00719814
0.00719835
0.00719984
0.00719934
0.00719951
0.00719819
0.00719844
0.00720072
0.00720019
0.00720006
0.00719875
0.00719878
0.0071996
0.00719923
0.00719916
0.00719817
0.00719817
0.00719948
0.00719915
0.0071991
0.00719822
0.00719819
0.00719975
0.0071994
0.0071993
0.00719834
0.0071983
0.00719948
0.00719917
0.0071992
0.0071984
0.00719841
0.00720002
0.00719971
0.00719959
0.0071988
0.00719868
0.00719922
0.00719901
0.00719887
0.00719831
0.00719815
0.00719916
0.00719897
0.00719885
0.00719835
0.00719818
0.00719935
0.00719914
0.00719899
0.00719845
0.00719827
0.00719922
0.00719904
0.00719898
0.00719852
0.00719838
0.00719957
0.00719938
0.00719925
0.00719878
0.00719859
0.00719897
0.00719886
0.0071987
0.00719839
0.00719818
0.00719896
0.00719885
0.00719871
0.00719842
0.00719821
0.00719907
0.00719895
0.0071988
0.0071985
0.00719828
0.00719904
0.00719893
0.00719884
0.00719857
0.00719838
0.00719925
0.00719914
0.00719901
0.00719873
0.00719853
0.00719882
0.00719874
0.00719862
0.00719842
0.00719824
0.00719882
0.00719875
0.00719863
0.00719845
0.00719826
0.00719889
0.00719882
0.00719869
0.0071985
0.00719832
0.0071989
0.00719884
0.00719874
0.00719857
0.0071984
0.00719903
0.00719896
0.00719885
0.00719868
0.00719851
0.00719871
0.00719866
0.00719857
0.00719844
0.0071983
0.00719872
0.00719867
0.00719859
0.00719846
0.00719832
0.00719877
0.00719872
0.00719863
0.0071985
0.00719836
0.0071988
0.00719876
0.00719868
0.00719856
0.00719842
0.00719888
0.00719883
0.00719875
0.00719863
0.0071985
0.00719864
0.00719861
0.00719854
0.00719845
0.00719835
0.00719866
0.00719862
0.00719856
0.00719847
0.00719836
0.00719868
0.00719865
0.00719859
0.0071985
0.0071984
0.00719872
0.00719869
0.00719863
0.00719854
0.00719844
0.00719877
0.00719874
0.00719868
0.0071986
0.0071985
0.0071986
0.00719857
0.00719852
0.00719846
0.00719838
0.00719861
0.00719858
0.00719853
0.00719847
0.0071984
0.00719863
0.0071986
0.00719856
0.00719849
0.00719842
0.00719866
0.00719863
0.00719859
0.00719853
0.00719846
0.00719869
0.00719867
0.00719863
0.00719857
0.0071985
0.00719856
0.00719855
0.00719851
0.00719847
0.00719841
0.00719857
0.00719855
0.00719852
0.00719847
0.00719842
0.00719859
0.00719857
0.00719854
0.00719849
0.00719844
0.00719861
0.00719859
0.00719856
0.00719852
0.00719847
0.00719864
0.00719862
0.00719859
0.00719855
0.0071985
0.00719854
0.00719853
0.00719851
0.00719847
0.00719843
0.00719855
0.00719854
0.00719851
0.00719848
0.00719844
0.00719856
0.00719855
0.00719852
0.00719849
0.00719845
0.00719858
0.00719857
0.00719854
0.00719851
0.00719847
0.0071986
0.00719859
0.00719856
0.00719853
0.0071985
0.00719853
0.00719852
0.0071985
0.00719848
0.00719845
0.00719853
0.00719852
0.00719851
0.00719848
0.00719845
0.00719854
0.00719853
0.00719852
0.00719849
0.00719846
0.00719855
0.00719855
0.00719853
0.00719851
0.00719848
0.00719857
0.00719856
0.00719854
0.00719852
0.00719849
0.00719852
0.00719851
0.0071985
0.00719848
0.00719846
0.00719852
0.00719851
0.0071985
0.00719848
0.00719846
0.00719853
0.00719852
0.00719851
0.00719849
0.00719847
0.00719854
0.00719853
0.00719852
0.0071985
0.00719848
0.00719855
0.00719854
0.00719853
0.00719851
0.00719849
0.00719851
0.00719851
0.0071985
0.00719848
0.00719847
0.00719851
0.00719851
0.0071985
0.00719849
0.00719847
0.00719852
0.00719851
0.0071985
0.00719849
0.00719848
0.00719853
0.00719852
0.00719851
0.0071985
0.00719848
0.00719853
0.00719853
0.00719852
0.00719851
0.00719849
0.0071985
0.0071985
0.00719849
0.00719848
0.00719847
0.00719851
0.0071985
0.0071985
0.00719849
0.00719848
0.00719851
0.00719851
0.0071985
0.00719849
0.00719848
0.00719852
0.00719851
0.00719851
0.0071985
0.00719849
0.00719852
0.00719852
0.00719851
0.0071985
0.00719849
0.0071985
0.0071985
0.00719849
0.00719849
0.00719848
0.0071985
0.0071985
0.00719849
0.00719849
0.00719848
0.00719851
0.0071985
0.0071985
0.00719849
0.00719848
0.00719851
0.00719851
0.0071985
0.0071985
0.00719849
0.00719851
0.00719851
0.00719851
0.0071985
0.00719849
0.0071985
0.0071985
0.00719849
0.00719849
0.00719848
0.0071985
0.0071985
0.00719849
0.00719849
0.00719848
0.0071985
0.0071985
0.0071985
0.00719849
0.00719849
0.0071985
0.0071985
0.0071985
0.00719849
0.00719849
0.00719851
0.00719851
0.0071985
0.0071985
0.00719849
0.0071985
0.0071985
0.00719849
0.00719849
0.00719849
0.0071985
0.0071985
0.00719849
0.00719849
0.00719849
0.0071985
0.0071985
0.0071985
0.00719849
0.00719849
0.0071985
0.0071985
0.0071985
0.00719849
0.00719849
0.0071985
0.0071985
0.0071985
0.0071985
0.00719849
0.0071985
0.0071985
0.00719849
0.00719849
0.00719849
0.0071985
0.0071985
0.00719849
0.00719849
0.00719849
0.0071985
0.0071985
0.0071985
0.00719849
0.00719849
0.0071985
0.0071985
0.0071985
0.00719849
0.00719849
0.0071985
0.0071985
0.0071985
0.0071985
0.00719849
0.0071985
0.0071985
0.0071985
0.00719849
0.00719849
0.0071985
0.0071985
0.0071985
0.00719849
0.00719849
0.0071985
0.0071985
0.0071985
0.00719849
0.00719849
0.0071985
0.0071985
0.0071985
0.0071985
0.00719849
0.0071985
0.0071985
0.0071985
0.0071985
0.00719849
0.0071985
0.0071985
0.0071985
0.0071985
0.00719849
0.0071985
0.0071985
0.0071985
0.0071985
0.00719849
0.0071985
0.0071985
0.0071985
0.0071985
0.00719849
0.0071985
0.0071985
0.0071985
0.0071985
0.00719849
0.0071985
0.0071985
0.0071985
0.0071985
0.0071985
0.0071985
0.0071985
0.0071985
0.0071985
0.0071985
0.0071985
0.0071985
0.0071985
0.0071985
0.0071985
0.0071985
0.0071985
0.0071985
0.0071985
0.0071985
0.0071985
0.0071985
0.0071985
0.0071985
0.0071985
0.0071985
0.0071985
0.0071985
0.0071985
0.0071985
0.0071985
0.0071985
0.0071985
0.0071985
0.0071985
0.0071985
0.0071985
0.0071985
0.0071985
0.0071985
0.0071985
0.0071985
0.0071985
0.0071985
0.0071985
0.0071985
0.0071985
0.0071985
0.0071985
0.0071985
0.0071985
0.0071985
0.0071985
0.0071985
0.0071985
0.0071985
0.0071985
0.0071985
0.0071985
0.0071985
0.0071985
0.0071985
0.0071985
0.0071985
0.0071985
0.0071985
0.0071985
0.0071985
0.0071985
0.0071985
0.0071985
0.0071985
0.0071985
0.0071985
0.0071985
0.0071985
0.0071985
0.0071985
0.0071985
0.0071985
0.0071985
0.0071985
0.0071985
0.0071985
0.0071985
0.0071985
0.0071985
0.0071985
0.0071985
0.0071985
0.0071985
0.0071985
0.0071985
0.0071985
0.0071985
0.0071985
0.0071985
0.0071985
0.0071985
0.0071985
0.0071985
0.0071985
0.0071985
0.0071985
0.0071985
0.0071985
0.0071985
0.0071985
0.0071985
0.0071985
0.0071985
0.0071985
0.0071985
0.0071985
0.0071985
0.0071985
0.0071985
0.0071985
0.0071985
0.0071985
0.0071985
0.0071985
0.0071985
0.0071985
0.0071985
0.0071985
0.0071985
0.0071985
0.0071985
0.0071985
0.00719851
0.00719851
0.00719851
0.0071985
0.0071985
0.00719851
0.00719851
0.00719851
0.0071985
0.0071985
0.00719851
0.00719851
0.00719851
0.0071985
0.0071985
0.00719851
0.00719851
0.0071985
0.0071985
0.0071985
0.00719851
0.0071985
0.0071985
0.0071985
0.0071985
0.00719851
0.00719851
0.00719851
0.00719851
0.00719851
0.00719851
0.00719851
0.00719851
0.00719851
0.00719851
0.00719851
0.00719851
0.00719851
0.00719851
0.0071985
0.00719851
0.00719851
0.00719851
0.00719851
0.0071985
0.00719851
0.00719851
0.00719851
0.0071985
0.0071985
0.00719851
0.00719851
0.00719851
0.00719851
0.00719851
0.00719851
0.00719851
0.00719851
0.00719851
0.00719851
0.00719851
0.00719851
0.00719851
0.00719851
0.00719851
0.00719851
0.00719851
0.00719851
0.00719851
0.00719851
0.00719851
0.00719851
0.00719851
0.00719851
0.00719851
0.00719851
0.00719851
0.00719851
0.00719851
0.00719851
0.00719851
0.00719851
0.00719851
0.00719851
0.00719851
0.00719851
0.00719851
0.00719851
0.00719851
0.00719851
0.00719851
0.00719851
0.00719851
0.00719851
0.00719851
0.00719851
0.00719851
0.00719851
0.00719851
0.00719851
0.00719851
0.00719851
0.00719851
0.00719851
0.00719851
0.00719851
0.00719851
0.00719851
0.00719851
0.00719851
0.00719851
0.00719851
0.00719851
0.00719851
0.00719851
0.00719851
0.00719851
0.00719851
0.00719851
0.00719851
0.00719851
0.00719851
0.00719851
0.00719851
0.00719851
0.00719851
0.00719851
0.00719851
0.00719851
0.00719851
0.00719851
0.00719851
0.00719851
0.00719851
0.00719851
0.00719851
0.00719851
0.00719851
0.00719851
0.00719851
0.00719851
0.00719851
0.00719851
0.00719851
0.00719851
0.00719851
0.00719851
0.00719851
0.00719851
0.00719851
0.00719851
0.00719851
0.00719851
0.00719851
0.00719851
0.00719851
0.00719851
0.00719851
0.00719851
0.00719851
0.00719851
0.00719851
0.00719851
0.00719851
0.00719851
0.00719851
0.00719851
0.00719851
0.00719851
0.00719851
0.00719851
0.00719851
0.00719851
0.00719851
0.00719851
0.00719851
0.00719851
0.00719851
0.00719851
0.00719851
0.00719851
0.00719851
0.00719851
0.00719851
0.00719851
0.00719851
0.00719851
0.00719851
0.00719851
0.00719851
0.00719851
0.00719851
0.00719851
0.00719851
0.00719851
0.00719851
0.00719851
0.00719851
0.00719851
0.00719851
)
;

boundaryField
{
    inlet
    {
        type            zeroGradient;
    }
    outlet
    {
        type            fixedValue;
        value           uniform 0;
    }
    repeat_boundary
    {
        type            zeroGradient;
    }
    procBoundary0to1
    {
        type            processor;
        value           nonuniform List<scalar> 
450
(
1.88737e-10
1.99622e-10
2.3301e-10
2.97745e-10
3.69962e-10
5.58801e-10
5.86002e-10
6.96938e-10
9.2138e-10
1.19749e-09
9.27921e-10
9.68608e-10
1.15063e-09
1.51996e-09
2.01537e-09
1.35642e-09
1.40569e-09
1.6066e-09
1.99794e-09
2.52374e-09
1.89183e-09
1.93549e-09
2.09338e-09
2.3914e-09
2.80769e-09
2.48397e-09
2.51573e-09
2.62951e-09
2.83392e-09
3.14676e-09
3.03116e-09
3.06222e-09
3.18329e-09
3.35828e-09
3.58609e-09
3.52302e-09
3.57604e-09
3.73737e-09
3.90536e-09
4.01537e-09
4.10107e-09
4.18141e-09
4.34733e-09
4.47263e-09
4.45642e-09
4.89512e-09
4.95003e-09
5.02995e-09
5.05156e-09
4.92441e-09
5.8656e-09
5.82096e-09
5.75427e-09
5.62833e-09
5.36513e-09
6.97198e-09
6.83091e-09
6.64028e-09
6.37104e-09
5.96945e-09
8.37533e-09
8.19152e-09
7.89028e-09
7.467e-09
6.93313e-09
1.02352e-08
9.98027e-09
9.48011e-09
8.81548e-09
8.07983e-09
1.24837e-08
1.20598e-08
1.12543e-08
1.02498e-08
9.2102e-09
1.50652e-08
1.44295e-08
1.32772e-08
1.1845e-08
1.0326e-08
1.81911e-08
1.73432e-08
1.57943e-08
1.37835e-08
1.14962e-08
2.2151e-08
2.1043e-08
1.89809e-08
1.61913e-08
1.28971e-08
2.71339e-08
2.56628e-08
2.28917e-08
1.90654e-08
1.45518e-08
3.33983e-08
3.14004e-08
2.75818e-08
2.22895e-08
1.61532e-08
4.14274e-08
3.86658e-08
3.33483e-08
2.60263e-08
1.76399e-08
5.19231e-08
4.81262e-08
4.0828e-08
3.08335e-08
1.92914e-08
6.58559e-08
6.06865e-08
5.0779e-08
3.71842e-08
2.1214e-08
8.45314e-08
7.74967e-08
6.40478e-08
4.55109e-08
2.36092e-08
1.09648e-07
1.00049e-07
8.17425e-08
5.65187e-08
2.68426e-08
1.4353e-07
1.30375e-07
1.05349e-07
7.10173e-08
3.07936e-08
1.89423e-07
1.71357e-07
1.3708e-07
9.0231e-08
3.54994e-08
2.51378e-07
2.26669e-07
1.79866e-07
1.16036e-07
4.15598e-08
3.33313e-07
2.99987e-07
2.36622e-07
1.50429e-07
4.92057e-08
4.37766e-07
3.9379e-07
3.0893e-07
1.95014e-07
5.8603e-08
5.6937e-07
5.12265e-07
3.97339e-07
2.50785e-07
6.81908e-08
7.3686e-07
6.66502e-07
5.03669e-07
3.24079e-07
7.17913e-08
9.49301e-07
8.7567e-07
6.27694e-07
4.2909e-07
6.16238e-08
1.21673e-06
1.1615e-06
7.75899e-07
5.65591e-07
3.58997e-08
1.5127e-06
1.51113e-06
9.59326e-07
6.88558e-07
-2.78888e-09
1.53258e-06
1.6502e-06
1.17092e-06
8.89512e-07
-2.25821e-08
5.71269e-06
6.13279e-06
4.55796e-06
2.69276e-06
1.9379e-06
-2.74029e-06
-2.77466e-06
-2.68513e-06
-3.10226e-06
-5.40145e-06
1.25213e-05
1.80084e-05
1.74196e-05
3.55425e-07
6.7351e-06
-5.97611e-06
-1.61914e-05
-2.05267e-05
-1.41244e-06
-1.86861e-05
5.7706e-06
6.2864e-05
0.000101544
-5.36071e-05
8.16706e-06
0.000956938
0.000928494
0.000731986
0.00101629
0.000648749
0.00173537
0.00201187
0.00148334
0.00188906
0.00210386
0.00293764
0.00300407
0.00332877
0.00207985
0.00259871
0.00384908
0.00318344
0.00384604
0.00347721
0.00303226
0.00448855
0.00393355
0.00426559
0.00426764
0.00418858
0.00512039
0.00521514
0.00455781
0.00473857
0.00432959
0.00546724
0.00541961
0.00521826
0.00519191
0.00545854
0.00648505
0.00575856
0.00616828
0.00598554
0.00579175
0.00718634
0.00677187
0.00653105
0.00650498
0.00664414
0.00704223
0.00697625
0.00685465
0.00706876
0.00691679
0.00717831
0.00724538
0.00713263
0.00721697
0.00722887
0.00718838
0.00718418
0.00719368
0.00718193
0.00719812
0.00717567
0.00719068
0.00718156
0.007192
0.00718762
0.00719146
0.0071929
0.00719221
0.00719277
0.00719647
0.00719227
0.00719424
0.00719342
0.00719459
0.00719552
0.00719484
0.00719551
0.00719531
0.00719594
0.00719673
0.0071961
0.00719641
0.00719645