/*--------------------------------*- C++ -*----------------------------------*\
| =========                 |                                                 |
| \\      /  F ield         | OpenFOAM: The Open Source CFD Toolbox           |
|  \\    /   O peration     | Version:  5.x                                   |
|   \\  /    A nd           | Web:      www.OpenFOAM.org                      |
|    \\/     M anipulation  |                                                 |
\*---------------------------------------------------------------------------*/
FoamFile
{
    version     2.0;
    format      ascii;
    class       surfaceScalarField;
    location    "80000";
    object      phi;
}
// * * * * * * * * * * * * * * * * * * * * * * * * * * * * * * * * * * * * * //

dimensions      [0 3 -1 0 0 0 0];

internalField   nonuniform List<scalar> 
5825
(
-1.08938e-05
7.9683e-05
-1000
-2.6715e-05
8.17918e-05
-1000
-4.01113e-05
8.00647e-05
-1000
-5.15554e-05
7.80732e-05
-1000
6.99168e-05
-1000
-6.77251e-06
0.000146933
-1000
-2.99172e-05
0.000145255
-1000
-4.54659e-05
0.000138349
-1000
-5.54815e-05
0.000125234
-1000
0.000118605
-1000
-9.45996e-06
0.000202326
-1000
-4.0443e-05
0.000199586
-1000
-5.99529e-05
0.000183952
-1000
-7.48344e-05
0.000166558
-1000
0.000146097
-1000
-1.24851e-05
0.000259307
-1000
-5.72658e-05
0.000245862
-1000
-7.76219e-05
0.000216173
-1000
-9.74428e-05
0.000196497
-1000
0.000168451
-1000
-2.01655e-05
-1000
-8.01055e-05
-1000
-9.53508e-05
-1000
-0.000108067
-1000
-1000
-3.42217e-05
0.000206134
-1000
-7.45796e-05
0.000210175
-1000
-0.000107693
0.000207198
-1000
-0.000131058
0.000201165
-1000
0.000189479
-1000
-2.91663e-05
0.000389507
-1000
-8.22641e-05
0.000384807
-1000
-0.000117524
0.000365795
-1000
-0.000142762
0.000334571
-1000
0.000319555
-1000
-3.55258e-05
0.000537993
-1000
-0.000107927
0.000527698
-1000
-0.000149533
0.000488623
-1000
-0.000191024
0.000448984
-1000
0.000400877
-1000
-4.72992e-05
0.000664027
-1000
-0.000149845
0.000622851
-1000
-0.000190739
0.000561015
-1000
-0.000245443
0.000527589
-1000
0.000460349
-1000
-7.71155e-05
-1000
-0.000198743
-1000
-0.00022566
-1000
-0.000241085
-1000
-1000
-7.56107e-05
0.000338929
-1000
-0.000145676
0.000344691
-1000
-0.000201656
0.000342499
-1000
-0.000244639
0.000336517
-1000
0.000327031
-1000
-7.32539e-05
0.000650823
-1000
-0.000151916
0.000645939
-1000
-0.000212488
0.000621073
-1000
-0.000262108
0.000590724
-1000
0.000565226
-1000
-8.07082e-05
0.000892076
-1000
-0.000177525
0.000875992
-1000
-0.000241745
0.000835259
-1000
-0.000282394
0.000798198
-1000
0.000749978
-1000
-9.99735e-05
0.00103906
-1000
-0.000218344
0.000997046
-1000
-0.000275631
0.000952642
-1000
-0.000317103
0.000922604
-1000
0.000882191
-1000
-0.000146569
-1000
-0.000276231
-1000
-0.000322366
-1000
-0.000341204
-1000
-1000
-0.000131843
0.000500102
-1000
-0.000242832
0.000505656
-1000
-0.000344224
0.000506381
-1000
-0.00042821
0.000500211
-1000
0.000492452
-1000
-0.000129341
0.000952641
-1000
-0.000246714
0.000947769
-1000
-0.000355464
0.000929271
-1000
-0.000445298
0.000905894
-1000
0.00089229
-1000
-0.000134229
0.00128921
-1000
-0.000266961
0.00127234
-1000
-0.000372614
0.00125098
-1000
-0.00045665
0.00123243
-1000
0.00120205
-1000
-0.000152807
0.00145854
-1000
-0.000291969
0.00143656
-1000
-0.000383377
0.00142893
-1000
-0.000468683
0.00143556
-1000
0.00138225
-1000
-0.000186016
-1000
-0.000307025
-1000
-0.000390967
-1000
-0.000438233
-1000
-1000
-0.000198149
0.000717927
-1000
-0.0003861
0.000719683
-1000
-0.000556814
0.000721747
-1000
-0.000699406
0.000712135
-1000
0.00070424
-1000
-0.000196114
0.00133763
-1000
-0.000390988
0.00133208
-1000
-0.000568401
0.00132266
-1000
-0.000714705
0.00131085
-1000
0.00131622
-1000
-0.000199747
0.00179463
-1000
-0.00040189
0.00177978
-1000
-0.000573527
0.00178066
-1000
-0.000711653
0.00178374
-1000
0.00179393
-1000
-0.000215463
0.00202605
-1000
-0.00040493
0.0020222
-1000
-0.000562444
0.002049
-1000
-0.000696199
0.00208131
-1000
0.00206159
-1000
-0.000227353
-1000
-0.000384122
-1000
-0.000516611
-1000
-0.000629668
-1000
-1000
-0.000274344
0.00102117
-1000
-0.000589397
0.00101374
-1000
-0.000851217
0.00100899
-1000
-0.00105566
0.000995749
-1000
0.000987693
-1000
-0.000282197
0.00185596
-1000
-0.000599115
0.00184729
-1000
-0.000866491
0.00184294
-1000
-0.00106697
0.00184182
-1000
0.00185821
-1000
-0.000292256
0.00248988
-1000
-0.000604182
0.00247711
-1000
-0.00086382
0.00248998
-1000
-0.00105355
0.00250563
-1000
0.00254086
-1000
-0.000307967
0.00284575
-1000
-0.000592754
0.00285265
-1000
-0.000841529
0.00289214
-1000
-0.00102756
0.0029319
-1000
0.00291867
-1000
-0.000310378
-1000
-0.0005617
-1000
-0.00077972
-1000
-0.000969283
-1000
-1000
-0.000385043
0.00142793
-1000
-0.00086151
0.0014051
-1000
-0.00122762
0.00139389
-1000
-0.00147316
0.00138089
-1000.01
0.00137229
-1000.01
-0.000409907
0.00256846
-1000
-0.0008778
0.00255506
-1000
-0.00124468
0.00255361
-1000
-0.00148551
0.00255717
-1000
0.00256561
-1000.01
-0.000426838
0.00347337
-1000
-0.000880364
0.00346399
-1000
-0.00124081
0.00347881
-1000
-0.00147671
0.00349244
-1000
0.00350272
-1000
-0.000441296
0.00403912
-1000
-0.000865884
0.00405256
-1000
-0.00122105
0.00408144
-1000
-0.00145865
0.00410762
-1000
0.0040929
-1000
-0.000442752
-999.999
-0.000848163
-1000
-0.00119121
-1000
-0.0014361
-1000
-1000
-0.000553872
0.00196174
-1000.01
-0.00121349
0.00192903
-1000.01
-0.00169679
0.00191609
-1000.01
-0.00197813
0.00190372
-1000.01
0.00188527
-1000.01
-0.00059164
0.00355633
-1000
-0.00123229
0.00354402
-1000.01
-0.00171325
0.00354432
-1000.01
-0.0020027
0.00354221
-1000.01
0.00352879
-1000.01
-0.000610513
0.00486252
-1000
-0.00123394
0.00486322
-1000
-0.00171561
0.00487223
-1000
-0.00201518
0.00487128
-1000
0.00483705
-1000.01
-0.000619864
0.0057372
-1000
-0.00122723
0.00575465
-1000
-0.0017144
0.00575918
-1000
-0.00202329
0.00575562
-1000
0.00570801
-1000
-0.000616759
-999.999
-0.00122752
-999.999
-0.00172334
-1000
-0.00202156
-1000
-1000
-0.000796217
0.00267157
-1000.01
-0.00166533
0.00264008
-1000.01
-0.00230274
0.00262838
-1000.01
-0.00266966
0.00261274
-1000.01
0.00258091
-1000.01
-0.000837631
0.0049256
-1000.01
-0.00168398
0.00492156
-1000.01
-0.00232274
0.0049209
-1000.01
-0.00271042
0.00490862
-1000.01
0.00488562
-1000.01
-0.000852311
0.00678689
-1000
-0.00168678
0.00680009
-1000.01
-0.00233262
0.00679955
-1000.01
-0.00273365
0.00678318
-1000.01
0.00673929
-1000.01
-0.00085507
0.00805213
-1000
-0.00169356
0.00806929
-1000
-0.00234986
0.00805252
-1000
-0.0027601
0.00802227
-1000
0.00794608
-1000
-0.000854542
-999.999
-0.00170712
-999.999
-0.00236727
-1000
-0.00274617
-1000
-1000
-0.00112374
0.00363626
-1000.01
-0.00225349
0.00361554
-1000.01
-0.00311208
0.00360452
-1000.01
-0.00364097
0.00358629
-1000.01
0.00356331
-1000.01
-0.0011569
0.00680445
-1000.01
-0.00227311
0.00680908
-1000.01
-0.00313698
0.00680581
-1000.01
-0.00367543
0.0067923
-1000.01
0.00678545
-1000.01
-0.00116726
0.00939265
-1000.01
-0.00227848
0.00941164
-1000.01
-0.00314569
0.0094038
-1000.01
-0.00368386
0.00938335
-1000.01
0.00936506
-1000.01
-0.00117139
0.0111156
-1000
-0.00229408
0.011127
-1000
-0.0031652
0.0111062
-1000
-0.00371048
0.0110747
-1000.01
0.010991
-1000.01
-0.00118421
-999.999
-0.00231118
-999.999
-0.00315914
-1000
-0.00367314
-1000
-1000
-0.00154257
0.00496405
-1000.01
-0.00302903
0.00495584
-1000.01
-0.0041878
0.00494415
-1000.02
-0.00491622
0.00493257
-1000.02
0.00493805
-1000.02
-0.00156787
0.00935499
-1000.01
-0.00305141
0.00936394
-1000.01
-0.00420879
0.00935916
-1000.01
-0.00492363
0.00935398
-1000.02
0.00935947
-1000.02
-0.00158
0.0128888
-1000.01
-0.00305783
0.0129074
-1000.01
-0.00421016
0.0128984
-1000.01
-0.00491871
0.0128827
-1000.01
0.0128738
-1000.01
-0.00159158
0.0151788
-1000
-0.00307259
0.0151932
-1000
-0.00422509
0.0151823
-1000.01
-0.0049454
0.015161
-1000.01
0.0150967
-1000.01
-0.0016117
-999.998
-0.00308367
-999.999
-0.00421132
-1000
-0.00491691
-1000
-1000
-0.00208637
0.00678483
-1000.02
-0.00406691
0.00678305
-1000.02
-0.00561234
0.00677078
-1000.02
-0.00656164
0.00676903
-1000.02
0.00678042
-1000.03
-0.00211061
0.0128061
-1000.02
-0.00409138
0.0128181
-1000.02
-0.00562709
0.0128135
-1000.02
-0.00656575
0.0128112
-1000.02
0.0127997
-1000.02
-0.00212739
0.0176094
-1000.01
-0.00409753
0.0176329
-1000.01
-0.00562918
0.0176265
-1000.01
-0.00657714
0.0176125
-1000.02
0.0175771
-1000.02
-0.00214308
0.020691
-1000
-0.00410732
0.0207231
-1000.01
-0.00564571
0.0207191
-1000.01
-0.00661795
0.0206961
-1000.01
0.0206472
-1000.01
-0.00215868
-999.997
-0.00411412
-999.998
-0.00565642
-999.999
-0.00661601
-1000
-1000
-0.0028222
0.0092583
-1000.03
-0.00547651
0.00925851
-1000.03
-0.00754045
0.00924551
-1000.03
-0.00880912
0.00924275
-1000.03
0.00923097
-1000.03
-0.00285097
0.0174878
-1000.02
-0.00550411
0.0175087
-1000.02
-0.00756094
0.0175053
-1000.03
-0.00884232
0.0174987
-1000.03
0.0174726
-1000.03
-0.00286944
0.0240387
-1000.02
-0.00551036
0.0240769
-1000.02
-0.0075697
0.0240732
-1000.02
-0.00886944
0.0240602
-1000.02
0.0240179
-1000.02
-0.00288469
0.0282553
-1000.01
-0.00551751
0.0283036
-1000.01
-0.0075864
0.0282968
-1000.01
-0.00890794
0.0282715
-1000.01
0.0282077
-1000.02
-0.00289968
-999.996
-0.00552647
-999.997
-0.00760733
-999.999
-0.00893038
-1000
-1000
-0.00383934
0.0126059
-1000.03
-0.00740158
0.012612
-1000.04
-0.0101861
0.0126
-1000.04
-0.0119501
0.012592
-1000.04
0.0125769
-1000.05
-0.00387135
0.0238573
-1000.03
-0.00743207
0.0238962
-1000.03
-0.0102176
0.0238972
-1000.03
-0.0119946
0.0238965
-1000.04
0.0238949
-1000.04
-0.00388676
0.0328097
-1000.02
-0.00743553
0.0328689
-1000.02
-0.0102207
0.0328709
-1000.03
-0.0119994
0.0328728
-1000.03
0.0328639
-1000.03
-0.00390149
0.0385822
-1000.01
-0.00743837
0.0386443
-1000.01
-0.0102226
0.0386406
-1000.01
-0.012007
0.0386324
-1000.02
0.0385737
-1000.02
-0.00392402
-999.994
-0.00744209
-999.996
-0.0102262
-999.998
-0.012018
-1000
-1000.01
-0.00523338
0.017147
-1000.05
-0.0100125
0.0171701
-1000.05
-0.0137803
0.0171664
-1000.05
-0.0162109
0.0171651
-1000.06
0.0171787
-1000.06
-0.00526054
0.0325298
-1000.04
-0.0100404
0.0325951
-1000.04
-0.0138131
0.0326048
-1000.05
-0.0162369
0.0326191
-1000.05
0.0326499
-1000.06
-0.00527001
0.044754
-1000.03
-0.0100366
0.0448417
-1000.03
-0.0138009
0.0448535
-1000.03
-0.0162099
0.0448719
-1000.04
0.0448919
-1000.04
-0.00528385
0.0526158
-1000.01
-0.0100309
0.0527146
-1000.01
-0.0137859
0.0527273
-1000.02
-0.0161923
0.0527407
-1000.02
0.0527118
-1000.03
-0.00530157
-999.992
-0.0100189
-999.994
-0.0137666
-999.997
-0.0161806
-1000
-1000.01
-0.00711502
0.0233272
-1000.06
-0.0135339
0.0233782
-1000.07
-0.018621
0.0233875
-1000.07
-0.0218996
0.0233969
-1000.08
0.023421
-1000.09
-0.00713184
0.0443324
-1000.05
-0.0135574
0.0444303
-1000.06
-0.0186546
0.044444
-1000.06
-0.0219265
0.044459
-1000.07
0.0444822
-1000.08
-0.00713574
0.0610082
-1000.04
-0.013551
0.0611356
-1000.04
-0.0186421
0.0611495
-1000.05
-0.0219049
0.0611624
-1000.05
0.0611709
-1000.06
-0.00714561
0.0717195
-1000.01
-0.013544
0.07188
-1000.02
-0.0186319
0.071899
-1000.02
-0.0218959
0.0719082
-1000.03
0.0719074
-1000.04
-0.00714532
-999.988
-0.0135316
-999.991
-0.0186192
-999.996
-0.0218566
-1000
-1000.01
-0.00964893
0.0317444
-1000.09
-0.0183043
0.0318263
-1000.09
-0.0251752
0.0318414
-1000.1
-0.0295846
0.031848
-1000.1
0.0318554
-1000.12
-0.00965922
0.0603793
-1000.07
-0.0183344
0.0605126
-1000.08
-0.025227
0.0605168
-1000.08
-0.0296448
0.0605128
-1000.09
0.0605053
-1000.1
-0.00966255
0.0831175
-1000.05
-0.0183394
0.0832924
-1000.05
-0.0252344
0.0832909
-1000.06
-0.0296527
0.0832778
-1000.07
0.0832532
-1000.08
-0.00967247
0.0977483
-1000.02
-0.0183497
0.0979674
-1000.02
-0.0252491
0.0979627
-1000.03
-0.0296727
0.0979378
-1000.04
0.0979285
-1000.05
-0.0096715
-999.983
-0.0183666
-999.987
-0.025275
-999.994
-0.0296465
-1000
-1000.01
-0.0130857
0.0431923
-1000.12
-0.024815
0.043302
-1000.12
-0.0341155
0.0433119
-1000.13
-0.0400563
0.0433099
-1000.14
0.0433117
-1000.16
-0.0131007
0.0821711
-1000.1
-0.024867
0.0823432
-1000.1
-0.0341964
0.0823294
-1000.11
-0.0401459
0.0823044
-1000.13
0.0822762
-1000.14
-0.0131124
0.113154
-1000.07
-0.024893
0.113383
-1000.07
-0.0342256
0.113356
-1000.08
-0.040176
0.113314
-1000.1
0.113257
-1000.11
-0.013135
0.133137
-1000.03
-0.0249313
0.133408
-1000.03
-0.0342673
0.133366
-1000.04
-0.040226
0.133298
-1000.05
0.133239
-1000.07
-0.0131609
-999.977
-0.0249891
-999.982
-0.0343361
-999.992
-0.0402575
-1000
-1000.02
-0.0177791
0.0587343
-1000.16
-0.0337306
0.0588723
-1000.16
-0.0463359
0.058876
-1000.18
-0.054329
0.0588736
-1000.19
0.0588748
-1000.21
-0.0178098
0.111737
-1000.13
-0.0338108
0.111961
-1000.14
-0.0464452
0.111934
-1000.15
-0.0544511
0.111896
-1000.17
0.111853
-1000.19
-0.0178357
0.153921
-1000.09
-0.0338538
0.154219
-1000.1
-0.0464882
0.15417
-1000.11
-0.0544955
0.154102
-1000.13
0.154021
-1000.15
-0.0178784
0.181181
-1000.04
-0.0339174
0.181523
-1000.04
-0.0465536
0.181446
-1000.06
-0.0545671
0.18134
-1000.07
0.181237
-1000.09
-0.0179399
-999.969
-0.0340144
-999.976
-0.0466604
-999.988
-0.0546442
-1000.01
-1000.03
-0.0242102
0.0798069
-1000.21
-0.0459433
0.079985
-1000.22
-0.06305
0.0799932
-1000.24
-0.0738349
0.0799995
-1000.26
0.0799932
-1000.29
-0.0242609
0.151831
-1000.18
-0.0460481
0.152135
-1000.19
-0.063188
0.152115
-1000.21
-0.0740073
0.152081
-1000.23
0.15204
-1000.26
-0.0242947
0.209234
-1000.13
-0.0460891
0.209638
-1000.14
-0.0632263
0.209578
-1000.15
-0.0740462
0.209487
-1000.18
0.209389
-1000.2
-0.0243523
0.246416
-1000.05
-0.0461671
0.246864
-1000.06
-0.0633107
0.246745
-1000.08
-0.0741281
0.246575
-1000.1
0.246409
-1000.13
-0.0244506
-999.957
-0.0463146
-999.967
-0.0634812
-999.984
-0.0742711
-1000.01
-1000.04
-0.0330364
0.108349
-1000.29
-0.0626766
0.108596
-1000.3
-0.0859234
0.108637
-1000.32
-0.100519
0.108682
-1000.36
0.10872
-1000.39
-0.0330992
0.206176
-1000.25
-0.0627881
0.206617
-1000.26
-0.0860719
0.206644
-1000.28
-0.100704
0.206665
-1000.31
0.206686
-1000.35
-0.0331163
0.284272
-1000.17
-0.0627849
0.284842
-1000.18
-0.0860518
0.284798
-1000.21
-0.100677
0.284706
-1000.24
0.284596
-1000.28
-0.0331718
0.335013
-1000.07
-0.0628512
0.335615
-1000.08
-0.0861301
0.335441
-1000.1
-0.100759
0.335161
-1000.13
0.334826
-1000.17
-0.0333088
-999.942
-0.0630624
-999.955
-0.0864083
-999.979
-0.101069
-1000.01
-1000.05
-0.0451692
0.146968
-1000.39
-0.0856297
0.14734
-1000.41
-0.117232
0.147471
-1000.44
-0.136931
0.147633
-1000.48
0.14782
-1000.54
-0.0452156
0.279774
-1000.33
-0.085701
0.280438
-1000.35
-0.117327
0.28059
-1000.38
-0.137043
0.280763
-1000.43
0.28095
-1000.48
-0.0451679
0.386005
-1000.23
-0.0855746
0.386828
-1000.25
-0.117146
0.386851
-1000.28
-0.13684
0.386827
-1000.33
0.386784
-1000.38
-0.0451903
0.455314
-1000.09
-0.0855738
0.456139
-1000.11
-0.117143
0.455911
-1000.14
-0.136843
0.455526
-1000.18
0.455031
-1000.23
-0.0453661
-999.922
-0.0858466
-999.94
-0.117518
-999.972
-0.137305
-1000.02
-1000.07
-0.0618985
0.199132
-1000.53
-0.117214
0.199724
-1000.55
-0.160181
0.200052
-1000.6
-0.186673
0.200463
-1000.66
0.200926
-1000.73
-0.0618702
0.379277
-1000.45
-0.117153
0.380299
-1000.48
-0.160106
0.380712
-1000.52
-0.186601
0.381212
-1000.58
0.381772
-1000.65
-0.0616771
0.523739
-1000.31
-0.116762
0.524941
-1000.34
-0.159575
0.525139
-1000.38
-0.186
0.525347
-1000.44
0.525593
-1000.51
-0.0616137
0.618534
-1000.12
-0.116584
0.619665
-1000.15
-0.159317
0.619408
-1000.19
-0.185684
0.619012
-1000.25
0.618547
-1000.32
-0.0618366
-999.896
-0.116894
-999.92
-0.159689
-999.964
-0.186105
-1000.02
-1000.09
-0.0850984
0.269405
-1000.71
-0.160943
0.270366
-1000.75
-0.219406
0.271085
-1000.81
-0.254984
0.271994
-1000.89
0.273015
-1000.99
-0.0848921
0.513453
-1000.61
-0.160569
0.515053
-1000.64
-0.218928
0.516013
-1000.71
-0.254462
0.51723
-1000.79
0.518628
-1000.89
-0.0844019
0.709827
-1000.43
-0.159613
0.711625
-1000.46
-0.217635
0.712247
-1000.52
-0.25297
0.713035
-1000.6
0.713987
-1000.7
-0.0841347
0.839698
-1000.17
-0.159
0.841267
-1000.2
-0.216747
0.841063
-1000.26
-0.251887
0.840789
-1000.34
0.840516
-1000.44
-0.0843917
-999.861
-0.159264
-999.895
-0.216972
-999.954
-0.25209
-1000.03
-1000.13
-0.117544
0.363697
-1000.96
-0.222014
0.365291
-1001.01
-0.30161
0.366818
-1001.1
-0.349335
0.368769
-1001.21
0.371012
-1001.35
-0.116954
0.693741
-1000.82
-0.220919
0.696343
-1000.87
-0.30019
0.698496
-1000.96
-0.347708
0.701273
-1001.08
0.704498
-1001.21
-0.115829
0.96056
-1000.58
-0.218726
0.963374
-1000.62
-0.297237
0.964978
-1000.71
-0.344281
0.96706
-1000.82
0.969536
-1000.95
-0.115064
1.13892
-1000.23
-0.217094
1.14119
-1000.28
-0.294955
1.14124
-1000.36
-0.341571
1.14129
-1000.47
1.14143
-1000.6
-0.115251
-999.817
-0.217107
-999.863
-0.294812
-999.945
-0.341316
-1000.05
-1000.18
-0.163351
0.489549
-1001.28
-0.308295
0.492282
-1001.35
-0.416488
0.495535
-1001.48
-0.480724
0.49963
-1001.65
0.504496
-1001.84
-0.161936
0.934835
-1001.11
-0.305566
0.939274
-1001.18
-0.412989
0.944006
-1001.3
-0.476589
0.950044
-1001.46
0.957167
-1001.65
-0.15944
1.29712
-1000.78
-0.30069
1.30173
-1000.84
-0.406557
1.30549
-1000.96
-0.469063
1.3103
-1001.12
1.31606
-1001.3
-0.157546
1.54296
-1000.32
-0.29682
1.54634
-1000.38
-0.401344
1.54706
-1000.5
-0.462891
1.54785
-1000.65
1.54911
-1000.82
-0.157459
-999.762
-0.296154
-999.824
-0.400369
-999.937
-0.461477
-1000.08
-1000.25
-0.228535
0.656375
-1001.71
-0.432317
0.661183
-1001.81
-0.577937
0.668152
-1002.01
-0.666619
0.676415
-1002.24
0.686986
-1002.53
-0.225418
1.25509
-1001.48
-0.425976
1.26295
-1001.58
-0.570192
1.27324
-1001.76
-0.656917
1.2858
-1001.99
1.30135
-1002.26
-0.220045
1.74628
-1001.05
-0.415341
1.75409
-1001.14
-0.556728
1.76247
-1001.31
-0.640663
1.77279
-1001.52
1.78581
-1001.77
-0.215789
2.08698
-1000.44
-0.406707
2.09199
-1000.53
-0.545561
2.09438
-1000.69
-0.626985
2.09667
-1000.89
2.10089
-1001.12
-0.21516
-999.696
-0.404422
-999.78
-0.542903
-999.936
-0.622667
-1000.13
-1000.36
-0.321152
0.875534
-1002.26
-0.615885
0.883866
-1002.4
-0.803656
0.899221
-1002.72
-0.938076
0.914703
-1003.02
0.938755
-1003.49
-0.314891
1.67641
-1001.97
-0.601533
1.6906
-1002.1
-0.788161
1.71325
-1002.39
-0.915678
1.73803
-1002.68
1.77299
-1003.11
-0.303696
2.34026
-1001.41
-0.578328
2.35376
-1001.53
-0.761231
2.37215
-1001.79
-0.88018
2.39297
-1002.06
2.42302
-1002.43
-0.294728
2.81729
-1000.63
-0.559576
2.82437
-1000.74
-0.738523
2.83094
-1000.97
-0.849659
2.83516
-1001.22
2.84758
-1001.55
-0.293442
-999.62
-0.553475
-999.73
-0.733563
-999.952
-0.837977
-1000.21
-1000.51
-0.448969
1.16033
-1002.98
-0.901706
1.17305
-1003.12
-1.10828
1.20962
-1003.72
-1.35804
1.23298
-1004
1.29395
-1004.94
-0.437669
2.22326
-1002.59
-0.869189
2.24852
-1002.74
-1.07992
2.30099
-1003.27
-1.30613
2.34454
-1003.57
2.43
-1004.37
-0.415005
3.11335
-1001.89
-0.817464
3.13671
-1002.01
-1.02888
3.17782
-1002.45
-1.22665
3.21593
-1002.73
3.29055
-1003.38
-0.396902
3.79693
-1000.91
-0.776968
3.80462
-1001.02
-0.985173
3.82316
-1001.41
-1.1567
3.82399
-1001.66
3.86143
-1002.17
-0.396718
-999.532
-0.761652
-999.662
-0.98254
-1000
-1.12601
-1000.3
-1000.73
-0.621321
1.52662
-1003.88
-1.37424
1.53687
-1003.9
-1.51342
1.63433
-1005.21
-2.04273
1.64521
-1005.12
1.81726
-1007.22
-0.601301
2.92122
-1003.38
-1.30298
2.96254
-1003.46
-1.45868
3.09475
-1004.57
-1.92875
3.14976
-1004.6
3.37972
-1006.34
-0.554014
4.08545
-1002.5
-1.18569
4.12542
-1002.55
-1.35828
4.22013
-1003.41
-1.7552
4.27876
-1003.46
4.48347
-1004.8
-0.517226
5.12166
-1001.43
-1.09919
5.11695
-1001.43
-1.27054
5.17781
-1002.19
-1.59524
5.13562
-1002.19
5.26065
-1003.15
-0.524508
-999.4
-1.0618
-999.503
-1.28982
-1000.09
-1.51865
-1000.36
-1001.03
-0.870149
1.99339
-1005
-2.16105
1.9627
-1004.57
-2.10589
2.23462
-1007.5
-3.14991
2.14184
-1006.21
2.62974
-1010.95
-0.836861
3.80018
-1004.35
-2.0189
3.8565
-1004.18
-1.9959
4.20115
-1006.56
-2.91385
4.21249
-1005.75
4.82477
-1009.5
-0.729757
5.21954
-1003.18
-1.75542
5.28399
-1002.95
-1.7823
5.49841
-1004.68
-2.56487
5.56607
-1004.03
6.12505
-1006.86
-0.651125
6.96215
-1002.52
-1.58262
6.89237
-1002.11
-1.5737
7.10193
-1003.81
-2.21642
6.85194
-1002.83
7.27735
-1004.85
-0.678727
-999.039
-1.50902
-998.994
-1.6577
-1000.11
-2.07273
-1000.14
-1001.39
-1.25
2.57754
-1006.33
-3.45289
2.38193
-1004.75
-3.03949
3.11037
-1011.03
-4.9353
2.67583
-1006.99
3.96378
-1017.15
-1.21859
4.89522
-1005.45
-3.18791
4.95351
-1004.78
-2.8366
5.79992
-1009.6
-4.43236
5.64969
-1007.13
7.14149
-1014.58
-0.957826
6.42308
-1003.75
-2.58203
6.51696
-1002.89
-2.38692
6.98718
-1006.06
-3.77736
7.00166
-1004
8.34272
-1009.6
-0.793714
9.59198
-1004.9
-2.26834
9.34128
-1003.46
-1.84643
9.94135
-1007.18
-2.99487
9.08865
-1003.77
10.343
-1007.93
-0.874578
-997.958
-2.16731
-997.551
-2.14321
-999.656
-2.8752
-999.039
-1001.62
-1.82727
3.27998
-1007.78
-5.6039
2.68512
-1003.66
-4.58173
4.46612
-1016.52
-7.89945
3.19571
-1006.87
6.31688
-1027.81
-1.89173
6.04124
-1006.32
-5.15079
6.11167
-1004.94
-4.22527
8.04817
-1014.11
-6.78809
7.59581
-1008.97
11.006
-1022.79
-1.22305
7.58389
-1004.07
-3.70005
7.77563
-1002.07
-3.26289
8.68635
-1007.13
-5.63585
8.6167
-1002.64
11.4209
-1012.88
-0.924891
13.2957
-1009.69
-3.20118
12.6797
-1006.09
-1.93161
14.0371
-1013.8
-3.80843
11.9084
-1005.18
15.0559
-1013.41
-1.1155
-995.338
-3.11116
-994.224
-2.84384
-997.965
-4.11262
-995.947
-1001.47
-2.72665
4.30077
-1009.36
-9.27362
2.67523
-999.791
-7.28023
6.9914
-1025.5
-12.991
3.53057
-1004.69
10.898
-1047.12
-3.15799
6.61071
-1005.47
-8.63097
6.64429
-1003.44
-6.67853
11.033
-1020.11
-10.5566
10.108
-1011.67
17.5854
-1035.75
-1.41851
8.46168
-1004.51
-4.9459
8.98958
-1000.89
-4.47402
10.3955
-1006.97
-8.54542
10.6568
-999.121
15.7762
-1016.25
-0.992815
18.4496
-1018.68
-4.45938
17.1926
-1010.82
-1.50334
19.7045
-1026.07
-4.41432
15.1987
-1006.82
22.1144
-1022.64
-1.38608
-989.718
-4.41047
-987.548
-3.9081
-993.615
-6.25274
-988.837
-1001.11
-4.11159
6.11271
-1011.36
-15.8162
1.69495
-989.781
-12.3069
12.3905
-1041.4
-21.9859
3.15205
-998.165
20.8457
-1084.66
-5.78172
4.83005
-998.41
-15.3337
4.8811
-997.075
-11.5931
15.0306
-1026.49
-16.8768
13.3535
-1016.59
29.2169
-1055.37
-1.27099
8.49571
-1006.9
-5.67975
10.1292
-1001.73
-6.06536
11.5838
-1003.14
-13.2469
13.7439
-992.33
21.7552
-1018.06
-0.965703
25.8914
-1035.11
-6.23303
23.6927
-1019.12
-0.0162439
27.1594
-1047.86
-4.28368
18.977
-1007.78
32.4154
-1037.54
-1.72205
-977.685
-6.13449
-974.786
-5.80905
-983.324
-10.5815
-973.334
-1002.5
-7.8062
8.45058
-1012
-28.8133
-2.41079
-966.363
-22.1472
23.7844
-1071.85
-37.2745
0.639322
-983.677
41.9685
-1160.5
-11.899
-2.25631
-975.804
-29.3357
-1.97013
-980.079
-21.6758
20.1242
-1030.49
-27.1022
17.5825
-1028.1
49.6592
-1083.35
-0.50946
6.56037
-1015.21
-5.3799
10.4937
-1009.32
-8.31825
10.8195
-990.893
-21.2905
19.4183
-981.194
28.8347
-1014.04
-1.28791
37.0859
-1064.35
-9.53134
33.55
-1033.93
5.70302
35.4391
-1087.71
-1.88357
23.4611
-1004.24
46.9645
-1064.83
-2.83347
-952.057
-9.01422
-951.335
-9.73035
-961.427
-20.1918
-940.754
-1013.61
4.14738
24.955
-1041.11
-27.5132
-19.1375
-915.565
-37.4722
50.8993
-1112.79
-84.2987
-13.8528
-922.998
121.148
-1354.32
-17.8179
-22.2379
-910.793
-40.1289
-32.2904
-944.615
-32.4701
27.9022
-1015.15
-47.2555
23.4274
-1050.6
105.923
-1087.22
11.7254
2.3675
-1051.54
32.5576
14.9338
-1077.38
10.4754
8.94614
-949.854
-24.1309
36.503
-959.663
44.6831
-972.807
11.796
60.6495
-1134.43
8.58411
61.8158
-1077.6
40.5703
49.3541
-1160.11
18.45
29.8879
-975.502
79.8226
-1122.16
5.96962
-893.842
17.9646
-919.54
2.26256
-888.643
-20.4261
-842.363
-1020.77
-35.2427
17.5138
-1023.38
-120.047
-31.4138
-799.347
-79.3474
98.7975
-1252.29
-88.8197
-18.0023
-895.524
139.14
-1643.78
-51.9784
-53.5705
-787.73
-121.581
-47.386
-859.041
-94.7826
34.5187
-977.667
-68.0571
40.6449
-1135.97
116.58
-1147.13
8.813
-8.91583
-1105.01
-10.7365
8.14469
-1113.36
-33.4944
-19.4077
-873.17
-77.1374
45.819
-921.194
-6.95157
-906.047
-11.0076
85.7708
-1218.11
-42.5191
69.3069
-1107.25
3.81269
23.9751
-1249.82
-36.6361
41.2216
-930.455
33.1492
-1206.08
-26.192
-761.648
-60.7199
-827.131
-81.9025
-795.554
-131.596
-733.636
-1239.18
105.495
148.869
-1277.74
-18.1816
-180.788
-494.881
-189.813
269.249
-1349.91
-417.257
-196.18
-471.9
792.258
-2936.52
-114.015
-240.528
-284.318
-171.93
-331.898
-650.016
-138.191
40.442
-782.6
-102.979
49.3282
-1416.69
397.638
-644.73
70.4121
-75.5627
-1340.38
321.53
56.4076
-1752.78
129.04
-76.0495
-564.189
-53.0139
212.18
-901.992
14.499
-541.085
74.2544
231.707
-1599.63
99.995
282.527
-1359.11
249.822
50.0559
-1525.75
148.715
44.5819
-661.751
283.483
-1706.02
20.8959
-276.259
196.02
-763.923
74.6224
-266.837
-66.7275
-139.659
-1406.78
-289.368
-122.914
-865.46
-496.926
43.5081
-330.83
13.0001
375.828
-2235.66
232.39
82.35
-773.639
-216.359
-2621.1
-81.1565
-120.642
-205.433
-291.138
58.4644
-454.992
-317.452
137.294
-517.751
-121.805
152.024
-1682.01
163.689
-1586.87
101.533
34.8618
-1597.42
-217.69
-52.2149
-1322.88
-200.747
-52.4204
-391.417
-169.277
28.3917
-809.83
-173.496
-313.162
-56.1133
147.067
-1655.72
-181.936
-38.9297
-1246.58
-103.456
-67.7789
-1588.88
-249.027
121.782
-609.571
-323.779
-1474.15
-99.5712
-199.438
-330.82
-536.727
-511.349
-119.809
-592.117
-201.884
-2645.32
0.385033
-0.374799
-865.47
27.7056
-0.956362
-357.194
-1.48027
-1.22348
-2205.25
-141.594
-88.9574
-544.569
383.431
-3290.57
0.118962
-21.2079
-184.719
0.00591935
-2.97573
-452.859
24.3132
1.18755
-544.469
77.8247
-6.71762
-1817.76
157.432
-1250.3
-35.9237
-36.3053
-1546.4
11.2812
16.8412
-1389.9
1.31557
-17.9971
-362.267
13.921
22.0923
-851.245
-29.4501
-98.4089
22.8257
14.3035
-1729.16
5.46198
7.76169
-1220.13
38.8888
12.3949
-1652.69
-13.5186
3.37417
-538.445
308.31
-2010.03
0.396936
-173.686
0.476068
-545.655
0.126881
-7.76377
-5.49394
-176.499
-2506.5
-19.1049
-178.326
-668.04
336.322
99.8897
-812.512
19.5171
-412.555
-1475.89
184.919
127.583
-837.554
-242.689
-2945.59
80.0216
151.111
-594.177
1.52071
309.602
-584.071
343.848
112.547
-1411.9
102.933
231.9
-1681.16
-1.87874
-1375.72
274.785
190.37
-1860.44
162.485
322.614
-1290.62
93.9069
136.184
-317.327
-21.4143
-34.9686
-469.055
354.754
-570.46
205.896
-29.6919
-1714.99
189.439
42.1033
-923.166
-32.8755
-29.719
-1264.48
-122.938
20.8301
-504.182
105.303
-1506.67
106.352
-160.356
58.7209
-511.153
2.0658
-360.002
-9.33129
-11.6918
-2181.93
-166.786
-212.084
-289.171
19.7685
196.256
-1195.32
468.131
-132.906
-1791.35
487.999
81.6915
-939.114
-774.048
-1327.81
118.201
-129.961
-794.501
-33.9281
19.1645
-254.851
514.097
22.3054
-2115.14
-198.73
148.011
-1034.66
-568.782
-1327.27
72.7399
-102.497
-1960.65
-0.213856
112.583
-1311.08
47.7961
216.352
-559.383
-136.616
-74.2596
-62.3726
229.777
-1556.56
519.778
32.8538
-2370.12
94.953
32.2069
-417.965
-77.1912
-41.1872
-834.794
44.8558
-113.49
-586.998
-347.52
-11.9073
4.16838
-13.4248
-67.7408
-399.475
-93.1272
-359.286
-189.977
-33.3001
-2414.71
-65.7361
103.129
-326.564
-476.761
15.2734
-799.571
-97.3127
-370.497
-1800.3
-61.6246
-19.2245
-955.577
114.913
-1398.39
-62.2154
-205.249
-423.907
-33.9672
-203.378
-64.4478
406.636
197.977
-3124.21
42.9682
-196.408
-493.804
-136.767
-112.178
-272.553
-986.426
-906.919
-413.456
-139.109
-1234.45
-197.303
299.216
-876.775
-67.0976
35.0911
-424.077
-253.789
-1039.96
-46.9742
-852.296
-2457.27
34.4374
-50.5886
-587.898
-65.9551
-8.06452
-427.121
-20.149
-62.1268
-535.586
-320.968
-19.0215
88.9951
-1501.48
77.2618
-304.693
-11.5655
-26.3673
624.19
-896.026
-1492.46
41.8322
-7.96839
-360.427
-353.949
-134.767
-269.023
-940.164
-80.7444
-1133.34
-382.033
73.1251
-1586.83
28.4974
-1859.49
-18.9126
99.4842
-512.447
-142.29
30.2321
-106.069
-384.193
-70.1213
-2892.93
-3.15266
-3.83012
-797.89
5.38654
-514.558
-50.9331
-137.27
-619.233
-300.304
-183.535
-771.31
-594.607
-66.283
-586.31
47.0506
243.342
-1312.91
-0.34175
-723.946
-705.627
-522.696
-1366.22
-311.314
-85.2093
-1080.54
-19.9326
-17.2036
-767.582
15.4325
50.7368
-378.346
-1.02306
-22.6829
-110.112
-1809.02
-34.7378
-101.518
580.708
-1272.71
500.255
-728.874
-21.6511
-37.3322
96.1107
-419.205
169.08
2.98572
-478.421
-440.525
60.6768
-584.413
-212.327
223.316
-2038.35
-232.043
-1908.23
-189.802
154.441
-380.976
183.738
342.753
-819.377
-667.096
-4.02856
-1977.39
-441.612
264.977
-1065.03
452.734
-1973.81
-107.223
-2.1539
-355.415
-93.5625
167.115
-609.333
-527.265
-30.098
-126.538
-392.316
-56.1574
-1126.72
170.969
-1088.37
-241.902
-86.5479
-1039.92
-269.815
3.89682
-889.405
-342.793
182.151
-906.852
0.322835
10.661
-788.28
-3.47029
-19.0537
-9.60582
-1744.55
63.5725
-126.461
224.473
-1669.48
-9.09974
-263.448
-542.246
223.26
86.5604
-729.025
343.117
199.854
-798.132
-183.036
-28.2182
-30.0418
-59.0113
32.6208
-2194.99
-27.9261
-1796.68
-24.7082
-34.5451
-235.162
603.609
71.9048
-1319.74
156.903
60.3776
-1619.28
-80.6825
7.47994
-802.307
289.016
-2238.99
22.1021
184.303
-596.365
0.0332032
63.8738
-579.233
-21.0341
-6.43584
-38.6567
149.397
-252.372
-1037.3
-117.194
-704.067
-19.0923
-212.183
-624.346
48.1313
12.9977
-905.753
-278.624
56.0961
-642.629
-168.318
-220.28
-930.678
45.6665
-669.544
-130.08
-1596.01
27.4736
-550.398
-213.718
-1183.73
367.485
-1324.96
-920.501
-84.1337
12.8338
-657.726
27.6228
77.6229
-987.511
64.6678
8.51034
-75.5971
191.981
59.1766
-2381.48
-79.8253
-1505.52
106.245
-48.5982
-279.975
429.509
-88.3537
-1477.03
-235.162
-216.797
-729.306
-118.899
16.7097
-876.104
45.9579
-2457.6
2.067
222.236
-869.267
-74.2871
62.7006
-653.932
360.104
141.67
-831.515
278.684
72.4269
-1011.6
-76.2353
-302.1
-29.4908
193.702
-566.321
104.718
157.448
-1134.71
71.2213
137.968
-605.43
100.916
-287.777
-600.168
-95.3398
-801.636
-249.475
-81.0803
-139.549
-723.704
132.796
-1503.67
467.472
-1783.71
-504.208
53.3697
1.98048
-713.076
-177.602
37.4971
-794.037
420.384
29.6639
-703.246
652.774
408.72
-3022.59
-240.014
-515.752
440.305
-95.014
-623.285
305.631
-266.02
-1038.84
-17.8227
-312.706
-63.483
500.996
-14.4609
-971.741
-489.35
-2113.37
178.147
-115.205
-1027.22
102.91
-38.6261
-806.09
136.505
-252.824
-924.991
9.56966
28.5258
-927.649