FoamFile
{version 2.0; format ascii;class vectorField; location 0;object  v;}
41
(
( 5.88604e-06 -2.14229e-05 4.05185e-05 )  
( 2.90687e-05 -4.23891e-07 6.44249e-05 )  
( -1.58282e-05 -8.32338e-05 1.97304e-06 )  
( 2.57043e-05 -3.55349e-06 5.6613e-05 )  
( 1.11619e-05 -1.57523e-05 6.63001e-05 )  
( 8.77144e-06 -0.000155101 -3.16782e-07 )  
( 5.87245e-05 2.49896e-05 8.13088e-05 )  
( -9.69272e-06 -4.63974e-05 0.000105853 )  
( 3.49869e-05 2.87437e-06 0.000117393 )  
( 3.26195e-05 -7.08665e-06 0.000172023 )  
( 5.18149e-05 -9.46854e-07 0.000129362 )  
( 2.68395e-05 -3.23371e-05 0.00012957 )  
( 3.32316e-05 -5.17756e-05 7.39385e-05 )  
( -3.99957e-07 -1.86816e-06 0.000175531 )  
( 3.58634e-05 -6.35651e-05 0.000169288 )  
( 7.6788e-06 4.35565e-06 0.00018536 )  
( 2.13518e-05 -2.85816e-05 0.000189972 )  
( 5.3849e-05 -9.77774e-06 0.000159425 )  
( 8.95799e-05 -5.65771e-05 0.000296377 )  
( 2.47527e-05 -1.45016e-05 0.000194426 )  
( 2.53775e-05 1.01296e-06 0.00023495 )  
( 3.76788e-05 -1.74382e-05 0.000221068 )  
( 2.2097e-05 1.53449e-05 0.000235673 )  
( 2.1602e-05 -2.0554e-05 0.000267062 )  
( 3.63799e-05 -2.645e-06 0.000223954 )  
( 1.21048e-05 -7.30938e-06 0.000242906 )  
( 2.09384e-05 -2.52692e-05 0.000271984 )  
( 2.75283e-05 4.20657e-06 0.000259005 )  
( -2.27595e-06 -1.30665e-05 0.000290783 )  
( -2.89056e-05 2.1056e-05 0.000239421 )  
( -2.84332e-05 -5.22381e-06 0.000216415 )  
( -1.35995e-05 -2.95475e-05 0.000283939 )  
( 1.62385e-05 5.25467e-05 0.000335166 )  
( -1.29648e-06 -1.33549e-05 0.000323738 )  
( -3.72592e-05 -5.1617e-05 0.000324404 )  
( -2.69961e-05 -4.74517e-05 0.000294172 )  
( -3.48646e-05 -4.58725e-05 0.000222282 )  
( -5.05788e-05 -2.72241e-05 0.000381341 )  
( 6.65514e-05 -8.68332e-06 0.000284568 )  
( -2.56325e-05 4.17281e-05 0.00029354 )  
( 5.26971e-06 -1.81086e-05 0.000295665 )  
)
