/*--------------------------------*- C++ -*----------------------------------*\
  =========                 |
  \\      /  F ield         | OpenFOAM: The Open Source CFD Toolbox
   \\    /   O peration     | Website:  https://openfoam.org
    \\  /    A nd           | Version:  9
     \\/     M anipulation  |
\*---------------------------------------------------------------------------*/
FoamFile
{
    format      ascii;
    class       surfaceScalarField;
    location    "600";
    object      phi;
}
// * * * * * * * * * * * * * * * * * * * * * * * * * * * * * * * * * * * * * //

dimensions      [0 3 -1 0 0 0 0];

internalField   nonuniform List<scalar> 
716
(
0.239764
-0.378692
-123.151
-0.440433
-111.577
0.504755
-150.42
-133.664
0.247921
-0.397751
-123.002
-0.459619
-110.869
0.530843
-151.349
-133.593
0.263127
-0.407441
-122.857
-0.464537
-110.142
0.553276
-152.309
-133.504
0.277553
-0.415316
-122.72
-0.472131
-109.392
0.576318
-153.301
-133.4
0.292298
-0.422549
-122.589
-0.476047
-108.624
0.599239
-154.323
-133.277
0.307454
-0.427251
-122.469
-0.478585
-107.838
0.621574
-155.372
-133.134
0.323013
-0.431157
-122.361
-0.479122
-107.036
0.644315
-156.447
-132.969
0.339124
-0.433624
-122.267
-0.477898
-106.219
0.666997
-157.548
-132.78
0.355827
-0.435386
-122.187
-0.474886
-105.388
0.690258
-158.673
-132.564
0.373143
-0.43633
-122.124
-0.470118
-104.545
0.71386
-159.823
-132.321
0.391075
-0.436797
-122.078
-0.463565
-103.69
0.738067
-160.998
-132.046
0.409588
-0.436833
-122.051
-0.455207
-102.825
0.762757
-162.198
-131.739
0.428629
-0.436627
-122.043
-0.445003
-101.952
0.787956
-163.423
-131.396
0.44812
-0.436262
-122.055
-0.432905
-101.071
0.81353
-164.672
-131.015
0.467965
-0.435864
-122.087
-0.41887
-100.184
0.839357
-165.948
-130.595
0.488049
-0.435516
-122.14
-0.402853
-99.2928
0.865232
-167.248
-130.132
0.508247
-0.435312
-122.213
-0.384829
-98.3997
0.890922
-168.575
-129.626
0.528424
-0.435328
-122.306
-0.364784
-97.5065
0.916145
-169.926
-129.075
0.548441
-0.435641
-122.418
-0.342733
-96.6153
0.940588
-171.302
-128.477
0.568156
-0.436323
-122.55
-0.318715
-95.7285
0.963908
-172.702
-127.832
0.587432
-0.437445
-122.7
-0.292805
-94.8482
0.985751
-174.126
-127.139
0.606135
-0.439076
-122.867
-0.265114
-93.977
1.00575
-175.57
-126.398
0.624142
-0.441287
-123.05
-0.235793
-93.1171
1.02355
-177.035
-125.61
0.641341
-0.444149
-123.247
-0.205038
-92.2707
1.03881
-178.518
-124.777
0.657636
-0.447732
-123.457
-0.173085
-91.44
1.05122
-180.017
-123.898
0.672948
-0.452103
-123.678
-0.140213
-90.6268
1.06048
-181.53
-122.978
0.687216
-0.457324
-123.908
-0.106752
-89.8328
1.06636
-183.053
-122.019
0.700403
-0.463447
-124.145
-0.0730643
-89.0594
1.06864
-184.586
-121.023
0.712482
-0.470514
-124.387
-0.0395338
-88.3073
1.06719
-186.123
-119.995
0.723458
-0.478558
-124.632
-0.00656689
-87.5773
1.0619
-187.664
-118.94
0.733404
-0.48759
-124.878
0.0253942
-86.8693
1.05273
-189.204
-117.862
0.742492
-0.497591
-125.123
0.0554282
-86.1822
1.03958
-190.741
-116.767
0.750766
-0.508507
-125.365
0.0832805
-85.5148
1.02253
-192.272
-115.661
0.758114
-0.520233
-125.603
0.108824
-84.8655
1.00184
-193.794
-114.55
0.764392
-0.532627
-125.834
0.132172
-84.2333
0.977849
-195.305
-113.44
0.769487
-0.545517
-126.058
0.153468
-83.6172
0.950931
-196.801
-112.336
0.773322
-0.558715
-126.273
0.172847
-83.0168
0.921458
-198.281
-111.242
0.775863
-0.57202
-126.477
0.190422
-82.4313
0.889793
-199.743
-110.161
0.777113
-0.585237
-126.669
0.206282
-81.8605
0.856282
-201.185
-109.099
0.77711
-0.598181
-126.848
0.220498
-81.3039
0.821245
-202.604
-108.057
0.775922
-0.610685
-127.013
0.233125
-80.7611
0.78498
-204
-107.039
0.773643
-0.622613
-127.164
0.244205
-80.2316
0.74776
-205.37
-106.047
0.770385
-0.63386
-127.3
0.253772
-79.715
0.709834
-206.714
-105.083
0.766278
-0.644356
-127.422
0.261856
-79.2106
0.671432
-208.03
-104.15
0.761458
-0.654072
-127.53
0.26848
-78.7176
0.632762
-209.317
-103.249
0.756067
-0.663012
-127.623
0.273668
-78.2352
0.59402
-210.574
-102.381
0.750247
-0.671221
-127.702
0.277457
-77.7624
0.555405
-211.8
-101.548
0.744133
-0.67878
-127.767
0.279897
-77.2982
0.517119
-212.996
-100.751
0.737854
-0.685794
-127.819
0.281047
-76.8414
0.47936
-214.161
-99.9909
0.731525
-0.692386
-127.858
0.280982
-76.3908
0.442317
-215.296
-99.2676
0.725248
-0.69869
-127.885
0.279783
-75.9454
0.406172
-216.401
-98.5817
0.719109
-0.70484
-127.899
0.277549
-75.5038
0.371091
-217.477
-97.933
0.713179
-0.710969
-127.901
0.274384
-75.065
0.337223
-218.525
-97.3214
0.707512
-0.717202
-127.892
0.270407
-74.6279
0.3047
-219.547
-96.7463
0.70215
-0.72365
-127.87
0.26574
-74.1915
0.273625
-220.544
-96.2069
0.697119
-0.730407
-127.837
0.260512
-73.7549
0.244074
-221.519
-95.7024
0.692435
-0.737547
-127.792
0.254854
-73.3173
0.216093
-222.472
-95.2314
0.688104
-0.745124
-127.735
0.248896
-72.8781
0.189696
-223.407
-94.7928
0.684127
-0.753168
-127.666
0.242761
-72.4368
0.16487
-224.325
-94.3852
0.680496
-0.761689
-127.585
0.236568
-71.9928
0.141575
-225.228
-94.007
0.677205
-0.770679
-127.491
0.230427
-71.546
0.119748
-226.119
-93.6569
0.674242
-0.780111
-127.385
0.224441
-71.0962
0.0993125
-226.998
-93.3331
0.671599
-0.789948
-127.267
0.218706
-70.6434
0.0801855
-227.868
-93.0342
0.669267
-0.800145
-127.136
0.21331
-70.1874
0.0622817
-228.731
-92.7586
0.667238
-0.810653
-126.993
0.208334
-69.7285
0.0455044
-229.587
-92.5048
0.665502
-0.821408
-126.837
0.203838
-69.2668
0.029727
-230.438
-92.2712
0.664052
-0.832348
-126.668
0.199896
-68.8027
0.0151457
-231.286
-92.0562
0.662888
-0.843495
-126.488
0.196717
-68.3365
0.00169166
-232.131
-91.8578
0.662003
-0.85496
-126.295
0.194677
-67.8692
-0.0103112
-232.975
-91.6734
0.66137
-0.866643
-126.09
0.19388
-67.4017
-0.0210107
-233.821
-91.5005
0.660955
-0.878321
-125.872
0.19398
-66.9347
-0.0307499
-234.669
-91.3373
0.660718
-0.889963
-125.643
0.194834
-66.4688
-0.0397788
-235.519
-91.1823
0.660615
-0.901443
-125.402
0.196282
-66.0045
-0.0484017
-236.372
-91.0344
0.660606
-0.912755
-125.15
0.198231
-65.5421
-0.05671
-237.228
-90.8929
0.660652
-0.923835
-124.887
0.200605
-65.0821
-0.0648189
-238.087
-90.7571
0.660716
-0.934658
-124.613
0.203356
-64.6247
-0.0727911
-238.949
-90.6265
0.660768
-0.94518
-124.328
0.206449
-64.1704
-0.0806963
-239.813
-90.5008
0.66078
-0.955352
-124.034
0.209867
-63.7195
-0.0885911
-240.68
-90.3795
0.660735
-0.965115
-123.73
0.213601
-63.2723
-0.0965366
-241.549
-90.2624
0.660618
-0.97439
-123.416
0.217651
-62.8294
-0.104599
-242.418
-90.1494
0.660417
-0.983097
-123.093
0.222025
-62.391
-0.112848
-243.289
-90.0402
0.66012
-0.991121
-122.762
0.226744
-61.9576
-0.121371
-244.158
-89.9348
0.65974
-0.998245
-122.424
0.231867
-61.5297
-0.130362
-245.026
-89.8333
0.659325
-1.00414
-122.079
0.237433
-61.1078
-0.140148
-245.89
-89.736
0.659019
-1.00865
-121.729
0.243252
-60.6921
-0.150926
-246.748
-89.6437
0.659368
-1.0127
-121.376
0.248126
-60.2808
-0.161806
-247.599
-89.5574
0.658892
-1.01617
-121.018
0.253641
-59.8756
-0.172758
-248.442
-89.4765
0.658497
-1.01349
-120.663
0.261553
-59.4786
-0.189014
-249.267
-89.404
0.644517
-0.989554
-120.318
0.272579
-59.1067
-0.237833
-250.018
-89.3692
0.63321
-0.972978
0.277331
-0.270596
)
;

boundaryField
{
    inlet
    {
        type            calculated;
        value           nonuniform List<scalar> 4(-119.979 -250.721 -58.7508 -89.3625);
    }
    outlet
    {
        type            calculated;
        value           nonuniform List<scalar> 4(123.29 149.537 112.257 133.729);
    }
    repeat_boundary
    {
        type            calculated;
        value           uniform 0;
    }
}


// ************************************************************************* //
