FoamFile
{version 2.0; format ascii;class Cloud<passiveParticle>; location 0;object  positions;}
349
(
( 0.00382595 0.000326948 0.000497737 ) 0 
( 0.00215888 0.000308191 0.000499245 ) 0 
( 0.00245741 0.00287581 0.000498359 ) 0 
( 0.00168102 0.00224739 0.000498278 ) 0 
( 0.00043606 0.00464246 0.000499113 ) 0 
( 0.000693226 0.00240396 0.000498627 ) 0 
( 0.00192478 0.00127898 0.000498771 ) 0 
( 0.00141204 0.00443229 0.000497971 ) 0 
( 0.00478814 0.00172747 0.000499692 ) 0 
( 0.00271068 0.00190724 0.000497351 ) 0 
( 0.000456174 0.00337404 0.000497044 ) 0 
( 0.00317892 0.00356746 0.000499296 ) 0 
( 0.000210924 0.000736093 0.000498667 ) 0 
( 0.00144346 0.00321831 0.000499084 ) 0 
( 0.00348752 0.00253663 0.00049732 ) 0 
( 0.0048921 0.00493059 0.000497527 ) 0 
( 0.00447503 0.00268673 0.000497488 ) 0 
( 0.000937838 0.0014353 0.00049818 ) 0 
( 0.00117056 0.00045747 0.000498076 ) 0 
( 0.00386387 0.00133629 0.000499673 ) 0 
( 0.002122 0.00184106 0.00130022 ) 0 
( 0.00473994 0.000728627 0.000498903 ) 0 
( 0.00417461 0.0036385 0.000498109 ) 0 
( 0.00294737 0.00454027 0.00049969 ) 0 
( 0.00383693 0.00308202 0.0012571 ) 0 
( 0.00222044 0.003847 0.00049847 ) 0 
( 0.00394519 0.00461088 0.000498754 ) 0 
( 0.00184121 0.00279961 0.00131431 ) 0 
( 0.00293805 0.000934778 0.00049826 ) 0 
( 0.0041083 0.000817758 0.00131901 ) 0 
( 0.00463006 0.00435531 0.00127197 ) 0 
( 0.00480557 0.00333275 0.00120894 ) 0 
( 0.00323391 0.00151733 0.00125481 ) 0 
( 0.000780243 0.00294948 0.00134063 ) 0 
( 0.00321039 0.000380738 0.00128247 ) 0 
( 0.00134553 0.00101571 0.00130721 ) 0 
( 0.0040656 0.00206395 0.00116034 ) 0 
( 0.00261712 0.00342936 0.00131393 ) 0 
( 0.00102128 0.00492351 0.00127419 ) 0 
( 0.00113895 0.00201775 0.00130478 ) 0 
( 0.000393327 0.00135522 0.00133122 ) 0 
( 0.00233598 0.000864636 0.00131051 ) 0 
( 0.00332377 0.00347788 0.00201763 ) 0 
( 0.000828784 0.00394355 0.00122786 ) 0 
( 0.00470622 0.000636998 0.00209863 ) 0 
( 0.00317854 0.000952395 0.00210108 ) 0 
( 0.000384557 0.00210772 0.00198821 ) 0 
( 0.00283332 1.80729e-06 0.00212542 ) 0 
( 0.00178479 0.00418742 0.00139083 ) 0 
( 0.00289695 0.0024712 0.00129876 ) 0 
( 0.00133013 0.00247511 0.00217119 ) 0 
( 0.00367305 0.00406693 0.00129019 ) 0 
( 0.00448723 0.00269523 0.00190946 ) 0 
( 0.00489159 0.00142445 0.00144799 ) 0 
( 0.00275463 0.00440273 0.0014944 ) 0 
( 0.00370591 0.0049733 0.00193035 ) 0 
( 0.00172542 0.00021235 0.00176219 ) 0 
( 0.0039851 0.00153469 0.00200145 ) 0 
( 0.00140667 0.00344406 0.00194016 ) 0 
( 0.00409671 0.00282732 0.00282022 ) 0 
( 0.00165769 0.00150735 0.00211802 ) 0 
( 0.00244424 0.00283653 0.00211027 ) 0 
( 0.00352314 0.00249491 0.00207478 ) 0 
( 0.000487043 0.000497629 0.00183174 ) 0 
( 0.000441614 0.00349635 0.00218707 ) 0 
( 0.00275467 0.00185663 0.00207223 ) 0 
( 0.00429736 0.0037073 0.00198183 ) 0 
( 0.000895468 0.0043854 0.00212111 ) 0 
( 0.00381624 0.000183857 0.00205226 ) 0 
( 0.000564876 0.00269731 0.00277512 ) 0 
( 0.00122166 0.000685541 0.00248164 ) 0 
( 0.00309838 0.00436204 0.00243273 ) 0 
( 0.0017772 0.00310571 0.0028035 ) 0 
( 0.00379771 0.0037799 0.00284248 ) 0 
( 0.002248 0.00075794 0.00241556 ) 0 
( 0.00229929 0.00382285 0.00217399 ) 0 
( 0.00372291 0.00190102 0.0028912 ) 0 
( 0.00472458 0.00194854 0.00253154 ) 0 
( 0.00183433 0.00470265 0.00224496 ) 0 
( 0.000930045 0.00176648 0.00275031 ) 0 
( 0.00208223 0.00215672 0.00274702 ) 0 
( 0.00297894 0.00256601 0.0029098 ) 0 
( 0.00240624 5.24077e-05 0.0032888 ) 0 
( 0.00283305 0.00355216 0.00297302 ) 0 
( 0.00180348 0.00407846 0.003023 ) 0 
( 0.00478148 0.00394873 0.00282196 ) 0 
( 0.000951197 0.00459319 0.00310383 ) 0 
( 0.0032701 0.000401489 0.00293003 ) 0 
( 0.000586268 0.000947878 0.00320494 ) 0 
( 0.00173572 0.00128584 0.00309235 ) 0 
( 0.00280449 0.00138982 0.00295294 ) 0 
( 2.8157e-05 0.00401026 0.0029352 ) 0 
( 0.00437788 0.00484743 0.00265809 ) 0 
( 0.00244799 0.00484036 0.00302136 ) 0 
( 0.0040872 0.000962952 0.00281287 ) 0 
( 0.00454899 8.31893e-05 0.00291849 ) 0 
( 0.00093562 0.00358489 0.00305009 ) 0 
( 0.00436682 0.00155193 0.00356975 ) 0 
( 0.00020675 0.00339036 0.00370416 ) 0 
( 0.00460871 0.00347186 0.00368239 ) 0 
( 0.00421548 0.00437755 0.00352479 ) 0 
( 0.00135143 0.00241268 0.00338269 ) 0 
( 0.00334132 0.00219618 0.00376524 ) 0 
( 0.003754 0.00383591 0.00427097 ) 0 
( 0.00240286 0.000939433 0.00374928 ) 0 
( 0.0034814 0.00109121 0.00362302 ) 0 
( 0.00352758 0.00315785 0.0035731 ) 0 
( 0.00322283 0.00435374 0.00342368 ) 0 
( 0.00432332 0.000573031 0.00376266 ) 0 
( 0.000605293 0.00181672 0.00369944 ) 0 
( 0.00159491 0.00333694 0.00375895 ) 0 
( 0.000774003 0.00269679 0.00414627 ) 0 
( 0.00308072 0.000250028 0.00399875 ) 0 
( 0.00238124 0.00193661 0.00367409 ) 0 
( 9.00723e-05 0.00145344 0.0045435 ) 0 
( 0.00101465 0.0041197 0.00398155 ) 0 
( 0.0025052 0.00292733 0.00371106 ) 0 
( 0.00151892 0.00157519 0.00402351 ) 0 
( 0.00295355 0.00149974 0.00436643 ) 0 
( 0.000818849 0.000880034 0.00417341 ) 0 
( 0.0014076 0.000398972 0.00342028 ) 0 
( 0.00428308 0.00253009 0.00375428 ) 0 
( 0.000126967 0.00453298 0.00377956 ) 0 
( 0.000641927 0.0049664 0.00451653 ) 0 
( 0.00174581 0.00476059 0.00375018 ) 0 
( 0.00225014 0.00333096 0.00459289 ) 0 
( 0.00399615 0.00186476 0.00444258 ) 0 
( 0.00438462 0.00313912 0.00460972 ) 0 
( 0.00299046 0.0044686 0.00439682 ) 0 
( 0.00109972 0.00426388 0.00505741 ) 0 
( 0.000418221 0.00366394 0.004641 ) 0 
( 0.00179489 0.00250255 0.00427181 ) 0 
( 0.00340935 0.00293577 0.00453815 ) 0 
( 0.00173211 0.000516675 0.00435762 ) 0 
( 0.00199025 0.00431947 0.00461142 ) 0 
( 0.000943206 0.00192692 0.00476115 ) 0 
( 0.00240816 0.00391707 0.00380023 ) 0 
( 0.00123666 0.00101184 0.0050701 ) 0 
( 0.0046807 0.00140344 0.00500518 ) 0 
( 0.00128774 0.00321043 0.00483247 ) 0 
( 0.000144761 0.0044897 0.00524131 ) 0 
( 0.00466813 0.000440619 0.00474408 ) 0 
( 0.00289012 0.000653762 0.00489191 ) 0 
( 0.00393543 0.00246095 0.00524102 ) 0 
( 0.00174398 0.00498366 0.00531623 ) 0 
( 0.000169389 0.00043251 0.0047887 ) 0 
( 0.0035742 0.00439078 0.00521379 ) 0 
( 0.00379747 0.000891895 0.00454966 ) 0 
( 0.00187694 0.00376101 0.00543131 ) 0 
( 0.00499459 0.00482355 0.0046876 ) 0 
( 0.00403316 0.00478345 0.00441848 ) 0 
( 0.00263949 0.00235114 0.00478316 ) 0 
( 0.00108355 7.06637e-06 0.00529111 ) 0 
( 0.00207794 0.00150466 0.00484833 ) 0 
( 0.0039471 0.000455847 0.00543556 ) 0 
( 0.000943273 0.00362686 0.0058091 ) 0 
( 1.08599e-05 0.00341509 0.00551818 ) 0 
( 0.00344624 0.00158937 0.00523068 ) 0 
( 0.00213063 0.000773995 0.00552818 ) 0 
( 0.00176928 0.00241859 0.00526625 ) 0 
( 0.00491967 0.00484373 0.00568306 ) 0 
( 0.00312806 0.000863639 0.0058398 ) 0 
( 0.00257317 0.00183628 0.00565031 ) 0 
( 0.00300742 0.00356812 0.00519796 ) 0 
( 0.00259435 0.00445582 0.00539463 ) 0 
( 0.00451541 0.00406673 0.00512936 ) 0 
( 0.00126117 0.000676767 0.00601085 ) 0 
( 0.00216477 0.00298501 0.00598835 ) 0 
( 0.00161533 0.00158582 0.00579374 ) 0 
( 0.000143066 0.00203028 0.00535633 ) 0 
( 0.000353471 0.0010698 0.00553523 ) 0 
( 0.00491495 0.00230793 0.00535446 ) 0 
( 0.000244525 0.00422215 0.00620115 ) 0 
( 0.00417481 0.00133005 0.0058632 ) 0 
( 0.00391749 0.00340215 0.00557478 ) 0 
( 0.00307416 0.00269997 0.00568751 ) 0 
( 0.000292468 0.000136269 0.00588731 ) 0 
( 0.000873872 0.00264535 0.00564378 ) 0 
( 0.000869118 0.00489181 0.00579957 ) 0 
( 0.00161484 0.00360523 0.0065473 ) 0 
( 0.00193772 0.00446147 0.00614609 ) 0 
( 0.0029611 0.00317295 0.00656098 ) 0 
( 0.00232584 0.00122225 0.00639871 ) 0 
( 0.00436231 0.00265946 0.00612224 ) 0 
( 0.00318552 0.00401585 0.00607217 ) 0 
( 0.00259823 0.000262593 0.00643729 ) 0 
( 0.000544536 0.00340326 0.00669767 ) 0 
( 0.00415288 0.00430294 0.00602849 ) 0 
( 0.00342292 0.00498402 0.00600397 ) 0 
( 0.00493329 0.000734313 0.00612324 ) 0 
( 0.00199587 0.00215642 0.00651848 ) 0 
( 0.000442253 0.000886042 0.00654352 ) 0 
( 0.000701896 0.0017801 0.00614485 ) 0 
( 0.00109302 0.00444871 0.00667791 ) 0 
( 0.00356017 5.72576e-05 0.00626541 ) 0 
( 0.00341953 0.00190217 0.00618018 ) 0 
( 7.91332e-05 0.00261935 0.00624965 ) 0 
( 0.00369444 0.00257613 0.00688251 ) 0 
( 0.00248213 0.00400184 0.00684674 ) 0 
( 0.000267459 0.00424038 0.00719998 ) 0 
( 0.00224433 0.000764935 0.00728304 ) 0 
( 0.00434993 0.00184476 0.00670118 ) 0 
( 0.00138328 0.00135265 0.00673693 ) 0 
( 0.0015637 0.000191866 0.00682983 ) 0 
( 0.00318709 0.00109417 0.00688894 ) 0 
( 0.00497235 0.00317777 0.00672033 ) 0 
( 0.00411237 0.000772517 0.00669182 ) 0 
( 0.00390559 0.00350011 0.00656876 ) 0 
( 0.0028634 0.00203357 0.00699999 ) 0 
( 0.00214101 0.0029574 0.00709542 ) 0 
( 0.00109183 0.00257064 0.00661534 ) 0 
( 0.00362989 0.00441717 0.00687121 ) 0 
( 0.00448159 0.00499457 0.00734047 ) 0 
( 0.0003598 0.00117185 0.0074979 ) 0 
( 0.00186632 0.00489516 0.00713479 ) 0 
( 0.00201023 0.00172623 0.00741946 ) 0 
( 0.00354189 0.000177094 0.00725688 ) 0 
( 0.00370996 0.00176364 0.00746294 ) 0 
( 0.00283629 0.00478834 0.00735093 ) 0 
( 0.00333528 0.00360972 0.00738207 ) 0 
( 0.000340036 0.0020557 0.00703317 ) 0 
( 0.00286004 0.00136035 0.00779621 ) 0 
( 0.00105978 0.00185696 0.00769755 ) 0 
( 0.000313676 0.00247606 0.0079393 ) 0 
( 0.000271461 0.00347116 0.00783733 ) 0 
( 0.00179577 0.00255043 0.00794079 ) 0 
( 0.00241963 0.00362561 0.00778245 ) 0 
( 0.0012866 0.000805797 0.00756667 ) 0 
( 0.00286427 0.000374969 0.00796319 ) 0 
( 0.00459996 0.00405323 0.00702634 ) 0 
( 0.00155286 0.00400493 0.00746084 ) 0 
( 0.00290899 0.00274743 0.00769835 ) 0 
( 0.0011198 0.00310482 0.00745834 ) 0 
( 0.00487095 0.00116248 0.00721212 ) 0 
( 0.00398537 0.00425248 0.00778895 ) 0 
( 0.000978894 0.00483942 0.00759048 ) 0 
( 0.00214864 0.00466416 0.00806528 ) 0 
( 0.00196365 0.00118018 0.00825469 ) 0 
( 0.00407183 0.000873854 0.00773837 ) 0 
( 0.00247555 0.00201744 0.00844316 ) 0 
( 0.000295973 0.00484531 0.00832912 ) 0 
( 0.000885556 7.75924e-05 0.00812141 ) 0 
( 0.000942119 0.00408737 0.00824703 ) 0 
( 0.00482841 0.00134373 0.0081936 ) 0 
( 0.00427562 0.00317118 0.00743732 ) 0 
( 0.00491471 0.00393427 0.00796746 ) 0 
( 0.0040357 0.0034875 0.00842804 ) 0 
( 0.00188859 0.000198735 0.0080824 ) 0 
( 0.00458348 0.00218197 0.00770783 ) 0 
( 0.00357568 0.00162208 0.0084429 ) 0 
( 0.00219106 0.00291314 0.00878314 ) 0 
( 0.0011719 0.00313715 0.00845565 ) 0 
( 0.000209886 0.000373162 0.00880767 ) 0 
( 0.000349945 0.00355048 0.0088461 ) 0 
( 0.00409782 0.000822116 0.00873566 ) 0 
( 0.00305218 0.00333022 0.00849763 ) 0 
( 0.00185692 0.00385507 0.00857524 ) 0 
( 0.00461856 0.00217497 0.00870657 ) 0 
( 0.00377643 0.00256117 0.00815714 ) 0 
( 0.00283833 0.00101218 0.00873217 ) 0 
( 0.00306566 0.00427655 0.00817714 ) 0 
( 0.000341742 0.00193597 0.00878008 ) 0 
( 0.00495032 0.00309714 0.00851186 ) 0 
( 0.00140698 0.0019426 0.00863224 ) 0 
( 0.000834342 0.00116335 0.00838145 ) 0 
( 0.00435928 0.00439218 0.00870508 ) 0 
( 0.00208818 0.00147819 0.00920072 ) 0 
( 0.00348078 0.00407684 0.00906337 ) 0 
( 0.0049045 0.000991552 0.00929998 ) 0 
( 0.00225924 0.00463215 0.00905789 ) 0 
( 0.00172583 0.00236756 0.00947843 ) 0 
( 0.00152392 0.00336064 0.00937742 ) 0 
( 0.00105989 0.00423313 0.00922887 ) 0 
( 0.00147431 0.00060926 0.00891279 ) 0 
( 0.00405254 0.00162925 0.00932315 ) 0 
( 0.00133447 0.00494281 0.00858151 ) 0 
( 0.000991868 0.00137637 0.00934461 ) 0 
( 0.00468386 0.0036548 0.00929692 ) 0 
( 0.000799721 0.00268151 0.00926326 ) 0 
( 0.000118199 0.00444693 0.00948559 ) 0 
( 0.00323166 0.00239313 0.00897743 ) 0 
( 0.000340863 0.00197877 0.00980546 ) 0 
( 0.0015199 0.000737022 0.00990294 ) 0 
( 0.00324264 0.00310383 0.00967998 ) 0 
( 0.0031409 0.00134954 0.00962276 ) 0 
( 0.00245516 0.000623769 0.00956888 ) 0 
( 0.00453142 0.00455789 0.00969687 ) 0 
( 0.000549567 0.000565936 0.00972769 ) 0 
( 0.00184329 0.00418283 0.0098481 ) 0 
( 0.00406894 0.000744729 0.00978835 ) 0 
( 0.00408618 0.00285922 0.00920348 ) 0 
( 0.00255129 0.00370278 0.00927812 ) 0 
( 0.00337274 0.000316875 0.00921384 ) 0 
( 0.00320654 0.000466095 0.0102087 ) 0 
( 0.00461091 0.00284698 0.0100538 ) 0 
( 0.00391582 0.0038025 0.00991972 ) 0 
( 0.00224517 0.00309085 0.0100143 ) 0 
( 0.00374613 0.00230075 0.00999699 ) 0 
( 0.000784156 0.00487302 0.0100966 ) 0 
( 0.00266682 0.00221523 0.00978184 ) 0 
( 0.00304045 0.00474202 0.00967133 ) 0 
( 0.00226682 0.00139116 0.0101807 ) 0 
( 0.000636154 0.00353343 0.00980316 ) 0 
( 0.00497597 0.00065208 0.0102368 ) 0 
( 0.00119006 0.00280275 0.010201 ) 0 
( 0.00134512 0.00177734 0.0101889 ) 0 
( 0.000673409 0.00219252 0.0108012 ) 0 
( 0.00291157 0.00389724 0.0101899 ) 0 
( 0.00445076 0.00155193 0.0102368 ) 0 
( 0.00038702 0.00314367 0.0106894 ) 0 
( 0.00241691 0.00467767 0.0105714 ) 0 
( 0.00299274 0.00273428 0.0105742 ) 0 
( 0.000995846 0.000196706 0.0105607 ) 0 
( 0.0011137 0.00392154 0.0105906 ) 0 
( 0.00371052 0.00459613 0.0104915 ) 0 
( 0.00482601 0.00382345 0.0103315 ) 0 
( 0.000541001 0.00124855 0.0104578 ) 0 
( 0.00226243 0.000457545 0.010537 ) 0 
( 0.00209658 0.00229257 0.0105993 ) 0 
( 0.00175967 0.000232179 0.0113712 ) 0 
( 0.00208643 0.00375102 0.0107476 ) 0 
( 0.00229674 0.00295753 0.0113182 ) 0 
( 0.00316111 0.00171149 0.0105541 ) 0 
( 0.000209783 0.00434837 0.0107241 ) 0 
( 0.00306039 0.00357258 0.0111233 ) 0 
( 0.00407232 0.000806921 0.010786 ) 0 
( 0.00163912 0.00453219 0.0111824 ) 0 
( 0.000661538 0.000769911 0.0113269 ) 0 
( 0.00417362 0.00224713 0.0108992 ) 0 
( 0.00496985 0.00465386 0.010869 ) 0 
( 0.00149771 0.00104616 0.0108533 ) 0 
( 0.00149322 0.00193484 0.0113116 ) 0 
( 0.00480061 0.003012 0.0110465 ) 0 
( 0.0038778 0.00318116 0.0107014 ) 0 
( 0.000700319 0.00258913 0.0117184 ) 0 
( 0.00423627 0.00401789 0.0111149 ) 0 
( 0.00239164 0.00152206 0.0111639 ) 0 
( 0.000694137 8.27643e-05 0.0120523 ) 0 
( 0.00330167 0.00224372 0.0113886 ) 0 
( 0.000191736 0.00370776 0.0114914 ) 0 
( 0.0031335 0.000853076 0.0111272 ) 0 
( 0.00176049 0.00112152 0.0118279 ) 0 
( 0.00350519 0.00309138 0.0118782 ) 0 
( 0.00132529 0.00311433 0.0111412 ) 0 
( 0.00472486 0.000463464 0.011512 ) 0 
( 0.00351303 0.00139646 0.0118755 ) 0 
( 0.00442159 0.00269345 0.0119148 ) 0 
( 0.00256878 0.00435492 0.0115052 ) 0 
( 0.00444536 0.00171577 0.0117076 ) 0 
)
