/*--------------------------------*- C++ -*----------------------------------*\
  =========                 |
  \\      /  F ield         | OpenFOAM: The Open Source CFD Toolbox
   \\    /   O peration     | Website:  https://openfoam.org
    \\  /    A nd           | Version:  9
     \\/     M anipulation  |
\*---------------------------------------------------------------------------*/
FoamFile
{
    format      ascii;
    class       volScalarField;
    location    "0.004";
    object      p;
}
// * * * * * * * * * * * * * * * * * * * * * * * * * * * * * * * * * * * * * //

dimensions      [0 2 -2 0 0 0 0];

internalField   nonuniform List<scalar> 
720
(
-7.4687e-10
5.20848e-11
1.60836e-10
-6.11204e-10
-2.25452e-09
6.38006e-11
4.20837e-10
-1.82521e-09
-3.89441e-09
-8.90604e-11
5.24602e-10
-3.17301e-09
-5.37424e-09
-1.37421e-10
7.2969e-10
-4.37271e-09
-6.35562e-09
1.30983e-10
1.25084e-09
-5.08812e-09
-6.87572e-09
6.77635e-10
2.05245e-09
-5.3593e-09
-6.89426e-09
1.50188e-09
3.13529e-09
-5.1501e-09
-6.40977e-09
2.5719e-09
4.46841e-09
-4.46383e-09
-5.44104e-09
3.84186e-09
6.00658e-09
-3.3247e-09
-4.02236e-09
5.25848e-09
7.69681e-09
-1.77314e-09
-2.19905e-09
6.76657e-09
9.48381e-09
1.38448e-10
-2.46032e-11
8.31275e-09
1.13136e-08
2.34845e-09
2.44122e-09
9.84754e-09
1.31354e-08
4.7877e-09
5.13359e-09
1.13264e-08
1.49028e-08
7.38052e-09
7.98375e-09
1.27103e-08
1.6574e-08
1.00455e-08
1.09202e-08
1.39655e-08
1.81115e-08
1.26966e-08
1.38702e-08
1.50638e-08
1.94822e-08
1.52442e-08
1.67618e-08
1.59821e-08
2.0657e-08
1.75964e-08
1.95262e-08
1.67031e-08
2.16109e-08
1.96616e-08
2.21003e-08
1.72153e-08
2.23228e-08
2.13502e-08
2.44297e-08
1.75134e-08
2.27759e-08
2.25768e-08
2.64716e-08
1.75989e-08
2.29578e-08
2.32629e-08
2.81975e-08
1.74809e-08
2.28609e-08
2.33386e-08
2.9596e-08
1.71767e-08
2.24824e-08
2.27442e-08
3.06742e-08
1.67124e-08
2.18246e-08
2.14314e-08
3.14596e-08
1.61239e-08
2.0895e-08
1.93632e-08
3.20009e-08
1.54571e-08
1.97066e-08
1.65138e-08
3.23678e-08
1.47691e-08
1.8277e-08
1.28667e-08
3.26507e-08
1.41286e-08
1.66293e-08
8.41264e-09
3.29596e-08
1.36165e-08
1.47911e-08
3.14588e-09
3.34224e-08
1.33268e-08
1.27943e-08
-2.93967e-09
3.41817e-08
1.3368e-08
1.06749e-08
-9.85519e-09
3.53921e-08
1.38652e-08
8.47123e-09
-1.76221e-08
3.72172e-08
1.4961e-08
6.22369e-09
-2.62785e-08
3.98271e-08
1.68164e-08
3.97374e-09
-3.58855e-08
4.33959e-08
1.96129e-08
1.76275e-09
-4.65348e-08
4.80986e-08
2.3554e-08
-3.69206e-10
-5.83561e-08
5.41089e-08
2.8868e-08
-2.38479e-09
-7.15253e-08
6.15974e-08
3.58106e-08
-4.2509e-09
-8.6273e-08
7.0729e-08
4.46685e-08
-5.94028e-09
-1.02894e-07
8.16614e-08
5.5765e-08
-7.43294e-09
-1.21755e-07
9.45424e-08
6.94665e-08
-8.71741e-09
-1.4331e-07
1.09508e-07
8.61924e-08
-9.79147e-09
-1.68104e-07
1.26678e-07
1.06427e-07
-1.06629e-08
-1.96793e-07
1.46151e-07
1.30736e-07
-1.13508e-08
-2.30148e-07
1.68e-07
1.59791e-07
-1.18903e-08
-2.69071e-07
1.9226e-07
1.94393e-07
-1.23478e-08
-3.14585e-07
2.18914e-07
2.35515e-07
-1.28443e-08
-3.67831e-07
2.47879e-07
2.84345e-07
-1.33724e-08
-4.30265e-07
2.78965e-07
3.42353e-07
-1.38794e-08
-5.03589e-07
3.11973e-07
4.11239e-07
-1.42446e-08
-5.89792e-07
3.46633e-07
4.93033e-07
-1.42535e-08
-6.912e-07
3.82556e-07
5.90189e-07
-1.35678e-08
-8.10529e-07
4.19203e-07
7.05678e-07
-1.16914e-08
-9.50951e-07
4.55836e-07
8.43086e-07
-7.89983e-09
-1.1162e-06
4.91469e-07
1.00673e-06
-1.32164e-09
-1.31056e-06
5.24804e-07
1.20177e-06
9.30122e-09
-1.53913e-06
5.5414e-07
1.43443e-06
2.55966e-08
-1.8079e-06
5.77276e-07
1.71208e-06
4.96359e-08
-2.12391e-06
5.91375e-07
2.04353e-06
8.40199e-08
-2.49547e-06
5.92801e-07
2.43928e-06
1.31981e-07
-2.93232e-06
5.76925e-07
2.91176e-06
1.97508e-07
-3.44596e-06
5.37873e-07
3.4758e-06
2.85495e-07
-4.04994e-06
4.68231e-07
4.14897e-06
4.01926e-07
-4.76021e-06
3.58679e-07
4.95219e-06
5.54094e-07
-5.59557e-06
1.9755e-07
5.91036e-06
7.50867e-07
-6.57813e-06
-2.97063e-08
7.05312e-06
1.00302e-06
-7.73391e-06
-3.4119e-07
8.41581e-06
1.32364e-06
-9.09347e-06
-7.59341e-07
1.00406e-05
1.72855e-06
-1.06927e-05
-1.31178e-06
1.19776e-05
2.23686e-06
-1.25738e-05
-2.03254e-06
1.42868e-05
2.87158e-06
-1.4786e-05
-2.96296e-06
1.70402e-05
3.66081e-06
-1.73865e-05
-4.15303e-06
2.03251e-05
4.64016e-06
-2.04416e-05
-5.66729e-06
2.42426e-05
5.85292e-06
-2.40358e-05
-7.60324e-06
2.88966e-05
7.33072e-06
-2.82901e-05
-1.00936e-05
3.43957e-05
9.08265e-06
-3.33658e-05
-1.3146e-05
4.10012e-05
1.12584e-05
-3.92783e-05
-1.62499e-05
4.95435e-05
1.46715e-05
-4.53913e-05
-1.95366e-05
6.07668e-05
1.98878e-05
-5.13328e-05
-3.52505e-05
6.77456e-05
1.61096e-05
-6.82153e-05
-0.000136538
3.60672e-06
-7.55548e-05
-0.000202344
0.00103785
0.000774799
0.00112244
0.000964964
0.00167561
0.00135169
0.00171266
0.00158985
0.00201585
0.00129768
0.00197312
0.00198555
0.00335011
0.00502464
0.00434778
0.00360925
0.00349286
0.00646576
0.0051305
0.00501422
0.00482879
0.00786849
0.00772872
0.00642137
0.0072523
0.00886928
0.00906384
0.00785689
0.0104822
0.00940697
0.00985252
0.0112164
0.015253
0.0108542
0.0108119
0.012674
0.0165266
0.0135766
0.0111935
0.0134278
0.0169736
0.0161933
0.0122839
0.0160876
0.0180371
0.0182158
0.0129168
0.0170445
0.0189622
0.018866
0.0130612
0.0175583
0.0192841
0.0202115
0.0163682
0.018902
0.0209458
0.0223899
0.0212594
0.0199566
0.0215389
0.0229382
0.0247034
0.0211669
0.0220678
0.0238894
0.0260457
0.0218097
0.023533
0.0246225
0.0263945
0.0229082
0.0245644
0.0258349
0.0269102
0.0268194
0.025754
0.0275318
0.027274
0.0280566
0.0268383
0.0279812
0.0276203
0.0282645
0.0280635
0.0281957
0.0281274
0.0283621
0.0283558
0.0283272
0.0283853
0.0283992
0.0283802
0.0283685
0.0284529
0.0284156
0.0283928
0.0283774
0.02845
0.0284118
0.0283928
0.0283782
0.0284395
0.0284093
0.0283938
0.0283804
0.0284341
0.0284085
0.0283954
0.0283833
0.0284305
0.028408
0.0283969
0.0283859
0.0284274
0.0284075
0.0283982
0.0283881
0.0284245
0.028407
0.0283992
0.02839
0.028422
0.0284066
0.0284
0.0283917
0.0284198
0.0284062
0.0284008
0.0283932
0.0284179
0.0284059
0.0284014
0.0283945
0.0284162
0.0284056
0.0284019
0.0283957
0.0284147
0.0284054
0.0284024
0.0283967
0.0284135
0.0284052
0.0284027
0.0283976
0.0284124
0.028405
0.028403
0.0283984
0.0284114
0.0284049
0.0284033
0.0283991
0.0284106
0.0284048
0.0284035
0.0283997
0.0284098
0.0284047
0.0284037
0.0284003
0.0284092
0.0284046
0.0284039
0.0284007
0.0284086
0.0284046
0.028404
0.0284012
0.0284081
0.0284045
0.0284041
0.0284015
0.0284077
0.0284045
0.0284042
0.0284019
0.0284073
0.0284044
0.0284042
0.0284022
0.028407
0.0284044
0.0284043
0.0284024
0.0284067
0.0284044
0.0284044
0.0284027
0.0284064
0.0284044
0.0284044
0.0284029
0.0284062
0.0284044
0.0284044
0.0284031
0.028406
0.0284044
0.0284045
0.0284032
0.0284058
0.0284044
0.0284045
0.0284034
0.0284057
0.0284044
0.0284045
0.0284035
0.0284056
0.0284044
0.0284045
0.0284036
0.0284054
0.0284044
0.0284045
0.0284037
0.0284053
0.0284044
0.0284046
0.0284038
0.0284052
0.0284044
0.0284046
0.0284039
0.0284052
0.0284044
0.0284046
0.0284039
0.0284051
0.0284044
0.0284046
0.028404
0.028405
0.0284044
0.0284046
0.0284041
0.028405
0.0284044
0.0284046
0.0284041
0.0284049
0.0284044
0.0284046
0.0284042
0.0284049
0.0284044
0.0284046
0.0284042
0.0284048
0.0284044
0.0284046
0.0284042
0.0284048
0.0284044
0.0284046
0.0284043
0.0284048
0.0284044
0.0284046
0.0284043
0.0284048
0.0284045
0.0284046
0.0284043
0.0284047
0.0284045
0.0284046
0.0284044
0.0284047
0.0284045
0.0284046
0.0284044
0.0284047
0.0284045
0.0284046
0.0284044
0.0284047
0.0284045
0.0284046
0.0284044
0.0284047
0.0284045
0.0284046
0.0284044
0.0284047
0.0284045
0.0284046
0.0284044
0.0284046
0.0284045
0.0284046
0.0284044
0.0284046
0.0284045
0.0284046
0.0284045
0.0284046
0.0284045
0.0284046
0.0284045
0.0284046
0.0284045
0.0284046
0.0284045
0.0284046
0.0284045
0.0284046
0.0284045
0.0284046
0.0284045
0.0284046
0.0284045
0.0284046
0.0284045
0.0284046
0.0284045
0.0284046
0.0284045
0.0284046
0.0284045
0.0284046
0.0284045
0.0284046
0.0284045
0.0284046
0.0284045
0.0284046
0.0284045
0.0284046
0.0284045
0.0284046
0.0284045
0.0284046
0.0284045
0.0284046
0.0284045
0.0284046
0.0284045
0.0284046
0.0284045
0.0284046
0.0284045
0.0284046
0.0284045
0.0284046
0.0284045
0.0284046
0.0284045
0.0284046
0.0284045
0.0284046
0.0284045
0.0284046
0.0284045
0.0284046
0.0284045
0.0284046
0.0284045
0.0284046
0.0284045
0.0284046
0.0284045
0.0284046
0.0284045
0.0284046
0.0284045
0.0284046
0.0284045
0.0284046
0.0284045
0.0284046
0.0284045
0.0284046
0.0284045
0.0284046
0.0284045
0.0284046
0.0284045
0.0284046
0.0284045
0.0284046
0.0284045
0.0284046
0.0284045
0.0284046
0.0284045
0.0284046
0.0284045
0.0284046
0.0284045
0.0284046
0.0284045
0.0284046
0.0284045
)
;

boundaryField
{
    inlet
    {
        type            zeroGradient;
    }
    outlet
    {
        type            fixedValue;
        value           uniform 0;
    }
    repeat_boundary
    {
        type            zeroGradient;
    }
}


// ************************************************************************* //
