FoamFile
{version 2.0; format ascii;class vectorField; location 0;object  v;}
350
(
( -5.12408e-07 7.98513e-07 -7.83517e-06 )  
( -1.37426e-06 1.31655e-06 -1.03072e-05 )  
( -3.19473e-06 5.7519e-07 -8.28138e-06 )  
( 4.24813e-07 2.26812e-06 -1.02814e-05 )  
( -0.000106756 -1.34549e-05 -4.57434e-06 )  
( 6.68603e-07 3.80969e-06 -7.5338e-06 )  
( -3.22482e-06 1.8095e-06 -1.09434e-05 )  
( 3.04859e-06 -1.75445e-07 -7.94493e-06 )  
( -5.53984e-07 1.80826e-06 -6.24735e-06 )  
( -1.18617e-06 -1.98912e-07 -1.2682e-05 )  
( -3.31858e-06 -2.33245e-07 -8.78243e-06 )  
( 0.000118682 0.000154371 -5.22128e-06 )  
( 7.37955e-07 -2.51279e-07 -8.64313e-06 )  
( -6.65407e-07 -4.44288e-06 -2.62856e-06 )  
( -3.31998e-06 -2.44159e-06 -7.56027e-06 )  
( -6.61578e-06 2.81665e-06 -2.20324e-05 )  
( -1.93025e-06 -1.35636e-06 -7.98611e-06 )  
( -5.27007e-06 -3.27731e-09 -4.15888e-06 )  
( -7.7629e-07 -1.47195e-06 -1.01148e-05 )  
( -3.17518e-06 1.07581e-06 -7.54859e-06 )  
( -4.42481e-06 2.00146e-06 -4.19336e-06 )  
( 1.20111e-06 9.20149e-07 -7.41778e-06 )  
( 4.5716e-07 1.58416e-06 -1.39121e-05 )  
( -8.76889e-07 1.33449e-06 -7.0744e-06 )  
( -5.26742e-06 8.06986e-08 -1.61814e-05 )  
( -2.62045e-06 3.75054e-06 -9.73257e-06 )  
( -1.6016e-06 1.82362e-06 -7.67623e-06 )  
( -5.21561e-06 1.11816e-06 -1.4137e-05 )  
( 1.75034e-06 1.63245e-06 -1.85266e-05 )  
( -2.19844e-06 4.86098e-08 -8.78326e-06 )  
( -6.08108e-06 -4.2286e-07 -1.64127e-05 )  
( -2.65264e-06 3.83297e-06 -2.66114e-05 )  
( -2.31929e-06 1.99416e-06 -1.79019e-05 )  
( -1.73527e-06 1.89436e-06 -2.08288e-05 )  
( -2.66948e-06 2.69162e-06 -1.1964e-05 )  
( -3.88035e-06 8.06164e-07 -1.66385e-05 )  
( -4.32631e-06 1.1204e-06 -1.16892e-05 )  
( -8.37971e-07 2.99485e-06 -1.74691e-05 )  
( -5.47881e-06 2.23723e-06 -1.72999e-05 )  
( -7.41548e-06 3.83703e-06 -2.62474e-05 )  
( -1.91524e-06 4.55886e-06 -1.72379e-05 )  
( -3.41066e-06 -1.51808e-06 -1.58949e-05 )  
( -6.62948e-07 1.87306e-06 -1.37083e-05 )  
( -3.29149e-06 1.61687e-06 -1.52947e-05 )  
( -7.23149e-07 3.93768e-06 -1.65171e-05 )  
( -6.62998e-06 3.6932e-06 -1.90643e-05 )  
( 1.67703e-06 3.21651e-06 -2.98952e-05 )  
( -4.53448e-06 -1.32736e-06 -2.41756e-05 )  
( -4.26775e-06 1.54263e-06 -2.12915e-05 )  
( -3.5135e-06 -4.404e-07 -1.74234e-05 )  
( -4.91082e-06 -5.55175e-08 -2.04063e-05 )  
( -6.11142e-06 1.33611e-06 -2.81153e-05 )  
( -1.79232e-06 1.75404e-06 -3.20803e-05 )  
( -5.79892e-06 9.78892e-07 -2.93043e-05 )  
( -5.44996e-06 4.37272e-06 -3.38007e-05 )  
( -3.24642e-06 1.69621e-06 -1.43349e-05 )  
( -4.08502e-06 1.36454e-06 -2.48445e-05 )  
( -4.47962e-06 1.88306e-06 -3.15249e-05 )  
( -5.02657e-06 2.41492e-06 -3.79097e-05 )  
( -6.97322e-06 1.42648e-06 -4.0924e-05 )  
( -4.96629e-06 8.36885e-06 -3.10854e-05 )  
( 4.77003e-06 4.78024e-06 -2.04407e-05 )  
( -6.6434e-06 2.20366e-06 -4.0481e-05 )  
( -7.67e-07 1.97569e-06 -2.73607e-05 )  
( -3.12984e-06 1.54949e-06 -2.5598e-05 )  
( -3.70252e-06 2.19477e-06 -2.98982e-05 )  
( -3.63055e-06 1.57223e-06 -1.82905e-05 )  
( -4.01729e-06 1.45375e-06 -3.24522e-05 )  
( -5.02141e-06 3.91471e-06 -3.49366e-05 )  
( -2.24592e-06 8.65683e-07 -3.12693e-05 )  
( -7.57673e-06 8.47037e-07 -3.04953e-05 )  
( -6.10226e-06 2.10769e-06 -2.9676e-05 )  
( -1.88391e-06 -5.09083e-07 -2.83697e-05 )  
( -4.24118e-06 5.74265e-06 -4.2077e-05 )  
( -5.73394e-06 7.2442e-06 -3.45177e-05 )  
( -7.70712e-06 -7.86195e-07 -4.0186e-05 )  
( -3.27132e-06 4.88622e-06 -2.64366e-05 )  
( -6.35313e-06 2.42749e-06 -3.8589e-05 )  
( -9.60197e-06 4.32348e-06 -4.51821e-05 )  
( -9.82163e-06 3.57069e-06 -2.53018e-05 )  
( -9.48211e-06 1.79915e-06 -4.04419e-05 )  
( -3.08681e-06 1.0519e-06 -1.79355e-05 )  
( -7.62848e-06 4.78036e-06 -4.03205e-05 )  
( -9.28889e-06 4.40471e-06 -4.28362e-05 )  
( -7.39764e-06 6.06071e-06 -4.06237e-05 )  
( -5.44913e-06 2.28219e-06 -4.30854e-05 )  
( -4.69465e-06 1.80968e-06 -4.26649e-05 )  
( -9.61024e-06 4.82589e-06 -5.20817e-05 )  
( -9.08138e-06 1.0147e-05 -4.56546e-05 )  
( -9.29424e-06 4.73407e-06 -5.39039e-05 )  
( -1.51014e-06 6.75694e-06 -2.52848e-05 )  
( -6.90546e-06 4.03149e-06 -5.33496e-05 )  
( -9.04459e-06 7.56133e-06 -3.91957e-05 )  
( -1.03675e-05 3.08432e-06 -4.55572e-05 )  
( -9.04619e-06 4.87624e-06 -5.02123e-05 )  
( -1.22738e-05 1.38722e-06 -4.88441e-05 )  
( -5.70386e-06 2.24135e-06 -4.78285e-05 )  
( -6.16043e-06 2.33352e-06 -5.69375e-05 )  
( -9.62188e-06 6.63404e-07 -4.95584e-05 )  
( -8.86877e-06 4.83321e-06 -5.51844e-05 )  
( -1.01744e-05 5.94326e-06 -5.8844e-05 )  
( -3.62105e-06 1.11016e-05 -2.2913e-05 )  
( -1.11266e-05 2.87733e-06 -5.46926e-05 )  
( -1.1916e-05 4.01837e-06 -5.39551e-05 )  
( -2.13888e-06 -2.92227e-07 -4.26775e-05 )  
( -9.40628e-06 5.80539e-06 -5.4169e-05 )  
( -1.35465e-05 3.2906e-06 -4.88088e-05 )  
( 4.62335e-07 1.82495e-06 -3.97277e-05 )  
( -9.86975e-06 6.16987e-06 -5.09143e-05 )  
( -3.09511e-06 -9.40422e-08 -4.15047e-05 )  
( -1.24358e-05 4.55098e-06 -5.12469e-05 )  
( -9.20944e-06 4.55424e-06 -5.37379e-05 )  
( -1.13784e-05 2.72312e-06 -5.44886e-05 )  
( -8.92717e-06 1.17224e-05 -4.4366e-05 )  
( -3.61949e-06 2.01789e-06 -5.66589e-05 )  
( -1.12965e-05 6.7949e-06 -5.57795e-05 )  
( -1.29012e-05 5.52897e-06 -5.26506e-05 )  
( -5.07121e-06 4.60083e-06 -6.24841e-05 )  
( -1.373e-05 6.33865e-06 -6.41623e-05 )  
( -1.37936e-05 1.85426e-07 -6.04211e-05 )  
( -3.92869e-06 2.08304e-05 -2.83055e-05 )  
( -1.35116e-05 1.27239e-06 -5.86797e-05 )  
( -1.36211e-05 1.14103e-06 -6.46257e-05 )  
( -1.12749e-05 3.24182e-06 -6.04713e-05 )  
( -1.17154e-05 2.63729e-06 -6.40706e-05 )  
( -7.43235e-06 5.39349e-06 -7.29351e-05 )  
( -1.80823e-05 4.00894e-07 -5.72567e-05 )  
( -1.38007e-05 1.92633e-06 -6.18123e-05 )  
( -1.12742e-05 5.94204e-06 -6.27414e-05 )  
( -1.06354e-05 1.33593e-06 -6.20034e-05 )  
( -1.44568e-05 9.69892e-07 -7.41894e-05 )  
( -2.04063e-05 3.49074e-06 -6.79248e-05 )  
( -1.6133e-05 2.91419e-06 -6.17275e-05 )  
( -1.61267e-05 7.52163e-06 -6.13834e-05 )  
( -1.3585e-05 3.81249e-06 -6.4425e-05 )  
( -7.22851e-06 4.08415e-06 -6.80303e-05 )  
( -1.59163e-05 -2.54753e-06 -6.34429e-05 )  
( -1.16562e-05 3.33302e-06 -6.44595e-05 )  
( -1.42927e-05 1.36045e-06 -7.65249e-05 )  
( -1.93556e-05 1.62572e-06 -6.96801e-05 )  
( -1.90188e-05 1.99099e-06 -6.58664e-05 )  
( -1.32891e-05 3.78897e-06 -6.12219e-05 )  
( -1.72155e-05 -4.46499e-07 -7.84586e-05 )  
( -1.18068e-05 5.15787e-06 -7.19514e-05 )  
( -2.41678e-05 4.13864e-06 -7.30702e-05 )  
( -1.44696e-05 -1.62826e-07 -7.3338e-05 )  
( -2.21654e-05 -6.91498e-07 -7.20154e-05 )  
( -1.59518e-05 5.47101e-06 -6.13884e-05 )  
( -1.81284e-05 -8.07551e-07 -7.25533e-05 )  
( -7.55236e-06 4.73926e-06 -7.02018e-05 )  
( -1.70478e-05 4.05692e-06 -7.60534e-05 )  
( -1.26039e-05 3.74408e-06 -6.86737e-05 )  
( -1.32226e-05 5.29833e-06 -6.80657e-05 )  
( -1.4553e-05 7.56982e-07 -6.43463e-05 )  
( -1.25006e-05 -5.54267e-07 -8.29506e-05 )  
( -1.49493e-05 1.0062e-06 -8.17045e-05 )  
( -1.52652e-05 3.558e-06 -7.38644e-05 )  
( -1.14545e-05 1.07368e-07 -7.92602e-05 )  
( -1.31313e-05 4.62951e-06 -7.58715e-05 )  
( -8.29324e-06 4.38134e-06 -6.71725e-05 )  
( -1.84678e-05 2.55324e-06 -7.41925e-05 )  
( -1.485e-05 8.01188e-06 -7.59751e-05 )  
( -1.31963e-05 5.35628e-06 -7.79758e-05 )  
( -1.58352e-05 4.415e-06 -7.61662e-05 )  
( -1.47009e-05 2.51591e-07 -7.9554e-05 )  
( -1.09253e-05 6.01122e-06 -7.43958e-05 )  
( -1.5781e-05 -9.74458e-07 -7.92778e-05 )  
( -1.54645e-05 4.59757e-06 -7.3264e-05 )  
( -1.2839e-05 3.65433e-06 -8.57531e-05 )  
( -1.61518e-05 -8.24883e-07 -7.55855e-05 )  
( -1.38067e-05 9.7834e-07 -8.10249e-05 )  
( -1.55293e-05 1.12282e-06 -8.70286e-05 )  
( -1.45688e-05 5.44609e-07 -8.53385e-05 )  
( -1.29177e-05 3.26339e-06 -8.37045e-05 )  
( -1.23143e-05 3.86411e-06 -8.1058e-05 )  
( -1.67912e-05 -4.83047e-08 -8.92377e-05 )  
( -1.34457e-05 2.26762e-06 -8.59937e-05 )  
( -1.07872e-05 6.96681e-07 -8.77373e-05 )  
( -1.67393e-05 3.5477e-06 -8.21179e-05 )  
( -1.69563e-05 6.50577e-06 -9.5512e-05 )  
( -1.22762e-05 1.54419e-06 -8.71651e-05 )  
( -5.72311e-06 -6.45516e-07 -9.19834e-05 )  
( -1.38249e-05 3.76043e-06 -9.5211e-05 )  
( -2.79601e-05 -3.25833e-06 -8.24795e-05 )  
( -1.77027e-05 7.48155e-06 -7.07929e-05 )  
( -1.03996e-05 3.18387e-06 -9.4534e-05 )  
( -1.22804e-05 -4.045e-06 -9.23024e-05 )  
( -1.52307e-05 -8.88565e-07 -0.000102149 )  
( -1.19642e-05 3.81598e-06 -9.17486e-05 )  
( -1.36424e-05 1.0791e-06 -0.00010019 )  
( -1.36148e-05 -8.02693e-07 -9.75353e-05 )  
( -1.52516e-05 4.493e-06 -9.50603e-05 )  
( -8.92103e-06 2.91205e-06 -8.57792e-05 )  
( -9.0752e-06 2.50275e-06 -0.000100427 )  
( -4.52052e-06 4.44535e-06 -9.91421e-05 )  
( -1.52365e-05 9.11367e-07 -8.79677e-05 )  
( -1.14739e-05 2.83176e-07 -8.84062e-05 )  
( -1.0903e-05 2.76415e-06 -9.41881e-05 )  
( -1.37492e-05 2.8868e-06 -8.9628e-05 )  
( -7.92461e-06 3.34122e-07 -0.000112825 )  
( -1.00432e-05 1.17307e-06 -9.89834e-05 )  
( -9.70102e-06 2.01997e-06 -0.000106481 )  
( -1.9535e-05 -3.40508e-06 -0.000104227 )  
( -1.08734e-05 9.35516e-07 -7.89751e-05 )  
( -6.44403e-06 9.5484e-07 -9.34343e-05 )  
( -1.05872e-05 7.43061e-07 -9.7506e-05 )  
( -6.026e-06 -1.85689e-06 -0.000105439 )  
( -1.63494e-05 1.84386e-06 -0.000112035 )  
( -1.88071e-05 -9.70636e-06 -0.000113493 )  
( -1.6534e-05 2.85986e-06 -9.85118e-05 )  
( -7.53357e-06 6.61611e-07 -0.000103072 )  
( -2.43976e-05 -4.11082e-06 -8.64659e-05 )  
( -1.44059e-05 -8.93881e-07 -0.000102334 )  
( -7.96819e-06 -8.0758e-07 -9.95728e-05 )  
( -6.02221e-06 2.22144e-06 -0.000105231 )  
( -1.57071e-05 -7.55972e-07 -0.000110134 )  
( -1.81167e-05 -1.11924e-06 -0.000119095 )  
( -9.26399e-06 6.56944e-06 -0.000109014 )  
( -9.86141e-07 -2.11509e-06 -0.000122338 )  
( -6.29865e-06 -5.44366e-06 -0.000101633 )  
( -7.93518e-06 1.53325e-06 -0.000114154 )  
( -1.22818e-05 1.39523e-06 -0.000109614 )  
( -1.12623e-05 -7.14958e-06 -0.000124454 )  
( -4.63032e-06 7.32358e-06 -0.000102384 )  
( -1.18561e-05 2.2518e-07 -0.000102055 )  
( -1.42501e-05 3.51558e-06 -0.000106638 )  
( -8.51977e-06 2.30497e-06 -0.000113456 )  
( -7.42662e-06 -2.43256e-06 -0.000114948 )  
( -1.65254e-05 -6.90358e-06 -0.000118093 )  
( -1.58244e-06 -3.63749e-06 -0.000117152 )  
( -1.76544e-06 -3.30621e-06 -0.000111974 )  
( -1.21253e-05 1.34943e-05 -0.000108133 )  
( -1.57037e-05 4.91671e-06 -0.000112037 )  
( -1.89758e-05 -5.07235e-06 -9.83458e-05 )  
( -3.49328e-06 4.0486e-07 -0.000116135 )  
( -8.08944e-06 3.7822e-06 -0.00011809 )  
( -1.78341e-05 -6.04329e-06 -0.000118946 )  
( -1.52807e-05 -1.48706e-05 -0.000126885 )  
( 4.4351e-07 1.40678e-06 -0.000119454 )  
( -7.79349e-06 -2.75339e-06 -0.000114771 )  
( -9.18786e-06 1.6822e-06 -0.000125098 )  
( -1.37017e-06 -9.02271e-07 -0.000123573 )  
( -5.26126e-06 -1.06385e-05 -0.000132448 )  
( -1.07992e-05 -1.56863e-06 -0.000134674 )  
( -5.3722e-09 -2.63803e-06 -0.000135974 )  
( -1.1886e-05 4.56102e-06 -0.00011731 )  
( -1.32728e-05 -6.28295e-06 -0.000127739 )  
( -8.21415e-06 -6.51589e-06 -0.000120223 )  
( -8.05879e-06 -1.3836e-05 -0.00013556 )  
( 8.59611e-06 1.76468e-05 -0.00010787 )  
( 2.04662e-06 1.36076e-05 -0.000139829 )  
( -2.33283e-06 -6.07424e-06 -0.000120101 )  
( -6.75553e-06 -5.24575e-06 -0.00013409 )  
( -3.99142e-06 -7.23323e-06 -0.000139583 )  
( -7.01297e-07 8.32469e-06 -0.000140942 )  
( -2.07483e-05 -8.4856e-06 -0.000147159 )  
( -7.70352e-07 9.43905e-06 -0.000142318 )  
( -1.08762e-07 -3.66606e-06 -0.000125658 )  
( 4.90981e-06 3.56813e-06 -0.000141104 )  
( -3.81132e-06 -9.80897e-06 -0.000144675 )  
( -5.90889e-06 1.14024e-05 -0.00011865 )  
( -8.18091e-06 -2.96641e-06 -0.000149481 )  
( -7.54433e-06 1.04754e-06 -0.000124869 )  
( -2.73956e-07 3.09415e-05 -0.000126295 )  
( 9.56347e-06 7.64237e-07 -0.00015574 )  
( -6.56866e-06 1.66924e-05 -0.00014067 )  
( -7.72696e-06 -9.83507e-06 -0.000153474 )  
( -6.51519e-06 -9.54858e-06 -0.000140132 )  
( 3.62894e-06 5.6272e-07 -0.000166626 )  
( -1.49918e-06 4.78967e-06 -0.000148784 )  
( -5.58991e-06 -2.10571e-05 -0.000153355 )  
( -2.87411e-06 1.78568e-06 -0.000152874 )  
( -2.99888e-06 -7.90752e-06 -0.00015757 )  
( 5.45248e-07 -1.08673e-05 -0.000142852 )  
( 1.25101e-06 3.04357e-05 -0.00014328 )  
( -2.63321e-06 -7.95578e-06 -0.000139149 )  
( -5.32042e-06 -3.97106e-07 -0.000141012 )  
( 1.78994e-06 -9.61957e-06 -0.000155377 )  
( -3.5516e-06 -7.30528e-06 -0.000168977 )  
( 1.86376e-06 8.76544e-06 -0.000148218 )  
( 5.8306e-06 1.51457e-05 -0.000152633 )  
( 1.14935e-05 -1.54917e-05 -0.000169827 )  
( 6.03782e-06 8.18168e-06 -0.00014897 )  
( 1.87261e-06 -6.25667e-06 -0.000153623 )  
( 1.67536e-05 3.25631e-06 -0.000181873 )  
( -4.71368e-05 -1.46578e-05 -0.000142099 )  
( 1.0071e-05 -7.3865e-06 -0.000156634 )  
( 1.56393e-05 -5.33251e-07 -0.000156125 )  
( 5.8766e-06 -5.53883e-06 -0.000154886 )  
( 8.65913e-06 -1.82129e-05 -0.000155193 )  
( 2.42136e-06 6.05636e-06 -0.000164464 )  
( 5.69153e-06 5.35462e-06 -0.000161142 )  
( 1.1498e-05 -3.20012e-06 -0.000153998 )  
( 5.0895e-07 3.00312e-06 -0.000154513 )  
( 5.10557e-06 2.34133e-06 -0.00016912 )  
( 1.9798e-05 -3.90562e-06 -0.000158946 )  
( 1.55025e-05 -7.4779e-07 -0.000181356 )  
( 6.85817e-06 -5.46658e-06 -0.000179609 )  
( 9.38822e-06 2.14779e-06 -0.000153373 )  
( 3.55776e-06 1.32356e-05 -0.000145626 )  
( 6.67756e-06 6.66402e-06 -0.000177836 )  
( 1.84473e-05 -2.35058e-06 -0.000153593 )  
( 3.02396e-06 -4.83399e-06 -0.000173304 )  
( -6.72721e-06 7.26151e-08 -0.000150207 )  
( 1.9293e-05 2.392e-06 -0.000175569 )  
( 8.3216e-06 -6.48576e-06 -0.000161011 )  
( 1.03665e-05 1.02094e-05 -0.000177826 )  
( 3.78301e-06 5.56049e-06 -0.000165057 )  
( -1.54798e-06 8.0735e-06 -0.000164224 )  
( 2.35393e-06 -1.2274e-05 -0.000158612 )  
( 6.31299e-06 -9.41867e-06 -0.000159232 )  
( 8.45617e-06 -4.18049e-06 -0.000152615 )  
( 2.00344e-05 -4.13341e-08 -0.000166832 )  
( 1.32307e-06 1.28616e-05 -0.000175735 )  
( 5.72077e-06 -1.06105e-05 -0.000175604 )  
( 1.29781e-05 3.44502e-06 -0.000163374 )  
( 1.24762e-05 -2.44707e-06 -0.000163794 )  
( 2.62139e-06 -2.11473e-07 -0.000168478 )  
( 6.38029e-06 5.13527e-06 -0.000155236 )  
( 2.1274e-05 -1.14085e-05 -0.000178156 )  
( 1.34516e-05 -9.21542e-06 -0.000188802 )  
( 1.13033e-05 8.32872e-06 -0.000155851 )  
( 4.32743e-06 8.51354e-06 -0.000191297 )  
( 7.35433e-06 -2.09337e-06 -0.000161493 )  
( 1.7909e-05 -1.98883e-05 -0.000177886 )  
( 2.12403e-05 5.98521e-06 -0.000158634 )  
( 1.57027e-05 -2.82478e-05 -0.000177569 )  
( 7.06376e-06 8.00083e-06 -0.000164844 )  
( 8.61674e-06 1.20841e-06 -0.000167645 )  
( 2.54768e-05 2.33381e-06 -0.00017438 )  
( 1.11012e-05 4.49025e-07 -0.000185363 )  
( 1.79037e-05 -1.25699e-05 -0.000183617 )  
( 3.03618e-05 4.72349e-06 -0.000184651 )  
( 4.40294e-06 -9.08583e-06 -0.000163592 )  
( 1.82382e-05 3.24951e-06 -0.000186726 )  
( 4.15115e-06 -1.43093e-05 -0.000173839 )  
( 1.52333e-05 -2.59736e-05 -0.000184167 )  
( 1.53791e-05 -1.75568e-05 -0.000187079 )  
( -8.75208e-07 2.42936e-05 -0.000181422 )  
( 1.43572e-05 1.73142e-06 -0.000165044 )  
( 7.16809e-06 1.60307e-05 -0.00018814 )  
( 2.93275e-06 1.83812e-06 -0.000187139 )  
( -1.49525e-05 -7.50467e-06 -0.00016372 )  
( 2.94628e-05 4.45598e-07 -0.000181682 )  
( 3.36051e-05 2.25693e-05 -0.000174816 )  
( 8.4394e-06 2.38088e-06 -0.000166431 )  
( 2.70362e-06 1.61469e-05 -0.000159754 )  
( -1.02818e-06 9.62079e-06 -0.000180179 )  
( -9.82286e-06 2.23316e-06 -0.000192389 )  
( -9.03725e-06 -5.73191e-06 -0.000174342 )  
)
