/*--------------------------------*- C++ -*----------------------------------*\
| =========                 |                                                 |
| \\      /  F ield         | OpenFOAM: The Open Source CFD Toolbox           |
|  \\    /   O peration     | Version:  5.x                                   |
|   \\  /    A nd           | Web:      www.OpenFOAM.org                      |
|    \\/     M anipulation  |                                                 |
\*---------------------------------------------------------------------------*/
FoamFile
{
    version     2.0;
    format      ascii;
    class       surfaceScalarField;
    location    "1000";
    object      phi;
}
// * * * * * * * * * * * * * * * * * * * * * * * * * * * * * * * * * * * * * //

dimensions      [0 3 -1 0 0 0 0];

internalField   nonuniform List<scalar> 
89
(
-0.0249976
-0.0249976
-0.0249975
-0.0249974
-0.0249973
-0.0249971
-0.0249969
-0.0249967
-0.0249964
-0.0249961
-0.0249958
-0.0249954
-0.024995
-0.0249945
-0.0249941
-0.0249936
-0.0249933
-0.0249931
-0.0249931
-0.0249935
-0.0249946
-0.0249965
-0.0249998
-0.0250051
-0.025013
-0.0250249
-0.0250422
-0.0250672
-0.0251025
-0.0251523
-0.0252219
-0.0253184
-0.0254518
-0.025636
-0.0258884
-0.0262032
-0.0265547
-0.0268674
-0.0271087
-0.0261419
-0.0261713
-0.0264387
-0.0266763
-0.0270676
-0.0272228
-0.0274608
-0.0279598
-0.0284851
-0.0286094
-0.0288126
-0.0288624
-0.0289727
-0.0288502
-0.0282418
-0.0275896
-0.0270254
-0.0265816
-0.0262358
-0.0259669
-0.0257576
-0.0255945
-0.0254672
-0.0253677
-0.0252899
-0.0252288
-0.0251809
-0.0251432
-0.0251135
-0.0250901
-0.0250716
-0.025057
-0.0250454
-0.0250363
-0.025029
-0.0250233
-0.0250187
-0.025015
-0.0250121
-0.0250098
-0.0250079
-0.0250064
-0.0250052
-0.0250042
-0.0250034
-0.0250027
-0.0250022
-0.0250017
-0.0250013
-0.0250009
)
;

boundaryField
{
    inlet
    {
        type            calculated;
        value           uniform -0.0250006;
    }
    outlet
    {
        type            calculated;
        value           uniform 0.0249977;
    }
    repeat_boundary
    {
        type            calculated;
        value           uniform 0;
    }
    procBoundary1to0
    {
        type            processor;
        value           nonuniform List<scalar> 
90
(
-1.07452e-08
-1.60731e-08
-2.25249e-08
-2.91539e-08
-3.56441e-08
-4.1731e-08
-4.70443e-08
-5.10501e-08
-5.30944e-08
-5.23784e-08
-4.77329e-08
-3.777e-08
-2.06212e-08
1.37198e-08
7.17638e-08
1.58011e-07
2.84699e-07
4.67995e-07
7.29828e-07
1.10001e-06
1.6189e-06
2.34076e-06
3.33786e-06
4.70929e-06
6.58784e-06
9.15133e-06
1.26384e-05
1.73687e-05
2.37708e-05
3.24194e-05
4.40852e-05
5.98025e-05
8.10249e-05
0.000109934
0.00014821
0.000182792
0.000200274
0.000168695
0.000137663
-0.000597087
1.90643e-05
0.000192613
0.000100293
0.000292203
0.000275096
0.000229449
0.000189071
6.04312e-05
-7.98749e-05
0.000181054
9.63391e-05
4.76064e-06
-2.32714e-05
-0.000309987
-0.000340148
-0.000304768
-0.00024231
-0.000190748
-0.000149925
-0.000117916
-9.28726e-05
-7.3262e-05
-5.78814e-05
-4.57993e-05
-3.62936e-05
-2.88037e-05
-2.28931e-05
-1.82219e-05
-1.45247e-05
-1.1594e-05
-9.26758e-06
-7.41819e-06
-5.94621e-06
-4.77311e-06
-3.8367e-06
-3.088e-06
-2.4881e-06
-2.00654e-06
-1.61979e-06
-1.30904e-06
-1.05926e-06
-8.58506e-07
-6.97245e-07
-5.67867e-07
-4.64262e-07
-3.81447e-07
-3.15142e-07
-2.61622e-07
-2.20252e-07
-2.02804e-07
)
;
    }
    procBoundary1to3
    {
        type            processor;
        value           nonuniform List<scalar> 
90
(
-2.32559e-08
-3.97017e-08
-5.9717e-08
-8.1777e-08
-1.06152e-07
-1.33356e-07
-1.63917e-07
-1.98321e-07
-2.3705e-07
-2.80526e-07
-3.29041e-07
-3.82654e-07
-4.41062e-07
-5.03411e-07
-5.67753e-07
-6.30708e-07
-6.86825e-07
-7.27521e-07
-7.40051e-07
-7.09606e-07
-6.20033e-07
-4.61438e-07
-9.87158e-08
4.60977e-07
1.3294e-06
2.65712e-06
4.62283e-06
7.47208e-06
1.15404e-05
1.72913e-05
2.53581e-05
3.66096e-05
5.22906e-05
7.42535e-05
0.000104032
0.000131938
0.000151116
0.00014388
0.000103543
-0.000369812
1.03949e-05
7.47503e-05
0.000137318
9.90747e-05
-0.000119859
8.54233e-06
0.000309919
0.000464831
0.000204194
2.21711e-05
-4.66217e-05
0.00010561
-9.92829e-05
-0.000298502
-0.000312143
-0.000259394
-0.000201619
-0.000155044
-0.00011906
-9.1419e-05
-7.02507e-05
-5.40384e-05
-4.16141e-05
-3.20831e-05
-2.47651e-05
-1.91408e-05
-1.48139e-05
-1.14813e-05
-8.91176e-06
-6.92809e-06
-5.39468e-06
-4.20757e-06
-3.28707e-06
-2.57212e-06
-2.01593e-06
-1.58255e-06
-1.24433e-06
-9.79914e-07
-7.72843e-07
-6.10459e-07
-4.83002e-07
-3.82914e-07
-3.04323e-07
-2.42634e-07
-1.94216e-07
-1.56208e-07
-1.26547e-07
-1.03679e-07
-8.71982e-08
-8.05648e-08
)
;
    }
}


// ************************************************************************* //
