FoamFile
{version 2.0; format ascii;class Cloud<passiveParticle>; location 0;object  positions;}
348
(
( 4122.43 4330.7 499.582 ) 0 
( 1694.74 2198.73 499.567 ) 0 
( 5.14406 1963.33 498.399 ) 0 
( 2488.78 1591.31 498.718 ) 0 
( 1042.42 4454.79 497.719 ) 0 
( 3476.9 1743.34 498.405 ) 0 
( 1555.75 3188.83 498.197 ) 0 
( 440.169 1063.57 499.098 ) 0 
( 4584.61 3423.27 497.328 ) 0 
( 3123.62 4368.9 499.393 ) 0 
( 3132.25 805.806 498.646 ) 0 
( 4034.74 2573.11 498.396 ) 0 
( 57.2678 4620.36 498.167 ) 0 
( 1497.21 1183.4 497.665 ) 0 
( 511.913 67.0009 499.084 ) 0 
( 689.257 2691.11 498.115 ) 0 
( 1460.33 3888.92 1204.97 ) 0 
( 1624.97 192.136 497.63 ) 0 
( 3586.04 3482.59 498.016 ) 0 
( 3075.39 3245.63 1321.84 ) 0 
( 259.795 3066.76 1317.81 ) 0 
( 4134.61 764.782 498.59 ) 0 
( 2580.5 3529.44 498.976 ) 0 
( 2953.81 2602.74 498.356 ) 0 
( 438.339 3658.5 498.854 ) 0 
( 4512.08 1690.8 497.453 ) 0 
( 4147.13 4922.93 1309.66 ) 0 
( 889.092 1827.84 960.805 ) 0 
( 2267.28 760.751 1008.43 ) 0 
( 4000.83 1421.6 1311.54 ) 0 
( 2481.77 2207.96 1284.69 ) 0 
( 2085.34 3123.04 1341.41 ) 0 
( 4627.44 443.148 1312.05 ) 0 
( 3004.22 1357.47 1321.86 ) 0 
( 4998.69 1370.69 1308.62 ) 0 
( 3622 497.36 1312.54 ) 0 
( 628.51 4883.15 1299.24 ) 0 
( 2042.32 4371.12 498.462 ) 0 
( 3521.23 1226.19 2165.88 ) 0 
( 1028.46 619.625 1174.28 ) 0 
( 2581.74 4123.41 1302.48 ) 0 
( 3146.19 4967.51 1299.79 ) 0 
( 187.145 4542.59 2127.58 ) 0 
( 441.658 2173.93 1785.06 ) 0 
( 1758.71 1529.09 1396.78 ) 0 
( 3476.35 2331.43 1304.63 ) 0 
( 1184.68 2693.15 1364.79 ) 0 
( 1808.04 4811.7 1362.93 ) 0 
( 2523.52 4796.47 2060.52 ) 0 
( 2646.37 2774.95 2089.73 ) 0 
( 3613.3 4083.18 1383.72 ) 0 
( 4531.19 2268.7 1310.72 ) 0 
( 4606.5 4000.22 1313.58 ) 0 
( 734.455 3746.4 1874.56 ) 0 
( 4600.52 4606.97 2139.62 ) 0 
( 3991.18 2195.41 2147.6 ) 0 
( 4513.62 1346.45 2181.04 ) 0 
( 4070.63 3155.32 1308.48 ) 0 
( 1956.71 3973.31 2067.93 ) 0 
( 3583.55 3108.11 2176.48 ) 0 
( 1052.94 1448.57 2098.71 ) 0 
( 2982.53 3906.52 2191.52 ) 0 
( 2440.74 1536.13 2127.83 ) 0 
( 1778.57 2281.46 2054.22 ) 0 
( 4122.19 427.526 2172.57 ) 0 
( 455.9 654.619 1990.42 ) 0 
( 3942.29 1631.63 2975.37 ) 0 
( 4930.24 999.066 3019.58 ) 0 
( 1831.26 726.986 1988.35 ) 0 
( 3578.91 4710.08 2160.53 ) 0 
( 3120.64 2077.67 2622.73 ) 0 
( 2259.77 3.19231 2570.24 ) 0 
( 1184 3845 2761.92 ) 0 
( 192.816 3729.34 2712.79 ) 0 
( 2757.18 399.884 1801.2 ) 0 
( 1881.69 4713.31 2820.34 ) 0 
( 1183.83 4606 2114.36 ) 0 
( 1595.56 1752.34 2881.5 ) 0 
( 1853.44 3124.96 2585.22 ) 0 
( 926.567 2870.55 2313.16 ) 0 
( 4579.62 3418.66 2126.42 ) 0 
( 3905.65 3916.09 2668.43 ) 0 
( 1234.13 2705.41 3249.36 ) 0 
( 2217.83 3843.12 3175.36 ) 0 
( 2960.01 4576.11 2932.69 ) 0 
( 3527.92 2978.27 3720.41 ) 0 
( 485.205 122.617 3243.61 ) 0 
( 4002.68 647.426 3136.94 ) 0 
( 3094.9 525.683 2736.5 ) 0 
( 650.37 1053.21 2922.9 ) 0 
( 641.692 2042.66 2792.21 ) 0 
( 2948.39 3205 2938.97 ) 0 
( 4125.61 2776.72 2946.21 ) 0 
( 2190.54 946.206 2895.19 ) 0 
( 1358.44 359.387 2806.88 ) 0 
( 578.135 4545.89 3137.25 ) 0 
( 88.3269 2814.92 3101.47 ) 0 
( 4781.5 21.1731 3155.74 ) 0 
( 4836.08 2075.57 2991.86 ) 0 
( 4504.42 1592.94 3800.37 ) 0 
( 3040.59 1349.28 3299.55 ) 0 
( 2335.89 2437.86 3125.88 ) 0 
( 3587.82 1988.28 3838.68 ) 0 
( 681.02 3482.62 3547.11 ) 0 
( 2565.59 3203.96 3860.43 ) 0 
( 458.74 1195.08 3892.4 ) 0 
( 2054.18 107.826 3541.69 ) 0 
( 3509.04 4929.48 3775.96 ) 0 
( 4365.82 3579.05 3488.06 ) 0 
( 2972.33 452.169 3729.95 ) 0 
( 1433.76 1024.74 3546.65 ) 0 
( 1419.58 4455.71 3666.97 ) 0 
( 3443.41 3958.62 3551.44 ) 0 
( 4430.76 4558.23 3669.15 ) 0 
( 1824.72 2536.52 4037.47 ) 0 
( 1615.01 3503.33 3894.51 ) 0 
( 2109.47 808.803 4250.7 ) 0 
( 2945.12 1346.78 4341.14 ) 0 
( 2196.99 1659.56 3735.69 ) 0 
( 532.56 4401.54 4124.64 ) 0 
( 2609.85 4455.7 3860.14 ) 0 
( 487.159 2187.19 3768.67 ) 0 
( 1237.51 1721.01 4233.9 ) 0 
( 1100.27 213.27 4024.31 ) 0 
( 4433.38 2586.24 3876.32 ) 0 
( 4756.07 636.964 3941.81 ) 0 
( 4060.62 3945.22 4366.78 ) 0 
( 1788.67 3192.98 4826.46 ) 0 
( 3810.17 929.435 4073.18 ) 0 
( 3555.4 2971.34 4719.16 ) 0 
( 3074.89 3811.63 4466.93 ) 0 
( 258.174 500.001 4582.2 ) 0 
( 934.081 2894.87 4315.06 ) 0 
( 450.48 1440.23 4860.05 ) 0 
( 2767.23 2328.43 4295.44 ) 0 
( 388.859 3621.11 4732.41 ) 0 
( 1900.21 4809.52 4466.9 ) 0 
( 2104.64 1719.87 4729.36 ) 0 
( 4758.13 1106.68 4823.62 ) 0 
( 1290.92 4044.99 4667.31 ) 0 
( 4109.1 1853.35 4680.82 ) 0 
( 3206.8 1937.61 5102.77 ) 0 
( 3616.27 1027.32 5046.64 ) 0 
( 2934.77 371.339 4723.27 ) 0 
( 696.88 434.798 5477.56 ) 0 
( 3267.97 4755.98 4731.74 ) 0 
( 4519.34 2747.48 4858.31 ) 0 
( 2663.9 2836 5149.83 ) 0 
( 4061.39 4368.54 5279.79 ) 0 
( 4206.36 280.396 4720.31 ) 0 
( 1359.97 2313.75 5027.38 ) 0 
( 1257.23 860.685 4768 ) 0 
( 2267.71 4051.75 5004.08 ) 0 
( 242.388 3678.32 5948.36 ) 0 
( 3557.37 121.61 5462.33 ) 0 
( 1944.46 430.9 5350.19 ) 0 
( 362.07 4435.8 5308.28 ) 0 
( 3851.12 2540.01 5570.94 ) 0 
( 1117.78 3514.17 5494.16 ) 0 
( 4985.58 1968.48 5275.48 ) 0 
( 2677.45 84.8004 5932.26 ) 0 
( 2659.16 1128.21 5312.76 ) 0 
( 3353.31 938.928 6006.94 ) 0 
( 500.73 2770.81 5244.32 ) 0 
( 4767.71 3680.21 5117.64 ) 0 
( 28.3194 1964.89 5596.38 ) 0 
( 4150.28 1591.57 5672.5 ) 0 
( 1799.18 2833.25 5757.57 ) 0 
( 3170.58 3896.86 5456.04 ) 0 
( 1543.85 4582.48 5469.27 ) 0 
( 4847.67 2923.71 5785.96 ) 0 
( 4401.9 625.663 5636.6 ) 0 
( 1809.36 170.584 6418.96 ) 0 
( 1599.95 2010.01 6287.62 ) 0 
( 2006.93 1123.82 6068.96 ) 0 
( 1175.15 1481.62 5546.7 ) 0 
( 4031.48 3501.1 5772.34 ) 0 
( 2441.97 4995.34 5283.38 ) 0 
( 3121.78 3066.01 6007.48 ) 0 
( 2371.66 2022.2 5651.88 ) 0 
( 4513.4 4831.62 6054.59 ) 0 
( 2318.46 3669.71 5925.56 ) 0 
( 1078.26 841.997 6306.68 ) 0 
( 886.317 2808.46 6164.99 ) 0 
( 3314.01 4841.42 5744.2 ) 0 
( 1061.02 4164.05 6249.6 ) 0 
( 4677.14 1319.26 6480.67 ) 0 
( 2691.75 612.437 6779.62 ) 0 
( 4899.17 3893.81 6084.92 ) 0 
( 4324.29 2249.83 6401.15 ) 0 
( 640.358 1738.99 6353.52 ) 0 
( 3321.73 4107.15 6420.97 ) 0 
( 149.501 770.846 6668.96 ) 0 
( 241.597 3351.25 6892.68 ) 0 
( 4807.13 328.092 6499.98 ) 0 
( 2233.76 4629.96 6188.6 ) 0 
( 3526.87 63.9991 6458.41 ) 0 
( 3521.45 2661.44 6828.06 ) 0 
( 858.196 124.197 6964.56 ) 0 
( 1604.12 3388 6564.4 ) 0 
( 2833.75 4834.35 6958.84 ) 0 
( 4035.01 743.923 6984.75 ) 0 
( 2681.87 3459.54 6832.38 ) 0 
( 1040.13 2809.89 7152.1 ) 0 
( 4250 4196.68 6779.92 ) 0 
( 4380.98 2285.28 7398.03 ) 0 
( 3259.99 1933.84 6100.6 ) 0 
( 2412.8 2558.4 6495.05 ) 0 
( 1818.05 1017.59 7044.42 ) 0 
( 3202.03 20.444 7401.46 ) 0 
( 4369.74 3211.29 6665.61 ) 0 
( 1324.37 4929.46 6833.45 ) 0 
( 3709.42 1688.59 6958.23 ) 0 
( 3595.74 3576.74 7221.62 ) 0 
( 2377.97 1490.14 7727.37 ) 0 
( 2569.59 1603.28 6742.77 ) 0 
( 1998.73 2988.67 7389.45 ) 0 
( 856.373 1241 7195.63 ) 0 
( 3641.77 4564.65 7480.18 ) 0 
( 256.503 4436.39 7537.18 ) 0 
( 1676.76 2047.94 7283.53 ) 0 
( 3231.67 1012.79 7518.79 ) 0 
( 1962.71 4188.83 7042.07 ) 0 
( 1024.75 3885.89 7208.85 ) 0 
( 3952.56 417.821 7925.71 ) 0 
( 393.17 3510.75 7886.45 ) 0 
( 768.335 2062.7 7756.53 ) 0 
( 1883.22 3806.11 7960.64 ) 0 
( 4935.65 545.065 8046.11 ) 0 
( 2429.33 496.36 7816.82 ) 0 
( 1189.91 4667.31 7809.82 ) 0 
( 1427.86 1356.51 8008.15 ) 0 
( 1439.67 397.033 7729.93 ) 0 
( 4432.27 3250.96 7661.6 ) 0 
( 2778.06 4079.19 7610.24 ) 0 
( 3593.24 2731.83 7821.91 ) 0 
( 2767.45 2351.88 7405.17 ) 0 
( 2133.63 4959.48 7659.89 ) 0 
( 4096.51 1401.82 7833.34 ) 0 
( 2128.14 2382.18 8172.83 ) 0 
( 2072.86 931.932 8641.78 ) 0 
( 3242.37 1834.98 8114.42 ) 0 
( 1299 2981.77 8101.8 ) 0 
( 3567.43 3855.35 8180.27 ) 0 
( 4364.53 4457.95 8161.92 ) 0 
( 110.295 4259.46 8509.6 ) 0 
( 1436.04 164.937 8707.57 ) 0 
( 2728.6 3180.61 8044.81 ) 0 
( 505.905 676.879 7950.25 ) 0 
( 4840.43 1430.3 8498.47 ) 0 
( 510.431 1488.95 8532.84 ) 0 
( 1069.45 3850.57 8538.01 ) 0 
( 3792.37 4404.67 8984.14 ) 0 
( 429.524 2664.87 8478.38 ) 0 
( 2056.79 3262.54 8780.32 ) 0 
( 4051.24 895.522 8798.13 ) 0 
( 3192.6 2620.71 8730.76 ) 0 
( 2441.52 4461.38 8469.96 ) 0 
( 4242.67 2223.26 8386.06 ) 0 
( 3062.68 930.301 8500.55 ) 0 
( 2561 1779.97 8842.42 ) 0 
( 3291.99 4965.64 8325 ) 0 
( 1197.1 1048.19 9109.14 ) 0 
( 4963.19 2233.65 9079.06 ) 0 
( 1272.17 2129.4 8622.89 ) 0 
( 4316.95 3386.43 8644.74 ) 0 
( 232.616 3443.54 9072.76 ) 0 
( 3467.95 214.726 9239.53 ) 0 
( 3976.4 3607.17 9558.14 ) 0 
( 3629.21 1770.77 9032.91 ) 0 
( 2469.99 193.351 9185.23 ) 0 
( 2915.15 4877.94 9246.16 ) 0 
( 1945.57 2418.43 9302.73 ) 0 
( 4969.42 3187.91 9374.17 ) 0 
( 1518.92 4714.7 8759.01 ) 0 
( 168.433 1347.96 9461.8 ) 0 
( 4833.33 4209.38 9009.27 ) 0 
( 1137.84 3019.24 9087.46 ) 0 
( 723.416 4346.67 9332.54 ) 0 
( 2990.89 3575.9 8946.6 ) 0 
( 4037.33 2653.51 9264.67 ) 0 
( 2195.73 4068.66 9355.28 ) 0 
( 547.477 442.171 9645.13 ) 0 
( 2292.08 1170.09 9586.91 ) 0 
( 1475.92 1699.74 9813.62 ) 0 
( 1534.9 4696.43 9798.98 ) 0 
( 4744.37 1194.3 9464.39 ) 0 
( 1340.17 2746.46 10027.3 ) 0 
( 3283.98 1092.35 9680.88 ) 0 
( 4830.07 103.594 9416.99 ) 0 
( 2954.56 2253.38 9629.32 ) 0 
( 694.285 2196.58 9438.6 ) 0 
( 4334.81 4527.91 9814.55 ) 0 
( 2520.4 387.349 10164.5 ) 0 
( 4572.82 2690.97 10145.4 ) 0 
( 2501.52 3145.49 9704.39 ) 0 
( 3126.74 4074.39 9802.14 ) 0 
( 3539.67 4796.12 10357 ) 0 
( 4116.09 1835.46 9902.76 ) 0 
( 375.072 2997.49 9955.41 ) 0 
( 804.868 103.068 10549.2 ) 0 
( 1359.62 3712.65 9771.48 ) 0 
( 1528.78 643.54 9960.65 ) 0 
( 4106.12 578.213 9924.16 ) 0 
( 4731.19 3681.28 10209.7 ) 0 
( 2179.09 2252.13 10260.2 ) 0 
( 442.164 4936.86 10100 ) 0 
( 2470.92 4787.21 10136.7 ) 0 
( 1884.74 3028.66 10816.7 ) 0 
( 634.466 1606.31 10344 ) 0 
( 1738.7 1295.24 10688.8 ) 0 
( 3596 2577.6 10323.5 ) 0 
( 2959.37 3295.62 10601.4 ) 0 
( 557.953 3904.51 10336.1 ) 0 
( 2175.32 3852.79 10331.1 ) 0 
( 3791.9 3841.58 10512.2 ) 0 
( 4671.33 1217.16 10460.7 ) 0 
( 2703.93 1425.36 10461.2 ) 0 
( 3680.07 1249.56 10585 ) 0 
( 2866.62 2373.29 10975.7 ) 0 
( 3422.69 35.4144 10411.3 ) 0 
( 367.628 2457.01 10796 ) 0 
( 2899.1 4249.39 10895.1 ) 0 
( 515.888 914.726 11055.9 ) 0 
( 4259.29 2062.4 10865.6 ) 0 
( 344.474 4578.16 11043.1 ) 0 
( 4135.97 3051.18 11018.5 ) 0 
( 1329.3 2191.24 10858.2 ) 0 
( 1375.57 4108.51 10873.2 ) 0 
( 4683.18 4519.51 10751.7 ) 0 
( 4190.03 10.733 11051.7 ) 0 
( 2515.28 3416.07 11488.9 ) 0 
( 3840.7 4583.75 11286.3 ) 0 
( 2444.42 902.502 11277.5 ) 0 
( 1434.91 501.744 11215.4 ) 0 
( 3386.45 569.06 11255.9 ) 0 
( 3498.43 1747.6 11432.6 ) 0 
( 3050.98 1098.82 12047.6 ) 0 
( 3482.88 3666.27 11459.5 ) 0 
( 938.407 3231.08 11067.9 ) 0 
( 661.191 1802.39 11492.3 ) 0 
( 233.486 2887.85 11688.2 ) 0 
( 2899.9 111.63 12000.1 ) 0 
( 2107.62 1885.54 11406.3 ) 0 
( 4736.61 2483.23 11636.7 ) 0 
( 2114.28 4331.75 11508.7 ) 0 
( 4273.77 1031.22 11359.1 ) 0 
( 4774.86 9.73349 11862.6 ) 0 
)
