FoamFile
{version 2.0; format ascii;class vectorField; location 0;object  v;}
348
(
( 9.7059e-07 -5.48587e-06 8.4516e-07 )  
( 1.51258e-06 -3.97179e-06 1.32523e-06 )  
( 1.77358e-06 -9.51979e-07 1.69255e-06 )  
( 3.91831e-06 -5.5996e-06 2.56942e-06 )  
( 3.20678e-06 -3.37187e-06 -7.49729e-07 )  
( 4.29516e-06 -2.97616e-06 -1.22045e-06 )  
( 2.63374e-06 -5.62019e-06 1.687e-06 )  
( 1.38507e-06 -3.28038e-06 2.05684e-06 )  
( 3.86529e-06 -3.09354e-06 1.10769e-07 )  
( 1.68901e-06 -3.03608e-06 -3.03601e-07 )  
( 4.7288e-06 -2.65607e-06 9.57528e-07 )  
( 4.24486e-06 -3.50395e-06 -8.35155e-07 )  
( 3.85067e-06 -1.79746e-06 6.01554e-07 )  
( 3.36328e-06 -3.67169e-06 1.97322e-06 )  
( 2.43862e-06 -2.76819e-06 2.93025e-06 )  
( 2.76501e-06 -3.2118e-06 1.37415e-06 )  
( 4.36775e-06 -7.124e-06 -1.75167e-07 )  
( 4.38882e-06 -2.41976e-06 1.72065e-06 )  
( 3.32952e-06 -3.09263e-06 -3.72817e-07 )  
( 6.62832e-06 -7.71239e-06 -3.31832e-07 )  
( 6.25481e-06 -4.36073e-06 1.0918e-06 )  
( 4.0779e-06 -3.06902e-06 2.74865e-07 )  
( 5.2661e-07 -2.66326e-06 5.8383e-07 )  
( 2.77465e-06 -4.32957e-06 1.9355e-07 )  
( 3.92471e-06 -2.06245e-06 1.61034e-07 )  
( 4.93946e-06 -3.12308e-06 2.95844e-07 )  
( 6.37045e-06 -4.13232e-06 -4.07257e-06 )  
( 5.10515e-06 -6.98085e-06 3.49534e-06 )  
( 7.55064e-06 -7.86611e-06 1.67598e-06 )  
( 9.17442e-06 -6.28112e-06 -6.02566e-08 )  
( 5.73849e-06 -8.64157e-06 2.67843e-06 )  
( 5.62544e-06 -8.72518e-06 1.03354e-06 )  
( 7.79036e-06 -5.79855e-06 -5.16493e-07 )  
( 8.81483e-06 -8.28987e-06 1.73691e-06 )  
( 8.40255e-06 -5.10297e-06 -1.21109e-06 )  
( 9.04324e-06 -5.3208e-06 -7.89847e-08 )  
( 7.92973e-06 -5.40265e-06 -5.22097e-07 )  
( 2.61876e-06 -1.80781e-06 -5.31918e-07 )  
( 9.74291e-06 -7.29957e-06 -2.20846e-06 )  
( 8.49986e-06 -3.83604e-06 5.44517e-06 )  
( 3.11032e-06 -4.90069e-06 -1.58849e-07 )  
( 5.46531e-06 -5.20391e-06 -2.78833e-06 )  
( 6.98078e-06 -3.1705e-06 -3.12166e-06 )  
( 9.76172e-06 -1.57558e-05 7.91444e-06 )  
( 9.60293e-06 -1.17781e-05 6.18516e-06 )  
( 7.33621e-06 -7.48094e-06 -2.20788e-06 )  
( 4.38509e-06 -9.2577e-06 3.14258e-06 )  
( 6.14885e-06 -4.64075e-06 -1.81486e-06 )  
( 8.48431e-06 -7.06878e-06 -3.93792e-06 )  
( 8.32955e-06 -9.06856e-06 -2.78927e-06 )  
( 7.91207e-06 -7.33536e-06 -1.37335e-06 )  
( 8.12004e-06 -5.78808e-06 -9.4507e-07 )  
( 6.72549e-06 -5.78406e-06 7.66804e-07 )  
( 6.85381e-06 -5.88087e-06 1.05377e-06 )  
( 6.65771e-06 -5.89597e-06 -7.58732e-06 )  
( 9.04726e-06 -6.67884e-06 -4.76001e-06 )  
( 1.1172e-05 -6.17398e-06 -2.66747e-06 )  
( 7.05172e-06 -6.15458e-06 -2.17549e-06 )  
( 5.90496e-06 -7.90591e-06 -2.31289e-06 )  
( 8.18011e-06 -7.26769e-06 -7.52871e-06 )  
( 1.56124e-05 -1.18617e-05 7.87253e-06 )  
( 9.22198e-06 -7.11125e-06 -3.99162e-06 )  
( 1.48499e-05 -6.51016e-06 8.73767e-06 )  
( 8.45957e-06 -1.03104e-05 6.50828e-06 )  
( 1.24364e-05 -6.65587e-06 -3.31847e-06 )  
( 1.27883e-05 -9.26862e-06 5.85274e-06 )  
( 1.13939e-05 -4.87635e-06 -1.06218e-05 )  
( 1.42096e-05 -4.86473e-06 -6.65277e-06 )  
( 1.84175e-05 -9.23892e-06 7.23304e-06 )  
( 1.00972e-05 -4.27576e-06 -7.10469e-06 )  
( 9.5436e-06 -7.98964e-06 -4.89214e-06 )  
( 1.2004e-05 -4.94975e-06 4.78102e-06 )  
( 7.37347e-06 -7.25216e-06 -2.65525e-06 )  
( 7.06203e-06 -5.62565e-06 -5.54225e-06 )  
( 1.42511e-05 -5.37011e-06 5.44343e-06 )  
( 9.42151e-06 -4.50164e-06 -9.98693e-06 )  
( 7.79374e-06 -5.25573e-06 -2.5224e-06 )  
( 1.26992e-06 -3.03566e-06 1.04656e-05 )  
( 8.74267e-06 -7.82733e-06 -3.17864e-06 )  
( 8.4862e-06 -9.15972e-06 2.54962e-06 )  
( 5.8193e-06 -6.80059e-06 -3.69791e-06 )  
( 1.05216e-05 -4.5132e-06 -9.79657e-06 )  
( 2.33373e-06 -1.13421e-05 2.23881e-06 )  
( 9.72968e-06 -4.99129e-06 -1.64397e-05 )  
( 1.50545e-05 -4.5277e-06 -8.59012e-06 )  
( 9.64536e-06 -3.32956e-06 -2.10781e-05 )  
( 1.325e-05 -4.72419e-06 -2.42579e-06 )  
( 1.52641e-05 -4.26021e-06 -1.17306e-05 )  
( 1.36931e-05 -7.25143e-06 3.81529e-06 )  
( 1.08273e-05 -7.73328e-06 3.32063e-06 )  
( 9.32165e-06 -8.02112e-06 3.39526e-06 )  
( 9.14869e-06 -7.6167e-06 -1.29497e-05 )  
( 9.53299e-06 -5.12483e-06 -1.30647e-05 )  
( -9.7465e-06 7.35573e-07 1.27475e-05 )  
( 1.37758e-05 -5.88795e-06 3.08672e-06 )  
( 8.17603e-06 -2.91757e-06 -1.26842e-05 )  
( 7.77271e-06 -6.20725e-06 -4.84889e-06 )  
( 9.83113e-06 -5.23115e-06 -7.63507e-06 )  
( 1.09166e-05 -3.94554e-06 -1.00131e-05 )  
( 8.62207e-06 -3.635e-06 -1.74442e-05 )  
( 1.52318e-05 -4.45755e-06 -3.28551e-06 )  
( 1.1254e-05 -5.07158e-06 -1.51454e-06 )  
( 1.08252e-05 -2.74931e-06 -1.81139e-05 )  
( 1.00687e-05 -4.6532e-06 -1.44159e-05 )  
( 8.48838e-06 -4.03489e-06 -2.08685e-05 )  
( 7.87108e-06 -5.28255e-06 -7.45063e-06 )  
( 9.93477e-06 -5.92562e-06 -1.54375e-06 )  
( 1.15424e-05 -9.44095e-06 -1.27505e-05 )  
( 1.12825e-05 -5.31416e-06 -1.59796e-05 )  
( 6.84547e-06 -1.44445e-06 -5.14135e-06 )  
( 8.60817e-06 -6.43993e-06 -2.97805e-07 )  
( 8.55551e-06 -3.99043e-06 -2.02235e-05 )  
( 1.28949e-05 -6.1312e-06 -1.64889e-05 )  
( 1.64135e-05 -6.63612e-06 -1.68164e-05 )  
( 8.20954e-06 -3.57113e-06 -6.58783e-06 )  
( 8.27472e-06 -2.42127e-06 -2.53556e-05 )  
( 9.07692e-06 -4.81153e-06 -9.88295e-06 )  
( 6.88589e-06 -7.78691e-06 -2.50954e-05 )  
( 1.21025e-05 -5.17629e-06 -4.16271e-06 )  
( 9.9498e-06 7.56534e-07 -2.09133e-05 )  
( 1.141e-05 -7.33365e-06 -1.82871e-05 )  
( 7.15793e-06 -7.90122e-06 -1.90453e-06 )  
( 7.28545e-06 -1.00804e-05 -8.20842e-06 )  
( 1.22895e-05 -4.33349e-06 -8.8105e-06 )  
( 1.15924e-05 -2.35546e-06 -2.2646e-05 )  
( 7.26812e-06 -3.34156e-06 -1.69434e-05 )  
( 9.76393e-06 -1.60949e-05 -1.74158e-05 )  
( 5.31209e-06 2.16036e-06 -4.29095e-05 )  
( 7.28208e-06 -5.15019e-06 -2.47415e-05 )  
( 9.66041e-06 2.04111e-06 -4.11646e-05 )  
( 8.01215e-06 -8.41702e-06 -3.14635e-05 )  
( 1.07138e-05 1.4429e-06 -1.32242e-05 )  
( 1.07113e-05 6.02177e-07 -5.44966e-06 )  
( 9.16343e-06 4.54208e-06 -2.44375e-05 )  
( 7.5788e-06 -5.07662e-06 -3.04447e-05 )  
( 9.39452e-06 1.35278e-06 -3.25562e-05 )  
( 8.3284e-06 -5.67008e-06 -3.1199e-05 )  
( 1.01996e-05 -1.21071e-06 -2.08486e-05 )  
( 5.75922e-06 -5.35563e-07 -3.01284e-05 )  
( 7.04056e-06 -1.69351e-06 -3.41826e-05 )  
( 6.62808e-06 1.42462e-06 -2.58511e-05 )  
( 2.92774e-06 6.10976e-06 -4.33322e-05 )  
( 4.01248e-06 -1.13922e-06 -3.63791e-05 )  
( 3.59529e-07 -1.50824e-06 -1.79824e-05 )  
( 1.00634e-05 2.04964e-05 -3.15834e-05 )  
( 2.17211e-05 -1.44236e-05 -2.0028e-05 )  
( 1.09781e-05 -2.60908e-06 -3.37875e-05 )  
( 6.04588e-06 8.59791e-06 -4.81108e-05 )  
( 1.36271e-05 7.41123e-06 -4.50036e-05 )  
( 4.36639e-06 8.17206e-07 -2.55542e-05 )  
( 7.81125e-06 5.24493e-06 -3.44378e-05 )  
( 9.77809e-06 5.96268e-06 -1.66012e-05 )  
( 8.41217e-06 1.62204e-06 -4.34414e-05 )  
( 8.22181e-06 5.71738e-06 -5.03606e-05 )  
( 5.82938e-06 4.44122e-06 -3.81262e-05 )  
( 1.14309e-05 7.97778e-06 -2.57643e-05 )  
( 8.08086e-06 8.65224e-07 -4.1614e-05 )  
( -4.62502e-07 7.39856e-06 -5.96858e-05 )  
( 7.07645e-06 4.56215e-06 -4.78352e-05 )  
( 1.56289e-07 -4.61709e-06 -3.96961e-05 )  
( 1.07697e-05 1.4235e-05 -4.86294e-05 )  
( 1.08263e-05 9.8516e-06 -2.78515e-05 )  
( 2.22518e-05 3.02843e-06 -4.2365e-05 )  
( 1.10085e-05 3.50268e-06 -4.14305e-05 )  
( 1.66713e-05 -2.4453e-06 -3.19767e-05 )  
( 1.01952e-05 6.89539e-06 -4.14526e-05 )  
( -2.0846e-06 -5.69142e-07 -5.40071e-05 )  
( 7.3515e-06 1.10934e-05 -5.5447e-05 )  
( 2.80419e-06 7.44392e-06 -5.54071e-05 )  
( 1.10266e-05 -2.62328e-06 -4.60707e-05 )  
( 7.75634e-06 4.27342e-05 -3.52299e-05 )  
( 4.32756e-06 6.98146e-06 -4.34823e-05 )  
( 8.01535e-06 1.41996e-05 -6.2589e-05 )  
( -5.89184e-06 2.07048e-05 -5.87651e-05 )  
( 1.08558e-05 2.85338e-05 -4.10545e-05 )  
( 9.34627e-06 1.97942e-05 -2.56115e-05 )  
( 1.52502e-06 9.89751e-06 -6.52542e-05 )  
( 7.03274e-06 4.65458e-07 -5.0937e-05 )  
( 5.74653e-06 5.93332e-06 -6.88531e-05 )  
( 3.00273e-06 1.3266e-05 -4.63077e-05 )  
( 6.32487e-06 -8.96138e-06 -7.22652e-05 )  
( 1.01547e-05 1.04217e-05 -6.42661e-05 )  
( 9.04464e-06 7.53767e-06 -5.21303e-05 )  
( 8.37122e-06 1.59758e-05 -6.05351e-05 )  
( 7.04183e-06 7.63914e-06 -7.13917e-05 )  
( 9.15925e-06 5.70143e-06 -6.26668e-05 )  
( 1.1512e-05 1.30029e-05 -8.09309e-05 )  
( 6.30257e-06 2.72923e-05 -7.87138e-05 )  
( 2.69374e-05 -8.03849e-06 -5.37881e-05 )  
( 1.57965e-05 1.00135e-05 -9.3383e-05 )  
( 3.65496e-06 1.56083e-05 -4.75507e-05 )  
( 1.36891e-05 1.29944e-05 -8.18869e-05 )  
( 1.38439e-05 -1.16034e-06 -5.63137e-05 )  
( 1.03144e-05 1.29125e-05 -6.82771e-05 )  
( 1.88803e-05 2.10038e-06 -7.08859e-05 )  
( 1.05186e-05 8.32221e-06 -7.12346e-05 )  
( 1.30295e-05 1.30993e-05 -6.77809e-05 )  
( 1.90186e-05 7.03529e-06 -9.4748e-05 )  
( 4.36644e-06 -3.46537e-06 -9.08297e-05 )  
( 1.6919e-05 1.16379e-05 -7.75819e-05 )  
( 1.24472e-05 2.23889e-07 -0.00010238 )  
( 2.07546e-06 1.85461e-05 -9.10213e-05 )  
( 1.29361e-05 1.5414e-05 -8.70576e-05 )  
( 1.88983e-05 2.10383e-05 -8.66751e-05 )  
( 1.34488e-05 -9.70593e-06 -8.75625e-05 )  
( 3.11937e-05 1.97468e-05 -0.000116247 )  
( -2.96571e-06 2.40556e-05 -5.59279e-05 )  
( 1.08901e-05 1.81823e-05 -7.27289e-05 )  
( 6.36438e-07 2.0502e-05 -6.73956e-05 )  
( 4.58597e-06 1.93517e-05 -0.000102924 )  
( 1.67907e-05 -5.22992e-06 -9.69864e-05 )  
( 9.2333e-06 1.08042e-05 -8.96198e-05 )  
( 1.39881e-05 1.16256e-05 -9.05604e-05 )  
( 1.04541e-05 3.64264e-06 -0.000113272 )  
( -7.95271e-06 1.49494e-06 -0.00013639 )  
( 4.05276e-06 2.43152e-05 -5.11625e-05 )  
( 2.32847e-05 1.06251e-05 -9.4948e-05 )  
( 3.31126e-06 1.7481e-05 -8.28398e-05 )  
( 9.11626e-06 9.29633e-07 -0.000122282 )  
( 2.53789e-05 1.53484e-06 -9.12089e-05 )  
( 1.10408e-05 1.634e-05 -7.71084e-05 )  
( 1.12072e-05 1.05071e-05 -9.7594e-05 )  
( 1.59763e-05 1.30199e-05 -8.28462e-05 )  
( 2.02228e-05 5.33587e-06 -8.20111e-05 )  
( 1.00393e-05 3.2007e-06 -0.00011882 )  
( 1.59117e-05 7.74593e-06 -0.000112818 )  
( -1.22764e-06 1.91595e-05 -0.000119595 )  
( 2.50554e-05 3.81615e-06 -0.000110085 )  
( 7.03738e-06 8.46856e-06 -0.000127586 )  
( -3.92559e-06 5.86105e-06 -0.000133476 )  
( 2.47523e-05 1.41396e-05 -0.000109393 )  
( -1.15574e-05 6.67753e-07 -0.000136188 )  
( -1.4419e-06 -2.0027e-06 -0.000118925 )  
( 1.23081e-05 -7.09518e-06 -0.000124754 )  
( 1.62533e-05 9.5929e-06 -0.000110652 )  
( 1.33091e-05 7.99476e-06 -0.00012185 )  
( 1.21592e-05 -2.41714e-06 -0.000112613 )  
( 1.98511e-05 3.67783e-06 -0.000119426 )  
( 1.06994e-05 5.74107e-09 -0.000112676 )  
( 8.1156e-06 -1.00689e-05 -0.000128005 )  
( -9.99085e-06 -5.58464e-06 -0.000160047 )  
( -5.35604e-07 -1.20294e-05 -0.000142965 )  
( 1.64252e-05 4.80915e-06 -0.000114273 )  
( 1.32782e-05 2.67257e-06 -0.0001327 )  
( 7.09448e-06 1.22679e-05 -0.000139376 )  
( 6.46919e-06 1.04316e-05 -0.000117425 )  
( -5.6358e-06 -2.24269e-06 -0.000152324 )  
( 1.70624e-05 6.7934e-06 -0.000118715 )  
( -1.73261e-06 2.19425e-06 -0.000119628 )  
( 7.24708e-06 -3.84869e-06 -0.000142346 )  
( -3.61992e-06 5.71655e-06 -0.000151657 )  
( 1.56706e-05 -1.58374e-06 -0.000141443 )  
( 2.96654e-05 1.18222e-07 -0.000161833 )  
( 1.92097e-06 1.55923e-05 -0.000128776 )  
( 1.44009e-05 -1.86782e-05 -0.00013811 )  
( -5.15708e-06 -6.09242e-06 -0.000146189 )  
( 7.42733e-06 -2.10671e-05 -0.000152423 )  
( 1.6258e-05 7.56724e-06 -0.000129813 )  
( 8.22322e-06 -1.13543e-05 -0.000136965 )  
( -1.72529e-05 -7.22264e-06 -0.000117529 )  
( -9.22858e-06 -2.14309e-05 -0.000158047 )  
( 8.88977e-06 7.49459e-06 -0.000138768 )  
( -1.09016e-05 -8.42295e-07 -0.000181959 )  
( 5.60177e-06 -3.73783e-06 -0.000165732 )  
( -6.97508e-06 -2.07119e-06 -0.000147714 )  
( 9.84285e-06 1.26027e-07 -0.000153738 )  
( -1.03069e-05 3.06666e-06 -0.000132523 )  
( -1.08933e-05 -6.62065e-06 -0.000163304 )  
( 1.47187e-05 -1.24625e-05 -0.000186773 )  
( -1.07812e-05 -1.41843e-05 -0.000168212 )  
( -1.62567e-05 -6.27611e-06 -0.000173407 )  
( -9.58952e-07 -9.85155e-08 -0.000166901 )  
( -1.14782e-05 -1.98579e-05 -0.000168284 )  
( 9.00605e-06 -1.6961e-05 -0.00017968 )  
( 4.68134e-06 1.74953e-06 -0.00015938 )  
( 5.20488e-08 -3.28974e-06 -0.000183409 )  
( 9.48644e-06 6.764e-06 -0.000163827 )  
( -1.57462e-06 3.80903e-06 -0.000145672 )  
( 7.00347e-07 1.62152e-05 -0.000184732 )  
( 2.1114e-05 -3.42023e-05 -0.000142044 )  
( -3.24731e-06 -1.52103e-05 -0.000153431 )  
( -1.04325e-05 3.29572e-06 -0.000160438 )  
( -4.14224e-06 5.93391e-07 -0.000185591 )  
( -1.69948e-05 -1.60639e-05 -0.00016753 )  
( -1.44673e-05 -1.3711e-05 -0.000185449 )  
( -1.01591e-05 -2.13514e-06 -0.000183263 )  
( 1.28454e-05 -3.17982e-06 -0.000169529 )  
( -8.77418e-06 -1.45222e-05 -0.000169635 )  
( -4.87788e-06 -8.96592e-06 -0.00018289 )  
( 5.97345e-06 5.68608e-06 -0.000174919 )  
( -1.3414e-05 -3.11325e-05 -0.00017815 )  
( -7.64874e-06 -2.38847e-06 -0.000176038 )  
( 1.24482e-05 3.22593e-05 -0.000199537 )  
( -2.31187e-05 -1.95774e-05 -0.000199521 )  
( 1.84707e-06 -2.42361e-05 -0.000212615 )  
( -1.8819e-05 -1.74462e-05 -0.00017103 )  
( 2.29018e-05 -1.60988e-05 -0.000177448 )  
( -2.65253e-06 -4.19142e-06 -0.000230289 )  
( 1.58034e-06 -2.17223e-05 -0.000197618 )  
( -2.82146e-06 -2.69135e-05 -0.0001715 )  
( -1.33319e-05 -1.61053e-05 -0.000214855 )  
( -9.2085e-06 -1.91347e-06 -0.000174793 )  
( -2.91716e-05 -1.35024e-05 -0.000192615 )  
( -1.93904e-07 -3.91674e-06 -0.000193584 )  
( 1.22812e-05 2.34954e-05 -0.000213886 )  
( -1.02039e-05 -1.53258e-05 -0.00018586 )  
( -1.56821e-05 1.01208e-05 -0.000185351 )  
( -1.09631e-05 2.01927e-06 -0.000193136 )  
( -8.12635e-07 -4.39348e-06 -0.000199449 )  
( -9.24531e-06 -2.75097e-05 -0.000200915 )  
( -2.93659e-05 -2.56648e-05 -0.000202654 )  
( -2.86711e-06 -2.36472e-05 -0.000218555 )  
( -3.50886e-06 -1.29329e-05 -0.000246859 )  
( -4.46772e-06 1.61444e-05 -0.000218863 )  
( -1.33912e-05 -3.00036e-06 -0.000205586 )  
( -9.44531e-06 -5.32276e-06 -0.000231439 )  
( 2.6072e-06 -1.91983e-05 -0.000190962 )  
( 1.23685e-05 7.24694e-06 -0.000195634 )  
( 6.59336e-06 -3.05873e-06 -0.000214032 )  
( -6.7174e-07 -1.4508e-05 -0.000213752 )  
( -1.85246e-05 -6.70058e-06 -0.000218101 )  
( -7.66985e-06 -3.04061e-05 -0.000200481 )  
( 5.70437e-06 -2.10562e-05 -0.000246923 )  
( -2.1146e-05 -3.3521e-05 -0.000219898 )  
( 1.38815e-05 -1.71589e-05 -0.000209113 )  
( -6.56537e-06 1.75803e-05 -0.00023921 )  
( 1.09928e-05 -5.24682e-06 -0.000267361 )  
( -1.10092e-05 -2.95715e-05 -0.000188577 )  
( -7.54092e-06 2.54156e-06 -0.000200643 )  
( 2.35546e-06 2.98506e-05 -0.000256092 )  
( -1.78259e-05 1.48195e-05 -0.000224293 )  
( 2.631e-05 -1.11331e-05 -0.000239084 )  
( 5.35193e-07 -2.55342e-05 -0.000248869 )  
( -3.79354e-05 -3.74357e-05 -0.000223389 )  
( -3.76332e-05 -2.20247e-05 -0.000208254 )  
( -2.22224e-05 5.50712e-06 -0.000226945 )  
( -1.39378e-05 -4.6281e-05 -0.000230067 )  
( -3.19153e-05 -3.92779e-05 -0.000237114 )  
( 1.90164e-05 -1.89563e-05 -0.000260488 )  
( -1.8887e-05 -8.31647e-06 -0.000203343 )  
( -2.58292e-05 -4.92472e-05 -0.000212509 )  
( -1.34948e-05 -7.74335e-05 -0.000213847 )  
( -4.92497e-05 -2.74597e-05 -0.000242537 )  
( 9.1638e-06 -3.83215e-05 -0.000214715 )  
( 5.11612e-05 2.4815e-06 -0.000238117 )  
( 2.58315e-05 -5.31837e-06 -0.000222926 )  
( -6.64491e-06 -4.01718e-05 -0.000206264 )  
( -2.57042e-05 -4.06099e-05 -0.00023053 )  
)
