/*--------------------------------*- C++ -*----------------------------------*\
  =========                 |
  \\      /  F ield         | OpenFOAM: The Open Source CFD Toolbox
   \\    /   O peration     | Website:  https://openfoam.org
    \\  /    A nd           | Version:  9
     \\/     M anipulation  |
\*---------------------------------------------------------------------------*/
FoamFile
{
    format      ascii;
    class       surfaceScalarField;
    location    "6000";
    object      phi;
}
// * * * * * * * * * * * * * * * * * * * * * * * * * * * * * * * * * * * * * //

dimensions      [0 3 -1 0 0 0 0];

internalField   nonuniform List<scalar> 
1436
(
-3294.16
-1931.73
1.08818e+07
3288.49
1.04721e+07
1911.28
1.0648e+07
1.07996e+07
-3142.75
-1828.06
1.08868e+07
2734.79
1.04663e+07
1526.22
1.06447e+07
1.08038e+07
-1557.25
-456.283
1.08888e+07
1945.26
1.04628e+07
796.886
1.06434e+07
1.08066e+07
-1435.21
-247.408
1.08905e+07
2062.06
1.04593e+07
675.417
1.06425e+07
1.08093e+07
-1895.29
-217.568
1.08926e+07
2187.29
1.04552e+07
13.8911
1.06423e+07
1.08115e+07
-2154.8
-40.7594
1.08948e+07
2439.58
1.04506e+07
181.707
1.06421e+07
1.08142e+07
-3051.77
79.639
1.08977e+07
3059.89
1.04445e+07
491.222
1.06416e+07
1.08177e+07
-2271.26
-40.6062
1.09e+07
3467.83
1.04387e+07
1152.43
1.06405e+07
1.08223e+07
-2194.43
-183.71
1.09024e+07
2902.56
1.04336e+07
960.257
1.06393e+07
1.08262e+07
-1833.47
299.715
1.0904e+07
4892.96
1.04269e+07
1550.92
1.06381e+07
1.08326e+07
-1856.41
1019.95
1.09048e+07
3988.25
1.04211e+07
781.05
1.06383e+07
1.08374e+07
-1407.76
796.708
1.09054e+07
3945.03
1.04157e+07
841.292
1.06383e+07
1.08422e+07
-1156.02
1253.76
1.09053e+07
2971.15
1.04116e+07
1011.8
1.06385e+07
1.08462e+07
163.977
1361.72
1.09038e+07
3483.84
1.04083e+07
2010.71
1.06378e+07
1.08517e+07
-1286.07
1138.32
1.09039e+07
3391.16
1.04036e+07
2411.57
1.06366e+07
1.08575e+07
967.519
902.472
1.09021e+07
1497.63
1.04031e+07
2349.62
1.06351e+07
1.08613e+07
962.046
558.42
1.09005e+07
1535.9
1.04025e+07
2759.27
1.06329e+07
1.08656e+07
2376.75
412.176
1.08977e+07
543.836
1.04043e+07
3059.29
1.06303e+07
1.08692e+07
1987.45
269.479
1.08955e+07
1836.88
1.04045e+07
1719.28
1.06288e+07
1.08728e+07
-417.337
684.129
1.08952e+07
3012.12
1.0401e+07
1114.65
1.06284e+07
1.08769e+07
-76.083
709.718
1.08946e+07
4077.91
1.03969e+07
608.812
1.06285e+07
1.08816e+07
1265.92
20.4239
1.08933e+07
4883.79
1.03933e+07
591.158
1.06279e+07
1.08871e+07
1350.61
656.45
1.08913e+07
5005.29
1.03896e+07
799.151
1.06278e+07
1.08929e+07
2112.85
1109.47
1.08881e+07
4484.87
1.03872e+07
905.397
1.0628e+07
1.08982e+07
2685.37
1667.33
1.08837e+07
5039.89
1.03849e+07
1577.65
1.06281e+07
1.09049e+07
2666.29
2168.2
1.08789e+07
4988.26
1.03826e+07
569.259
1.06297e+07
1.09104e+07
4099.53
-534.682
1.08753e+07
3745.13
1.03829e+07
3936.29
1.06252e+07
1.09181e+07
6423.69
-4149.8
1.0873e+07
2086.45
1.03873e+07
4360.08
1.06167e+07
1.09245e+07
8028.47
-7307.38
1.08723e+07
620.475
1.03947e+07
4348.23
1.0605e+07
1.09295e+07
7460.41
-16060.8
1.08809e+07
1520.65
1.04006e+07
5586.63
1.05834e+07
1.09366e+07
6078.32
-15564.7
1.08904e+07
3261.07
1.04034e+07
5037.1
1.05628e+07
1.09449e+07
6195.75
-15301.9
1.08995e+07
-235.12
1.04099e+07
2573.81
1.05449e+07
1.09473e+07
5327.68
-15659.4
1.09099e+07
-2343.73
1.04175e+07
4257.72
1.0525e+07
1.09492e+07
6032.65
-16618.5
1.09204e+07
-6219.38
1.04298e+07
6495.38
1.05019e+07
1.09495e+07
5040.35
-18704.8
1.09341e+07
-5355.31
1.04402e+07
7546.95
1.04756e+07
1.09516e+07
4599.2
-18353.4
1.09479e+07
-5900.15
1.04507e+07
6065.56
1.04512e+07
1.09518e+07
4458.96
-14351.4
1.09577e+07
-6135.28
1.04613e+07
-1144.59
1.0438e+07
1.09445e+07
3003.84
-11718.9
1.09665e+07
-7594.42
1.04719e+07
-2999.88
1.04293e+07
1.09339e+07
3292.74
-12576.3
1.09757e+07
-8984.8
1.04841e+07
-4043.74
1.04208e+07
1.09209e+07
3590.07
-10523.4
1.09827e+07
-11818.9
1.04995e+07
-9732.4
1.042e+07
1.08994e+07
3737.38
-9482.6
1.09884e+07
-11574
1.05149e+07
-12032.4
1.04225e+07
1.08758e+07
2697.51
-10227.1
1.0996e+07
-12583.3
1.05301e+07
-11098.9
1.04234e+07
1.08521e+07
1935.87
-9876.01
1.10039e+07
-14230
1.05463e+07
-12230.7
1.04257e+07
1.08256e+07
1614.85
-9756.23
1.1012e+07
-13684.7
1.05616e+07
-16818.6
1.04328e+07
1.07951e+07
1344.6
-7914.95
1.10186e+07
-11704.7
1.05747e+07
-18639.2
1.04435e+07
1.07648e+07
464.498
-8139.9
1.10263e+07
-12187.1
1.05873e+07
-19554.3
1.04549e+07
1.0733e+07
-80.248
-8954.8
1.10353e+07
-11688.9
1.05989e+07
-21415.6
1.04674e+07
1.06999e+07
-691.168
-9850.98
1.10459e+07
-11477.9
1.06097e+07
-22597.7
1.04801e+07
1.06658e+07
471.656
-10117
1.10555e+07
-9813.26
1.062e+07
-21869.7
1.04919e+07
1.06342e+07
382.846
-10468
1.10656e+07
-6485.94
1.06269e+07
-19894.4
1.05013e+07
1.06078e+07
667.853
-6415.56
1.10713e+07
-6168.11
1.06337e+07
-20335.8
1.05152e+07
1.05813e+07
-427.928
-5480.28
1.10773e+07
-4943.74
1.06382e+07
-20359.5
1.05301e+07
1.0556e+07
1538.98
-6310.55
1.1082e+07
-5559.55
1.06453e+07
-20893.2
1.05447e+07
1.05295e+07
3039.47
-6639.59
1.10856e+07
-5776.56
1.06541e+07
-21391.3
1.05595e+07
1.05024e+07
4120.39
-1745.31
1.10832e+07
-5159.73
1.06634e+07
-19858.3
1.05776e+07
1.04773e+07
5423.09
-1285.31
1.10791e+07
-4113.01
1.06729e+07
-19474.8
1.05958e+07
1.04537e+07
4993.15
4377.34
1.10697e+07
-4455.91
1.06824e+07
-19384.3
1.06195e+07
1.04299e+07
3361.64
4815.42
1.10616e+07
-3997.73
1.06897e+07
-19283.4
1.06436e+07
1.04066e+07
3755.48
8471.08
1.10493e+07
-1730.58
1.06952e+07
-15880.3
1.0668e+07
1.0389e+07
1853.54
8319.38
1.10392e+07
-449.594
1.06975e+07
-13860.1
1.06902e+07
1.03747e+07
1289.69
8080.7
1.10298e+07
679.067
1.06981e+07
-12038.1
1.07103e+07
1.03633e+07
746.875
8128.86
1.10209e+07
940.388
1.0698e+07
-11376.5
1.07298e+07
1.03529e+07
-1.63153
9180.78
1.10117e+07
1367.33
1.06966e+07
-11085.3
1.075e+07
1.03432e+07
562.85
11446.2
1.09997e+07
1636.26
1.06955e+07
-12253.2
1.07737e+07
1.03326e+07
-427.026
12335.6
1.09878e+07
2741.77
1.06923e+07
-8407.81
1.07945e+07
1.03269e+07
-1077.94
14287.4
1.09746e+07
4341.56
1.06869e+07
-8082.84
1.08169e+07
1.03232e+07
-1910.79
15309.6
1.09612e+07
6196.55
1.06788e+07
-5502.44
1.08377e+07
1.03239e+07
-2792.8
17666.1
1.09463e+07
9303.79
1.06667e+07
-6547.46
1.08619e+07
1.03266e+07
-3044.33
20947.3
1.09284e+07
10215.6
1.06535e+07
-6842.38
1.08897e+07
1.033e+07
-3582.77
21385
1.09106e+07
13282.3
1.06366e+07
-7354.35
1.09184e+07
1.03359e+07
-4204.15
25669.5
1.08892e+07
14384.1
1.0618e+07
-9454.93
1.09535e+07
1.03408e+07
-7736.26
23700.4
1.08732e+07
15146.1
1.05951e+07
-8028.63
1.09853e+07
1.0348e+07
-13825.2
20746.2
1.08663e+07
20199.9
1.05611e+07
-9749.74
1.10158e+07
1.03584e+07
-18309.1
24767.4
1.08598e+07
20159.5
1.05226e+07
-12645.4
1.10532e+07
1.03659e+07
-19860
19664.1
1.086e+07
24293.9
1.04785e+07
-13068.3
1.10859e+07
1.03772e+07
-20457.3
27086
1.08534e+07
26390.7
1.04316e+07
-16820.9
1.11298e+07
1.03867e+07
-23527.9
25244.5
1.08517e+07
26721.6
1.03814e+07
-18478.5
1.11735e+07
1.0395e+07
-30397.3
24031.7
1.0858e+07
27777.8
1.03232e+07
-19329
1.12169e+07
1.04034e+07
-34889.7
21611
1.08713e+07
29853.2
1.02585e+07
-21792.6
1.12603e+07
1.04115e+07
-41145.2
23582.3
1.08889e+07
34264.8
1.01831e+07
-26856
1.13107e+07
1.04189e+07
-46742.8
24096.3
1.09115e+07
36423.5
1.00999e+07
-26540.8
1.13614e+07
1.04288e+07
-51359.9
22128.3
1.09408e+07
39625.8
1.00089e+07
-28675.5
1.14122e+07
1.04397e+07
-58204.2
24719.8
1.09742e+07
43993.6
9.9067e+06
-33960.5
1.14709e+07
1.04498e+07
-63057.1
25690.4
1.10116e+07
50528.2
9.79312e+06
-36090
1.15326e+07
1.04642e+07
-67969.1
29838.8
1.10497e+07
55837.4
9.66931e+06
-41987.4
1.16045e+07
1.0478e+07
-74691.2
29915.9
1.10945e+07
61249.5
9.53337e+06
-43224.1
1.16776e+07
1.04961e+07
-84309.3
29629.7
1.11492e+07
68725.1
9.38034e+06
-44497.6
1.17517e+07
1.05203e+07
-87664.8
31248.5
1.12056e+07
70437.1
9.22223e+06
-47001
1.183e+07
1.05437e+07
-96649.3
34330.4
1.12679e+07
81545.9
9.04404e+06
-56358.6
1.19207e+07
1.05689e+07
-102482
36908.2
1.13335e+07
83471.4
8.85809e+06
-56361.4
1.20139e+07
1.0596e+07
-115898
44524.9
1.14049e+07
94310.4
8.64788e+06
-65171.1
1.21236e+07
1.06252e+07
-119674
47346.2
1.14772e+07
100172
8.42803e+06
-69022.3
1.224e+07
1.06563e+07
-148197
62958.6
1.15624e+07
119955
8.15988e+06
-89501.4
1.23925e+07
1.06868e+07
-156746
63960.7
1.16552e+07
125571
7.87757e+06
-88681.1
1.25451e+07
1.07237e+07
-165422
67269.2
1.17534e+07
145538
7.56661e+06
-104547
1.27169e+07
1.07646e+07
-197444
76387.5
1.18744e+07
150175
7.21899e+06
-104374
1.28977e+07
1.08104e+07
-212751
76987.8
1.20102e+07
164500
6.84174e+06
-100283
1.3075e+07
1.08747e+07
-226502
77700.9
1.2159e+07
183092
6.43214e+06
-107876
1.32605e+07
1.09499e+07
-267710
85257.2
1.23415e+07
201391
5.96304e+06
-113876
1.34597e+07
1.10374e+07
-289271
87957.3
1.25428e+07
227718
5.44605e+06
-127484
1.36751e+07
1.11376e+07
-337821
100997
1.27796e+07
255628
4.8526e+06
-147566
1.39237e+07
1.12457e+07
-397045
111950
1.30647e+07
304113
4.15144e+06
-169297
1.42049e+07
1.13805e+07
-449213
124361
1.33895e+07
341724
3.3605e+06
-193080
1.45224e+07
1.15292e+07
-627610
144052
1.38731e+07
487114
2.24578e+06
-227963
1.48944e+07
1.17883e+07
-714391
159741
1.44277e+07
494802
1.03658e+06
-254141
1.53083e+07
1.2029e+07
-1.4864e+06
174179
1.574e+07
1.31423e+06
-1.76404e+06
-287477
1.57699e+07
1.30557e+07
-1.55119e+06
250883
1.70403e+07
1.77194e+06
-5.08718e+06
-388245
1.6409e+07
1.44394e+07
-1.32863e+06
300214
1.80687e+07
1.61587e+06
-8.03169e+06
-412112
1.71214e+07
1.56432e+07
-1.1183e+06
354084
1.88329e+07
1.50982e+06
-1.06598e+07
-432577
1.7908e+07
1.67204e+07
-895919
368539
1.93603e+07
1.37233e+06
-1.29281e+07
-425636
1.87022e+07
1.76671e+07
-670366
380231
1.96504e+07
1.20518e+06
-1.48036e+07
-404377
1.94868e+07
1.84679e+07
-469740
373759
1.97464e+07
1.01875e+06
-1.62921e+07
-369728
2.02303e+07
1.91169e+07
-302828
374395
1.96748e+07
825305
-1.74202e+07
-315676
2.09204e+07
1.96266e+07
-176892
371196
1.94805e+07
627871
-1.8225e+07
-264161
2.15557e+07
1.99903e+07
-91380.7
370031
1.92019e+07
441440
-1.87578e+07
-190960
2.21167e+07
2.02408e+07
-46614.3
373793
1.88747e+07
278504
-1.90829e+07
-143818
2.26343e+07
2.03754e+07
-39360.1
356739
1.85573e+07
147523
-1.92698e+07
-37307.4
2.30284e+07
2.04857e+07
-67057.9
396295
1.82281e+07
60246.2
-1.93971e+07
-43255.5
2.34679e+07
2.05026e+07
-113127
430680
1.79105e+07
8020.29
-1.95183e+07
-16573.7
2.39152e+07
2.04941e+07
-172654
486704
1.75965e+07
3939.45
-1.96948e+07
-32280.3
2.44342e+07
2.04657e+07
-236122
537192
1.72954e+07
28674.8
-1.99596e+07
-66632.4
2.5038e+07
2.04278e+07
-288683
578189
1.70059e+07
60780.7
-2.03091e+07
-101116
2.57173e+07
2.03875e+07
-330392
608029
1.67283e+07
97664.1
-2.07372e+07
-138224
2.64636e+07
2.03469e+07
-332472
609896
1.64508e+07
83278.9
-2.11529e+07
-155769
2.72292e+07
2.02744e+07
-339615
606279
1.61842e+07
85824.6
-2.15784e+07
-165368
2.80009e+07
2.01949e+07
-330750
571308
1.59436e+07
65184
-2.19743e+07
-152746
2.87249e+07
2.01073e+07
-327978
543085
1.57285e+07
100313
-2.24026e+07
-146992
2.9415e+07
2.00606e+07
-308476
492109
1.55449e+07
101735
-2.28128e+07
-131964
3.00391e+07
2.00304e+07
-284882
453239
1.53765e+07
115402
-2.32131e+07
-122201
3.06145e+07
2.00236e+07
-257605
396948
1.52372e+07
94711.1
-2.35654e+07
-107860
3.11193e+07
2.00104e+07
-225338
357712
1.51048e+07
79720.8
-2.38704e+07
-101635
3.15787e+07
1.99885e+07
-191314
302586
1.49935e+07
43802.7
-2.41056e+07
-93180.6
3.19744e+07
1.99392e+07
-158437
264159
1.48878e+07
14866.5
-2.42789e+07
-90982.7
3.23296e+07
1.9863e+07
-123484
218854
1.47924e+07
-33258.4
-2.43691e+07
-88745
3.26372e+07
1.9741e+07
-91098.7
184495
1.4699e+07
-69102.5
-2.43911e+07
-89079.7
3.29107e+07
1.95828e+07
-58656.4
149611
1.46081e+07
-126418
-2.43233e+07
-91550.5
3.31519e+07
1.93649e+07
-25399.8
125812
1.45077e+07
-175255
-2.41735e+07
-94117.5
3.33718e+07
1.90955e+07
3539.77
110717
1.43934e+07
-239292
-2.39306e+07
-107919
3.35905e+07
1.87483e+07
37334.7
106485
1.42496e+07
-307160
-2.35861e+07
-127697
3.38247e+07
1.83134e+07
69958.8
102220
1.40774e+07
-390308
-2.31259e+07
-148519
3.40754e+07
1.77746e+07
105323
111086
1.3861e+07
-473188
-2.25474e+07
-175493
3.4362e+07
1.71259e+07
142746
116787
1.36015e+07
-572073
-2.18325e+07
-196912
3.46757e+07
1.63569e+07
165227
135166
1.33011e+07
-677743
-2.09896e+07
-228180
3.5039e+07
1.5451e+07
203953
135275
1.29619e+07
-797175
-1.99884e+07
-234503
3.54088e+07
1.44193e+07
190831
152630
1.26184e+07
-888077
-1.89095e+07
-252144
3.58136e+07
1.32791e+07
184984
160465
1.2273e+07
-956967
-1.77676e+07
-248516
3.62225e+07
1.20736e+07
169593
188441
1.19149e+07
-986720
-1.66113e+07
-246222
3.66572e+07
1.08407e+07
142290
236093
1.15365e+07
-963125
-1.55059e+07
-215360
3.71087e+07
9.66222e+06
104776
299260
1.11325e+07
-874666
-1.45264e+07
-165361
3.75733e+07
8.62219e+06
77836.6
393385
1.06613e+07
-733894
-1.37147e+07
-102331
3.8069e+07
7.78596e+06
51632
498957
1.01107e+07
-570393
-1.30927e+07
-43706.7
3.86117e+07
7.17186e+06
31732.1
598277
9.48068e+06
-402709
-1.26582e+07
2385.82
3.92076e+07
6.77154e+06
-26785.7
690438
8.81703e+06
-227259
-1.24578e+07
36208.4
3.98618e+07
6.58049e+06
-34554.5
764116
8.08747e+06
-131390
-1.23609e+07
57886.6
4.0568e+07
6.50699e+06
-77885.5
783348
7.382e+06
2947.24
-1.24417e+07
78867.5
4.12725e+07
6.5888e+06
-66435.8
739997
6.70845e+06
34956.1
-1.25431e+07
118645
4.18938e+07
6.74241e+06
-89895.6
638273
6.16007e+06
93481.7
-1.27265e+07
201170
4.23309e+07
7.03706e+06
-49347.4
473420
5.736e+06
51786
-1.28277e+07
315498
4.24889e+07
7.40434e+06
75652.9
256292
5.40406e+06
-108837
-1.26432e+07
480234
4.22649e+07
7.77574e+06
226129
26486.1
5.15144e+06
-267207
-1.21498e+07
690193
4.16012e+07
8.19873e+06
421215
-235993
4.96622e+06
-469545
-1.12591e+07
903644
4.04616e+07
8.63283e+06
601112
-537509
4.90261e+06
-674668
-9.98329e+06
1.09654e+06
3.88275e+07
9.0547e+06
741912
-865812
5.02651e+06
-870420
-8.37096e+06
1.2452e+06
3.67165e+07
9.42948e+06
845124
-1.17796e+06
5.35935e+06
-1.06347e+06
-6.46236e+06
1.33759e+06
3.4201e+07
9.7036e+06
917769
-1.45228e+06
5.89385e+06
-1.18617e+06
-4.35843e+06
1.37164e+06
3.13771e+07
9.88907e+06
932756
-1.65311e+06
6.6142e+06
-1.27215e+06
-2.15352e+06
1.35488e+06
2.83691e+07
9.9718e+06
957008
-1.78445e+06
7.44164e+06
-1.31772e+06
121204
1.29329e+06
2.52913e+07
9.94737e+06
968130
-1.83501e+06
8.30852e+06
-1.31357e+06
2.40291e+06
1.19137e+06
2.2265e+07
9.82517e+06
939819
-1.82296e+06
9.19166e+06
-1.23908e+06
4.58181e+06
1.06011e+06
1.93819e+07
9.64619e+06
894639
-1.74401e+06
1.0041e+07
-1.11554e+06
6.59199e+06
917372
1.67205e+07
9.44802e+06
835291
-1.62211e+06
1.08279e+07
-961041
8.38832e+06
776413
1.4322e+07
9.26339e+06
765866
-1.46031e+06
1.15223e+07
-783256
9.93744e+06
640004
1.22217e+07
9.12014e+06
696678
-1.27804e+06
1.21037e+07
-604650
1.12388e+07
514167
1.04295e+07
9.02966e+06
620965
-1.08425e+06
1.25669e+07
-422780
1.22825e+07
394717
8.95049e+06
9.00159e+06
556339
-890140
1.29007e+07
-256217
1.30951e+07
287105
7.77324e+06
9.03248e+06
487225
-702841
1.31164e+07
-103542
1.36858e+07
178276
6.89212e+06
9.10722e+06
429871
-537623
1.32241e+07
18847.1
1.40969e+07
96646.2
6.25786e+06
9.22271e+06
367575
-384176
1.32407e+07
122361
1.43421e+07
8099.36
5.86558e+06
9.35317e+06
322946
-249097
1.31669e+07
201656
1.44634e+07
-50971.2
5.66746e+06
9.50386e+06
242501
-124051
278914
-157970
)
;

boundaryField
{
    inlet
    {
        type            calculated;
        value           nonuniform List<scalar> 4(1.30484e+07 5.70137e+06 1.4427e+07 9.6248e+06);
    }
    outlet
    {
        type            calculated;
        value           nonuniform List<scalar> 4(-1.08766e+07 -1.06519e+07 -1.04787e+07 -1.07944e+07);
    }
    repeat_boundary
    {
        type            calculated;
        value           uniform 0;
    }
}


// ************************************************************************* //
