FoamFile
{version 2.0; format ascii;class Cloud<passiveParticle>; location 0;object  positions;}
344
(
( 1.96268 -0.814736 0.499618 ) 0 
( 3.20549 -2.12563 0.499622 ) 0 
( 0.265657 -1.42505 0.499907 ) 0 
( 1.28078 -1.54655 0.499921 ) 0 
( 0.161204 -3.71767 0.499967 ) 0 
( 4.64675 -3.15766 0.499943 ) 0 
( 0.95352 -0.601666 0.499929 ) 0 
( 1.32037 -3.07967 0.499793 ) 0 
( 4.07778 -3.98252 0.499973 ) 0 
( 1.58992 -4.98567 0.499883 ) 0 
( 3.23558 -4.88781 0.499698 ) 0 
( 3.92407 -0.825224 0.499834 ) 0 
( 0.119908 -4.94617 0.499601 ) 0 
( 2.86046 -3.62224 0.499539 ) 0 
( 0.626855 -2.35941 0.499767 ) 0 
( 2.33552 -2.61835 0.499641 ) 0 
( 3.65686 -3.01792 0.499643 ) 0 
( 3.94448 -1.32508 1.36538 ) 0 
( 4.92395 -0.80772 0.499977 ) 0 
( 2.98348 -2.86032 1.22142 ) 0 
( 2.96903 -1.15411 0.499936 ) 0 
( 2.22386 -1.70111 0.881318 ) 0 
( 0.217618 -2.7289 1.33369 ) 0 
( 2.74095 -0.180605 0.499518 ) 0 
( 2.38391 -4.45179 0.790315 ) 0 
( 1.59358 -0.195218 1.19198 ) 0 
( 2.07566 -3.39356 1.07486 ) 0 
( 0.0524174 -0.547821 0.929951 ) 0 
( 0.820395 -3.52219 1.2511 ) 0 
( 1.40267 -2.31062 1.13328 ) 0 
( 0.764203 -4.75442 1.23946 ) 0 
( 4.25587 -1.76841 0.499756 ) 0 
( 1.18708 -4.07063 0.499834 ) 0 
( 4.58095 -4.03622 1.36336 ) 0 
( 4.49195 -0.0936977 1.05612 ) 0 
( 3.8678 -2.35068 1.2137 ) 0 
( 3.38139 -4.09668 1.20849 ) 0 
( 0.726523 -1.15792 1.34612 ) 0 
( 1.55741 -3.01589 1.84162 ) 0 
( 2.50761 -0.688717 1.32816 ) 0 
( 3.06409 -1.79401 1.43202 ) 0 
( 2.24077 -2.30467 1.67836 ) 0 
( 1.5581 -4.17496 1.42242 ) 0 
( 1.14279 -0.514218 2.0256 ) 0 
( 3.17727 -0.985083 2.00849 ) 0 
( 0.764603 -2.08586 1.86944 ) 0 
( 2.14212 -0.0637075 2.01754 ) 0 
( 4.86693 -1.39342 1.74457 ) 0 
( 3.91424 -3.30519 1.50743 ) 0 
( 2.94525 -4.96826 1.45282 ) 0 
( 0.377046 -4.36205 2.07352 ) 0 
( 4.55925 -3.68579 2.29992 ) 0 
( 1.69694 -1.2171 1.57971 ) 0 
( 2.51069 -4.04621 1.69729 ) 0 
( 1.25942 -4.84307 2.10358 ) 0 
( 4.47894 -2.27855 2.00137 ) 0 
( 0.148397 -0.489155 1.92334 ) 0 
( 1.63034 -2.23958 2.46756 ) 0 
( 0.586951 -0.401492 2.86263 ) 0 
( 3.94254 -4.65929 1.81485 ) 0 
( 3.55142 -3.85405 2.26033 ) 0 
( 2.74198 -1.80379 2.3837 ) 0 
( 2.59917 -3.13634 2.10224 ) 0 
( 3.3775 -2.50942 2.07038 ) 0 
( 1.19751 -3.83366 2.29031 ) 0 
( 0.283833 -3.73311 2.84532 ) 0 
( 2.69591 -0.490778 2.73226 ) 0 
( 4.76153 -0.422892 1.96058 ) 0 
( 1.65744 -1.24633 2.57827 ) 0 
( 4.07353 -2.89637 2.67507 ) 0 
( 0.451905 -1.30654 2.41207 ) 0 
( 3.35719 -2.25059 3.03551 ) 0 
( 0.697657 -2.96972 2.34941 ) 0 
( 4.93447 -0.68143 2.91035 ) 0 
( 0.726156 -2.13536 2.89909 ) 0 
( 4.291 -1.91504 2.91343 ) 0 
( 2.21242 -1.92697 3.22282 ) 0 
( 3.66948 -0.210025 1.61263 ) 0 
( 4.13957 -1.09486 2.36217 ) 0 
( 2.93225 -4.62791 2.39263 ) 0 
( 1.87097 -3.15593 2.78712 ) 0 
( 3.15572 -3.22409 2.92842 ) 0 
( 2.1036 -4.11175 2.60821 ) 0 
( 0.944657 -1.23705 3.27922 ) 0 
( 0.109986 -2.64932 3.49548 ) 0 
( 4.27795 -4.87058 2.73253 ) 0 
( 2.60124 -3.87794 3.44314 ) 0 
( 3.50306 -4.43409 3.1903 ) 0 
( 1.02265 -3.00459 3.2942 ) 0 
( 1.07285 -4.32019 3.15497 ) 0 
( 4.00029 -3.59495 3.40968 ) 0 
( 4.80295 -4.14078 3.16984 ) 0 
( 3.35064 -1.25394 2.95541 ) 0 
( 1.72605 -0.300549 2.89524 ) 0 
( 4.06136 -2.62379 3.63924 ) 0 
( 3.72751 -0.306548 2.81867 ) 0 
( 0.103926 -4.57688 3.51324 ) 0 
( 0.247776 -1.71544 3.82566 ) 0 
( 3.13813 -0.615836 3.69523 ) 0 
( 4.91797 -3.23454 3.57596 ) 0 
( 3.02118 -1.69043 3.79216 ) 0 
( 4.19898 -4.44039 3.90832 ) 0 
( 0.498202 -3.63967 3.86114 ) 0 
( 4.14726 -0.9387 3.47031 ) 0 
( 1.14599 -2.15444 3.80633 ) 0 
( 1.64824 -3.68308 3.67863 ) 0 
( 2.26263 -0.136828 3.75729 ) 0 
( 0.683834 -0.695351 4.07773 ) 0 
( 0.354507 -2.48798 4.45144 ) 0 
( 4.76658 -2.61763 4.34812 ) 0 
( 3.80763 -1.2152 4.36923 ) 0 
( 2.01284 -4.59866 3.84668 ) 0 
( 3.01368 -2.7624 3.82256 ) 0 
( 2.01662 -2.75599 3.74642 ) 0 
( 1.8868 -1.03968 3.54916 ) 0 
( 1.11736 -4.34271 4.21059 ) 0 
( 0.0438021 -4.31315 4.47579 ) 0 
( 4.52701 -1.77069 3.87396 ) 0 
( 3.18845 -4.23174 4.17079 ) 0 
( 1.17518 -3.03352 4.28184 ) 0 
( 3.93418 -0.0206384 3.80351 ) 0 
( 2.49923 -1.03667 4.3394 ) 0 
( 1.94801 -3.94981 4.60478 ) 0 
( 4.68591 -3.69196 4.43419 ) 0 
( 2.7833 -3.4025 4.55515 ) 0 
( 3.61175 -2.19436 4.42235 ) 0 
( 4.63676 -0.567791 4.25929 ) 0 
( 3.74976 -3.20608 4.39002 ) 0 
( 3.06126 -2.63431 5.13175 ) 0 
( 0.711793 -1.49129 4.68228 ) 0 
( 3.87427 -4.06903 4.87964 ) 0 
( 3.04837 -1.5797 4.97446 ) 0 
( 1.78325 -4.93802 4.75855 ) 0 
( 2.35486 -0.527029 5.18735 ) 0 
( 3.23592 -0.46277 4.69623 ) 0 
( 1.96198 -2.94242 4.89196 ) 0 
( 4.68775 -1.74819 4.8603 ) 0 
( 1.61599 -0.575 4.41863 ) 0 
( 2.756 -4.75737 4.90329 ) 0 
( 1.67698 -1.59585 4.44336 ) 0 
( 2.47044 -2.20417 4.44941 ) 0 
( 0.709002 -3.6847 4.88045 ) 0 
( 4.12897 -0.61382 5.1193 ) 0 
( 1.35854 -1.01574 5.2784 ) 0 
( 1.54262 -3.64343 5.46822 ) 0 
( 3.28204 -4.33365 5.64056 ) 0 
( 0.0907364 -4.69858 5.39717 ) 0 
( 1.1849 -2.3196 4.98236 ) 0 
( 1.91162 -2.8226 5.90413 ) 0 
( 4.48979 -3.07267 5.19422 ) 0 
( 3.5792 -3.38338 5.54461 ) 0 
( 3.21128 -0.836554 5.62337 ) 0 
( 1.4911 -0.0251557 5.24548 ) 0 
( 2.05894 -1.98421 5.33361 ) 0 
( 4.72202 -4.0215 5.40769 ) 0 
( 1.26997 -2.05685 5.94345 ) 0 
( 2.83302 -0.507538 6.48871 ) 0 
( 0.538946 -0.0591058 5.60931 ) 0 
( 2.19643 -4.37991 5.64075 ) 0 
( 2.58268 -3.464 5.53276 ) 0 
( 0.790436 -2.99769 5.60244 ) 0 
( 3.93521 -2.47832 5.77618 ) 0 
( 3.91985 -1.52937 5.462 ) 0 
( 2.92894 -1.7512 5.95226 ) 0 
( 0.536993 -1.43678 5.66506 ) 0 
( 4.0891 -4.04477 6.1813 ) 0 
( 4.94258 -1.03817 5.51643 ) 0 
( 1.01179 -3.8134 6.29812 ) 0 
( 1.06922 -4.51102 5.31303 ) 0 
( 2.11517 -1.17138 5.91327 ) 0 
( 1.60726 -0.353298 6.18287 ) 0 
( 2.48783 -4.94301 6.41388 ) 0 
( 3.55617 -1.19779 6.50013 ) 0 
( 4.64831 -0.0806689 5.78671 ) 0 
( 1.10351 -4.80851 6.26693 ) 0 
( 2.08578 -1.96951 6.51469 ) 0 
( 3.77213 -3.15102 6.49774 ) 0 
( 0.334223 -2.31197 6.18688 ) 0 
( 1.19095 -1.2277 6.49664 ) 0 
( 0.130658 -3.34106 6.31016 ) 0 
( 2.27136 -2.89593 6.84152 ) 0 
( 2.9444 -2.73692 6.11942 ) 0 
( 4.81414 -1.98074 5.82438 ) 0 
( 1.13756 -2.85072 6.53656 ) 0 
( 0.202374 -4.39202 6.3944 ) 0 
( 2.08195 -1.02236 6.90142 ) 0 
( 0.872333 -3.5143 7.242 ) 0 
( 3.76805 -0.190497 6.64651 ) 0 
( 2.00501 -3.74932 6.39269 ) 0 
( 0.676851 -0.371691 6.54886 ) 0 
( 1.58959 -1.74141 7.3915 ) 0 
( 4.49143 -0.861738 6.39097 ) 0 
( 1.89792 -3.63938 7.39588 ) 0 
( 3.57707 -2.18419 6.66192 ) 0 
( 2.84561 -1.64353 7.0768 ) 0 
( 4.58912 -2.58235 6.59051 ) 0 
( 0.433978 -1.19331 7.28402 ) 0 
( 3.43498 -4.67827 6.59443 ) 0 
( 0.719371 -2.13216 7.09194 ) 0 
( 2.84292 -0.731801 7.48713 ) 0 
( 2.72069 -4.47463 7.26603 ) 0 
( 0.788579 -4.53452 7.19166 ) 0 
( 4.69781 -0.113574 7.02125 ) 0 
( 4.07108 -0.850089 7.3339 ) 0 
( 4.79926 -4.54612 6.67524 ) 0 
( 4.54934 -1.66426 6.98452 ) 0 
( 3.00342 -3.7867 6.42985 ) 0 
( 1.76264 -4.53189 6.96598 ) 0 
( 3.61224 -3.91285 7.21299 ) 0 
( 1.43862 -2.72576 7.4818 ) 0 
( 0.499654 -2.78833 7.81989 ) 0 
( 1.26081 -0.632196 7.31745 ) 0 
( 2.08506 -0.0564818 7.44291 ) 0 
( 4.39931 -3.29806 7.26238 ) 0 
( 3.18048 -2.88252 7.25753 ) 0 
( 3.52346 -1.54137 7.8048 ) 0 
( 4.06568 -2.36545 7.51509 ) 0 
( 1.56283 -1.71598 8.39071 ) 0 
( 1.23338 -4.10701 7.97844 ) 0 
( 1.97813 -0.907133 7.95751 ) 0 
( 4.61109 -4.21513 7.59966 ) 0 
( 3.58414 -0.17145 7.90074 ) 0 
( 2.37418 -2.75037 7.83369 ) 0 
( 1.20679 -2.64191 8.51583 ) 0 
( 1.81293 -4.9673 7.8646 ) 0 
( 4.6126 -1.67097 7.98233 ) 0 
( 0.434743 -3.63404 8.35018 ) 0 
( 2.48135 -1.77014 7.99929 ) 0 
( 0.977288 -0.921182 8.23173 ) 0 
( 0.266679 -0.125978 8.27909 ) 0 
( 1.83629 -3.404 8.36573 ) 0 
( 1.71185 -0.881394 8.92099 ) 0 
( 4.22533 -4.64504 8.41575 ) 0 
( 1.1911 -4.7588 8.73545 ) 0 
( 4.22188 -0.815726 8.32224 ) 0 
( 4.48136 -2.94092 8.21907 ) 0 
( 3.28471 -2.44804 8.15198 ) 0 
( 0.351506 -4.59582 8.08891 ) 0 
( 1.1516 -1.74905 9.30157 ) 0 
( 2.83577 -3.64246 7.8083 ) 0 
( 0.576118 -1.86668 8.48456 ) 0 
( 0.0933933 -4.05944 9.18825 ) 0 
( 1.78286 -2.86826 9.30121 ) 0 
( 0.0811818 -1.95241 9.36507 ) 0 
( 0.45283 -1.07019 9.07624 ) 0 
( 2.26881 -1.98133 9.0472 ) 0 
( 1.72649 -4.02052 9.14519 ) 0 
( 2.32036 -4.27865 8.38221 ) 0 
( 2.64182 -2.8725 8.78934 ) 0 
( 0.256238 -2.76027 8.80243 ) 0 
( 3.77092 -3.64237 8.1625 ) 0 
( 3.15342 -1.64137 8.7283 ) 0 
( 2.82521 -0.685289 8.48575 ) 0 
( 0.967868 -0.217223 8.99341 ) 0 
( 3.27851 -4.4109 8.63578 ) 0 
( 1.15092 -0.850171 9.75744 ) 0 
( 4.90755 -4.63838 9.17994 ) 0 
( 3.35466 -2.06787 9.60994 ) 0 
( 0.944191 -3.39856 9.17761 ) 0 
( 4.16626 -1.62617 8.90524 ) 0 
( 3.59741 -0.828386 9.10471 ) 0 
( 2.19058 -3.90675 10.0235 ) 0 
( 4.60271 -3.78078 8.74785 ) 0 
( 2.70023 -3.79497 9.17056 ) 0 
( 2.84946 -3.00041 9.75908 ) 0 
( 4.68028 -0.824733 9.21075 ) 0 
( 3.88581 -2.5853 8.93918 ) 0 
( 0.77722 -2.57596 9.72101 ) 0 
( 3.66496 -3.53213 9.17246 ) 0 
( 0.586759 -1.63353 10.1666 ) 0 
( 2.6115 -1.09933 9.37046 ) 0 
( 4.08093 -0.233407 9.75024 ) 0 
( 1.83559 -2.10109 9.94045 ) 0 
( 2.07325 -0.706252 10.1158 ) 0 
( 4.4606 -2.20651 9.66447 ) 0 
( 0.986482 -4.38962 9.70723 ) 0 
( 0.126711 -0.767365 9.97164 ) 0 
( 0.0765374 -4.74021 9.92837 ) 0 
( 1.31785 -3.4254 10.1047 ) 0 
( 4.58628 -3.53985 9.71814 ) 0 
( 3.96394 -4.44536 9.44866 ) 0 
( 4.07297 -1.3013 9.84637 ) 0 
( 3.24246 -3.99295 9.98695 ) 0 
( 3.20155 -0.623686 10.0228 ) 0 
( 1.45857 -1.35256 10.5677 ) 0 
( 3.82876 -2.92657 9.95116 ) 0 
( 1.2954 -0.237915 10.5347 ) 0 
( 2.1494 -3.02059 10.4848 ) 0 
( 0.365611 -3.84784 10.2745 ) 0 
( 3.8695 -2.05842 10.467 ) 0 
( 2.76445 -2.23686 10.3992 ) 0 
( 3.64193 -4.85348 10.3029 ) 0 
( 4.24242 -0.63856 10.65 ) 0 
( 2.65363 -4.78092 10.169 ) 0 
( 3.47289 -1.2361 10.8749 ) 0 
( 0.0922445 -1.54412 11.1042 ) 0 
( 3.20324 -3.25385 10.6594 ) 0 
( 1.92445 -2.15707 10.936 ) 0 
( 3.28041 -4.22203 10.9888 ) 0 
( 0.152047 -4.34732 11.114 ) 0 
( 1.74402 -3.82795 10.9147 ) 0 
( 0.656322 -3.00373 10.7247 ) 0 
( 2.48564 -1.34791 10.7623 ) 0 
( 4.06011 -3.7978 10.5284 ) 0 
( 0.928772 -2.08198 11.0003 ) 0 
( 1.85183 -0.779092 11.2864 ) 0 
( 3.30551 -2.37685 11.2289 ) 0 
( 1.04648 -4.51084 10.698 ) 0 
( 4.68478 -4.47581 10.1411 ) 0 
( 0.456328 -0.633778 10.9078 ) 0 
( 4.62031 -1.28611 11.3116 ) 0 
( 1.02101 -3.89215 11.6025 ) 0 
( 2.52948 -3.84839 11.5332 ) 0 
( 3.82266 -3.48484 11.4479 ) 0 
( 4.87686 -3.62763 11.8002 ) 0 
( 1.46092 -2.95716 11.3166 ) 0 
( 2.56715 -1.83576 11.6314 ) 0 
( 1.37854 -1.548 11.7161 ) 0 
( 2.82954 -0.54941 11.2563 ) 0 
( 3.4764 -4.95273 11.6427 ) 0 
( 4.85824 -1.94349 10.5625 ) 0 
( 2.10374 -4.94907 10.9871 ) 0 
( 4.31648 -2.87802 10.8251 ) 0 
( 2.45022 -2.85671 11.4242 ) 0 
( 4.13596 -4.27694 11.9717 ) 0 
( 4.55579 -2.25091 11.5664 ) 0 
( 0.302422 -3.20114 11.6802 ) 0 
( 2.26534 -0.244875 12.0237 ) 0 
( 1.82861 -2.3784 12.0445 ) 0 
( 4.04104 -0.476977 11.616 ) 0 
( 0.186229 -4.14345 12.0924 ) 0 
( 0.361238 -2.21181 11.8133 ) 0 
( 3.75412 -2.48606 12.1159 ) 0 
( 1.80856 -3.46062 12.1076 ) 0 
( 3.77404 -1.54552 11.7768 ) 0 
( 4.28493 -4.62346 11.0456 ) 0 
( 3.01206 -1.00209 12.1291 ) 0 
( 0.470056 -1.28717 12.1782 ) 0 
( 2.07855 -1.26569 12.3721 ) 0 
( 3.09474 -3.23731 12.0873 ) 0 
( 0.993747 -0.552382 11.7471 ) 0 
( 4.45038 -1.85145 12.477 ) 0 
( 1.31248 -4.8487 11.6007 ) 0 
( 1.76752 -4.42134 12.382 ) 0 
)
