/*--------------------------------*- C++ -*----------------------------------*\
| =========                 |                                                 |
| \\      /  F ield         | OpenFOAM: The Open Source CFD Toolbox           |
|  \\    /   O peration     | Version:  5.x                                   |
|   \\  /    A nd           | Web:      www.OpenFOAM.org                      |
|    \\/     M anipulation  |                                                 |
\*---------------------------------------------------------------------------*/
FoamFile
{
    version     2.0;
    format      ascii;
    class       volScalarField;
    location    "9000";
    object      p;
}
// * * * * * * * * * * * * * * * * * * * * * * * * * * * * * * * * * * * * * //

dimensions      [0 2 -2 0 0 0 0];

internalField   nonuniform List<scalar> 
180
(
6.64359e-09
1.94523e-08
3.25381e-08
4.59863e-08
5.89726e-08
7.18733e-08
8.4663e-08
9.7348e-08
1.0994e-07
1.22454e-07
1.34912e-07
1.47331e-07
1.59731e-07
1.72128e-07
1.8454e-07
1.96979e-07
2.09459e-07
2.21994e-07
2.34595e-07
2.47277e-07
2.60052e-07
2.72933e-07
2.8594e-07
2.99083e-07
3.12392e-07
3.25904e-07
3.39659e-07
3.5371e-07
3.68114e-07
3.82934e-07
3.98242e-07
4.14117e-07
4.30653e-07
4.47952e-07
4.66132e-07
4.85328e-07
5.05697e-07
5.2742e-07
5.50703e-07
5.75781e-07
6.02921e-07
6.32424e-07
6.64638e-07
6.9996e-07
7.3885e-07
7.81841e-07
8.29553e-07
8.82715e-07
9.42182e-07
1.00896e-06
1.08426e-06
1.16949e-06
1.26636e-06
1.37687e-06
1.50347e-06
1.64903e-06
1.81702e-06
2.01161e-06
2.23778e-06
2.50153e-06
2.81005e-06
3.172e-06
3.59781e-06
4.10006e-06
4.6939e-06
5.39769e-06
6.23365e-06
7.2287e-06
8.41559e-06
9.83407e-06
1.15328e-05
1.35723e-05
1.60285e-05
1.89896e-05
2.25366e-05
2.6753e-05
3.19645e-05
3.93344e-05
4.96302e-05
5.38745e-05
-6.5526e-06
0.00108529
0.00177567
0.00201787
0.00267536
0.0039261
0.00596418
0.00681677
0.0112393
0.0139969
0.015307
0.0156513
0.0165886
0.0186679
0.0193102
0.0209056
0.0219769
0.022732
0.0236661
0.0242129
0.0250772
0.0261733
0.0263582
0.0265418
0.0266195
0.0265769
0.0265603
0.0265502
0.0265416
0.0265339
0.0265274
0.0265218
0.0265172
0.0265132
0.0265099
0.0265071
0.0265047
0.0265028
0.0265011
0.0264997
0.0264985
0.0264975
0.0264967
0.026496
0.0264954
0.0264949
0.0264944
0.0264941
0.0264938
0.0264935
0.0264933
0.0264932
0.026493
0.0264929
0.0264928
0.0264927
0.0264926
0.0264925
0.0264924
0.0264924
0.0264923
0.0264923
0.0264922
0.0264922
0.0264921
0.0264921
0.0264921
0.0264921
0.026492
0.026492
0.026492
0.026492
0.026492
0.026492
0.026492
0.0264919
0.0264919
0.0264919
0.0264919
0.0264919
0.0264919
0.0264919
0.0264919
0.0264919
0.0264919
0.0264919
0.0264919
0.0264919
0.0264919
0.0264919
0.0264919
0.0264919
0.0264919
0.0264919
0.0264919
0.0264919
0.0264919
0.0264919
0.0264919
0.0264919
)
;

boundaryField
{
    inlet
    {
        type            zeroGradient;
    }
    outlet
    {
        type            fixedValue;
        value           uniform 0;
    }
    repeat_boundary
    {
        type            zeroGradient;
    }
    procBoundary0to1
    {
        type            processor;
        value           nonuniform List<scalar> 
180
(
5.91851e-09
1.72509e-08
2.88645e-08
4.09017e-08
5.25611e-08
6.4258e-08
7.59959e-08
8.78046e-08
9.97138e-08
1.11753e-07
1.23949e-07
1.36323e-07
1.48886e-07
1.61647e-07
1.74601e-07
1.87741e-07
2.01048e-07
2.145e-07
2.28069e-07
2.41722e-07
2.55426e-07
2.69147e-07
2.82848e-07
2.96504e-07
3.10074e-07
3.2352e-07
3.36808e-07
3.499e-07
3.62766e-07
3.75383e-07
3.87729e-07
3.99787e-07
4.11541e-07
4.22975e-07
4.3407e-07
4.448e-07
4.55119e-07
4.64969e-07
4.74264e-07
4.82893e-07
4.90706e-07
4.97514e-07
5.03072e-07
5.07075e-07
5.09141e-07
5.08797e-07
5.05465e-07
4.9844e-07
4.86865e-07
4.69704e-07
4.45702e-07
4.13346e-07
3.70804e-07
3.15862e-07
2.45837e-07
1.57476e-07
4.68271e-08
-9.09192e-08
-2.61624e-07
-4.72438e-07
-7.32104e-07
-1.05132e-06
-1.4432e-06
-1.92387e-06
-2.51316e-06
-3.2356e-06
-4.12159e-06
-5.20906e-06
-6.54536e-06
-8.18936e-06
-1.02134e-05
-1.27015e-05
-1.5754e-05
-1.94986e-05
-2.41147e-05
-2.98269e-05
-3.67134e-05
-4.42918e-05
-5.31105e-05
-7.27264e-05
-0.000104345
0.00112531
0.0024959
0.00265453
0.00410266
0.00624058
0.00902598
0.0102937
0.011873
0.0129579
0.0138094
0.0149626
0.0154717
0.0167693
0.0193144
0.0209831
0.0210014
0.0213515
0.0231402
0.0247615
0.0259472
0.0263068
0.0264287
0.0264644
0.0264829
0.0264874
0.0264885
0.0264898
0.0264913
0.0264924
0.0264932
0.0264937
0.0264941
0.0264943
0.0264943
0.0264943
0.0264943
0.0264942
0.0264941
0.0264939
0.0264938
0.0264936
0.0264935
0.0264933
0.0264932
0.0264931
0.0264929
0.0264928
0.0264927
0.0264926
0.0264925
0.0264924
0.0264923
0.0264922
0.0264922
0.0264921
0.0264921
0.0264921
0.026492
0.026492
0.026492
0.0264919
0.0264919
0.0264919
0.0264919
0.0264919
0.0264919
0.0264919
0.0264919
0.0264919
0.0264919
0.0264919
0.0264919
0.0264919
0.0264918
0.0264918
0.0264918
0.0264918
0.0264918
0.0264918
0.0264918
0.0264918
0.0264918
0.0264918
0.0264918
0.0264918
0.0264918
0.0264918
0.0264918
0.0264918
0.0264918
0.0264918
0.0264918
0.0264918
0.0264918
0.0264918
0.0264918
0.0264918
0.0264918
0.0264918
)
;
    }
    procBoundary0to2
    {
        type            processor;
        value           nonuniform List<scalar> 
180
(
5.67682e-09
1.64396e-08
2.74438e-08
3.88696e-08
4.99127e-08
6.09793e-08
7.20666e-08
8.32002e-08
9.44059e-08
1.05709e-07
1.17132e-07
1.28691e-07
1.40394e-07
1.52244e-07
1.64233e-07
1.76347e-07
1.88564e-07
2.00856e-07
2.13188e-07
2.25522e-07
2.37817e-07
2.50027e-07
2.62108e-07
2.74015e-07
2.85706e-07
2.9714e-07
3.08281e-07
3.19097e-07
3.29563e-07
3.39659e-07
3.49372e-07
3.58693e-07
3.67621e-07
3.7616e-07
3.84316e-07
3.921e-07
3.99519e-07
4.06582e-07
4.1329e-07
4.19637e-07
4.25604e-07
4.31159e-07
4.36248e-07
4.40794e-07
4.44692e-07
4.47804e-07
4.49949e-07
4.50903e-07
4.50383e-07
4.48041e-07
4.43445e-07
4.36061e-07
4.25232e-07
4.10143e-07
3.89783e-07
3.62895e-07
3.27911e-07
2.82873e-07
2.25335e-07
1.52236e-07
5.97477e-08
-5.69147e-08
-2.03732e-07
-3.88171e-07
-6.19553e-07
-9.09499e-07
-1.2725e-06
-1.72662e-06
-2.29445e-06
-3.00434e-06
-3.89174e-06
-5.00058e-06
-6.38541e-06
-8.11851e-06
-1.03075e-05
-1.30976e-05
-1.6552e-05
-2.03563e-05
-2.4656e-05
-3.50874e-05
-6.6241e-05
0.000670167
0.00146245
0.0019458
0.00371388
0.00587138
0.00845989
0.00950165
0.0101296
0.0116004
0.0154712
0.0180042
0.02026
0.0206689
0.0217908
0.0221499
0.022507
0.0235469
0.023706
0.0243587
0.0259263
0.026314
0.0264537
0.0264579
0.0264645
0.0264714
0.0264747
0.0264774
0.0264799
0.026482
0.0264837
0.0264852
0.0264864
0.0264874
0.0264882
0.0264889
0.0264894
0.0264899
0.0264902
0.0264905
0.0264908
0.026491
0.0264911
0.0264913
0.0264914
0.0264915
0.0264915
0.0264916
0.0264917
0.0264917
0.0264917
0.0264917
0.0264918
0.0264918
0.0264918
0.0264918
0.0264918
0.0264918
0.0264918
0.0264918
0.0264918
0.0264918
0.0264918
0.0264918
0.0264918
0.0264918
0.0264918
0.0264918
0.0264918
0.0264918
0.0264918
0.0264918
0.0264918
0.0264918
0.0264918
0.0264918
0.0264918
0.0264918
0.0264918
0.0264918
0.0264918
0.0264918
0.0264918
0.0264918
0.0264918
0.0264918
0.0264918
0.0264918
0.0264918
0.0264918
0.0264918
0.0264918
0.0264918
0.0264918
0.0264918
0.0264918
0.0264918
0.0264918
0.0264918
0.0264918
)
;
    }
}


// ************************************************************************* //
