/*--------------------------------*- C++ -*----------------------------------*\
| =========                 |                                                 |
| \\      /  F ield         | OpenFOAM: The Open Source CFD Toolbox           |
|  \\    /   O peration     | Version:  5.x                                   |
|   \\  /    A nd           | Web:      www.OpenFOAM.org                      |
|    \\/     M anipulation  |                                                 |
\*---------------------------------------------------------------------------*/
FoamFile
{
    version     2.0;
    format      ascii;
    class       surfaceScalarField;
    location    "9000";
    object      phi;
}
// * * * * * * * * * * * * * * * * * * * * * * * * * * * * * * * * * * * * * //

dimensions      [0 3 -1 0 0 0 0];

internalField   nonuniform List<scalar> 
179
(
-250.032
-250.033
-250.034
-250.035
-250.036
-250.037
-250.039
-250.041
-250.044
-250.047
-250.05
-250.054
-250.059
-250.063
-250.069
-250.075
-250.082
-250.09
-250.098
-250.108
-250.119
-250.131
-250.144
-250.159
-250.175
-250.194
-250.214
-250.237
-250.263
-250.291
-250.322
-250.358
-250.397
-250.441
-250.489
-250.544
-250.604
-250.672
-250.747
-250.832
-250.926
-251.031
-251.148
-251.279
-251.426
-251.59
-251.774
-251.98
-252.211
-252.469
-252.759
-253.084
-253.448
-253.857
-254.317
-254.833
-255.413
-256.066
-256.8
-257.626
-258.556
-259.604
-260.784
-262.115
-263.616
-265.31
-267.222
-269.38
-271.819
-274.575
-277.689
-281.206
-285.172
-289.619
-294.551
-299.903
-305.497
-311
-315.872
-319.38
-319.656
-319.648
-316.168
-314.874
-307.439
-304.744
-293.56
-280.085
-281.447
-291.294
-292.954
-298.269
-296.794
-297.622
-295.27
-292.769
-297.744
-296.881
-297.282
-294.563
-290.769
-287.472
-280.369
-276.989
-276.177
-273.699
-270.569
-267.416
-264.507
-261.931
-259.707
-257.813
-256.215
-254.871
-253.746
-252.815
-252.05
-251.424
-250.916
-250.506
-250.179
-249.921
-249.721
-249.568
-249.454
-249.372
-249.318
-249.285
-249.27
-249.268
-249.275
-249.291
-249.314
-249.34
-249.37
-249.403
-249.436
-249.47
-249.503
-249.536
-249.568
-249.599
-249.629
-249.657
-249.683
-249.708
-249.732
-249.753
-249.774
-249.793
-249.81
-249.826
-249.841
-249.855
-249.868
-249.879
-249.89
-249.9
-249.909
-249.917
-249.925
-249.932
-249.938
-249.944
-249.949
-249.954
-249.959
-249.963
-249.967
-249.97
-249.973
-249.976
-249.979
-249.982
-249.984
-249.986
-249.988
-249.99
-249.992
)
;

boundaryField
{
    inlet
    {
        type            calculated;
        value           uniform -249.994;
    }
    outlet
    {
        type            calculated;
        value           uniform 250.032;
    }
    repeat_boundary
    {
        type            calculated;
        value           uniform 0;
    }
    procBoundary0to1
    {
        type            processor;
        value           nonuniform List<scalar> 
180
(
-4.02222e-06
-6.18414e-06
-9.6368e-06
-1.34275e-05
-1.73373e-05
-2.15643e-05
-2.62309e-05
-3.13005e-05
-3.67343e-05
-4.24782e-05
-4.84132e-05
-5.4365e-05
-6.00698e-05
-6.52153e-05
-6.94194e-05
-7.22174e-05
-7.31309e-05
-7.09914e-05
-6.48409e-05
-5.3421e-05
-3.55926e-05
-1.05952e-05
2.71614e-05
6.97981e-05
0.000122708
0.000190372
0.000252235
0.000343283
0.000464664
0.000617902
0.000807559
0.00103968
0.00132134
0.00166114
0.00206933
0.00250543
0.00299984
0.00360107
0.00432188
0.00517905
0.00619358
0.00739068
0.00880012
0.0104568
0.0124012
0.0146809
0.0173508
0.0204748
0.0241271
0.0283937
0.0333744
0.0391848
0.0459586
0.0538512
0.0630417
0.0737374
0.0861781
0.100641
0.117447
0.136967
0.159628
0.185927
0.216434
0.25181
0.29282
0.340345
0.395405
0.459175
0.533007
0.618419
0.717041
0.830373
0.959087
1.10135
1.24954
1.3855
1.47598
1.47976
1.34392
1.04701
0.0313592
-0.0344219
-6.30155
-1.4055
-4.36382
-2.35705
-5.72455
-10.0816
-0.115943
7.60858
1.51919
10.621
0.820234
5.41622
0.248077
0.665747
6.14739
0.997786
0.54162
-1.96071
-1.92165
-1.52903
-2.72781
-0.661383
0.309813
-0.86336
-1.43272
-1.5442
-1.46264
-1.30558
-1.12755
-0.955031
-0.799624
-0.664547
-0.549093
-0.451205
-0.368562
-0.299005
-0.240629
-0.191779
-0.15103
-0.117149
-0.0890769
-0.0658956
-0.0468055
-0.0310894
-0.0178917
-0.0072395
0.00170204
0.00781712
0.0102105
0.0136964
0.0165945
0.0184979
0.0196623
0.0202592
0.0204411
0.0203016
0.0199112
0.0193182
0.01856
0.0177062
0.016802
0.0158679
0.0149233
0.0139843
0.0130632
0.012169
0.0113086
0.0104866
0.00970606
0.00896865
0.00827513
0.00762543
0.00701886
0.00645428
0.00593021
0.00544493
0.00499654
0.00458309
0.00420259
0.0038531
0.00353267
0.00323941
0.00297153
0.0027273
0.0025051
0.00230339
0.00212074
0.00195583
0.00180743
0.00167441
0.00155575
0.00145055
0.00135801
0.00127754
0.00120884
0.00115284
0.00111044
0.00110085
)
;
    }
    procBoundary0to2
    {
        type            processor;
        value           nonuniform List<scalar> 
180
(
0.000500855
0.000617601
0.000812449
0.00105802
0.00133789
0.00164291
0.0019696
0.00231809
0.00269053
0.00309022
0.00352108
0.00398755
0.00449452
0.00504734
0.00565192
0.00631476
0.00704302
0.00784465
0.00872841
0.00970403
0.0107823
0.0119752
0.0132961
0.0147596
0.0163824
0.0181826
0.0201804
0.0223982
0.0248609
0.0275965
0.0306359
0.0340138
0.0377689
0.0419442
0.046588
0.0517542
0.0575025
0.0638998
0.0710206
0.0789487
0.0877778
0.0976128
0.108571
0.120785
0.134403
0.149589
0.166531
0.185437
0.206543
0.230111
0.256438
0.285858
0.318745
0.355522
0.396665
0.442709
0.494258
0.551994
0.616684
0.689194
0.770502
0.861712
0.96407
1.07899
1.20805
1.35307
1.51608
1.69935
1.90545
2.13712
2.39704
2.68701
3.00602
3.34575
3.68264
3.9674
4.11748
4.02377
3.52763
2.46068
0.245263
0.0268929
2.82059
0.111524
-3.07099
-0.338494
-5.45959
-3.3936
1.47816
2.239
0.140322
-5.30601
-2.29507
-4.58864
-2.59945
-3.16733
-1.1727
-1.85995
-0.141365
-0.758548
-1.87195
-1.76731
-4.37478
-2.71894
-1.12155
-1.61358
-1.69702
-1.60811
-1.44697
-1.26928
-1.09654
-0.938415
-0.798952
-0.678613
-0.575959
-0.479622
-0.396734
-0.326598
-0.267403
-0.217567
-0.175724
-0.140694
-0.111462
-0.087154
-0.0670177
-0.0504082
-0.0367695
-0.0256244
-0.016558
-0.00919839
-0.00320143
0.0018687
0.00622501
0.00805726
0.0103424
0.011869
0.0128448
0.0134168
0.0136497
0.0136634
0.0134829
0.0131384
0.0126676
0.0121339
0.011553
0.0109431
0.0103196
0.0096946
0.00907749
0.00847528
0.00789317
0.00733489
0.00680298
0.00629903
0.00582384
0.00537761
0.00496011
0.00457075
0.00420871
0.00387298
0.00356239
0.00327575
0.00301177
0.00276917
0.0025467
0.00234312
0.00215724
0.00198792
0.00183407
0.0016947
0.00156886
0.00145567
0.00135433
0.00126414
0.00118447
0.00111489
0.00105524
0.00100656
0.00096969
0.000961581
)
;
    }
}


// ************************************************************************* //
