/*--------------------------------*- C++ -*----------------------------------*\
| =========                 |                                                 |
| \\      /  F ield         | OpenFOAM: The Open Source CFD Toolbox           |
|  \\    /   O peration     | Version:  5.x                                   |
|   \\  /    A nd           | Web:      www.OpenFOAM.org                      |
|    \\/     M anipulation  |                                                 |
\*---------------------------------------------------------------------------*/
FoamFile
{
    version     2.0;
    format      ascii;
    class       volVectorField;
    location    "9000";
    object      U;
}
// * * * * * * * * * * * * * * * * * * * * * * * * * * * * * * * * * * * * * //

dimensions      [0 1 -1 0 0 0 0];

internalField   nonuniform List<vector> 
180
(
(-1.74992e-10 1.96998e-08 -0.00100013)
(-3.18197e-10 2.39966e-08 -0.00100013)
(-5.05352e-10 3.13094e-08 -0.00100013)
(-6.99778e-10 4.06495e-08 -0.00100014)
(-8.93196e-10 5.13524e-08 -0.00100014)
(-1.08951e-09 6.30504e-08 -0.00100015)
(-1.29102e-09 7.56016e-08 -0.00100015)
(-1.49683e-09 8.90082e-08 -0.00100016)
(-1.70463e-09 1.03354e-07 -0.00100017)
(-1.91113e-09 1.18766e-07 -0.00100018)
(-2.11199e-09 1.35397e-07 -0.00100019)
(-2.30149e-09 1.53419e-07 -0.00100021)
(-2.47214e-09 1.73022e-07 -0.00100022)
(-2.61436e-09 1.94412e-07 -0.00100024)
(-2.716e-09 2.17817e-07 -0.00100026)
(-2.7619e-09 2.43489e-07 -0.00100029)
(-2.73342e-09 2.71702e-07 -0.00100031)
(-2.60788e-09 3.02761e-07 -0.00100034)
(-2.35773e-09 3.37003e-07 -0.00100038)
(-1.94968e-09 3.74801e-07 -0.00100041)
(-1.34371e-09 4.16569e-07 -0.00100045)
(-4.92066e-10 4.62763e-07 -0.0010005)
(6.61611e-10 5.13894e-07 -0.00100055)
(2.18536e-09 5.70527e-07 -0.0010006)
(4.15653e-09 6.33289e-07 -0.00100067)
(6.66514e-09 7.02877e-07 -0.00100074)
(9.81631e-09 7.80066e-07 -0.00100081)
(1.37242e-08 8.65714e-07 -0.0010009)
(1.85266e-08 9.60778e-07 -0.001001)
(2.4388e-08 1.06633e-06 -0.0010011)
(3.15017e-08 1.18355e-06 -0.00100122)
(4.00945e-08 1.31377e-06 -0.00100136)
(5.04321e-08 1.45847e-06 -0.0010015)
(6.28248e-08 1.6193e-06 -0.00100167)
(7.7636e-08 1.79811e-06 -0.00100185)
(9.52896e-08 1.99695e-06 -0.00100206)
(1.1626e-07 2.21813e-06 -0.00100229)
(1.41089e-07 2.46419e-06 -0.00100255)
(1.70415e-07 2.73799e-06 -0.00100283)
(2.04983e-07 3.04275e-06 -0.00100315)
(2.45661e-07 3.38203e-06 -0.0010035)
(2.93462e-07 3.75985e-06 -0.0010039)
(3.49561e-07 4.18071e-06 -0.00100435)
(4.15325e-07 4.64963e-06 -0.00100484)
(4.92343e-07 5.17226e-06 -0.0010054)
(5.82456e-07 5.75491e-06 -0.00100602)
(6.87801e-07 6.40469e-06 -0.00100671)
(8.10856e-07 7.12954e-06 -0.00100749)
(9.54493e-07 7.9384e-06 -0.00100836)
(1.12204e-06 8.84129e-06 -0.00100933)
(1.31735e-06 9.84949e-06 -0.00101042)
(1.54487e-06 1.09756e-05 -0.00101165)
(1.80979e-06 1.2234e-05 -0.00101302)
(2.11805e-06 1.36406e-05 -0.00101457)
(2.47659e-06 1.52134e-05 -0.0010163)
(2.89337e-06 1.69727e-05 -0.00101824)
(3.37763e-06 1.89414e-05 -0.00102043)
(3.94004e-06 2.11451e-05 -0.00102289)
(4.59294e-06 2.36131e-05 -0.00102565)
(5.35057e-06 2.63779e-05 -0.00102876)
(6.22936e-06 2.94764e-05 -0.00103226)
(7.24831e-06 3.29505e-05 -0.0010362)
(8.42934e-06 3.68472e-05 -0.00104065)
(9.79774e-06 4.12197e-05 -0.00104565)
(1.13827e-05 4.6128e-05 -0.0010513)
(1.32179e-05 5.16404e-05 -0.00105766)
(1.5342e-05 5.78334e-05 -0.00106485)
(1.77997e-05 6.47937e-05 -0.00107296)
(2.06419e-05 7.26175e-05 -0.00108212)
(2.39255e-05 8.14083e-05 -0.00109248)
(2.77114e-05 9.12661e-05 -0.00110419)
(3.20548e-05 0.000102255 -0.00111743)
(3.69765e-05 0.000114322 -0.00113229)
(4.2395e-05 0.000127117 -0.00114884)
(4.79931e-05 0.000139675 -0.00116761)
(5.30191e-05 0.000149985 -0.00119086)
(5.60808e-05 0.000154602 -0.00121942)
(5.52591e-05 0.000148929 -0.00123269)
(4.79621e-05 0.000126444 -0.00118205)
(3.19315e-05 8.23811e-05 -0.000995565)
(-2.59033e-06 9.46129e-06 -0.00370018)
(-6.21578e-06 6.28752e-06 7.78738e-06)
(-0.000362436 0.000135569 -0.00431071)
(-5.91586e-05 7.78844e-06 -0.000549313)
(-0.000444119 -0.000247049 -0.00469436)
(-6.102e-05 -2.53951e-05 -0.000234813)
(-0.000681379 -0.000452724 -0.00499639)
(-0.000333743 -0.000224708 -0.00449452)
(-1.00423e-05 -1.36682e-05 -0.00100096)
(0.00021003 0.000327188 -0.00504374)
(0.000180906 5.19085e-06 -0.00137371)
(0.000664679 -0.000530058 -0.00441484)
(5.17932e-06 -3.97066e-05 -6.33782e-05)
(0.000454374 -0.000267547 -0.00518084)
(6.55811e-05 -0.00023127 -0.00264093)
(3.01905e-05 -0.000105047 -0.00238352)
(0.000255219 -9.67826e-05 -0.00360469)
(0.000212091 -0.000111121 -0.00258468)
(3.97796e-05 -2.25468e-05 -0.00235229)
(-0.000200201 -6.18926e-05 -0.00379139)
(-0.000111816 -0.00015983 -0.00172604)
(-7.53347e-05 -0.00012594 -0.00336019)
(-0.000100203 -0.000155169 -0.00268639)
(6.01373e-06 -6.87663e-05 -0.00108501)
(2.484e-05 8.5854e-06 -0.00180766)
(-1.71538e-05 -2.46761e-05 -0.00103154)
(-4.14791e-05 -4.60743e-05 -0.00104902)
(-4.92957e-05 -5.3018e-05 -0.00107093)
(-4.87199e-05 -5.2107e-05 -0.00106658)
(-4.42987e-05 -4.75934e-05 -0.00105381)
(-3.85178e-05 -4.1762e-05 -0.00104297)
(-3.2655e-05 -3.57946e-05 -0.00103462)
(-2.72889e-05 -3.02604e-05 -0.00102775)
(-2.26049e-05 -2.53703e-05 -0.00102194)
(-1.86037e-05 -2.11516e-05 -0.00101703)
(-1.522e-05 -1.75553e-05 -0.00101295)
(-1.23729e-05 -1.45071e-05 -0.00100958)
(-9.98542e-06 -1.19322e-05 -0.00100682)
(-7.98958e-06 -9.76275e-06 -0.00100457)
(-6.32648e-06 -7.93942e-06 -0.00100275)
(-4.94553e-06 -6.41092e-06 -0.00100129)
(-3.80338e-06 -5.13317e-06 -0.00100014)
(-2.86297e-06 -4.06833e-06 -0.000999229)
(-2.09263e-06 -3.18399e-06 -0.00099853)
(-1.46537e-06 -2.45242e-06 -0.000998004)
(-9.58128e-07 -1.84989e-06 -0.000997619)
(-5.51231e-07 -1.35613e-06 -0.000997352)
(-2.278e-07 -9.53749e-07 -0.000997182)
(2.65338e-08 -6.27926e-07 -0.00099709)
(2.2411e-07 -3.65957e-07 -0.000997061)
(3.74968e-07 -1.57238e-07 -0.000997075)
(4.86713e-07 6.83864e-09 -0.000997123)
(5.66543e-07 1.34055e-07 -0.000997201)
(6.20739e-07 2.31219e-07 -0.000997302)
(6.54204e-07 3.03441e-07 -0.000997416)
(6.71175e-07 3.55384e-07 -0.000997542)
(6.75148e-07 3.90907e-07 -0.000997674)
(6.69005e-07 4.13218e-07 -0.000997809)
(6.55124e-07 4.2498e-07 -0.000997944)
(6.35455e-07 4.28409e-07 -0.000998078)
(6.11584e-07 4.25339e-07 -0.000998209)
(5.84788e-07 4.17276e-07 -0.000998335)
(5.56084e-07 4.05448e-07 -0.000998456)
(5.26288e-07 3.90848e-07 -0.000998571)
(4.96052e-07 3.74288e-07 -0.00099868)
(4.6589e-07 3.56432e-07 -0.000998783)
(4.36198e-07 3.37811e-07 -0.00099888)
(4.07279e-07 3.18849e-07 -0.00099897)
(3.79354e-07 2.99878e-07 -0.000999055)
(3.52583e-07 2.81159e-07 -0.000999133)
(3.27076e-07 2.62888e-07 -0.000999206)
(3.02897e-07 2.45214e-07 -0.000999273)
(2.80081e-07 2.28243e-07 -0.000999335)
(2.58636e-07 2.12049e-07 -0.000999393)
(2.38548e-07 1.96678e-07 -0.000999446)
(2.19791e-07 1.82156e-07 -0.000999495)
(2.02324e-07 1.68491e-07 -0.000999539)
(1.86099e-07 1.55679e-07 -0.00099958)
(1.71063e-07 1.43704e-07 -0.000999618)
(1.57158e-07 1.32545e-07 -0.000999653)
(1.44326e-07 1.22174e-07 -0.000999684)
(1.32505e-07 1.12558e-07 -0.000999713)
(1.21637e-07 1.03664e-07 -0.00099974)
(1.11664e-07 9.54565e-08 -0.000999764)
(1.02529e-07 8.78997e-08 -0.000999787)
(9.41792e-08 8.09578e-08 -0.000999807)
(8.65622e-08 7.45961e-08 -0.000999826)
(7.96304e-08 6.87809e-08 -0.000999843)
(7.33385e-08 6.348e-08 -0.000999859)
(6.76445e-08 5.86629e-08 -0.000999874)
(6.25094e-08 5.43009e-08 -0.000999887)
(5.78974e-08 5.03672e-08 -0.000999899)
(5.37759e-08 4.6837e-08 -0.000999911)
(5.01155e-08 4.36879e-08 -0.000999921)
(4.6891e-08 4.09009e-08 -0.000999931)
(4.40833e-08 3.84624e-08 -0.00099994)
(4.16848e-08 3.63703e-08 -0.000999949)
(3.97373e-08 3.467e-08 -0.000999957)
(3.82866e-08 3.34039e-08 -0.000999965)
(3.75112e-08 3.27331e-08 -0.000999972)
)
;

boundaryField
{
    inlet
    {
        type            zeroGradient;
    }
    outlet
    {
        type            zeroGradient;
    }
    repeat_boundary
    {
        type            slip;
    }
    procBoundary0to1
    {
        type            processor;
        value           nonuniform List<vector> 
180
(
(-1.74992e-10 1.81164e-08 -0.00100013)
(-3.18198e-10 2.18356e-08 -0.00100013)
(-5.05352e-10 2.83138e-08 -0.00100014)
(-6.99778e-10 3.66588e-08 -0.00100014)
(-8.93196e-10 4.62432e-08 -0.00100015)
(-1.08951e-09 5.672e-08 -0.00100015)
(-1.29102e-09 6.79491e-08 -0.00100016)
(-1.49683e-09 7.99209e-08 -0.00100017)
(-1.70463e-09 9.26987e-08 -0.00100017)
(-1.91113e-09 1.06384e-07 -0.00100019)
(-2.11199e-09 1.21099e-07 -0.0010002)
(-2.30149e-09 1.36978e-07 -0.00100021)
(-2.47214e-09 1.5417e-07 -0.00100023)
(-2.61437e-09 1.72832e-07 -0.00100025)
(-2.71601e-09 1.93135e-07 -0.00100027)
(-2.7619e-09 2.15264e-07 -0.00100029)
(-2.73343e-09 2.3942e-07 -0.00100031)
(-2.60789e-09 2.65817e-07 -0.00100034)
(-2.35774e-09 2.94692e-07 -0.00100037)
(-1.9497e-09 3.26301e-07 -0.0010004)
(-1.34373e-09 3.6092e-07 -0.00100044)
(-4.92097e-10 3.98851e-07 -0.00100048)
(6.6157e-10 4.40424e-07 -0.00100052)
(2.1853e-09 4.85996e-07 -0.00100057)
(4.15646e-09 5.35956e-07 -0.00100062)
(6.66505e-09 5.9073e-07 -0.00100068)
(9.81618e-09 6.50781e-07 -0.00100074)
(1.3724e-08 7.16618e-07 -0.00100081)
(1.85264e-08 7.88792e-07 -0.00100089)
(2.43877e-08 8.67902e-07 -0.00100097)
(3.15013e-08 9.54598e-07 -0.00100106)
(4.0094e-08 1.04958e-06 -0.00100116)
(5.04313e-08 1.15362e-06 -0.00100127)
(6.28237e-08 1.26755e-06 -0.00100139)
(7.76347e-08 1.39224e-06 -0.00100152)
(9.52878e-08 1.52869e-06 -0.00100166)
(1.16257e-07 1.67792e-06 -0.00100181)
(1.41086e-07 1.8411e-06 -0.00100198)
(1.70411e-07 2.01943e-06 -0.00100217)
(2.04977e-07 2.21423e-06 -0.00100237)
(2.45653e-07 2.42692e-06 -0.00100258)
(2.93451e-07 2.65899e-06 -0.00100282)
(3.49546e-07 2.91206e-06 -0.00100308)
(4.15306e-07 3.18783e-06 -0.00100336)
(4.92316e-07 3.48812e-06 -0.00100366)
(5.8242e-07 3.81485e-06 -0.00100398)
(6.87753e-07 4.17005e-06 -0.00100434)
(8.10791e-07 4.55584e-06 -0.00100472)
(9.54406e-07 4.97445e-06 -0.00100512)
(1.12192e-06 5.42819e-06 -0.00100556)
(1.31719e-06 5.91945e-06 -0.00100603)
(1.54467e-06 6.45067e-06 -0.00100653)
(1.80951e-06 7.02435e-06 -0.00100707)
(2.11768e-06 7.64298e-06 -0.00100764)
(2.47608e-06 8.30905e-06 -0.00100824)
(2.89269e-06 9.02496e-06 -0.00100888)
(3.37672e-06 9.79301e-06 -0.00100956)
(3.93883e-06 1.06153e-05 -0.00101026)
(4.59132e-06 1.14937e-05 -0.001011)
(5.34839e-06 1.24297e-05 -0.00101176)
(6.22644e-06 1.34243e-05 -0.00101255)
(7.24441e-06 1.44779e-05 -0.00101336)
(8.42412e-06 1.55901e-05 -0.00101417)
(9.79077e-06 1.67595e-05 -0.00101498)
(1.13734e-05 1.79837e-05 -0.00101579)
(1.32054e-05 1.92584e-05 -0.00101656)
(1.53254e-05 2.0578e-05 -0.00101729)
(1.77774e-05 2.19343e-05 -0.00101794)
(2.06118e-05 2.33165e-05 -0.0010185)
(2.38844e-05 2.47093e-05 -0.00101893)
(2.76542e-05 2.60898e-05 -0.00101918)
(3.19724e-05 2.74199e-05 -0.00101916)
(3.68532e-05 2.86342e-05 -0.00101875)
(4.22056e-05 2.96153e-05 -0.00101777)
(4.77025e-05 3.01585e-05 -0.00101659)
(5.25943e-05 2.99478e-05 -0.00101695)
(5.54944e-05 2.86725e-05 -0.00101927)
(5.46399e-05 2.6195e-05 -0.00100598)
(4.75442e-05 2.30746e-05 -0.000942352)
(3.19598e-05 2.09363e-05 -0.000836546)
(-2.45541e-06 5.79277e-06 -0.00312755)
(-1.27554e-05 -3.13359e-06 6.38985e-05)
(-0.000201678 0.000301822 -0.00380398)
(-9.46293e-05 0.000115153 -0.00272676)
(-6.54936e-05 -3.47899e-05 -0.0011494)
(-0.000284881 3.23792e-05 -0.00516472)
(-8.26937e-05 -3.36864e-05 -0.000511372)
(-0.00091554 -0.000405496 -0.00501646)
(-1.4994e-05 -1.45892e-05 -3.19603e-05)
(0.000652067 -0.000933347 -0.0044476)
(2.76538e-05 -4.16425e-05 -0.00011503)
(0.000442979 -0.000522167 -0.00424242)
(0.000122631 -0.000284082 -0.00139056)
(0.000297963 -0.000691237 -0.00474009)
(-1.44234e-05 -3.05889e-05 -0.000526291)
(6.97931e-05 -0.000365991 -0.00288951)
(0.000353905 -0.000709921 -0.00211257)
(-4.82427e-05 4.47657e-05 -0.000282098)
(9.40716e-06 -0.000138268 -0.003961)
(-9.2616e-05 -3.48215e-05 -0.000708235)
(-0.000165593 0.000138096 -0.00242461)
(-9.74468e-05 0.000131603 -0.00122652)
(-0.000135816 -1.86561e-05 -0.00126313)
(-6.73542e-05 2.08895e-05 -0.00100559)
(-1.59858e-05 6.72566e-05 -0.000912283)
(-4.25688e-05 0.000108696 -0.000847187)
(-5.59857e-05 0.000129709 -0.000818093)
(-5.69943e-05 0.000133962 -0.000832361)
(-5.23881e-05 0.000128097 -0.000855744)
(-4.59472e-05 0.000117394 -0.000875576)
(-3.9259e-05 0.000105166 -0.000892032)
(-3.30155e-05 9.31475e-05 -0.000906341)
(-2.74899e-05 8.20792e-05 -0.000918905)
(-2.27324e-05 7.21793e-05 -0.000929856)
(-1.86916e-05 6.34349e-05 -0.000939351)
(-1.52829e-05 5.57492e-05 -0.000947572)
(-1.24185e-05 4.90056e-05 -0.000954689)
(-1.00187e-05 4.30909e-05 -0.000960849)
(-8.0138e-06 3.7903e-05 -0.000966179)
(-6.3441e-06 3.33515e-05 -0.000970791)
(-4.95831e-06 2.93572e-05 -0.000974779)
(-3.81264e-06 2.58508e-05 -0.000978228)
(-2.86966e-06 2.27719e-05 -0.00098121)
(-2.09746e-06 2.00673e-05 -0.000983787)
(-1.46883e-06 1.7691e-05 -0.000986014)
(-9.60612e-07 1.56022e-05 -0.000987937)
(-5.53005e-07 1.37656e-05 -0.000989595)
(-2.29063e-07 1.21501e-05 -0.000991025)
(2.56392e-08 1.07282e-05 -0.000992255)
(2.23479e-07 9.47624e-06 -0.000993314)
(3.74525e-07 8.37326e-06 -0.000994231)
(4.86404e-07 7.40158e-06 -0.000995027)
(5.66328e-07 6.54526e-06 -0.000995713)
(6.20591e-07 5.79027e-06 -0.000996304)
(6.54102e-07 5.12432e-06 -0.000996813)
(6.71106e-07 4.53667e-06 -0.000997252)
(6.75101e-07 4.01791e-06 -0.000997631)
(6.68974e-07 3.55979e-06 -0.000997957)
(6.55103e-07 3.15504e-06 -0.000998239)
(6.35441e-07 2.7973e-06 -0.000998482)
(6.11575e-07 2.48099e-06 -0.000998691)
(5.84782e-07 2.20121e-06 -0.000998872)
(5.56079e-07 1.95365e-06 -0.000999028)
(5.26285e-07 1.73452e-06 -0.000999162)
(4.9605e-07 1.54049e-06 -0.000999279)
(4.65888e-07 1.36861e-06 -0.000999379)
(4.36197e-07 1.21631e-06 -0.000999465)
(4.07278e-07 1.0813e-06 -0.000999539)
(3.79353e-07 9.61592e-07 -0.000999604)
(3.52583e-07 8.55402e-07 -0.000999659)
(3.27075e-07 7.61177e-07 -0.000999706)
(3.02896e-07 6.77541e-07 -0.000999747)
(2.80081e-07 6.03282e-07 -0.000999783)
(2.58635e-07 5.37329e-07 -0.000999813)
(2.38548e-07 4.78736e-07 -0.000999839)
(2.19791e-07 4.26669e-07 -0.000999862)
(2.02323e-07 3.80389e-07 -0.000999881)
(1.86099e-07 3.39246e-07 -0.000999898)
(1.71063e-07 3.02662e-07 -0.000999912)
(1.57158e-07 2.70129e-07 -0.000999924)
(1.44325e-07 2.41194e-07 -0.000999935)
(1.32505e-07 2.1546e-07 -0.000999944)
(1.21637e-07 1.92572e-07 -0.000999952)
(1.11664e-07 1.72218e-07 -0.000999959)
(1.02529e-07 1.54121e-07 -0.000999965)
(9.41791e-08 1.38036e-07 -0.00099997)
(8.65622e-08 1.23745e-07 -0.000999974)
(7.96304e-08 1.11057e-07 -0.000999978)
(7.33385e-08 9.98e-08 -0.000999981)
(6.76444e-08 8.98249e-08 -0.000999984)
(6.25094e-08 8.09984e-08 -0.000999986)
(5.78974e-08 7.3203e-08 -0.000999988)
(5.37759e-08 6.63358e-08 -0.00099999)
(5.01155e-08 6.03067e-08 -0.000999991)
(4.6891e-08 5.50386e-08 -0.000999993)
(4.40833e-08 5.04693e-08 -0.000999993)
(4.16848e-08 4.6561e-08 -0.000999994)
(3.97373e-08 4.33039e-08 -0.000999995)
(3.82866e-08 4.08461e-08 -0.000999995)
(3.75112e-08 3.94657e-08 -0.000999996)
)
;
    }
    procBoundary0to2
    {
        type            processor;
        value           nonuniform List<vector> 
180
(
(-1.75836e-09 1.96997e-08 -0.000999912)
(-2.4791e-09 2.39964e-08 -0.000999909)
(-3.50095e-09 3.13092e-08 -0.000999907)
(-4.69047e-09 4.06492e-08 -0.000999903)
(-6.00236e-09 5.13521e-08 -0.000999897)
(-7.41991e-09 6.30501e-08 -0.000999891)
(-8.94343e-09 7.56012e-08 -0.000999883)
(-1.05841e-08 8.90077e-08 -0.000999873)
(-1.23597e-08 1.03353e-07 -0.000999862)
(-1.42928e-08 1.18765e-07 -0.00099985)
(-1.64102e-08 1.35396e-07 -0.000999835)
(-1.87422e-08 1.53418e-07 -0.000999819)
(-2.13238e-08 1.73021e-07 -0.0009998)
(-2.41942e-08 1.94411e-07 -0.000999779)
(-2.73981e-08 2.17816e-07 -0.000999755)
(-3.09859e-08 2.43487e-07 -0.000999729)
(-3.50152e-08 2.717e-07 -0.000999699)
(-3.95512e-08 3.02758e-07 -0.000999666)
(-4.46678e-08 3.37e-07 -0.000999628)
(-5.04494e-08 3.74797e-07 -0.000999587)
(-5.69915e-08 4.16564e-07 -0.00099954)
(-6.44028e-08 4.62758e-07 -0.000999489)
(-7.28069e-08 5.13887e-07 -0.000999431)
(-8.23442e-08 5.70518e-07 -0.000999366)
(-9.31744e-08 6.33278e-07 -0.000999294)
(-1.05479e-07 7.02864e-07 -0.000999215)
(-1.19465e-07 7.80049e-07 -0.000999126)
(-1.35367e-07 8.65694e-07 -0.000999026)
(-1.53452e-07 9.60753e-07 -0.000998916)
(-1.74026e-07 1.06629e-06 -0.000998793)
(-1.97435e-07 1.18351e-06 -0.000998656)
(-2.24073e-07 1.31372e-06 -0.000998504)
(-2.54392e-07 1.45841e-06 -0.000998335)
(-2.88904e-07 1.61922e-06 -0.000998146)
(-3.28197e-07 1.79802e-06 -0.000997936)
(-3.72939e-07 1.99684e-06 -0.000997702)
(-4.23894e-07 2.21799e-06 -0.000997441)
(-4.81938e-07 2.46401e-06 -0.00099715)
(-5.48067e-07 2.73778e-06 -0.000996826)
(-6.23424e-07 3.04247e-06 -0.000996465)
(-7.09312e-07 3.38169e-06 -0.000996061)
(-8.07225e-07 3.75943e-06 -0.000995611)
(-9.18868e-07 4.18019e-06 -0.000995109)
(-1.04619e-06 4.64898e-06 -0.000994548)
(-1.19144e-06 5.17145e-06 -0.000993922)
(-1.35715e-06 5.7539e-06 -0.000993222)
(-1.54625e-06 6.40342e-06 -0.00099244)
(-1.76209e-06 7.12796e-06 -0.000991565)
(-2.00849e-06 7.93642e-06 -0.000990587)
(-2.28984e-06 8.83881e-06 -0.000989493)
(-2.61113e-06 9.84638e-06 -0.000988268)
(-2.9781e-06 1.09718e-05 -0.000986897)
(-3.39731e-06 1.22291e-05 -0.000985361)
(-3.87628e-06 1.36345e-05 -0.00098364)
(-4.42358e-06 1.52057e-05 -0.000981712)
(-5.04905e-06 1.6963e-05 -0.000979549)
(-5.76394e-06 1.89292e-05 -0.000977125)
(-6.58112e-06 2.11298e-05 -0.000974404)
(-7.51534e-06 2.35938e-05 -0.000971351)
(-8.58345e-06 2.63535e-05 -0.000967923)
(-9.80474e-06 2.94457e-05 -0.000964072)
(-1.12013e-05 3.29116e-05 -0.000959746)
(-1.27984e-05 3.6798e-05 -0.000954883)
(-1.46249e-05 4.11574e-05 -0.000949415)
(-1.67138e-05 4.60491e-05 -0.000943264)
(-1.91029e-05 5.15402e-05 -0.000936343)
(-2.18353e-05 5.77062e-05 -0.000928553)
(-2.496e-05 6.4632e-05 -0.000919779)
(-2.85322e-05 7.24116e-05 -0.000909895)
(-3.26123e-05 8.11457e-05 -0.000898758)
(-3.72615e-05 9.09305e-05 -0.000886209)
(-4.25281e-05 0.000101827 -0.000872064)
(-4.84098e-05 0.000113779 -0.000856089)
(-5.47727e-05 0.000126444 -0.000838046)
(-6.12091e-05 0.000138886 -0.000818111)
(-6.68344e-05 0.000149167 -0.000797655)
(-7.0024e-05 0.000154004 -0.000777942)
(-6.80071e-05 0.000148674 -0.000749078)
(-5.64812e-05 0.000126995 -0.00068894)
(-3.05236e-05 8.32652e-05 -0.00056973)
(-6.35718e-06 9.68188e-06 -0.00206363)
(-1.29874e-05 6.40391e-06 9.03265e-05)
(1.9928e-05 9.40707e-05 -0.00312144)
(2.45228e-06 7.72449e-06 -0.000215901)
(-0.000145985 -9.86101e-05 -0.00406647)
(2.91889e-05 -3.49055e-05 -0.000278494)
(-0.000139555 -0.000247906 -0.00342254)
(-0.000226858 -0.000197588 -0.00129475)
(-0.000438477 0.000177149 -0.0027879)
(2.52685e-05 4.23927e-05 -0.000103746)
(-7.48639e-05 1.61307e-05 -0.0052172)
(5.40319e-05 -2.67154e-05 -0.000971241)
(0.000117056 -0.000272807 -0.00221032)
(-0.000244771 -0.00025225 -0.00284516)
(-2.84344e-05 -5.4628e-05 -8.37716e-05)
(-0.000167334 -0.000288895 -0.00312205)
(-7.49768e-05 -7.09329e-05 -0.000648703)
(-8.11945e-05 -0.000127358 -0.00191344)
(-0.000229854 -1.51128e-05 -0.00243545)
(-8.98201e-05 -8.42672e-05 -0.000648429)
(8.08428e-05 -0.000147715 -0.00274482)
(6.90951e-05 -7.4341e-05 -0.0010395)
(2.84336e-05 -0.000232846 -0.00118838)
(0.000111774 -0.000246123 -0.000873453)
(0.000120737 -0.000109775 -0.000758637)
(0.000148282 -9.75887e-05 -0.000811623)
(0.000155235 -8.58307e-05 -0.000810484)
(0.000149759 -7.30217e-05 -0.00082827)
(0.000137836 -6.14221e-05 -0.00084999)
(0.000123732 -5.16815e-05 -0.000869522)
(0.00010974 -4.34927e-05 -0.000886296)
(9.68196e-05 -3.65311e-05 -0.00090091)
(8.52471e-05 -3.05952e-05 -0.000913724)
(7.50122e-05 -2.55428e-05 -0.000924941)
(6.60048e-05 -2.12539e-05 -0.000934743)
(5.80916e-05 -1.76228e-05 -0.000943289)
(5.11423e-05 -1.45544e-05 -0.00095072)
(4.50388e-05 -1.19661e-05 -0.000957179)
(3.96768e-05 -9.78733e-06 -0.000962792)
(3.49648e-05 -7.95727e-06 -0.000967671)
(3.08229e-05 -6.42388e-06 -0.000971911)
(2.71809e-05 -5.14257e-06 -0.000975595)
(2.39774e-05 -4.07513e-06 -0.000978796)
(2.11589e-05 -3.1889e-06 -0.000981577)
(1.86782e-05 -2.45595e-06 -0.000983994)
(1.64941e-05 -1.85242e-06 -0.000986093)
(1.45706e-05 -1.35794e-06 -0.000987918)
(1.28761e-05 -9.55038e-07 -0.000989503)
(1.13828e-05 -6.28841e-07 -0.00099088)
(1.00663e-05 -3.66603e-07 -0.000992077)
(8.9055e-06 -1.57692e-07 -0.000993116)
(7.88148e-06 6.52082e-09 -0.000994018)
(6.97777e-06 1.33834e-07 -0.000994799)
(6.17981e-06 2.31066e-07 -0.000995477)
(5.47509e-06 3.03337e-07 -0.000996067)
(4.85247e-06 3.55313e-07 -0.000996579)
(4.30216e-06 3.90859e-07 -0.000997024)
(3.81558e-06 4.13186e-07 -0.00099741)
(3.38519e-06 4.24958e-07 -0.000997746)
(3.00435e-06 4.28394e-07 -0.000998038)
(2.66724e-06 4.25329e-07 -0.000998291)
(2.36873e-06 4.17269e-07 -0.000998512)
(2.10429e-06 4.05443e-07 -0.000998704)
(1.86997e-06 3.90844e-07 -0.000998871)
(1.66225e-06 3.74286e-07 -0.000999016)
(1.47807e-06 3.5643e-07 -0.000999142)
(1.3147e-06 3.3781e-07 -0.000999252)
(1.16974e-06 3.18848e-07 -0.000999348)
(1.04107e-06 2.99878e-07 -0.000999432)
(9.26827e-07 2.81158e-07 -0.000999504)
(8.25364e-07 2.62888e-07 -0.000999568)
(7.35224e-07 2.45214e-07 -0.000999623)
(6.5512e-07 2.28243e-07 -0.000999671)
(5.83916e-07 2.12049e-07 -0.000999712)
(5.20606e-07 1.96678e-07 -0.000999749)
(4.64304e-07 1.82156e-07 -0.00099978)
(4.14222e-07 1.68491e-07 -0.000999808)
(3.69666e-07 1.55679e-07 -0.000999832)
(3.30021e-07 1.43704e-07 -0.000999853)
(2.94742e-07 1.32545e-07 -0.000999872)
(2.63346e-07 1.22174e-07 -0.000999888)
(2.35407e-07 1.12558e-07 -0.000999902)
(2.10545e-07 1.03664e-07 -0.000999914)
(1.88426e-07 9.54565e-08 -0.000999925)
(1.68751e-07 8.78996e-08 -0.000999935)
(1.51257e-07 8.09577e-08 -0.000999943)
(1.35711e-07 7.4596e-08 -0.00099995)
(1.21906e-07 6.87808e-08 -0.000999957)
(1.09659e-07 6.34799e-08 -0.000999962)
(9.88065e-08 5.86628e-08 -0.000999967)
(8.92069e-08 5.43008e-08 -0.000999972)
(8.07333e-08 5.03672e-08 -0.000999976)
(7.32747e-08 4.6837e-08 -0.000999979)
(6.67343e-08 4.36879e-08 -0.000999982)
(6.10287e-08 4.09009e-08 -0.000999984)
(5.60903e-08 3.84624e-08 -0.000999987)
(5.18755e-08 3.63703e-08 -0.000999989)
(4.83712e-08 3.467e-08 -0.000999991)
(4.57287e-08 3.34039e-08 -0.000999992)
(4.42438e-08 3.27331e-08 -0.000999994)
)
;
    }
}


// ************************************************************************* //
