/*--------------------------------*- C++ -*----------------------------------*\
| =========                 |                                                 |
| \\      /  F ield         | OpenFOAM: The Open Source CFD Toolbox           |
|  \\    /   O peration     | Version:  5.x                                   |
|   \\  /    A nd           | Web:      www.OpenFOAM.org                      |
|    \\/     M anipulation  |                                                 |
\*---------------------------------------------------------------------------*/
FoamFile
{
    version     2.0;
    format      ascii;
    class       surfaceScalarField;
    location    "0.07";
    object      phi;
}
// * * * * * * * * * * * * * * * * * * * * * * * * * * * * * * * * * * * * * //

dimensions      [0 3 -1 0 0 0 0];

internalField   nonuniform List<scalar> 
5825
(
-2.30973e-16
-3.75679e-17
-9.99999e-10
-2.12945e-16
-6.11043e-17
-9.99999e-10
-1.4693e-16
-6.23668e-17
-1e-09
-6.66129e-17
-5.82543e-17
-1e-09
-4.96721e-17
-1e-09
-2.55023e-16
-1.00991e-16
-9.99999e-10
-2.14983e-16
-1.01831e-16
-1e-09
-1.43499e-16
-9.07351e-17
-1e-09
-5.82762e-17
-7.58392e-17
-1e-09
-6.16365e-17
-1e-09
-2.55781e-16
-1.49554e-16
-9.99999e-10
-2.03469e-16
-1.34392e-16
-1e-09
-1.2863e-16
-1.15184e-16
-1e-09
-4.42211e-17
-9.49023e-17
-1e-09
-8.61666e-17
-1e-09
-2.38038e-16
-1.89181e-16
-1e-09
-1.83303e-16
-1.70251e-16
-1e-09
-1.08288e-16
-1.46057e-16
-1e-09
-3.56461e-17
-1.21e-16
-1e-09
-1.14316e-16
-1e-09
-2.17414e-16
-1e-09
-1.59341e-16
-1e-09
-8.32862e-17
-1e-09
-2.92293e-17
-1e-09
-1e-09
-6.53366e-16
-1.31671e-16
-9.99999e-10
-5.6019e-16
-1.66619e-16
-9.99999e-10
-3.88665e-16
-1.60623e-16
-1e-09
-1.72766e-16
-1.29449e-16
-1e-09
-1.13758e-16
-1e-09
-6.90897e-16
-2.86202e-16
-9.99999e-10
-5.5649e-16
-2.69523e-16
-9.99999e-10
-3.58898e-16
-2.30382e-16
-1e-09
-1.57028e-16
-2.04109e-16
-1e-09
-1.69774e-16
-1e-09
-6.75352e-16
-3.81221e-16
-9.99999e-10
-5.15933e-16
-3.56786e-16
-1e-09
-3.32547e-16
-3.12559e-16
-1e-09
-1.2297e-16
-2.58927e-16
-1e-09
-2.48076e-16
-1e-09
-6.49046e-16
-4.41261e-16
-1e-09
-4.67899e-16
-4.15367e-16
-1e-09
-2.78512e-16
-3.61543e-16
-1e-09
-1.12716e-16
-3.08303e-16
-1e-09
-2.93078e-16
-1e-09
-6.32251e-16
-1e-09
-4.11022e-16
-1e-09
-2.22784e-16
-1e-09
-9.65311e-17
-1e-09
-1e-09
-1.09574e-15
-2.73698e-16
-9.99999e-10
-9.15009e-16
-2.74872e-16
-9.99999e-10
-6.19357e-16
-2.51072e-16
-1e-09
-2.84982e-16
-2.0879e-16
-1e-09
-1.79638e-16
-1e-09
-1.10194e-15
-5.15845e-16
-9.99999e-10
-8.94262e-16
-4.85551e-16
-9.99999e-10
-5.78615e-16
-4.13136e-16
-1e-09
-2.55864e-16
-3.73122e-16
-1e-09
-3.47595e-16
-1e-09
-1.07361e-15
-6.34441e-16
-9.99999e-10
-8.19371e-16
-6.10649e-16
-1e-09
-5.38324e-16
-5.59061e-16
-1e-09
-2.31067e-16
-5.08629e-16
-1e-09
-5.18524e-16
-1e-09
-1.05852e-15
-6.15496e-16
-1e-09
-7.63564e-16
-6.45761e-16
-1e-09
-4.88008e-16
-6.31569e-16
-1e-09
-2.4276e-16
-6.14318e-16
-1e-09
-6.13138e-16
-1e-09
-1.08375e-15
-1e-09
-7.38741e-16
-1e-09
-4.63354e-16
-1e-09
-2.39307e-16
-1e-09
-1e-09
-1.57713e-15
-4.47662e-16
-9.99998e-10
-1.297e-15
-4.02419e-16
-9.99999e-10
-8.874e-16
-3.55621e-16
-1e-09
-4.32614e-16
-3.21604e-16
-1e-09
-2.98809e-16
-1e-09
-1.5381e-15
-8.13863e-16
-9.99999e-10
-1.2533e-15
-7.43682e-16
-9.99999e-10
-8.55363e-16
-6.76125e-16
-1e-09
-4.102e-16
-6.43242e-16
-1e-09
-6.3605e-16
-1e-09
-1.46829e-15
-9.92364e-16
-9.99999e-10
-1.18268e-15
-9.66653e-16
-1e-09
-8.22128e-16
-9.35318e-16
-1e-09
-4.04706e-16
-8.99081e-16
-1e-09
-9.21479e-16
-1e-09
-1.44843e-15
-9.62888e-16
-9.99999e-10
-1.14745e-15
-1.02242e-15
-1e-09
-7.86647e-16
-1.06654e-15
-1e-09
-4.30358e-16
-1.09408e-15
-1e-09
-1.10272e-15
-1e-09
-1.50918e-15
-1e-09
-1.17113e-15
-1e-09
-8.05255e-16
-1e-09
-4.3891e-16
-1e-09
-1e-09
-2.18207e-15
-6.32939e-16
-9.99998e-10
-1.78722e-15
-5.59055e-16
-9.99999e-10
-1.26779e-15
-5.21545e-16
-1e-09
-6.53523e-16
-4.99757e-16
-1e-09
-4.9746e-16
-1e-09
-2.11531e-15
-1.16625e-15
-9.99998e-10
-1.75311e-15
-1.08043e-15
-9.99999e-10
-1.24865e-15
-1.03165e-15
-1e-09
-6.52494e-16
-1.0205e-15
-1e-09
-1.02503e-15
-1e-09
-2.0332e-15
-1.4889e-15
-9.99999e-10
-1.70168e-15
-1.4525e-15
-9.99999e-10
-1.23744e-15
-1.44149e-15
-1e-09
-6.5966e-16
-1.42544e-15
-1e-09
-1.42832e-15
-1e-09
-1.99762e-15
-1.63965e-15
-9.99999e-10
-1.68754e-15
-1.65382e-15
-1e-09
-1.22286e-15
-1.68675e-15
-1e-09
-6.67194e-16
-1.70515e-15
-1e-09
-1.69707e-15
-1e-09
-2.01132e-15
-1e-09
-1.70331e-15
-1e-09
-1.23273e-15
-1e-09
-6.59333e-16
-1e-09
-1e-09
-2.99698e-15
-8.23146e-16
-9.99997e-10
-2.48272e-15
-7.62066e-16
-9.99999e-10
-1.8124e-15
-7.58042e-16
-1e-09
-9.70108e-16
-7.56177e-16
-1e-09
-7.63912e-16
-1e-09
-2.94299e-15
-1.54605e-15
-9.99998e-10
-2.48384e-15
-1.49555e-15
-9.99999e-10
-1.815e-15
-1.47704e-15
-1e-09
-9.81044e-16
-1.47708e-15
-1e-09
-1.47363e-15
-1e-09
-2.89538e-15
-2.05342e-15
-9.99998e-10
-2.46343e-15
-2.04388e-15
-9.99999e-10
-1.81553e-15
-2.04237e-15
-1e-09
-9.81528e-16
-2.03444e-15
-1e-09
-2.00661e-15
-1e-09
-2.88507e-15
-2.41222e-15
-9.99999e-10
-2.46015e-15
-2.41091e-15
-1e-09
-1.80977e-15
-2.40383e-15
-1e-09
-9.59489e-16
-2.38969e-15
-1e-09
-2.36272e-15
-1e-09
-2.86679e-15
-1e-09
-2.43233e-15
-1e-09
-1.7888e-15
-1e-09
-9.3438e-16
-1e-09
-1e-09
-4.09824e-15
-1.05892e-15
-9.99997e-10
-3.4633e-15
-1.04192e-15
-9.99998e-10
-2.55604e-15
-1.06567e-15
-1e-09
-1.37575e-15
-1.07564e-15
-1e-09
-1.0666e-15
-1e-09
-4.08884e-15
-2.0103e-15
-9.99997e-10
-3.49535e-15
-2.01428e-15
-9.99999e-10
-2.57295e-15
-2.01759e-15
-1e-09
-1.37234e-15
-2.00758e-15
-1e-09
-1.9958e-15
-1e-09
-4.09169e-15
-2.70817e-15
-9.99998e-10
-3.4986e-15
-2.75177e-15
-9.99999e-10
-2.56404e-15
-2.75042e-15
-1e-09
-1.36593e-15
-2.75283e-15
-1e-09
-2.72045e-15
-1e-09
-4.12644e-15
-3.18034e-15
-9.99999e-10
-3.49727e-15
-3.2007e-15
-1e-09
-2.56838e-15
-3.20413e-15
-1e-09
-1.34077e-15
-3.20312e-15
-1e-09
-3.19033e-15
-1e-09
-4.11365e-15
-1e-09
-3.47755e-15
-1e-09
-2.56085e-15
-1e-09
-1.33222e-15
-1e-09
-1e-09
-5.58627e-15
-1.41755e-15
-9.99996e-10
-4.78677e-15
-1.42998e-15
-9.99998e-10
-3.51491e-15
-1.45448e-15
-9.99999e-10
-1.85979e-15
-1.4551e-15
-1e-09
-1.42759e-15
-1e-09
-5.60891e-15
-2.6794e-15
-9.99996e-10
-4.82341e-15
-2.70269e-15
-9.99998e-10
-3.52493e-15
-2.70683e-15
-1e-09
-1.83978e-15
-2.69636e-15
-1e-09
-2.69874e-15
-1e-09
-5.62954e-15
-3.63449e-15
-9.99997e-10
-4.8288e-15
-3.68791e-15
-9.99999e-10
-3.51581e-15
-3.69918e-15
-1e-09
-1.84945e-15
-3.72514e-15
-1e-09
-3.71711e-15
-1e-09
-5.67215e-15
-4.19912e-15
-9.99999e-10
-4.84018e-15
-4.24076e-15
-1e-09
-3.543e-15
-4.29395e-15
-1e-09
-1.85104e-15
-4.34487e-15
-1e-09
-4.36029e-15
-1e-09
-5.66882e-15
-1e-09
-4.8806e-15
-1e-09
-3.58909e-15
-1e-09
-1.87384e-15
-1.00001e-09
-1.00001e-09
-7.58781e-15
-1.94848e-15
-9.99994e-10
-6.51262e-15
-1.95092e-15
-9.99997e-10
-4.74206e-15
-1.96078e-15
-9.99999e-10
-2.47863e-15
-1.95439e-15
-1e-09
-1.93459e-15
-1e-09
-7.60606e-15
-3.64536e-15
-9.99995e-10
-6.53866e-15
-3.66558e-15
-9.99998e-10
-4.74797e-15
-3.67362e-15
-1e-09
-2.46924e-15
-3.69141e-15
-1e-09
-3.71335e-15
-1e-09
-7.62493e-15
-5.00073e-15
-9.99996e-10
-6.54807e-15
-5.03457e-15
-9.99999e-10
-4.76731e-15
-5.07931e-15
-1e-09
-2.50089e-15
-5.12573e-15
-1e-09
-5.13559e-15
-1e-09
-7.64772e-15
-5.82256e-15
-9.99998e-10
-6.59352e-15
-5.85887e-15
-1e-09
-4.81491e-15
-5.94836e-15
-1e-09
-2.52342e-15
-6.01859e-15
-1.00001e-09
-6.0368e-15
-1.00001e-09
-7.62064e-15
-1e-09
-6.67062e-15
-1e-09
-4.88247e-15
-1.00001e-09
-2.55424e-15
-1.00001e-09
-1.00001e-09
-1.02936e-14
-2.66251e-15
-9.99992e-10
-8.80925e-15
-2.66067e-15
-9.99996e-10
-6.40025e-15
-2.67108e-15
-9.99999e-10
-3.34686e-15
-2.67169e-15
-1e-09
-2.66828e-15
-1e-09
-1.03145e-14
-5.01004e-15
-9.99993e-10
-8.84113e-15
-5.04797e-15
-9.99997e-10
-6.41709e-15
-5.07121e-15
-1e-09
-3.35739e-15
-5.11047e-15
-1e-09
-5.12421e-15
-1e-09
-1.03516e-14
-6.93516e-15
-9.99995e-10
-8.86525e-15
-6.97701e-15
-9.99999e-10
-6.45798e-15
-7.03944e-15
-1e-09
-3.384e-15
-7.07384e-15
-1e-09
-7.07582e-15
-1.00001e-09
-1.03857e-14
-8.21675e-15
-9.99997e-10
-8.92892e-15
-8.23998e-15
-1e-09
-6.49372e-15
-8.30564e-15
-1e-09
-3.40304e-15
-8.33249e-15
-1.00001e-09
-8.32442e-15
-1.00001e-09
-1.03429e-14
-1e-09
-8.9843e-15
-1e-09
-6.51876e-15
-1.00001e-09
-3.41424e-15
-1.00001e-09
-1.00001e-09
-1.40399e-14
-3.64255e-15
-9.99989e-10
-1.19781e-14
-3.66068e-15
-9.99994e-10
-8.70583e-15
-3.67414e-15
-9.99998e-10
-4.56355e-15
-3.67193e-15
-1e-09
-3.66737e-15
-1e-09
-1.40899e-14
-6.9452e-15
-9.9999e-10
-1.20202e-14
-6.9895e-15
-9.99995e-10
-8.72507e-15
-7.00676e-15
-1e-09
-4.57824e-15
-7.02877e-15
-1e-09
-7.01421e-15
-1e-09
-1.41337e-14
-9.59749e-15
-9.99993e-10
-1.20379e-14
-9.65389e-15
-9.99998e-10
-8.7485e-15
-9.68651e-15
-1e-09
-4.5811e-15
-9.68522e-15
-1.00001e-09
-9.67144e-15
-1.00001e-09
-1.41871e-14
-1.13903e-14
-9.99996e-10
-1.20727e-14
-1.14137e-14
-1e-09
-8.74876e-15
-1.14252e-14
-1.00001e-09
-4.59085e-15
-1.13952e-14
-1.00001e-09
-1.1362e-14
-1.00001e-09
-1.41457e-14
-1e-09
-1.20714e-14
-1.00001e-09
-8.7168e-15
-1.00001e-09
-4.58486e-15
-1.00001e-09
-1.00002e-09
-1.92308e-14
-5.03297e-15
-9.99984e-10
-1.63453e-14
-5.03648e-15
-9.99992e-10
-1.18729e-14
-5.02902e-15
-9.99998e-10
-6.22596e-15
-5.00954e-15
-1e-09
-4.9983e-15
-1e-09
-1.92777e-14
-9.60106e-15
-9.99986e-10
-1.63761e-14
-9.60479e-15
-9.99994e-10
-1.18819e-14
-9.59168e-15
-1e-09
-6.24132e-15
-9.58296e-15
-1e-09
-9.5521e-15
-1.00001e-09
-1.92801e-14
-1.31642e-14
-9.9999e-10
-1.6364e-14
-1.32231e-14
-9.99997e-10
-1.18745e-14
-1.32125e-14
-1e-09
-6.23415e-15
-1.3188e-14
-1.00001e-09
-1.31638e-14
-1.00001e-09
-1.9332e-14
-1.55247e-14
-9.99995e-10
-1.63569e-14
-1.55601e-14
-1e-09
-1.18516e-14
-1.55411e-14
-1.00001e-09
-6.24209e-15
-1.54934e-14
-1.00001e-09
-1.54441e-14
-1.00001e-09
-1.93037e-14
-1e-09
-1.63322e-14
-1.00001e-09
-1.18032e-14
-1.00001e-09
-6.2303e-15
-1.00002e-09
-1.00002e-09
-2.62704e-14
-6.917e-15
-9.99979e-10
-2.22885e-14
-6.87086e-15
-9.99989e-10
-1.61872e-14
-6.83872e-15
-9.99997e-10
-8.49963e-15
-6.81457e-15
-1e-09
-6.80552e-15
-1.00001e-09
-2.62831e-14
-1.3113e-14
-9.99982e-10
-2.23075e-14
-1.3088e-14
-9.99991e-10
-1.62009e-14
-1.30562e-14
-1e-09
-8.5265e-15
-1.30321e-14
-1.00001e-09
-1.29952e-14
-1.00001e-09
-2.6256e-14
-1.79383e-14
-9.99986e-10
-2.2278e-14
-1.80041e-14
-9.99996e-10
-1.61789e-14
-1.79748e-14
-1e-09
-8.52167e-15
-1.79375e-14
-1.00001e-09
-1.78922e-14
-1.00001e-09
-2.63095e-14
-2.10461e-14
-9.99993e-10
-2.22533e-14
-2.11382e-14
-1e-09
-1.61436e-14
-2.11167e-14
-1.00001e-09
-8.51972e-15
-2.10705e-14
-1.00002e-09
-2.09859e-14
-1.00002e-09
-2.63331e-14
-1e-09
-2.22329e-14
-1.00001e-09
-1.6099e-14
-1.00002e-09
-8.48627e-15
-1.00002e-09
-1.00003e-09
-3.57866e-14
-9.41011e-15
-9.99971e-10
-3.03857e-14
-9.34274e-15
-9.99985e-10
-2.20847e-14
-9.30738e-15
-9.99996e-10
-1.16225e-14
-9.29164e-15
-1e-09
-9.27414e-15
-1.00001e-09
-3.57995e-14
-1.78236e-14
-9.99975e-10
-3.04193e-14
-1.78044e-14
-9.99988e-10
-2.21202e-14
-1.77592e-14
-1e-09
-1.16531e-14
-1.77149e-14
-1.00001e-09
-1.76584e-14
-1.00001e-09
-3.57806e-14
-2.44711e-14
-9.99982e-10
-3.03776e-14
-2.45009e-14
-9.99995e-10
-2.20797e-14
-2.44411e-14
-1.00001e-09
-1.16399e-14
-2.43734e-14
-1.00001e-09
-2.42872e-14
-1.00002e-09
-3.58013e-14
-2.87018e-14
-9.99991e-10
-3.03218e-14
-2.875e-14
-1e-09
-2.20153e-14
-2.8696e-14
-1.00002e-09
-1.16121e-14
-2.86342e-14
-1.00002e-09
-2.84955e-14
-1.00003e-09
-3.57957e-14
-1e-09
-3.02707e-14
-1.00001e-09
-2.19564e-14
-1.00003e-09
-1.15422e-14
-1.00003e-09
-1.00004e-09
-4.87669e-14
-1.27968e-14
-9.99961e-10
-4.14596e-14
-1.27313e-14
-9.99979e-10
-3.01468e-14
-1.2691e-14
-9.99995e-10
-1.58772e-14
-1.2664e-14
-1.00001e-09
-1.26151e-14
-1.00001e-09
-4.88108e-14
-2.42813e-14
-9.99966e-10
-4.15133e-14
-2.42285e-14
-9.99984e-10
-3.01892e-14
-2.41367e-14
-1e-09
-1.5893e-14
-2.40501e-14
-1.00001e-09
-2.39606e-14
-1.00002e-09
-4.87609e-14
-3.34156e-14
-9.99975e-10
-4.14265e-14
-3.33166e-14
-9.99993e-10
-3.01089e-14
-3.31845e-14
-1.00001e-09
-1.58623e-14
-3.30758e-14
-1.00002e-09
-3.29402e-14
-1.00003e-09
-4.86599e-14
-3.91967e-14
-9.99988e-10
-4.12971e-14
-3.90673e-14
-1.00001e-09
-3.00047e-14
-3.89446e-14
-1.00002e-09
-1.58058e-14
-3.88539e-14
-1.00003e-09
-3.86711e-14
-1.00004e-09
-4.85099e-14
-1e-09
-4.1174e-14
-1.00002e-09
-2.99176e-14
-1.00003e-09
-1.57156e-14
-1.00005e-09
-1.00005e-09
-6.65021e-14
-1.74325e-14
-9.99947e-10
-5.65838e-14
-1.73503e-14
-9.99972e-10
-4.1128e-14
-1.72724e-14
-9.99993e-10
-2.16432e-14
-1.72063e-14
-1.00001e-09
-1.71245e-14
-1.00002e-09
-6.65679e-14
-3.30842e-14
-9.99954e-10
-5.66338e-14
-3.2927e-14
-9.99979e-10
-4.11558e-14
-3.27598e-14
-1e-09
-2.16493e-14
-3.26315e-14
-1.00001e-09
-3.25035e-14
-1.00002e-09
-6.64142e-14
-4.54732e-14
-9.99966e-10
-5.64744e-14
-4.52298e-14
-9.99991e-10
-4.10361e-14
-4.50205e-14
-1.00001e-09
-2.16013e-14
-4.48752e-14
-1.00003e-09
-4.46854e-14
-1.00004e-09
-6.61665e-14
-5.32921e-14
-9.99983e-10
-5.62675e-14
-5.30207e-14
-1.00001e-09
-4.08963e-14
-5.28296e-14
-1.00003e-09
-2.1519e-14
-5.27021e-14
-1.00004e-09
-5.24937e-14
-1.00005e-09
-6.58787e-14
-1e-09
-5.60778e-14
-1.00003e-09
-4.07746e-14
-1.00005e-09
-2.14364e-14
-1.00006e-09
-1.00007e-09
-9.07125e-14
-2.37324e-14
-9.99928e-10
-7.72009e-14
-2.35952e-14
-9.99962e-10
-5.60799e-14
-2.34497e-14
-9.99991e-10
-2.94885e-14
-2.33403e-14
-1.00001e-09
-2.32339e-14
-1.00002e-09
-9.07759e-14
-4.50133e-14
-9.99937e-10
-7.72285e-14
-4.47122e-14
-9.99971e-10
-5.6098e-14
-4.4465e-14
-1e-09
-2.95022e-14
-4.43003e-14
-1.00002e-09
-4.41164e-14
-1.00003e-09
-9.04794e-14
-6.17833e-14
-9.99954e-10
-7.69921e-14
-6.14159e-14
-9.99987e-10
-5.59447e-14
-6.11273e-14
-1.00002e-09
-2.94274e-14
-6.09211e-14
-1.00004e-09
-6.06655e-14
-1.00005e-09
-9.01045e-14
-7.24113e-14
-9.99977e-10
-7.6706e-14
-7.20383e-14
-1.00001e-09
-5.57449e-14
-7.17378e-14
-1.00004e-09
-2.93176e-14
-7.15405e-14
-1.00006e-09
-7.12918e-14
-1.00007e-09
-8.97116e-14
-1e-09
-7.64099e-14
-1.00004e-09
-5.55576e-14
-1.00006e-09
-2.92411e-14
-1.00009e-09
-1.0001e-09
-1.2376e-13
-3.229e-14
-9.99902e-10
-1.05302e-13
-3.20499e-14
-9.99948e-10
-7.64835e-14
-3.18273e-14
-9.99987e-10
-4.02097e-14
-3.16747e-14
-1.00002e-09
-3.15323e-14
-1.00003e-09
-1.23793e-13
-6.12214e-14
-9.99914e-10
-1.05314e-13
-6.07676e-14
-9.9996e-10
-7.65041e-14
-6.04153e-14
-1e-09
-4.02309e-14
-6.01773e-14
-1.00003e-09
-5.9908e-14
-1.00004e-09
-1.23347e-13
-8.40802e-14
-9.99937e-10
-1.04976e-13
-8.35266e-14
-9.99983e-10
-7.62811e-14
-8.30813e-14
-1.00002e-09
-4.01101e-14
-8.27478e-14
-1.00005e-09
-8.23919e-14
-1.00007e-09
-1.22785e-13
-9.87105e-14
-9.99968e-10
-1.04532e-13
-9.80677e-14
-1.00001e-09
-7.59567e-14
-9.75317e-14
-1.00005e-09
-3.99532e-14
-9.71746e-14
-1.00008e-09
-9.6792e-14
-1.0001e-09
-1.22129e-13
-1e-09
-1.04003e-13
-1.00005e-09
-7.5614e-14
-1.00009e-09
-3.98053e-14
-1.00012e-09
-1.00013e-09
-1.68841e-13
-4.39211e-14
-9.99867e-10
-1.4364e-13
-4.35531e-14
-9.9993e-10
-1.04356e-13
-4.32377e-14
-9.99983e-10
-5.48695e-14
-4.30147e-14
-1.00002e-09
-4.2812e-14
-1.00004e-09
-1.68844e-13
-8.3307e-14
-9.99883e-10
-1.43643e-13
-8.26698e-14
-9.99946e-10
-1.04368e-13
-8.2134e-14
-1e-09
-5.48888e-14
-8.17481e-14
-1.00004e-09
-8.13519e-14
-1.00006e-09
-1.68219e-13
-1.14556e-13
-9.99914e-10
-1.43124e-13
-1.13667e-13
-9.99977e-10
-1.04003e-13
-1.1293e-13
-1.00003e-09
-5.46947e-14
-1.12382e-13
-1.00007e-09
-1.11855e-13
-1.00009e-09
-1.67322e-13
-1.34613e-13
-9.99957e-10
-1.4239e-13
-1.33494e-13
-1.00002e-09
-1.03469e-13
-1.32582e-13
-1.00007e-09
-5.444e-14
-1.31945e-13
-1.00011e-09
-1.31325e-13
-1.00013e-09
-1.66194e-13
-1.00001e-09
-1.41486e-13
-1.00007e-09
-1.02851e-13
-1.00012e-09
-5.41392e-14
-1.00016e-09
-1.00018e-09
-2.30363e-13
-5.97909e-14
-9.99819e-10
-1.95987e-13
-5.924e-14
-9.99905e-10
-1.42426e-13
-5.87688e-14
-9.99978e-10
-7.4911e-14
-5.84302e-14
-1.00003e-09
-5.81349e-14
-1.00006e-09
-2.30317e-13
-1.13444e-13
-9.99841e-10
-1.95948e-13
-1.12475e-13
-9.99927e-10
-1.42406e-13
-1.11639e-13
-1e-09
-7.49168e-14
-1.1102e-13
-1.00005e-09
-1.1043e-13
-1.00008e-09
-2.29366e-13
-1.5602e-13
-9.99884e-10
-1.95133e-13
-1.54601e-13
-9.99969e-10
-1.41816e-13
-1.53426e-13
-1.00004e-09
-7.46031e-14
-1.52564e-13
-1.00009e-09
-1.51787e-13
-1.00012e-09
-2.27938e-13
-1.83251e-13
-9.99941e-10
-1.93962e-13
-1.81493e-13
-1.00003e-09
-1.40974e-13
-1.80073e-13
-1.0001e-09
-7.41964e-14
-1.79069e-13
-1.00015e-09
-1.78154e-13
-1.00018e-09
-2.26172e-13
-1.00001e-09
-1.92554e-13
-1.00009e-09
-1.39995e-13
-1.00016e-09
-7.37175e-14
-1.00022e-09
-1.00024e-09
-3.14386e-13
-8.147e-14
-9.99753e-10
-2.67501e-13
-8.06073e-14
-9.99871e-10
-1.94446e-13
-7.98863e-14
-9.99971e-10
-1.02313e-13
-7.93749e-14
-1.00004e-09
-7.89236e-14
-1.00008e-09
-3.14209e-13
-1.54517e-13
-9.99784e-10
-2.67365e-13
-1.52986e-13
-9.99902e-10
-1.94367e-13
-1.51698e-13
-1e-09
-1.02272e-13
-1.50733e-13
-1.00007e-09
-1.49867e-13
-1.00011e-09
-3.12707e-13
-2.12342e-13
-9.99842e-10
-2.66108e-13
-2.10172e-13
-9.99958e-10
-1.93441e-13
-2.0837e-13
-1.00006e-09
-1.01784e-13
-2.07063e-13
-1.00013e-09
-2.05928e-13
-1.00017e-09
-3.10531e-13
-2.49221e-13
-9.9992e-10
-2.64312e-13
-2.46604e-13
-1.00004e-09
-1.9216e-13
-2.44478e-13
-1.00013e-09
-1.01156e-13
-2.42937e-13
-1.00021e-09
-2.41562e-13
-1.00024e-09
-3.07904e-13
-1.00001e-09
-2.62198e-13
-1.00013e-09
-1.90655e-13
-1.00022e-09
-1.00378e-13
-1.00029e-09
-1.00033e-09
-4.29217e-13
-1.11002e-13
-9.99664e-10
-3.65274e-13
-1.09701e-13
-9.99825e-10
-2.65583e-13
-1.08612e-13
-9.99962e-10
-1.39766e-13
-1.07819e-13
-1.00006e-09
-1.07124e-13
-1.00012e-09
-4.28848e-13
-2.10465e-13
-9.99707e-10
-3.64978e-13
-2.08108e-13
-9.99867e-10
-2.65378e-13
-2.06128e-13
-1e-09
-1.39633e-13
-2.04637e-13
-1.0001e-09
-2.03394e-13
-1.00016e-09
-4.26535e-13
-2.88918e-13
-9.99785e-10
-3.63039e-13
-2.85686e-13
-9.99944e-10
-2.63941e-13
-2.82961e-13
-1.00008e-09
-1.38908e-13
-2.80992e-13
-1.00018e-09
-2.79313e-13
-1.00023e-09
-4.23305e-13
-3.38756e-13
-9.99892e-10
-3.60321e-13
-3.34935e-13
-1.00005e-09
-2.6201e-13
-3.31734e-13
-1.00018e-09
-1.37923e-13
-3.29352e-13
-1.00028e-09
-3.27305e-13
-1.00033e-09
-4.19471e-13
-1.00002e-09
-3.5713e-13
-1.00017e-09
-2.59673e-13
-1.00031e-09
-1.36692e-13
-1.0004e-09
-1.00045e-09
-5.86226e-13
-1.51287e-13
-9.99543e-10
-4.99002e-13
-1.49354e-13
-9.99763e-10
-3.62889e-13
-1.47698e-13
-9.99951e-10
-1.90971e-13
-1.46453e-13
-1.00009e-09
-1.45429e-13
-1.00016e-09
-5.85557e-13
-2.86793e-13
-9.99601e-10
-4.98423e-13
-2.83201e-13
-9.9982e-10
-3.62443e-13
-2.80152e-13
-1.00001e-09
-1.90713e-13
-2.77881e-13
-1.00014e-09
-2.76093e-13
-1.00022e-09
-5.82028e-13
-3.93266e-13
-9.99708e-10
-4.95431e-13
-3.8841e-13
-9.99926e-10
-3.60248e-13
-3.84282e-13
-1.00011e-09
-1.89638e-13
-3.81297e-13
-1.00025e-09
-3.78824e-13
-1.00032e-09
-5.77182e-13
-4.60463e-13
-9.99854e-10
-4.91313e-13
-4.54735e-13
-1.00007e-09
-3.5732e-13
-4.49885e-13
-1.00025e-09
-1.8812e-13
-4.46331e-13
-1.00039e-09
-4.43437e-13
-1.00046e-09
-5.71446e-13
-1.00002e-09
-4.8647e-13
-1.00024e-09
-3.53828e-13
-1.00042e-09
-1.86342e-13
-1.00055e-09
-1.00062e-09
-8.00873e-13
-2.06347e-13
-9.99377e-10
-6.81939e-13
-2.0345e-13
-9.99678e-10
-4.96068e-13
-2.00923e-13
-9.99936e-10
-2.61118e-13
-1.99017e-13
-1.00012e-09
-1.97546e-13
-1.00023e-09
-7.99687e-13
-3.91023e-13
-9.99457e-10
-6.80872e-13
-3.85605e-13
-9.99757e-10
-4.95247e-13
-3.80971e-13
-1.00001e-09
-2.60693e-13
-3.77537e-13
-1.0002e-09
-3.74897e-13
-1.0003e-09
-7.94354e-13
-5.35706e-13
-9.99604e-10
-6.76317e-13
-5.28341e-13
-9.99901e-10
-4.91923e-13
-5.22085e-13
-1.00015e-09
-2.59034e-13
-5.17507e-13
-1.00034e-09
-5.13841e-13
-1.00044e-09
-7.87003e-13
-6.26316e-13
-9.99804e-10
-6.7008e-13
-6.17607e-13
-1.0001e-09
-4.8743e-13
-6.10257e-13
-1.00035e-09
-2.5668e-13
-6.04903e-13
-1.00053e-09
-6.0066e-13
-1.00063e-09
-7.78294e-13
-1.00004e-09
-6.62739e-13
-1.00032e-09
-4.82169e-13
-1.00057e-09
-2.53969e-13
-1.00075e-09
-1.00085e-09
-1.09442e-12
-2.8178e-13
-9.99151e-10
-9.32361e-13
-2.77434e-13
-9.99563e-10
-6.78642e-13
-2.73586e-13
-9.99916e-10
-3.57471e-13
-2.70695e-13
-1.00017e-09
-2.68514e-13
-1.00031e-09
-1.09238e-12
-5.33638e-13
-9.99261e-10
-9.30491e-13
-5.25553e-13
-9.99671e-10
-6.77224e-13
-5.18556e-13
-1.00002e-09
-3.56721e-13
-5.13278e-13
-1.00028e-09
-5.09221e-13
-1.00042e-09
-1.08441e-12
-7.30327e-13
-9.99462e-10
-9.23607e-13
-7.19253e-13
-9.99868e-10
-6.72105e-13
-7.09747e-13
-1.00021e-09
-3.54024e-13
-7.02622e-13
-1.00047e-09
-6.97094e-13
-1.0006e-09
-1.07335e-12
-8.52427e-13
-9.99736e-10
-9.14136e-13
-8.39333e-13
-1.00014e-09
-6.65111e-13
-8.28144e-13
-1.00048e-09
-3.50314e-13
-8.19833e-13
-1.00073e-09
-8.13457e-13
-1.00086e-09
-1.06027e-12
-1.00005e-09
-9.02975e-13
-1.00045e-09
-6.56941e-13
-1.00078e-09
-3.46055e-13
-1.00103e-09
-1.00116e-09
-1.49606e-12
-3.85512e-13
-9.9884e-10
-1.27554e-12
-3.78934e-13
-9.99405e-10
-9.29487e-13
-3.73047e-13
-9.99889e-10
-4.90114e-13
-3.68499e-13
-1.00024e-09
-3.6507e-13
-1.00044e-09
-1.49259e-12
-7.29466e-13
-9.98992e-10
-1.27233e-12
-7.1739e-13
-9.99553e-10
-9.26939e-13
-7.06671e-13
-1.00003e-09
-4.88656e-13
-6.98319e-13
-1.00039e-09
-6.91995e-13
-1.00058e-09
-1.48065e-12
-9.9679e-13
-9.9927e-10
-1.26177e-12
-9.80211e-13
-9.99824e-10
-9.18821e-13
-9.6564e-13
-1.0003e-09
-4.84233e-13
-9.54527e-13
-1.00065e-09
-9.46168e-13
-1.00084e-09
-1.46407e-12
-1.16098e-12
-9.99647e-10
-1.24726e-12
-1.14129e-12
-1.00019e-09
-9.07915e-13
-1.12429e-12
-1.00066e-09
-4.78415e-13
-1.11152e-12
-1.001e-09
-1.10206e-12
-1.00118e-09
-1.44442e-12
-1.00008e-09
-1.23034e-12
-1.00062e-09
-8.9539e-13
-1.00107e-09
-4.71896e-13
-1.00141e-09
-1.00159e-09
-2.04561e-12
-5.28453e-13
-9.98413e-10
-1.7464e-12
-5.18538e-13
-9.99185e-10
-1.27501e-12
-5.09315e-13
-9.99851e-10
-6.73285e-13
-5.01824e-13
-1.00035e-09
-4.96293e-13
-1.00062e-09
-2.03985e-12
-9.99438e-13
-9.98623e-10
-1.74076e-12
-9.81268e-13
-9.99389e-10
-1.27024e-12
-9.6453e-13
-1.00005e-09
-6.70486e-13
-9.51074e-13
-1.00054e-09
-9.41101e-13
-1.0008e-09
-2.02183e-12
-1.36265e-12
-9.99009e-10
-1.72425e-12
-1.33779e-12
-9.99766e-10
-1.25714e-12
-1.31543e-12
-1.00041e-09
-6.63207e-13
-1.29801e-12
-1.00089e-09
-1.28511e-12
-1.00115e-09
-1.99696e-12
-1.5829e-12
-9.99528e-10
-1.702e-12
-1.55347e-12
-1.00027e-09
-1.24007e-12
-1.52788e-12
-1.00091e-09
-6.539e-13
-1.50834e-12
-1.00138e-09
-1.49403e-12
-1.00163e-09
-1.96767e-12
-1.00012e-09
-1.67662e-12
-1.00085e-09
-1.22099e-12
-1.00148e-09
-6.43736e-13
-1.00193e-09
-1.00218e-09
-2.79743e-12
-7.25901e-13
-9.97823e-10
-2.39319e-12
-7.10818e-13
-9.98879e-10
-1.75285e-12
-6.95917e-13
-9.99796e-10
-9.2787e-13
-6.83257e-13
-1.00049e-09
-6.7408e-13
-1.00087e-09
-2.78787e-12
-1.37354e-12
-9.98112e-10
-2.38307e-12
-1.34613e-12
-9.99159e-10
-1.74389e-12
-1.31974e-12
-1.00006e-09
-9.22526e-13
-1.29749e-12
-1.00074e-09
-1.28096e-12
-1.00112e-09
-2.76063e-12
-1.86647e-12
-9.98654e-10
-2.35696e-12
-1.82942e-12
-9.99686e-10
-1.72221e-12
-1.79508e-12
-1.00057e-09
-9.09891e-13
-1.76702e-12
-1.00124e-09
-1.74636e-12
-1.0016e-09
-2.72355e-12
-2.1617e-12
-9.99371e-10
-2.32278e-12
-2.1184e-12
-1.00038e-09
-1.69481e-12
-2.08021e-12
-1.00125e-09
-8.94436e-13
-2.04988e-12
-1.00189e-09
-2.02779e-12
-1.00224e-09
-2.68076e-12
-1.0002e-09
-2.28508e-12
-1.00119e-09
-1.6654e-12
-1.00204e-09
-8.78287e-13
-1.00266e-09
-1.003e-09
-3.82574e-12
-9.98959e-13
-9.96998e-10
-3.28289e-12
-9.75271e-13
-9.98447e-10
-2.41849e-12
-9.5044e-13
-9.9971e-10
-1.28539e-12
-9.28272e-13
-1.00069e-09
-9.12104e-13
-1.00124e-09
-3.80926e-12
-1.8968e-12
-9.97393e-10
-3.2643e-12
-1.85542e-12
-9.98824e-10
-2.40141e-12
-1.8133e-12
-1.00006e-09
-1.27477e-12
-1.77456e-12
-1.00102e-09
-1.74521e-12
-1.00156e-09
-3.76824e-12
-2.56305e-12
-9.98172e-10
-3.2225e-12
-2.50775e-12
-9.9958e-10
-2.3636e-12
-2.45413e-12
-1.00079e-09
-1.25121e-12
-2.40715e-12
-1.00172e-09
-2.37273e-12
-1.00222e-09
-3.71286e-12
-2.961e-12
-9.99164e-10
-3.16892e-12
-2.89807e-12
-1.00054e-09
-2.31797e-12
-2.84227e-12
-1.00171e-09
-1.22463e-12
-2.79432e-12
-1.0026e-09
-2.75936e-12
-1.00308e-09
-3.65193e-12
-1.00033e-09
-3.11426e-12
-1.00168e-09
-2.27214e-12
-1.00283e-09
-1.1983e-12
-1.00369e-09
-1.00414e-09
-5.2333e-12
-1.37358e-12
-9.95827e-10
-4.50849e-12
-1.33419e-12
-9.97838e-10
-3.35716e-12
-1.29045e-12
-9.99571e-10
-1.79506e-12
-1.24967e-12
-1.001e-09
-1.21998e-12
-1.00182e-09
-5.20333e-12
-2.64258e-12
-9.96339e-10
-4.47267e-12
-2.57868e-12
-9.9831e-10
-3.32358e-12
-2.51057e-12
-9.99994e-10
-1.77383e-12
-2.43893e-12
-1.00139e-09
-2.38224e-12
-1.00217e-09
-5.14123e-12
-3.52861e-12
-9.97525e-10
-4.405e-12
-3.44308e-12
-9.99452e-10
-3.25332e-12
-3.35654e-12
-1.0011e-09
-1.72585e-12
-3.27391e-12
-1.00241e-09
-3.21411e-12
-1.00312e-09
-5.05559e-12
-4.0797e-12
-9.98871e-10
-4.31759e-12
-3.98906e-12
-1.00073e-09
-3.17368e-12
-3.91189e-12
-1.0023e-09
-1.67871e-12
-3.83332e-12
-1.00353e-09
-3.77464e-12
-1.0042e-09
-4.9732e-12
-1.00058e-09
-4.24341e-12
-1.00241e-09
-3.10058e-12
-1.00398e-09
-1.63232e-12
-1.00515e-09
-1.00575e-09
-7.16992e-12
-1.8696e-12
-9.94117e-10
-6.19546e-12
-1.79803e-12
-9.97014e-10
-4.70772e-12
-1.71686e-12
-9.99342e-10
-2.53748e-12
-1.64011e-12
-1.00153e-09
-1.58528e-12
-1.00277e-09
-7.10911e-12
-3.74584e-12
-9.94659e-10
-6.11943e-12
-3.63893e-12
-9.97459e-10
-4.64111e-12
-3.53095e-12
-9.99658e-10
-2.49798e-12
-3.38965e-12
-1.00178e-09
-3.26873e-12
-1.00299e-09
-7.01407e-12
-4.85354e-12
-9.96697e-10
-6.01515e-12
-4.70706e-12
-9.99383e-10
-4.50095e-12
-4.55876e-12
-1.00158e-09
-2.38727e-12
-4.40415e-12
-1.00351e-09
-4.29941e-12
-1.00447e-09
-6.86784e-12
-5.68984e-12
-9.98377e-10
-5.86031e-12
-5.55498e-12
-1.00089e-09
-4.35315e-12
-5.464e-12
-1.0029e-09
-2.3054e-12
-5.32632e-12
-1.00466e-09
-5.21891e-12
-1.00558e-09
-6.76937e-12
-1.00109e-09
-5.77933e-12
-1.00358e-09
-4.23193e-12
-1.0057e-09
-2.20951e-12
-1.00735e-09
-1.00805e-09
-9.87478e-12
-2.49791e-12
-9.9145e-10
-8.48527e-12
-2.36002e-12
-9.96044e-10
-6.71397e-12
-2.216e-12
-9.98897e-10
-3.64848e-12
-2.07073e-12
-1.00253e-09
-1.96252e-12
-1.00446e-09
-9.73594e-12
-5.49001e-12
-9.91572e-10
-8.29985e-12
-5.26769e-12
-9.95988e-10
-6.58723e-12
-5.1093e-12
-9.98477e-10
-3.59422e-12
-4.80857e-12
-1.00203e-09
-4.52792e-12
-1.00402e-09
-9.58924e-12
-6.61655e-12
-9.95796e-10
-8.18929e-12
-6.3368e-12
-9.99713e-10
-6.28353e-12
-6.09609e-12
-1.0025e-09
-3.29173e-12
-5.79381e-12
-1.00551e-09
-5.60037e-12
-1.00669e-09
-9.28644e-12
-8.13729e-12
-9.97248e-10
-7.86497e-12
-7.89681e-12
-1.00075e-09
-5.99095e-12
-7.85062e-12
-1.00302e-09
-3.18455e-12
-7.58091e-12
-1.00568e-09
-7.36496e-12
-1.007e-09
-9.21742e-12
-1.00224e-09
-7.8661e-12
-1.00571e-09
-5.77927e-12
-1.00852e-09
-2.91555e-12
-1.01096e-09
-1.01136e-09
-1.37424e-11
-3.32748e-12
-9.86869e-10
-1.14946e-11
-3.03318e-12
-9.95259e-10
-9.83798e-12
-2.79306e-12
-9.97761e-10
-5.35959e-12
-2.51494e-12
-1.00449e-09
-2.28022e-12
-1.00754e-09
-1.3427e-11
-8.44935e-12
-9.85314e-10
-1.10436e-11
-7.79634e-12
-9.93608e-10
-9.62592e-12
-7.61381e-12
-9.95074e-10
-5.37043e-12
-6.91175e-12
-1.00189e-09
-6.22879e-12
-1.00544e-09
-1.31854e-11
-9.03901e-12
-9.95072e-10
-1.10328e-11
-8.46041e-12
-1.0012e-09
-8.89878e-12
-8.1649e-12
-1.00409e-09
-4.43232e-12
-7.54238e-12
-1.00935e-09
-7.10472e-12
-1.01025e-09
-1.24647e-11
-1.21872e-11
-9.94233e-10
-1.02597e-11
-1.15266e-11
-9.9989e-10
-8.30434e-12
-1.17747e-11
-1.00137e-09
-4.47658e-12
-1.1157e-11
-1.00589e-09
-1.06981e-11
-1.00789e-09
-1.2634e-11
-1.00484e-09
-1.06789e-11
-1.0102e-09
-7.9075e-12
-1.01344e-09
-3.56306e-12
-1.0177e-09
-1.01598e-09
-1.92367e-11
-4.5308e-12
-9.78562e-10
-1.55692e-11
-3.80659e-12
-9.9512e-10
-1.49451e-11
-3.43967e-12
-9.94946e-10
-8.07589e-12
-2.89928e-12
-1.00846e-09
-2.36778e-12
-1.01324e-09
-1.8505e-11
-1.35978e-11
-9.72801e-10
-1.4638e-11
-1.15549e-11
-9.89727e-10
-1.46611e-11
-1.15519e-11
-9.86939e-10
-8.51194e-12
-9.84832e-12
-1.00109e-09
-8.10099e-12
-1.00822e-09
-1.81979e-11
-1.2697e-11
-9.94978e-10
-1.46703e-11
-1.14005e-11
-1.00488e-09
-1.28351e-11
-1.1203e-11
-1.00627e-09
-5.78797e-12
-9.85597e-12
-1.01639e-09
-8.69392e-12
-1.01544e-09
-1.64753e-11
-1.94804e-11
-9.86838e-10
-1.29897e-11
-1.70979e-11
-9.97679e-10
-1.16508e-11
-1.85869e-11
-9.95325e-10
-6.51997e-12
-1.69406e-11
-1.00394e-09
-1.60028e-11
-1.0071e-09
-1.78055e-11
-1.01022e-09
-1.42021e-11
-1.02036e-09
-1.08028e-11
-1.02177e-09
-3.57861e-12
-1.03114e-09
-1.02182e-09
-2.6747e-11
-6.48501e-12
-9.6309e-10
-2.15682e-11
-4.5493e-12
-9.9575e-10
-2.35402e-11
-4.04845e-12
-9.88925e-10
-1.28998e-11
-2.99153e-12
-1.01611e-09
-1.85671e-12
-1.02429e-09
-2.49155e-11
-2.27005e-11
-9.49092e-10
-1.97057e-11
-1.70707e-11
-9.82416e-10
-2.33594e-11
-1.76833e-11
-9.69651e-10
-1.47468e-11
-1.35923e-11
-9.99105e-10
-9.09353e-12
-1.01573e-09
-2.49248e-11
-1.85152e-11
-9.96964e-10
-1.95052e-11
-1.58658e-11
-1.01151e-09
-1.87575e-11
-1.58702e-11
-1.00883e-09
-7.30027e-12
-1.31174e-11
-1.02832e-09
-9.72059e-12
-1.02212e-09
-2.05919e-11
-3.3349e-11
-9.70717e-10
-1.60207e-11
-2.5733e-11
-9.92383e-10
-1.64677e-11
-3.10004e-11
-9.79747e-10
-1.01722e-11
-2.6544e-11
-9.96807e-10
-2.47486e-11
-1.00224e-09
-2.64578e-11
-1.01997e-09
-1.87543e-11
-1.04321e-09
-1.45553e-11
-1.03589e-09
-1.43412e-12
-1.05889e-09
-1.02755e-09
-3.67955e-11
-1.05425e-11
-9.32761e-10
-3.12366e-11
-4.98754e-12
-9.96321e-10
-3.81456e-11
-4.25117e-12
-9.77765e-10
-2.18939e-11
-2.37917e-12
-1.02998e-09
1.00402e-13
-1.04628e-09
-3.24272e-11
-3.94419e-11
-9.05823e-10
-2.74128e-11
-2.5204e-11
-9.67214e-10
-3.99879e-11
-2.72139e-11
-9.34113e-10
-2.90697e-11
-1.76527e-11
-9.9475e-10
-5.92123e-12
-1.03878e-09
-3.31418e-11
-2.76194e-11
-1.00646e-09
-2.54981e-11
-2.40094e-11
-1.02035e-09
-2.71696e-11
-2.34273e-11
-1.01095e-09
-8.22276e-12
-1.84704e-11
-1.04645e-09
-8.26865e-12
-1.02799e-09
-2.30827e-11
-6.12048e-11
-9.35857e-10
-1.89364e-11
-4.05402e-11
-9.79998e-10
-2.36237e-11
-5.38873e-11
-9.446e-10
-1.74137e-11
-4.32807e-11
-9.78206e-10
-3.97932e-11
-9.88132e-10
-4.25311e-11
-1.03585e-09
-2.44759e-11
-1.09478e-09
-1.84108e-11
-1.06131e-09
8.29497e-12
-1.11847e-09
-1.02737e-09
-5.72641e-11
-2.24457e-11
-8.55073e-10
-5.37049e-11
-7.50044e-13
-9.99131e-10
-7.12107e-11
1.88213e-12
-9.62141e-10
-3.96384e-11
1.18611e-11
-1.07342e-09
1.2003e-11
-1.09792e-09
-4.41806e-11