/*--------------------------------*- C++ -*----------------------------------*\
| =========                 |                                                 |
| \\      /  F ield         | OpenFOAM: The Open Source CFD Toolbox           |
|  \\    /   O peration     | Version:  5.x                                   |
|   \\  /    A nd           | Web:      www.OpenFOAM.org                      |
|    \\/     M anipulation  |                                                 |
\*---------------------------------------------------------------------------*/
FoamFile
{
    version     2.0;
    format      ascii;
    class       volScalarField;
    location    "0.07";
    object      p;
}
// * * * * * * * * * * * * * * * * * * * * * * * * * * * * * * * * * * * * * //

dimensions      [0 2 -2 0 0 0 0];

internalField   nonuniform List<scalar> 
2250
(
4.15084e-11
9.47256e-12
-3.13907e-11
-4.02088e-11
1.70589e-11
4.35394e-11
2.97251e-11
-5.78356e-12
-1.98885e-11
7.67762e-12
5.00996e-11
3.62757e-11
1.05209e-11
-1.63435e-11
3.27548e-12
4.55189e-11
4.13597e-11
1.59814e-11
3.05651e-12
2.43393e-11
4.20282e-11
3.4754e-11
1.31715e-11
1.40181e-11
4.13727e-11
1.54866e-10
6.83514e-11
-4.69061e-11
-1.16939e-10
-1.0761e-10
1.57683e-10
1.1845e-10
1.73428e-11
-5.39874e-11
-5.7156e-11
1.47912e-10
1.13357e-10
2.38445e-11
-5.44674e-11
-4.48806e-11
1.33144e-10
9.03836e-11
2.02859e-11
-2.42963e-11
1.04023e-11
1.02571e-10
6.46945e-11
7.4703e-12
-4.72513e-12
5.03768e-11
3.77409e-10
2.67904e-10
8.05338e-11
-1.26487e-10
-3.98526e-10
3.62552e-10
2.68861e-10
1.14148e-10
-4.92516e-11
-2.18291e-10
2.93971e-10
2.12093e-10
6.22548e-11
-7.23358e-11
-1.46278e-10
2.1204e-10
1.30618e-10
1.74862e-11
-5.92445e-11
-6.18665e-11
1.46207e-10
7.08057e-11
-9.85799e-13
-3.70858e-11
-3.89861e-12
7.38242e-10
6.2839e-10
3.92231e-10
7.16731e-11
-4.00442e-10
6.23829e-10
5.1583e-10
2.93196e-10
5.73341e-11
-2.25759e-10
4.68318e-10
3.51507e-10
1.57582e-10
-9.87776e-12
-1.55416e-10
3.10776e-10
2.02928e-10
6.55128e-11
-3.50205e-11
-9.85257e-11
2.0985e-10
1.23746e-10
4.02879e-11
-3.26728e-11
-6.9014e-11
1.16341e-09
1.0403e-09
7.72731e-10
4.55782e-10
9.24647e-11
9.39955e-10
8.02231e-10
5.56672e-10
3.23325e-10
9.64921e-11
6.83213e-10
5.54462e-10
3.539e-10
1.77839e-10
2.54923e-11
4.71345e-10
3.61834e-10
2.10749e-10
7.81685e-11
-4.14691e-11
3.52114e-10
2.69461e-10
1.5551e-10
3.17522e-11
-7.42372e-11
1.53079e-09
1.38858e-09
1.1237e-09
8.80744e-10
7.28712e-10
1.23372e-09
1.10548e-09
8.71417e-10
6.76712e-10
5.55343e-10
9.37137e-10
8.14128e-10
6.13245e-10
4.29223e-10
2.89245e-10
6.92922e-10
5.83111e-10
4.13977e-10
2.38282e-10
8.65119e-11
5.63359e-10
4.76488e-10
3.14745e-10
1.41368e-10
-7.85282e-12
1.81408e-09
1.68165e-09
1.45968e-09
1.25587e-09
1.09194e-09
1.48917e-09
1.37644e-09
1.17156e-09
9.85694e-10
8.25389e-10
1.18096e-09
1.06151e-09
8.59417e-10
6.43984e-10
4.60437e-10
9.20301e-10
8.08293e-10
6.07579e-10
3.80595e-10
1.84609e-10
7.88154e-10
6.82696e-10
4.69116e-10
2.48216e-10
4.68295e-11
2.03411e-09
1.93984e-09
1.78386e-09
1.57603e-09
1.22825e-09
1.68648e-09
1.58468e-09
1.40444e-09
1.17919e-09
8.67677e-10
1.36873e-09
1.2581e-09
1.04302e-09
7.80046e-10
5.06708e-10
1.11444e-09
9.97818e-10
7.55915e-10
4.83291e-10
2.13932e-10
9.82227e-10
8.50525e-10
6.03157e-10
3.37712e-10
5.85106e-11
2.20355e-09
2.15298e-09
2.04411e-09
1.83418e-09
1.42413e-09
1.82791e-09
1.74087e-09
1.56749e-09
1.31265e-09
9.53753e-10
1.50498e-09
1.40492e-09
1.18251e-09
9.05866e-10
6.05876e-10
1.26532e-09
1.1504e-09
8.89339e-10
6.06658e-10
2.94451e-10
1.13408e-09
9.8832e-10
7.43816e-10
4.5872e-10
1.29279e-10
2.35955e-09
2.31688e-09
2.21624e-09
2.04342e-09
1.82968e-09
1.94423e-09
1.86778e-09
1.70941e-09
1.50422e-09
1.29599e-09
1.60276e-09
1.51964e-09
1.33247e-09
1.11018e-09
8.96253e-10
1.36893e-09
1.27059e-09
1.04229e-09
8.07585e-10
5.34608e-10
1.23086e-09
1.09497e-09
8.99015e-10
6.51663e-10
3.55019e-10
2.53677e-09
2.47007e-09
2.38957e-09
2.3182e-09
2.41799e-09
2.05616e-09
1.9977e-09
1.89441e-09
1.80738e-09
1.81066e-09
1.66473e-09
1.60635e-09
1.49933e-09
1.37796e-09
1.28732e-09
1.39101e-09
1.31608e-09
1.17818e-09
1.04577e-09
8.73165e-10
1.21567e-09
1.12022e-09
1.01921e-09
8.73334e-10
6.89425e-10
2.81816e-09
2.75568e-09
2.71814e-09
2.72795e-09
2.96108e-09
2.20217e-09
2.16687e-09
2.13039e-09
2.14388e-09
2.25522e-09
1.66795e-09
1.62552e-09
1.61096e-09
1.59732e-09
1.60185e-09
1.26225e-09
1.21635e-09
1.20883e-09
1.20592e-09
1.16135e-09
1.02032e-09
9.97995e-10
1.01797e-09
1.00575e-09
9.83402e-10
3.30737e-09
3.26079e-09
3.20407e-09
3.18928e-09
3.31063e-09
2.37269e-09
2.33315e-09
2.33809e-09
2.40456e-09
2.52675e-09
1.54697e-09
1.50916e-09
1.58083e-09
1.67099e-09
1.75819e-09
9.31421e-10
9.29978e-10
1.05381e-09
1.17172e-09
1.26663e-09
6.21563e-10
6.7893e-10
8.03964e-10
9.14636e-10
1.05383e-09
3.87845e-09
3.79046e-09
3.68515e-09
3.66889e-09
3.70689e-09
2.44098e-09
2.37849e-09
2.43755e-09
2.56574e-09
2.68968e-09
1.23483e-09
1.21695e-09
1.37041e-09
1.55449e-09
1.71474e-09
4.01891e-10
4.51419e-10
6.62065e-10
8.59271e-10
1.06226e-09
2.97654e-11
1.31287e-10
3.12262e-10
5.03466e-10
7.33654e-10
4.23508e-09
4.11437e-09
4.09258e-09
4.18849e-09
4.23198e-09
2.29947e-09
2.26188e-09
2.4181e-09
2.60735e-09
2.69948e-09
7.35125e-10
7.68148e-10
9.81156e-10
1.2091e-09
1.37887e-09
-2.95804e-10
-2.13994e-10
1.42322e-11
2.29632e-10
4.59535e-10
-7.55146e-10
-6.5422e-10
-4.71389e-10
-2.57329e-10
-3.29388e-11
4.36581e-09
4.33027e-09
4.49554e-09
4.63587e-09
4.51549e-09
2.01365e-09
2.0627e-09
2.28513e-09
2.44452e-09
2.3959e-09
1.02991e-10
1.94305e-10
4.06489e-10
5.90577e-10
6.70024e-10
-1.17086e-09
-1.08255e-09
-9.01608e-10
-7.26647e-10
-5.53275e-10
-1.78018e-09
-1.69834e-09
-1.55596e-09
-1.3721e-09
-1.19846e-09
4.56839e-09
4.67428e-09
4.92655e-09
4.96294e-09
4.60013e-09
1.69245e-09
1.81861e-09
2.0018e-09
2.04592e-09
1.83832e-09
-6.93454e-10
-5.71522e-10
-4.30739e-10
-3.54511e-10
-4.0938e-10
-2.35933e-09
-2.27704e-09
-2.18333e-09
-2.08385e-09
-2.00965e-09
-3.2118e-09
-3.14729e-09
-3.06635e-09
-2.94194e-09
-2.8202e-09
4.99772e-09
5.16726e-09
5.33598e-09
5.28275e-09
4.94535e-09
1.25448e-09
1.39179e-09
1.466e-09
1.41331e-09
1.18912e-09
-1.90081e-09
-1.78776e-09
-1.7449e-09
-1.77027e-09
-1.89774e-09
-4.20013e-09
-4.12361e-09
-4.11167e-09
-4.08674e-09
-4.10829e-09
-5.41857e-09
-5.36368e-09
-5.33007e-09
-5.264e-09
-5.2105e-09
5.52138e-09
5.64915e-09
5.66209e-09
5.58533e-09
5.43666e-09
3.94074e-10
4.89855e-10
4.71413e-10
3.78037e-10
2.19559e-10
-3.97826e-09
-3.8929e-09
-3.90446e-09
-3.97121e-09
-4.09386e-09
-7.22495e-09
-7.14292e-09
-7.15049e-09
-7.15336e-09
-7.22442e-09
-8.96083e-09
-8.89808e-09
-8.85701e-09
-8.80403e-09
-8.80196e-09
5.92218e-09
5.96606e-09
5.86289e-09
5.74366e-09
5.65951e-09
-1.29421e-09
-1.24595e-09
-1.29863e-09
-1.41604e-09
-1.56475e-09
-7.48865e-09
-7.4131e-09
-7.39459e-09
-7.42623e-09
-7.50733e-09
-1.20736e-08
-1.19633e-08
-1.18893e-08
-1.1814e-08
-1.1825e-08
-1.45169e-08
-1.44157e-08
-1.42775e-08
-1.41246e-08
-1.40484e-08
6.01185e-09
5.95871e-09
5.77499e-09
5.5115e-09
5.30027e-09
-4.23218e-09
-4.20909e-09
-4.25064e-09
-4.40045e-09
-4.55741e-09
-1.30278e-08
-1.29199e-08
-1.27882e-08
-1.26991e-08
-1.26625e-08
-1.947e-08
-1.92956e-08
-1.90247e-08
-1.87182e-08
-1.84996e-08
-2.28846e-08
-2.26959e-08
-2.23456e-08
-2.19326e-08
-2.15811e-08
5.60025e-09
5.42546e-09
5.12122e-09
4.54731e-09
3.92818e-09
-8.88207e-09
-8.84834e-09
-8.83936e-09
-9.00307e-09
-9.19503e-09
-2.12854e-08
-2.10863e-08
-2.07439e-08
-2.04171e-08
-2.01629e-08
-3.03188e-08
-3.00082e-08
-2.94051e-08
-2.86987e-08
-2.80557e-08
-3.50906e-08
-3.47251e-08
-3.40191e-08
-3.31514e-08
-3.22756e-08
4.51708e-09
4.29065e-09
3.86783e-09
2.95945e-09
1.74312e-09
-1.58081e-08
-1.56866e-08
-1.55121e-08
-1.55575e-08
-1.58575e-08
-3.32018e-08
-3.27978e-08
-3.20621e-08
-3.13039e-08
-3.07278e-08
-4.58705e-08
-4.52727e-08
-4.41356e-08
-4.27953e-08
-4.15144e-08
-5.25559e-08
-5.1853e-08
-5.05484e-08
-4.89285e-08
-4.72885e-08
2.61098e-09
2.51667e-09
2.15753e-09
1.15351e-09
-6.10998e-10
-2.58312e-08
-2.54308e-08
-2.47969e-08
-2.44247e-08
-2.46474e-08
-5.01863e-08
-4.93372e-08
-4.78652e-08
-4.63041e-08
-4.51061e-08
-6.79616e-08
-6.68098e-08
-6.47576e-08
-6.2332e-08
-6.00795e-08
-7.73475e-08
-7.60302e-08
-7.36651e-08
-7.08139e-08
-6.8077e-08
-4.81676e-10
-1.55246e-10
1.50937e-11
-7.36815e-10
-2.9001e-09
-4.02816e-08
-3.92061e-08
-3.75665e-08
-3.62421e-08
-3.58591e-08
-7.44261e-08
-7.27166e-08
-6.98785e-08
-6.67808e-08
-6.4303e-08
-9.94205e-08
-9.72825e-08
-9.35751e-08
-8.92261e-08
-8.52304e-08
-1.12627e-07
-1.1024e-07
-1.06055e-07
-1.01106e-07
-9.63727e-08
-5.4175e-09
-4.11168e-09
-2.5794e-09
-2.34403e-09
-4.36061e-09
-6.1267e-08
-5.88962e-08
-5.5283e-08
-5.19258e-08
-5.01418e-08
-1.09363e-07
-1.06136e-07
-1.00753e-07
-9.47725e-08
-8.98357e-08
-1.44664e-07
-1.40821e-07
-1.34162e-07
-1.26378e-07
-1.19121e-07
-1.63314e-07
-1.59137e-07
-1.51848e-07
-1.43144e-07
-1.34718e-07
-1.33724e-08
-1.01644e-08
-5.73423e-09
-2.83527e-09
-3.78522e-09
-9.21983e-08
-8.75148e-08
-8.00705e-08
-7.26508e-08
-6.80388e-08
-1.60336e-07
-1.54428e-07
-1.44389e-07
-1.33169e-07
-1.23687e-07
-2.10401e-07
-2.03607e-07
-1.91779e-07
-1.77888e-07
-1.64874e-07
-2.36862e-07
-2.29639e-07
-2.16909e-07
-2.01616e-07
-1.86823e-07
-2.69472e-08
-2.00052e-08
-9.57874e-09
-1.11233e-09
4.52862e-10
-1.38547e-07
-1.29548e-07
-1.14814e-07
-9.97843e-08
-8.96944e-08
-2.35385e-07
-2.24652e-07
-2.06289e-07
-1.8575e-07
-1.68244e-07
-3.06572e-07
-2.94666e-07
-2.73817e-07
-2.49374e-07
-2.26603e-07
-3.44249e-07
-3.31766e-07
-3.09571e-07
-2.83066e-07
-2.57592e-07
-5.08561e-08
-3.63947e-08
-1.40964e-08
5.43525e-09
1.27534e-08
-2.08803e-07
-1.91732e-07
-1.63523e-07
-1.34499e-07
-1.14304e-07
-3.4672e-07
-3.27401e-07
-2.94279e-07
-2.57404e-07
-2.26225e-07
-4.48093e-07
-4.2745e-07
-3.90963e-07
-3.48674e-07
-3.09819e-07
-5.01862e-07
-4.80495e-07
-4.42121e-07
-3.96968e-07
-3.54048e-07
-9.33589e-08
-6.43849e-08
-1.9032e-08
2.26675e-08
4.20995e-08
-3.16351e-07
-2.84596e-07
-2.31746e-07
-1.7714e-07
-1.38958e-07
-5.13569e-07
-4.79152e-07
-4.19793e-07
-3.54474e-07
-3.00442e-07
-6.57843e-07
-6.22571e-07
-5.59073e-07
-4.8694e-07
-4.22004e-07
-7.34697e-07
-6.98839e-07
-6.32866e-07
-5.57107e-07
-4.86161e-07
-1.70918e-07
-1.13931e-07
-2.34883e-08
6.18094e-08
1.0512e-07
-4.82418e-07
-4.24504e-07
-3.267e-07
-2.25704e-07
-1.56783e-07
-7.67106e-07
-7.0597e-07
-5.9961e-07
-4.84701e-07
-3.93602e-07
-9.70771e-07
-9.12023e-07
-8.01491e-07
-6.79826e-07
-5.73733e-07
-1.08102e-06
-1.02257e-06
-9.08578e-07
-7.8295e-07
-6.68009e-07
-3.1921e-07
-2.06597e-07
-2.67088e-08
1.44564e-07
2.32549e-07
-7.38258e-07
-6.35529e-07
-4.56593e-07
-2.71555e-07
-1.5391e-07
-1.16031e-06
-1.05047e-06
-8.58667e-07
-6.55337e-07
-5.08765e-07
-1.43971e-06
-1.3451e-06
-1.15179e-06
-9.4839e-07
-7.82249e-07
-1.60018e-06
-1.50684e-06
-1.30773e-06
-1.10201e-06
-9.22644e-07
-6.12134e-07
-3.89849e-07
-3.26812e-08
3.14626e-07
4.7995e-07
-1.12941e-06
-9.509e-07
-6.27717e-07
-2.87257e-07
-1.05943e-07
-1.78589e-06
-1.58417e-06
-1.23732e-06
-8.64734e-07
-6.5272e-07
-2.14183e-06
-1.99565e-06
-1.65808e-06
-1.31813e-06
-1.07919e-06
-2.38599e-06
-2.23648e-06
-1.88839e-06
-1.54948e-06
-1.29177e-06
-1.1742e-06
-7.42938e-07
-5.1473e-08
6.6201e-07
9.47733e-07
-1.74782e-06
-1.42956e-06
-8.47041e-07
-2.0993e-07
4.28575e-08
-2.79324e-06
-2.41924e-06
-1.80764e-06
-1.09137e-06
-8.22902e-07
-3.19276e-06
-2.97361e-06
-2.39097e-06
-1.82311e-06
-1.50639e-06
-3.58645e-06
-3.34627e-06
-2.74079e-06
-2.17173e-06
-1.83815e-06
-2.20975e-06
-1.37613e-06
-8.22452e-08
1.37374e-06
1.84371e-06
-2.78744e-06
-2.20114e-06
-1.13801e-06
6.70141e-08
4.39357e-07
-4.41975e-06
-3.71033e-06
-2.67916e-06
-1.28532e-06
-9.7811e-07
-4.80079e-06
-4.45057e-06
-3.44288e-06
-2.52148e-06
-2.10771e-06
-5.42463e-06
-5.06028e-06
-3.99045e-06
-3.05639e-06
-2.64514e-06
-4.0551e-06
-2.41441e-06
-5.80352e-08
2.891e-06
3.68229e-06
-4.6095e-06
-3.51647e-06
-1.49319e-06
7.77679e-07
1.49256e-06
-7.04316e-06
-5.60743e-06
-3.97668e-06
-1.2825e-06
-9.5929e-07
-7.20994e-06
-6.69038e-06
-4.83349e-06
-3.43876e-06
-2.93971e-06
-8.29671e-06
-7.6212e-06
-5.76759e-06
-4.30349e-06
-3.84538e-06
-6.92328e-06
-3.70999e-06
1.08784e-06
7.85155e-06
9.32073e-06
-7.86498e-06
-5.78934e-06
-1.05979e-06
3.46625e-06
5.0396e-06
-1.06889e-05
-7.75149e-06
-5.44969e-06
8.53728e-08
4.52208e-08
-9.17963e-06
-9.37334e-06
-5.60808e-06
-3.70948e-06
-3.84219e-06
-1.19432e-05
-1.09768e-05
-8.12268e-06
-5.08101e-06
-5.55968e-06
-1.68493e-05
-1.12728e-05
-2.68417e-06
6.74393e-06
1.34191e-05
-1.68681e-05
-1.33955e-05
-6.73166e-06
1.51202e-06
8.38049e-06
-2.16115e-05
-1.79899e-05
-1.09611e-05
-5.385e-06
-1.0092e-06
-1.97183e-05
-1.80901e-05
-1.08402e-05
-1.01862e-05
-7.54666e-06
-2.38264e-05
-2.18341e-05
-1.40015e-05
-1.41037e-05
-9.34871e-06
-2.04141e-05
-8.69831e-06
5.96619e-06
3.67549e-05
4.7665e-05
-2.65526e-05
-2.30994e-05
-6.60877e-08
1.75034e-05
3.64229e-05
-2.75537e-05
-1.45873e-05
-1.27655e-05
7.04093e-06
6.69811e-06
-8.67778e-06
-1.83654e-05
5.78966e-06
-3.16392e-06
-1.08518e-05
-2.86474e-05
-2.58375e-05
-1.5715e-05
-8.15102e-06
-2.28522e-05
-4.79898e-05
-3.9117e-05
-9.49684e-07
1.15126e-05
0.000110252
-5.41148e-05
-4.32181e-05
-2.83978e-05
7.80288e-06
0.000111526
-5.71961e-05
-6.74137e-05
-2.50484e-05
-2.65847e-05
1.68724e-05
-4.66e-05
-3.63439e-05
4.1522e-05
-1.84195e-05
-8.2123e-06
-7.22219e-05
-6.12961e-05
-2.33987e-05
-4.83295e-05
-1.19267e-05
-5.98017e-05
-4.64235e-05
0.000121817
4.71888e-05
0.000354626
-0.000163241
-0.000196479
-8.24094e-05
-4.46121e-05
0.000336898
-0.000121544
-0.000108517
-0.000145955
-8.95648e-05
5.12185e-05
8.58954e-05
-0.000119885
0.000310441
-4.82519e-05
-7.28417e-05
-0.000159527
-0.00011921
-0.000139282
-9.84358e-05
-0.000168585
0.000780514
0.000214643
0.000880444
0.000368779
0.000513873
0.000134554
4.24689e-05
0.000210247
0.000224968
0.000176202
0.000220277
-3.64644e-05
1.45326e-06
0.000114099
-0.000159196
0.000451078
0.000193754
-0.000272211
0.000354702
0.00154081
6.70475e-05
8.68718e-05
-0.000207823
0.000300493
0.000116627
0.00131677
0.000657585
0.000617113
0.000334022
0.000484597
0.000708183
0.000568626
0.000511864
0.000629493
0.00111361
0.000495805
8.41711e-05
0.000453288
0.000624046
0.000605534
0.000318266
0.00030004
0.000712212
0.00057778
0.000655559
0.000452808
0.00122162
0.000370135
0.000541176
0.000835372
0.0020209
0.00121464
0.000804148
0.00112553
0.000443998
0.000651824
0.000873099
0.000977545
0.00091644
0.000376592
0.000898842
0.00108043
0.00102452
0.000914091
0.000687813
0.000225017
0.000585521
0.000680298
0.000782264
0.00132511
0.00110019
0.00047495
0.000863763
0.00143221
0.00117984
0.00108067
0.00132433
0.00128717
0.00101967
0.00109398
0.00151814
0.00136197
0.00135489
0.00143314
0.0013608
0.00241203
0.00160926
0.00159556
0.00142467
0.00175347
0.00069539
0.00157257
0.00141941
0.00159662
0.00215512
0.00176487
0.00221768
0.00169928
0.00160495
0.00190151
0.00111952
0.00199476
0.00177368
0.00133496
0.00141606
0.00232281
0.00225426
0.00181765
0.00194349
0.00171618
0.00230327
0.0021464
0.0022266
0.00185196
0.00227155
0.00236364
0.00209598
0.00196342
0.00199062
0.00209521
0.00198984
0.00208386
0.00223996
0.0024815
0.00217174
0.00348494
0.00339681
0.00241157
0.00256263
0.00219838
0.00350275
0.00310511
0.00291083
0.00270812
0.00237601
0.00310052
0.00311352
0.00311674
0.00241294
0.00254343
0.00367068
0.00298647
0.00235493
0.00260331
0.00230447
0.00226831
0.00282546
0.00270535
0.00258735
0.00226909
0.00380811
0.0037528
0.00357
0.003
0.00365171
0.00401367
0.00379195
0.00352226
0.00331529
0.00305213
0.003971
0.00372647
0.00346502
0.00362342
0.0027466
0.0044193
0.00387027
0.00340004
0.00327183
0.00302196
0.00370163
0.0034105
0.00324585
0.00281794
0.00259345
0.00459804
0.00387723
0.00441376
0.00416983
0.00419813
0.00407469
0.00413469
0.00410002
0.00381936
0.00404153
0.00453418
0.00439404
0.00406325
0.00401537
0.00361513
0.00449921
0.00445616
0.00456216
0.00406339
0.00408735
0.00474298
0.00377238
0.00430344
0.00405898
0.0047973
0.00549364
0.00521886
0.00480368
0.00464898
0.00437603
0.00453775
0.00458484
0.0046907
0.00430283
0.00442182
0.00483493
0.00487669
0.00510792
0.00483915
0.0043579
0.00479404
0.00487242
0.0049529
0.00475989
0.0049006
0.00532965
0.00505857
0.00491158
0.00474968
0.00508105
0.00556381
0.00560216
0.0051596
0.00490356
0.00485063
0.00547237
0.00531041
0.00540578
0.00540468
0.00475964
0.00562477
0.00549095
0.00548146
0.00541956
0.00527367
0.00561069
0.00567185
0.00552791
0.00552519
0.00540271
0.00565133
0.0056692
0.00550004
0.0054792
0.00528501
0.00565691
0.00567077
0.00565901
0.00561215
0.00565102
0.00561349
0.00568573
0.00569152
0.00568945
0.00568368
0.00566162
0.0056866
0.00564981
0.00565709
0.00568119
0.00567426
0.00568812
0.00569551
0.00569063
0.00569676
0.00569028
0.00568436
0.0056965
0.0056915
0.00563242
0.0056555
0.00565722
0.00566367
0.00566573
0.00566088
0.00565305
0.0056605
0.00566256
0.00566185
0.00566458
0.00565037
0.00564978
0.00565994
0.00565776
0.0056609
0.00567092
0.00566944
0.00565596
0.00566391
0.00564249
0.00565852
0.00566362
0.00565092
0.00566333
0.00565764
0.00565289
0.0056561
0.0056582
0.00565598
0.00566059
0.00565741
0.00566436
0.00566355
0.00566491
0.00566057
0.00566003
0.00566452
0.00565815
0.00566077
0.00565865
0.00566582
0.00566936
0.00566709
0.00566823
0.00566519
0.0056664
0.00566998
0.00566492
0.00566741
0.00565749
0.00565664
0.00565723
0.00565883
0.00565859
0.00565939
0.00566173
0.00566294
0.00566167
0.00566203
0.0056607
0.0056583
0.00565883
0.00565882
0.0056608
0.00565983
0.00566287
0.00566395
0.00566058
0.00566355
0.00565867
0.00566098
0.00566265
0.00565898
0.00566349
0.00565898
0.00565729
0.00565768
0.00565823
0.00565818
0.00565886
0.00566087
0.00566171
0.00566078
0.00566111
0.0056602
0.00565908
0.00565978
0.00565917
0.00566044
0.00565949
0.00566168
0.00566271
0.00566071
0.00566266
0.00565981
0.00566081
0.00566215
0.00566005
0.00566241
0.00565925
0.005658
0.00565816
0.00565837
0.00565852
0.00565883
0.00566046
0.00566083
0.00566023
0.00566047
0.0056599
0.00565925
0.00565962
0.00565929
0.00566013
0.00565946
0.00566088
0.00566153
0.00566029
0.00566161
0.00565976
0.00566036
0.0056611
0.00565991
0.00566141
0.00565951
0.0056584
0.00565849
0.00565859
0.00565875
0.0056589
0.00566002
0.00566021
0.00565985
0.00566
0.00565965
0.0056593
0.00565952
0.00565933
0.00565987
0.00565938
0.00566034
0.00566074
0.00565999
0.00566084
0.00565965
0.00566005
0.00566046
0.00565979
0.00566071
0.00565955
0.00565865
0.00565871
0.00565877
0.0056589
0.00565898
0.00565971
0.00565979
0.00565959
0.00565968
0.00565948
0.0056593
0.00565944
0.00565931
0.00565967
0.00565931
0.00565996
0.00566018
0.00565976
0.00566028
0.00565955
0.0056598
0.00566003
0.00565966
0.00566021
0.00565951
0.00565882
0.00565886
0.0056589
0.005659
0.00565903
0.00565948
0.00565951
0.00565941
0.00565946
0.00565934
0.00565928
0.00565936
0.00565929
0.00565952
0.0056593
0.00565969
0.00565982
0.00565958
0.00565989
0.00565945
0.00565961
0.00565974
0.00565954
0.00565987
0.00565945
0.00565893
0.00565895
0.00565898
0.00565904
0.00565906
0.00565932
0.00565933
0.00565928
0.00565931
0.00565925
0.00565925
0.0056593
0.00565926
0.00565941
0.00565927
0.0056595
0.00565957
0.00565944
0.00565962
0.00565936
0.00565947
0.00565954
0.00565944
0.00565963
0.00565939
0.00565899
0.005659
0.00565902
0.00565906
0.00565907
0.00565921
0.00565922
0.0056592
0.00565922
0.00565919
0.00565922
0.00565925
0.00565923
0.00565932
0.00565923
0.00565937
0.0056594
0.00565934
0.00565944
0.00565929
0.00565936
0.0056594
0.00565935
0.00565946
0.00565932
0.00565902
0.00565903
0.00565904
0.00565906
0.00565907
0.00565915
0.00565915
0.00565915
0.00565916
0.00565915
0.00565919
0.0056592
0.0056592
0.00565925
0.0056592
0.00565927
0.00565929
0.00565926
0.00565932
0.00565924
0.00565928
0.0056593
0.00565928
0.00565934
0.00565927
0.00565903
0.00565904
0.00565905
0.00565906
0.00565907
0.00565911
0.00565911
0.00565911
0.00565913
0.00565913
0.00565916
0.00565917
0.00565916
0.00565919
0.00565917
0.00565921
0.00565921
0.0056592
0.00565924
0.0056592
0.00565922
0.00565923
0.00565922
0.00565926
0.00565922
0.00565904
0.00565904
0.00565905
0.00565905
0.00565906
0.00565909
0.00565909
0.00565909
0.0056591
0.00565911
0.00565913
0.00565913
0.00565913
0.00565915
0.00565915
0.00565916
0.00565916
0.00565916
0.00565918
0.00565916
0.00565917
0.00565918
0.00565918
0.0056592
0.00565918
0.00565904
0.00565904
0.00565905
0.00565905
0.00565906
0.00565908
0.00565908
0.00565908
0.00565909
0.00565909
0.00565911
0.00565911
0.00565911
0.00565912
0.00565912
0.00565913
0.00565913
0.00565913
0.00565914
0.00565914
0.00565914
0.00565914
0.00565914
0.00565916
0.00565915
0.00565904
0.00565904
0.00565905
0.00565905
0.00565906
0.00565907
0.00565907
0.00565907
0.00565908
0.00565908
0.00565909
0.00565909
0.00565909
0.0056591
0.0056591
0.00565911
0.00565911
0.00565911
0.00565912
0.00565912
0.00565911
0.00565912
0.00565912
0.00565912
0.00565912
0.00565904
0.00565904
0.00565905
0.00565905
0.00565905
0.00565906
0.00565906
0.00565906
0.00565907
0.00565907
0.00565908
0.00565908
0.00565908
0.00565908
0.00565909
0.00565909
0.00565909
0.00565909
0.0056591
0.0056591
0.0056591
0.0056591
0.0056591
0.0056591
0.00565911
0.00565904
0.00565904
0.00565905
0.00565905
0.00565905
0.00565906
0.00565906
0.00565906
0.00565906
0.00565907
0.00565907
0.00565907
0.00565907
0.00565907
0.00565908
0.00565908
0.00565908
0.00565908
0.00565908
0.00565909
0.00565908
0.00565908
0.00565908
0.00565909
0.00565909
0.00565904
0.00565904
0.00565905
0.00565905
0.00565905
0.00565905
0.00565905
0.00565906
0.00565906
0.00565906
0.00565906
0.00565906
0.00565906
0.00565907
0.00565907
0.00565907
0.00565907
0.00565907
0.00565907
0.00565908
0.00565907
0.00565907
0.00565907
0.00565908
0.00565908
0.00565904
0.00565904
0.00565905
0.00565905
0.00565905
0.00565905
0.00565905
0.00565905
0.00565905
0.00565906
0.00565906
0.00565906
0.00565906
0.00565906
0.00565906
0.00565906
0.00565906
0.00565906
0.00565907
0.00565907
0.00565906
0.00565907
0.00565907
0.00565907
0.00565907
0.00565904
0.00565904
0.00565905
0.00565905
0.00565905
0.00565905
0.00565905
0.00565905
0.00565905
0.00565905
0.00565905
0.00565905
0.00565906
0.00565906
0.00565906
0.00565906
0.00565906
0.00565906
0.00565906
0.00565906
0.00565906
0.00565906
0.00565906
0.00565906
0.00565906
0.00565904
0.00565904
0.00565905
0.00565905
0.00565905
0.00565905
0.00565905
0.00565905
0.00565905
0.00565905
0.00565905
0.00565905
0.00565905
0.00565905
0.00565906
0.00565905
0.00565905
0.00565906
0.00565906
0.00565906
0.00565906
0.00565906
0.00565906
0.00565906
0.00565906
0.00565904
0.00565904
0.00565905
0.00565905
0.00565905
0.00565905
0.00565905
0.00565905
0.00565905
0.00565905
0.00565905
0.00565905
0.00565905
0.00565905
0.00565905
0.00565905
0.00565905
0.00565905
0.00565905
0.00565905
0.00565905
0.00565905
0.00565905
0.00565905
0.00565906
0.00565904
0.00565904
0.00565905
0.00565905
0.00565905
0.00565905
0.00565905
0.00565905
0.00565905
0.00565905
0.00565905
0.00565905
0.00565905
0.00565905
0.00565905
0.00565905
0.00565905
0.00565905
0.00565905
0.00565905
0.00565905
0.00565905
0.00565905
0.00565905
0.00565905
0.00565904
0.00565904
0.00565904
0.00565905
0.00565905
0.00565905
0.00565905
0.00565905
0.00565905
0.00565905
0.00565905
0.00565905
0.00565905
0.00565905
0.00565905
0.00565905
0.00565905
0.00565905
0.00565905
0.00565905
0.00565905
0.00565905
0.00565905
0.00565905
0.00565905
0.00565904
0.00565904
0.00565904
0.00565904
0.00565904
0.00565905
0.00565905
0.00565905
0.00565905
0.00565905
0.00565905
0.00565905
0.00565905
0.00565905
0.00565905
0.00565905
0.00565905
0.00565905
0.00565905
0.00565905
0.00565905
0.00565905
0.00565905
0.00565905
0.00565905
0.00565904
0.00565904
0.00565904
0.00565904
0.00565904
0.00565904
0.00565904
0.00565904
0.00565905
0.00565905
0.00565905
0.00565905
0.00565905
0.00565905
0.00565905
0.00565905
0.00565905
0.00565905
0.00565905
0.00565905
0.00565905
0.00565905
0.00565905
0.00565905
0.00565905
0.00565904
0.00565904
0.00565904
0.00565904
0.00565904
0.00565904
0.00565904
0.00565904
0.00565904
0.00565904
0.00565905
0.00565905
0.00565905
0.00565905
0.00565905
0.00565905
0.00565905
0.00565905
0.00565905
0.00565905
0.00565905
0.00565905
0.00565905
0.00565905
0.00565905
0.00565904
0.00565904
0.00565904
0.00565904
0.00565904
0.00565904
0.00565904
0.00565904
0.00565904
0.00565904
0.00565904
0.00565904
0.00565904
0.00565904
0.00565905
0.00565905
0.00565905
0.00565905
0.00565905
0.00565905
0.00565905
0.00565905
0.00565905
0.00565905
0.00565905
0.00565904
0.00565904
0.00565904
0.00565904
0.00565904
0.00565904
0.00565904
0.00565904
0.00565904
0.00565904
0.00565904
0.00565904
0.00565904
0.00565904
0.00565904
0.00565904
0.00565904
0.00565904
0.00565904
0.00565904
0.00565904
0.00565904
0.00565904
0.00565904
0.00565904
0.00565904
0.00565904
0.00565904
0.00565904
0.00565904
0.00565904
0.00565904
0.00565904
0.00565904
0.00565904
0.00565904
0.00565904
0.00565904
0.00565904
0.00565904
0.00565904
0.00565904
0.00565904
0.00565904
0.00565904
0.00565904
0.00565904
0.00565904
0.00565904
0.00565904
0.00565904
0.00565904
0.00565904
0.00565904
0.00565904
0.00565904
0.00565904
0.00565904
0.00565904
0.00565904
0.00565904
0.00565904
0.00565904
0.00565904
0.00565904
0.00565904
0.00565904
0.00565904
0.00565904
0.00565904
0.00565904
0.00565904
0.00565904
0.00565904
0.00565904
0.00565904
0.00565904
0.00565904
0.00565904
0.00565904
0.00565904
0.00565904
0.00565904
0.00565904
0.00565904
0.00565904
0.00565904
0.00565904
0.00565904
0.00565904
0.00565904
0.00565904
0.00565904
0.00565904
0.00565904
0.00565904
0.00565904
0.00565904
0.00565904
0.00565904
0.00565904
0.00565904
0.00565904
0.00565904
0.00565904
0.00565904
0.00565904
0.00565904
0.00565904
0.00565904
0.00565904
0.00565904
0.00565904
0.00565904
0.00565904
0.00565904
0.00565904
0.00565904
0.00565904
0.00565904
0.00565904
0.00565904
0.00565904
0.00565904
0.00565904
0.00565904
0.00565904
0.00565904
0.00565904
0.00565904
0.00565904
0.00565904
0.00565904
0.00565904
0.00565904
0.00565904
0.00565904
0.00565904
0.00565904
0.00565904
0.00565904
0.00565904
0.00565904
0.00565904
0.00565904
0.00565904
0.00565904
0.00565904
0.00565904
0.00565904
0.00565904
0.00565904
0.00565904
0.00565904
0.00565904
0.00565904
0.00565904
0.00565904
0.00565904
0.00565904
0.00565904
0.00565904
0.00565904
0.00565904
0.00565904
0.00565904
0.00565904
0.00565904
0.00565904
0.00565904
0.00565904
0.00565904
0.00565904
0.00565904
0.00565904
0.00565904
0.00565904
0.00565904
0.00565904
0.00565904
0.00565904
0.00565904
0.00565904
0.00565904
0.00565904
0.00565904
0.00565904
0.00565904
0.00565904
0.00565904
0.00565904
0.00565904
0.00565904
0.00565904
0.00565904
0.00565904
0.00565904
0.00565904
0.00565904
0.00565904
0.00565904
0.00565904
0.00565904
0.00565904
0.00565904
0.00565904
0.00565904
0.00565904
0.00565904
0.00565904
0.00565904
0.00565904
0.00565904
0.00565904
0.00565904
0.00565904
0.00565904
0.00565904
0.00565904
0.00565904
0.00565904
0.00565904
0.00565904
0.00565904
0.00565904
0.00565904
0.00565904
0.00565904
0.00565904
0.00565904
0.00565904
0.00565904
0.00565904
0.00565904
0.00565904
0.00565904
0.00565904
0.00565904
0.00565904
0.00565904
0.00565904
0.00565904
0.00565904
0.00565904
0.00565904
0.00565904
0.00565904
0.00565904
0.00565904
0.00565904
)
;

boundaryField
{
    inlet
    {
        type            zeroGradient;
    }
    outlet
    {
        type            fixedValue;
        value           uniform 0;
    }
    repeat_boundary
    {
        type            zeroGradient;
    }
    procBoundary2to0
    {
        type            processor;
        value           nonuniform List<scalar> 
450
(
3.99686e-11
2.4188e-11
-9.73987e-12
-1.23362e-11
3.92804e-11
1.7988e-10
1.29792e-10
4.38416e-11
3.22822e-11
1.22995e-10
4.39693e-10
3.61712e-10
2.40577e-10
1.89663e-10
2.88336e-10
8.38629e-10
7.48776e-10
5.5313e-10
4.03263e-10
4.65944e-10
1.29936e-09
1.18102e-09
9.19228e-10
6.88555e-10
6.79961e-10
1.69821e-09
1.5759e-09
1.31943e-09
1.13487e-09
1.1375e-09
2.01339e-09
1.91203e-09
1.73392e-09
1.65071e-09
1.72159e-09
2.29217e-09
2.21431e-09
2.10362e-09
2.01336e-09
2.01564e-09
2.56197e-09
2.50911e-09
2.41312e-09
2.19896e-09
1.9524e-09
2.83434e-09
2.79283e-09
2.68635e-09
2.40766e-09
2.01633e-09
3.13497e-09
3.08568e-09
2.99595e-09
2.83074e-09
2.591e-09
3.58121e-09
3.53919e-09
3.48747e-09
3.47861e-09
3.45138e-09
4.31601e-09
4.27715e-09
4.20648e-09
4.23594e-09
4.29512e-09
5.23181e-09
5.14045e-09
5.02822e-09
5.07675e-09
5.24195e-09
6.04535e-09
5.92648e-09
5.89599e-09
6.05401e-09
6.35265e-09
6.76834e-09
6.7421e-09
6.87005e-09
7.0695e-09
7.30749e-09
7.74083e-09
7.83035e-09
7.97807e-09
7.99967e-09
7.93556e-09
9.2084e-09
9.30455e-09
9.30521e-09
9.0555e-09
8.60531e-09
1.11902e-08
1.11973e-08
1.10423e-08
1.06193e-08
9.86204e-09
1.36836e-08
1.35803e-08
1.33059e-08
1.27474e-08
1.16759e-08
1.67976e-08
1.65851e-08
1.61231e-08
1.52616e-08
1.35865e-08
2.06922e-08
2.03536e-08
1.95955e-08
1.82772e-08
1.59106e-08
2.5625e-08
2.51537e-08
2.40284e-08
2.2179e-08
1.92926e-08
3.21469e-08
3.15655e-08
3.01121e-08
2.76307e-08
2.3803e-08
4.09295e-08
4.04395e-08
3.90266e-08
3.60413e-08
3.08146e-08
5.26677e-08
5.28218e-08
5.21049e-08
4.91365e-08
4.28177e-08
6.82374e-08
6.98538e-08
7.09604e-08
6.89852e-08
6.15667e-08
8.81537e-08
9.27856e-08
9.83495e-08
9.95009e-08
9.11756e-08
1.11959e-07
1.23027e-07
1.38385e-07
1.47323e-07
1.40151e-07
1.37717e-07
1.618e-07
1.9733e-07
2.23563e-07
2.21877e-07
1.60809e-07
2.10076e-07
2.85977e-07
3.48142e-07
3.60765e-07
1.74551e-07
2.70738e-07
4.24143e-07
5.57377e-07
6.02133e-07
1.70881e-07
3.5363e-07
6.52659e-07
9.22397e-07
1.03138e-06
1.12918e-07
4.62947e-07
1.04252e-06
1.58022e-06
1.8074e-06
-1.18327e-07
5.55452e-07
1.67317e-06
2.76026e-06
3.21267e-06
-7.39912e-07
5.55986e-07
2.70559e-06
4.91758e-06
5.80446e-06
-1.97352e-06
1.02556e-06
5.74446e-06
1.0035e-05
1.15746e-05
-8.76311e-06
-4.59052e-06
2.74205e-06
1.06004e-05
1.63544e-05
-9.71133e-06
2.87822e-06
1.79176e-05
3.25486e-05
4.06236e-05
-3.49774e-05
-3.39376e-06
3.28609e-06
2.616e-05
7.57011e-05
-0.00010548
2.51901e-06
2.82449e-06
9.53556e-05
0.000188619
-2.297e-05
0.000238092
0.000276581
-0.000135904
-0.000135378
0.00108141
0.0010276
0.000639748
0.00170308