/*--------------------------------*- C++ -*----------------------------------*\
| =========                 |                                                 |
| \\      /  F ield         | OpenFOAM: The Open Source CFD Toolbox           |
|  \\    /   O peration     | Version:  5.x                                   |
|   \\  /    A nd           | Web:      www.OpenFOAM.org                      |
|    \\/     M anipulation  |                                                 |
\*---------------------------------------------------------------------------*/
FoamFile
{
    version     2.0;
    format      ascii;
    class       surfaceScalarField;
    location    "0.07";
    object      phi;
}
// * * * * * * * * * * * * * * * * * * * * * * * * * * * * * * * * * * * * * //

dimensions      [0 3 -1 0 0 0 0];

internalField   nonuniform List<scalar> 
5825
(
-4.54994e-17
-1.72522e-16
-9.99999e-10
-1.10149e-16
-1.86877e-16
-9.99999e-10
-1.75616e-16
-1.86464e-16
-9.99999e-10
-2.3567e-16
-1.81459e-16
-9.99999e-10
-1.70535e-16
-1e-09
-5.94859e-17
-1.54053e-16
-9.99999e-10
-1.104e-16
-1.50134e-16
-9.99999e-10
-1.72091e-16
-1.55912e-16
-9.99999e-10
-2.27632e-16
-1.41695e-16
-1e-09
-1.31229e-16
-1e-09
-5.49748e-17
-1.03832e-16
-9.99999e-10
-1.16503e-16
-1.10929e-16
-9.99999e-10
-1.58618e-16
-1.04273e-16
-1e-09
-2.1882e-16
-1.06564e-16
-1e-09
-8.54167e-17
-1e-09
-6.15438e-17
-5.64778e-17
-9.99999e-10
-1.09758e-16
-5.34748e-17
-1e-09
-1.60686e-16
-5.0171e-17
-1e-09
-1.98242e-16
-5.13734e-17
-1e-09
-3.83276e-17
-1e-09
-5.81075e-17
-1e-09
-1.05985e-16
-1e-09
-1.61342e-16
-1e-09
-1.84994e-16
-1e-09
-1e-09
-1.38402e-16
-4.85721e-16
-9.99999e-10
-3.16022e-16
-5.21718e-16
-9.99999e-10
-4.70339e-16
-5.15037e-16
-9.99999e-10
-5.88969e-16
-5.03264e-16
-9.99999e-10
-5.02772e-16
-1e-09
-1.71946e-16
-4.07288e-16
-9.99999e-10
-3.09408e-16
-4.04971e-16
-9.99999e-10
-4.57419e-16
-4.02283e-16
-9.99999e-10
-5.81931e-16
-3.78533e-16
-1e-09
-3.52529e-16
-1e-09
-1.67765e-16
-2.9622e-16
-9.99999e-10
-3.07601e-16
-2.83006e-16
-9.99999e-10
-4.36567e-16
-2.78736e-16
-1e-09
-5.64797e-16
-2.7563e-16
-1e-09
-2.41305e-16
-1e-09
-1.53002e-16
-1.44846e-16
-9.99999e-10
-3.03116e-16
-1.48571e-16
-1e-09
-4.33107e-16
-1.39506e-16
-1e-09
-5.35074e-16
-1.42258e-16
-1e-09
-1.30472e-16
-1e-09
-1.55906e-16
-1e-09
-2.92908e-16
-1e-09
-4.34467e-16
-1e-09
-5.23907e-16
-1e-09
-1e-09
-2.84466e-16
-8.50578e-16
-9.99998e-10
-5.64266e-16
-8.51772e-16
-9.99999e-10
-7.86693e-16
-8.44858e-16
-9.99999e-10
-8.65851e-16
-8.38018e-16
-9.99999e-10
-8.63267e-16
-1e-09
-2.80654e-16
-6.8313e-16
-9.99999e-10
-5.54702e-16
-6.89282e-16
-9.99999e-10
-7.71655e-16
-6.62214e-16
-9.99999e-10
-9.01274e-16
-6.40514e-16
-1e-09
-6.35795e-16
-1e-09
-2.83208e-16
-4.82643e-16
-9.99999e-10
-5.29314e-16
-4.73746e-16
-9.99999e-10
-7.52863e-16
-4.66827e-16
-1e-09
-9.12767e-16
-4.66026e-16
-1e-09
-4.64333e-16
-1e-09
-2.7209e-16
-2.48695e-16
-9.99999e-10
-5.22154e-16
-2.44099e-16
-1e-09
-7.51132e-16
-2.51391e-16
-1e-09
-9.19736e-16
-2.58328e-16
-1e-09
-2.72194e-16
-1e-09
-2.66638e-16
-1e-09
-5.27771e-16
-1e-09
-7.55809e-16
-1e-09
-9.34057e-16
-1e-09
-1e-09
-4.60702e-16
-1.22149e-15
-9.99998e-10
-8.61278e-16
-1.2113e-15
-9.99998e-10
-1.18514e-15
-1.16849e-15
-9.99999e-10
-1.31214e-15
-1.14587e-15
-9.99999e-10
-1.16027e-15
-1e-09
-4.44392e-16
-1.0089e-15
-9.99999e-10
-8.16322e-16
-9.95807e-16
-9.99999e-10
-1.15462e-15
-9.74494e-16
-9.99999e-10
-1.33395e-15
-9.59395e-16
-1e-09
-9.50024e-16
-1e-09
-4.26775e-16
-7.12359e-16
-9.99999e-10
-7.97322e-16
-7.0556e-16
-9.99999e-10
-1.1431e-15
-7.05263e-16
-1e-09
-1.35039e-15
-7.05792e-16
-1e-09
-7.19055e-16
-1e-09
-4.17267e-16
-3.6755e-16
-9.99999e-10
-7.96983e-16
-3.67038e-16
-1e-09
-1.1425e-15
-3.84164e-16
-1e-09
-1.3729e-15
-3.83717e-16
-1e-09
-3.96453e-16
-1e-09
-4.15233e-16
-9.99999e-10
-8.12283e-16
-1e-09
-1.13886e-15
-1e-09
-1.38604e-15
-1e-09
-1e-09
-6.31216e-16
-1.68637e-15
-9.99997e-10
-1.20426e-15
-1.6711e-15
-9.99998e-10
-1.73829e-15
-1.63851e-15
-9.99998e-10
-2.10191e-15
-1.58059e-15
-9.99999e-10
-1.48654e-15
-1e-09
-6.0836e-16
-1.40662e-15
-9.99998e-10
-1.16946e-15
-1.41321e-15
-9.99998e-10
-1.67966e-15
-1.40309e-15
-9.99999e-10
-2.0126e-15
-1.3667e-15
-1e-09
-1.28861e-15
-1e-09
-6.10091e-16
-1.01836e-15
-9.99999e-10
-1.16173e-15
-1.01901e-15
-9.99999e-10
-1.64653e-15
-1.01433e-15
-9.99999e-10
-1.95585e-15
-1.0002e-15
-1e-09
-9.7497e-16
-1e-09
-6.07557e-16
-5.25578e-16
-9.99999e-10
-1.1567e-15
-5.26195e-16
-9.99999e-10
-1.6309e-15
-5.34824e-16
-1e-09
-1.93922e-15
-5.24858e-16
-1e-09
-5.26512e-16
-1e-09
-6.07102e-16
-9.99999e-10
-1.1624e-15
-1e-09
-1.61664e-15
-1e-09
-1.94002e-15
-1e-09
-1e-09
-8.33899e-16
-2.32762e-15
-9.99997e-10
-1.65733e-15
-2.3585e-15
-9.99997e-10
-2.43357e-15
-2.35812e-15
-9.99998e-10
-3.00812e-15
-2.29184e-15
-9.99999e-10
-2.14517e-15
-9.99999e-10
-8.56822e-16
-1.97714e-15
-9.99998e-10
-1.65516e-15
-1.9852e-15
-9.99998e-10
-2.37036e-15
-1.97852e-15
-9.99999e-10
-2.88182e-15
-1.92196e-15
-1e-09
-1.78798e-15
-1e-09
-8.59512e-16
-1.42315e-15
-9.99998e-10
-1.64998e-15
-1.42325e-15
-9.99999e-10
-2.31532e-15
-1.4196e-15
-9.99999e-10
-2.77043e-15
-1.39336e-15
-1e-09
-1.33928e-15
-1e-09
-8.55688e-16
-7.36585e-16
-9.99999e-10
-1.64553e-15
-7.42038e-16
-9.99999e-10
-2.28744e-15
-7.34725e-16
-1e-09
-2.72347e-15
-7.28644e-16
-1e-09
-7.25072e-16
-1e-09
-8.58899e-16
-9.99999e-10
-1.6341e-15
-1e-09
-2.27613e-15
-1e-09
-2.7176e-15
-1e-09
-1e-09
-1.17042e-15
-3.22631e-15
-9.99996e-10
-2.3189e-15
-3.27327e-15
-9.99996e-10
-3.2948e-15
-3.2917e-15
-9.99997e-10
-3.9322e-15
-3.26662e-15
-9.99998e-10
-3.20571e-15
-1e-09
-1.21044e-15
-2.74168e-15
-9.99997e-10
-2.33755e-15
-2.74433e-15
-9.99997e-10
-3.27778e-15
-2.73741e-15
-9.99998e-10
-3.90012e-15
-2.69079e-15
-1e-09
-2.61748e-15
-1e-09
-1.20554e-15
-1.96413e-15
-9.99998e-10
-2.33015e-15
-1.97031e-15
-9.99998e-10
-3.23084e-15
-1.96315e-15
-9.99999e-10
-3.85059e-15
-1.94682e-15
-1e-09
-1.91652e-15
-1e-09
-1.20624e-15
-1.02954e-15
-9.99999e-10
-2.32204e-15
-1.03359e-15
-9.99999e-10
-3.2133e-15
-1.01884e-15
-1e-09
-3.82666e-15
-1.02699e-15
-1e-09
-1.02852e-15
-1e-09
-1.20624e-15
-9.99999e-10
-2.30183e-15
-1e-09
-3.21477e-15
-1e-09
-3.8236e-15
-1e-09
-1e-09
-1.69765e-15
-4.42999e-15
-9.99994e-10
-3.27109e-15
-4.44701e-15
-9.99995e-10
-4.4885e-15
-4.45285e-15
-9.99996e-10
-5.16911e-15
-4.46435e-15
-9.99998e-10
-4.52201e-15
-1e-09
-1.70539e-15
-3.75615e-15
-9.99996e-10
-3.2786e-15
-3.76242e-15
-9.99996e-10
-4.51088e-15
-3.74827e-15
-9.99998e-10
-5.26686e-15
-3.73732e-15
-9.99999e-10
-3.78196e-15
-1e-09
-1.70148e-15
-2.71108e-15
-9.99997e-10
-3.26259e-15
-2.71571e-15
-9.99998e-10
-4.49923e-15
-2.70348e-15
-9.99999e-10
-5.32201e-15
-2.71406e-15
-1e-09
-2.72914e-15
-1e-09
-1.69905e-15
-1.42856e-15
-9.99998e-10
-3.24952e-15
-1.42327e-15
-9.99999e-10
-4.50945e-15
-1.4235e-15
-1e-09
-5.34124e-15
-1.44008e-15
-1e-09
-1.44733e-15
-1e-09
-1.68784e-15
-9.99999e-10
-3.24225e-15
-9.99999e-10
-4.51591e-15
-1e-09
-5.33792e-15
-1e-09
-1e-09
-2.41835e-15
-6.05582e-15
-9.99992e-10
-4.56284e-15
-6.03881e-15
-9.99993e-10
-6.20487e-15
-6.02004e-15
-9.99995e-10
-7.14878e-15
-6.0341e-15
-9.99997e-10
-6.10551e-15
-1e-09
-2.3883e-15
-5.14439e-15
-9.99994e-10
-4.54604e-15
-5.1496e-15
-9.99995e-10
-6.23195e-15
-5.1353e-15
-9.99997e-10
-7.2877e-15
-5.15758e-15
-9.99999e-10
-5.24015e-15
-1e-09
-2.38085e-15
-3.73701e-15
-9.99996e-10
-4.53e-15
-3.73928e-15
-9.99997e-10
-6.25256e-15
-3.72581e-15
-9.99999e-10
-7.37976e-15
-3.75132e-15
-1e-09
-3.76507e-15
-1e-09
-2.37409e-15
-1.97048e-15
-9.99998e-10
-4.51541e-15
-1.95532e-15
-9.99999e-10
-6.27751e-15
-1.97889e-15
-1e-09
-7.39554e-15
-1.98543e-15
-1e-09
-1.97706e-15
-1.00001e-09
-2.35033e-15
-9.99998e-10
-4.52803e-15
-9.99999e-10
-6.2685e-15
-1e-09
-7.36951e-15
-1e-09
-1.00001e-09
-3.33601e-15
-8.29745e-15
-9.99989e-10
-6.2805e-15
-8.27966e-15
-9.9999e-10
-8.59304e-15
-8.25849e-15
-9.99993e-10
-1.00924e-14
-8.27763e-15
-9.99996e-10
-8.28605e-15
-1e-09
-3.30001e-15
-7.05875e-15
-9.99992e-10
-6.26142e-15
-7.0679e-15
-9.99993e-10
-8.62289e-15
-7.06539e-15
-9.99996e-10
-1.01732e-14
-7.08452e-15
-9.99999e-10
-7.10191e-15
-1e-09
-3.29263e-15
-5.1461e-15
-9.99995e-10
-6.2576e-15
-5.14891e-15
-9.99996e-10
-8.63933e-15
-5.12887e-15
-9.99999e-10
-1.01993e-14
-5.14229e-15
-1e-09
-5.10187e-15
-1.00001e-09
-3.283e-15
-2.70679e-15
-9.99997e-10
-6.23591e-15
-2.68594e-15
-9.99998e-10
-8.6512e-15
-2.72074e-15
-1e-09
-1.01615e-14
-2.70885e-15
-1e-09
-2.6727e-15
-1.00001e-09
-3.24897e-15
-9.99998e-10
-6.25507e-15
-9.99999e-10
-8.61733e-15
-1e-09
-1.01013e-14
-1e-09
-1.00001e-09
-4.53452e-15
-1.1399e-14
-9.99985e-10
-8.61444e-15
-1.14157e-14
-9.99987e-10
-1.18499e-14
-1.14014e-14
-9.9999e-10
-1.40289e-14
-1.14224e-14
-9.99994e-10
-1.13561e-14
-1e-09
-4.52585e-15
-9.70223e-15
-9.99989e-10
-8.60248e-15
-9.71488e-15
-9.99991e-10
-1.18773e-14
-9.71517e-15
-9.99994e-10
-1.40323e-14
-9.69598e-15
-9.99999e-10
-9.62198e-15
-1e-09
-4.51531e-15
-7.06574e-15
-9.99993e-10
-8.60134e-15
-7.06599e-15
-9.99995e-10
-1.18543e-14
-7.04007e-15
-9.99998e-10
-1.39705e-14
-7.03482e-15
-1e-09
-6.95224e-15
-1.00001e-09
-4.49805e-15
-3.70263e-15
-9.99996e-10
-8.57329e-15
-3.69612e-15
-9.99997e-10
-1.18466e-14
-3.72774e-15
-1e-09
-1.3891e-14
-3.70559e-15
-1.00001e-09
-3.66741e-15
-1.00001e-09
-4.47221e-15
-9.99997e-10
-8.5834e-15
-9.99999e-10
-1.17953e-14
-1e-09
-1.38214e-14
-1.00001e-09
-1.00001e-09
-6.18307e-15
-1.56486e-14
-9.9998e-10
-1.17992e-14
-1.56845e-14
-9.99982e-10
-1.62305e-14
-1.5658e-14
-9.99986e-10
-1.91648e-14
-1.56657e-14
-9.99992e-10
-1.55687e-14
-9.99999e-10
-6.18367e-15
-1.33034e-14
-9.99985e-10
-1.17759e-14
-1.33113e-14
-9.99988e-10
-1.62482e-14
-1.3306e-14
-9.99992e-10
-1.91328e-14
-1.32572e-14
-9.99998e-10
-1.31599e-14
-1.00001e-09
-6.15908e-15
-9.66007e-15
-9.9999e-10
-1.17682e-14
-9.66982e-15
-9.99993e-10
-1.6195e-14
-9.65681e-15
-9.99997e-10
-1.90407e-14
-9.64509e-15
-1e-09
-9.57618e-15
-1.00001e-09
-6.14503e-15
-5.06803e-15
-9.99994e-10
-1.17529e-14
-5.09977e-15
-9.99996e-10
-1.61808e-14
-5.11496e-15
-1e-09
-1.89726e-14
-5.09052e-15
-1.00001e-09
-5.0846e-15
-1.00001e-09
-6.15002e-15
-9.99996e-10
-1.17391e-14
-9.99998e-10
-1.61181e-14
-1e-09
-1.89234e-14
-1.00001e-09
-1.00002e-09
-8.4446e-15
-2.13815e-14
-9.99972e-10
-1.60831e-14
-2.14059e-14
-9.99975e-10
-2.21193e-14
-2.13839e-14
-9.99981e-10
-2.59918e-14
-2.13936e-14
-9.9999e-10
-2.13531e-14
-9.99999e-10
-8.42015e-15
-1.81694e-14
-9.9998e-10
-1.60645e-14
-1.81857e-14
-9.99983e-10
-2.21432e-14
-1.81819e-14
-9.99989e-10
-2.60182e-14
-1.81324e-14
-9.99998e-10
-1.8067e-14
-1.00001e-09
-8.39255e-15
-1.31943e-14
-9.99987e-10
-1.60574e-14
-1.32354e-14
-9.9999e-10
-2.20894e-14
-1.32391e-14
-9.99996e-10
-2.59506e-14
-1.3214e-14
-1e-09
-1.31764e-14
-1.00001e-09
-8.40215e-15
-6.95896e-15
-9.99992e-10
-1.60583e-14
-7.01926e-15
-9.99995e-10
-2.20621e-14
-7.00171e-15
-1e-09
-2.59106e-14
-6.97169e-15
-1.00001e-09
-6.98481e-15
-1.00002e-09
-8.42684e-15
-9.99995e-10
-1.6002e-14
-9.99998e-10
-2.1981e-14
-1e-09
-2.58638e-14
-1.00001e-09
-1.00002e-09
-1.1495e-14
-2.91334e-14
-9.99962e-10
-2.18912e-14
-2.91655e-14
-9.99966e-10
-3.01627e-14
-2.91742e-14
-9.99975e-10
-3.54051e-14
-2.91636e-14
-9.99986e-10
-2.91209e-14
-9.99999e-10
-1.14602e-14
-2.47966e-14
-9.99973e-10
-2.19001e-14
-2.48441e-14
-9.99977e-10
-3.01622e-14
-2.48218e-14
-9.99986e-10
-3.54149e-14
-2.47518e-14
-9.99997e-10
-2.46905e-14
-1.00001e-09
-1.14498e-14
-1.80506e-14
-9.99982e-10
-2.18743e-14
-1.81139e-14
-9.99987e-10
-3.0089e-14
-1.80963e-14
-9.99995e-10
-3.53493e-14
-1.80232e-14
-1.00001e-09
-1.79785e-14
-1.00002e-09
-1.14712e-14
-9.54788e-15
-9.99989e-10
-2.18526e-14
-9.59429e-15
-9.99994e-10
-3.00129e-14
-9.53569e-15
-1e-09
-3.53009e-14
-9.4938e-15
-1.00001e-09
-9.47599e-15
-1.00003e-09
-1.14703e-14
-9.99993e-10
-2.17419e-14
-9.99997e-10
-2.99012e-14
-1.00001e-09
-3.52009e-14
-1.00002e-09
-1.00003e-09
-1.56555e-14
-3.97656e-14
-9.99948e-10
-2.98779e-14
-3.98311e-14
-9.99954e-10
-4.11746e-14
-3.98012e-14
-9.99966e-10
-4.83184e-14
-3.96734e-14
-9.99981e-10
-3.95027e-14
-9.99999e-10
-1.56306e-14
-3.3889e-14
-9.99963e-10
-2.98452e-14
-3.39512e-14
-9.99969e-10
-4.10491e-14
-3.38532e-14
-9.9998e-10
-4.81673e-14
-3.37092e-14
-9.99995e-10
-3.35915e-14
-1.00001e-09
-1.56157e-14
-2.4699e-14
-9.99976e-10
-2.97431e-14
-2.47394e-14
-9.99982e-10
-4.09026e-14
-2.46525e-14
-9.99993e-10
-4.80484e-14
-2.4511e-14
-1.00001e-09
-2.44221e-14
-1.00003e-09
-1.55993e-14
-1.30408e-14
-9.99986e-10
-2.96506e-14
-1.30452e-14
-9.99991e-10
-4.07567e-14
-1.29574e-14
-1e-09
-4.79552e-14
-1.29039e-14
-1.00002e-09
-1.28322e-14
-1.00003e-09
-1.55393e-14
-9.99991e-10
-2.94922e-14
-9.99996e-10
-4.06076e-14
-1.00001e-09
-4.77715e-14
-1.00002e-09
-1.00004e-09
-2.13811e-14
-5.43806e-14
-9.9993e-10
-4.07724e-14
-5.44429e-14
-9.99938e-10
-5.60431e-14
-5.42593e-14
-9.99953e-10
-6.57061e-14
-5.39699e-14
-9.99974e-10
-5.36588e-14
-9.99998e-10
-2.13217e-14
-4.63224e-14
-9.99951e-10
-4.05856e-14
-4.6351e-14
-9.99959e-10
-5.57584e-14
-4.61431e-14
-9.99973e-10
-6.54102e-14
-4.59042e-14
-9.99994e-10
-4.57096e-14
-1.00002e-09
-2.12458e-14
-3.37253e-14
-9.99968e-10
-4.03714e-14
-3.37098e-14
-9.99976e-10
-5.55168e-14
-3.35429e-14
-9.99991e-10
-6.52127e-14
-3.33486e-14
-1.00001e-09
-3.32115e-14
-1.00003e-09
-2.11529e-14
-1.77461e-14
-9.9998e-10
-4.01968e-14
-1.77196e-14
-9.99988e-10
-5.53171e-14
-1.7627e-14
-1e-09
-6.50685e-14
-1.75624e-14
-1.00002e-09
-1.74654e-14
-1.00005e-09
-2.10386e-14
-9.99987e-10
-4.00079e-14
-9.99995e-10
-5.51223e-14
-1.00001e-09
-6.48187e-14
-1.00003e-09
-1.00005e-09
-2.91741e-14
-7.43099e-14
-9.99905e-10
-5.54552e-14
-7.43089e-14
-9.99916e-10
-7.61117e-14
-7.39349e-14
-9.99936e-10
-8.92371e-14
-7.34982e-14
-9.99964e-10
-7.30849e-14
-9.99997e-10
-2.90087e-14
-6.32245e-14
-9.99933e-10
-5.50771e-14
-6.31945e-14
-9.99944e-10
-7.56829e-14
-6.28855e-14
-9.99964e-10
-8.88415e-14
-6.25382e-14
-9.99992e-10
-6.22169e-14
-1.00002e-09
-2.88363e-14
-4.59462e-14
-9.99957e-10
-5.47586e-14
-4.58884e-14
-9.99967e-10
-7.53333e-14
-4.56599e-14
-9.99987e-10
-8.85144e-14
-4.54184e-14
-1.00001e-09
-4.52064e-14
-1.00005e-09
-2.86733e-14
-2.41307e-14
-9.99974e-10
-5.45195e-14
-2.41027e-14
-9.99984e-10
-7.50852e-14
-2.40167e-14
-1e-09
-8.82907e-14
-2.39261e-14
-1.00003e-09
-2.382e-14
-1.00006e-09
-2.85255e-14
-9.99983e-10
-5.43022e-14
-9.99994e-10
-7.48176e-14
-1.00001e-09
-8.79756e-14
-1.00004e-09
-1.00007e-09
-3.96721e-14
-1.01373e-13
-9.99871e-10
-7.52652e-14
-1.01293e-13
-9.99886e-10
-1.03424e-13
-1.00756e-13
-9.99913e-10
-1.21449e-13
-1.00117e-13
-9.99951e-10
-9.94528e-14
-9.99996e-10
-3.93686e-14
-8.6174e-14
-9.99909e-10
-7.47207e-14
-8.61004e-14
-9.99924e-10
-1.02793e-13
-8.56873e-14
-9.99951e-10
-1.20797e-13
-8.51582e-14
-9.99989e-10
-8.45777e-14
-1.00003e-09
-3.91023e-14
-6.25449e-14
-9.99941e-10
-7.42954e-14
-6.24852e-14
-9.99956e-10
-1.02262e-13
-6.21923e-14
-9.99983e-10
-1.20208e-13
-6.18449e-14
-1.00002e-09
-6.14498e-14
-1.00006e-09
-3.88999e-14
-3.28498e-14
-9.99964e-10
-7.39875e-14
-3.28347e-14
-9.99979e-10
-1.01905e-13
-3.27329e-14
-1.00001e-09
-1.19797e-13
-3.25762e-14
-1.00004e-09
-3.24002e-14
-1.00009e-09
-3.87214e-14
-9.99977e-10
-7.37068e-14
-9.99992e-10
-1.01508e-13
-1.00002e-09
-1.19336e-13
-1.00006e-09
-1.0001e-09
-5.38388e-14
-1.38187e-13
-9.99825e-10
-1.02176e-13
-1.3805e-13
-9.99845e-10
-1.40642e-13
-1.37332e-13
-9.99882e-10
-1.65365e-13
-1.36355e-13
-9.99934e-10
-1.35209e-13
-9.99995e-10
-5.33972e-14
-1.1741e-13
-9.99876e-10
-1.01446e-13
-1.17314e-13
-9.99896e-10
-1.39673e-13
-1.16734e-13
-9.99933e-10
-1.64226e-13
-1.15899e-13
-9.99985e-10
-1.14921e-13
-1.00004e-09
-5.30401e-14
-8.51877e-14
-9.9992e-10
-1.0085e-13
-8.51421e-14
-9.9994e-10
-1.38836e-13
-8.47279e-14
-9.99977e-10
-1.63238e-13
-8.41641e-14
-1.00003e-09
-8.34597e-14
-1.00009e-09
-5.28006e-14
-4.47773e-14
-9.99952e-10
-1.00415e-13
-4.47619e-14
-9.99972e-10
-1.38259e-13
-4.45896e-14
-1.00001e-09
-1.62513e-13
-4.43099e-14
-1.00006e-09
-4.39805e-14
-1.00012e-09
-5.25631e-14
-9.99969e-10
-9.9999e-14
-9.99989e-10
-1.3765e-13
-1.00003e-09
-1.61796e-13
-1.00008e-09
-1.00013e-09
-7.30895e-14
-1.88405e-13
-9.99761e-10
-1.38869e-13
-1.88203e-13
-9.99789e-10
-1.91251e-13
-1.87155e-13
-9.9984e-10
-2.24944e-13
-1.85642e-13
-9.9991e-10
-1.83801e-13
-9.99993e-10
-7.24737e-14
-1.60033e-13
-9.99832e-10
-1.37803e-13
-1.59892e-13
-9.99859e-10
-1.89746e-13
-1.59008e-13
-9.9991e-10
-2.23109e-13
-1.57717e-13
-9.99979e-10
-1.56205e-13
-1.00006e-09
-7.19796e-14
-1.16133e-13
-9.99892e-10
-1.36899e-13
-1.16059e-13
-9.99919e-10
-1.88453e-13
-1.15421e-13
-9.99969e-10
-2.21583e-13
-1.14518e-13
-1.00004e-09
-1.13415e-13
-1.00012e-09
-7.1643e-14
-6.10697e-14
-9.99935e-10
-1.36231e-13
-6.10219e-14
-9.99962e-10
-1.87531e-13
-6.0708e-14
-1.00001e-09
-2.20452e-13
-6.02418e-14
-1.00008e-09
-5.97004e-14
-1.00016e-09
-7.1294e-14
-9.99959e-10
-1.35585e-13
-9.99986e-10
-1.86617e-13
-1.00003e-09
-2.19384e-13
-1.0001e-09
-1.00018e-09
-9.93119e-14
-2.57012e-13
-9.99676e-10
-1.88845e-13
-2.56678e-13
-9.99713e-10
-2.60002e-13
-2.55039e-13
-9.99782e-10
-3.05829e-13
-2.52713e-13
-9.99878e-10
-2.49922e-13
-9.9999e-10
-9.84176e-14
-2.18258e-13
-9.99772e-10
-1.87178e-13
-2.17986e-13
-9.99809e-10
-2.57682e-13
-2.1659e-13
-9.99878e-10
-3.03046e-13
-2.1463e-13
-9.99972e-10
-2.12331e-13
-1.00008e-09
-9.76684e-14
-1.58404e-13
-9.99854e-10
-1.85755e-13
-1.58211e-13
-9.9989e-10
-2.55718e-13
-1.57203e-13
-9.99958e-10
-3.00733e-13
-1.55805e-13
-1.00005e-09
-1.5414e-13
-1.00016e-09
-9.71215e-14
-8.32848e-14
-9.99913e-10
-1.84709e-13
-8.31634e-14
-9.99949e-10
-2.54292e-13
-8.26263e-14
-1.00002e-09
-2.99031e-13
-8.18827e-14
-1.00011e-09
-8.10412e-14
-1.00022e-09
-9.65919e-14
-9.99946e-10
-1.83719e-13
-9.99981e-10
-2.52938e-13
-1.00005e-09
-2.97471e-13
-1.00014e-09
-1.00025e-09
-1.34992e-13
-3.50819e-13
-9.9956e-10
-2.56749e-13
-3.50221e-13
-9.9961e-10
-3.53352e-13
-3.47655e-13
-9.99705e-10
-4.15635e-13
-3.44143e-13
-9.99834e-10
-3.40039e-13
-9.99987e-10
-1.33637e-13
-2.97811e-13
-9.99692e-10
-2.54144e-13
-2.97258e-13
-9.99741e-10
-3.4984e-13
-2.9506e-13
-9.99834e-10
-4.11541e-13
-2.92081e-13
-9.99962e-10
-2.88595e-13
-1.00011e-09
-1.3244e-13
-2.16085e-13
-9.99803e-10
-2.51908e-13
-2.1566e-13
-9.99853e-10
-3.46854e-13
-2.14066e-13
-9.99944e-10
-4.08043e-13
-2.11897e-13
-1.00007e-09
-2.0937e-13
-1.00022e-09
-1.31537e-13
-1.13557e-13
-9.99884e-10
-2.5026e-13
-1.13316e-13
-9.99933e-10
-3.44646e-13
-1.12447e-13
-1.00002e-09
-4.05466e-13
-1.11282e-13
-1.00015e-09
-1.09993e-13
-1.0003e-09
-1.30741e-13
-9.99928e-10
-2.48775e-13
-9.99977e-10
-3.42649e-13
-1.00007e-09
-4.03196e-13
-1.00019e-09
-1.00034e-09
-1.83547e-13
-4.7913e-13
-9.99402e-10
-3.48966e-13
-4.77982e-13
-9.99471e-10
-4.80226e-13
-4.73997e-13
-9.99599e-10
-5.6484e-13
-4.68651e-13
-9.99776e-10
-4.62476e-13
-9.99983e-10
-1.81377e-13
-4.06487e-13
-9.99583e-10
-3.44928e-13
-4.0544e-13
-9.9965e-10
-4.74873e-13
-4.01997e-13
-9.99776e-10
-5.58668e-13
-3.97385e-13
-9.99949e-10
-3.92081e-13
-1.00015e-09
-1.7946e-13
-2.94786e-13
-9.99736e-10
-3.41435e-13
-2.93987e-13
-9.99802e-10
-4.70251e-13
-2.91452e-13
-9.99926e-10
-5.53353e-13
-2.88042e-13
-1.0001e-09
-2.84165e-13
-1.0003e-09
-1.78015e-13
-1.54846e-13
-9.99846e-10
-3.38827e-13
-1.5442e-13
-9.99912e-10
-4.66785e-13
-1.53059e-13
-1.00003e-09
-5.49407e-13
-1.51248e-13
-1.0002e-09
-1.49207e-13
-1.0004e-09
-1.76837e-13
-9.99906e-10
-3.36624e-13
-9.99971e-10
-4.63837e-13
-1.00009e-09
-5.46023e-13
-1.00026e-09
-1.00046e-09
-2.49555e-13
-6.54646e-13
-9.99189e-10
-4.74283e-13
-6.52526e-13
-9.99283e-10
-6.52833e-13
-6.46324e-13
-9.99457e-10
-7.67852e-13
-6.37993e-13
-9.99697e-10
-6.28472e-13
-9.99979e-10
-2.46058e-13
-5.54991e-13
-9.99436e-10
-4.68008e-13
-5.53126e-13
-9.99528e-10
-6.44488e-13
-5.47691e-13
-9.99698e-10
-7.58323e-13
-5.4042e-13
-9.99933e-10
-5.32155e-13
-1.00021e-09
-2.43023e-13
-4.02267e-13
-9.99645e-10
-4.62505e-13
-4.00852e-13
-9.99735e-10
-6.37203e-13
-3.96803e-13
-9.99902e-10
-7.5004e-13
-3.91398e-13
-1.00013e-09
-3.85278e-13
-1.0004e-09
-2.40738e-13
-2.11256e-13
-9.99796e-10
-4.58356e-13
-2.10518e-13
-9.99884e-10
-6.31717e-13
-2.08396e-13
-1.00005e-09
-7.43821e-13
-2.0552e-13
-1.00028e-09
-2.02201e-13
-1.00054e-09
-2.38977e-13
-9.99879e-10
-4.55086e-13
-9.99966e-10
-6.27282e-13
-1.00013e-09
-7.38664e-13
-1.00035e-09
-1.00062e-09
-3.39203e-13
-8.94926e-13
-9.98901e-10
-6.44698e-13
-8.91259e-13
-9.99028e-10
-8.87544e-13
-8.8146e-13
-9.99265e-10
-1.04403e-12
-8.68389e-13
-9.99591e-10
-8.53693e-13
-9.99975e-10
-3.33687e-13
-7.5809e-13
-9.99239e-10
-6.34808e-13
-7.54815e-13
-9.99363e-10
-8.7446e-13
-7.46131e-13
-9.99594e-10
-1.02931e-12
-7.34602e-13
-9.99912e-10
-7.21534e-13
-1.00029e-09
-3.28843e-13
-5.49213e-13
-9.99525e-10
-6.26033e-13
-5.46717e-13
-9.99646e-10
-8.62905e-13
-5.40222e-13
-9.99871e-10
-1.0162e-12
-5.31556e-13
-1.00018e-09
-5.21773e-13
-1.00055e-09
-3.25177e-13
-2.88417e-13
-9.99732e-10
-6.194e-13
-2.87106e-13
-9.9985e-10
-8.54119e-13
-2.83689e-13
-1.00007e-09
-1.00627e-12
-2.79033e-13
-1.00038e-09
-2.73744e-13
-1.00074e-09
-3.22481e-13
-9.99845e-10
-6.1441e-13
-9.99961e-10
-8.47327e-13
-1.00018e-09
-9.98456e-13
-1.00048e-09
-1.00084e-09
-4.61038e-13
-1.22418e-12
-9.98511e-10
-8.76439e-13
-1.21784e-12
-9.98683e-10
-1.20675e-12
-1.20217e-12
-9.99005e-10
-1.41992e-12
-1.1816e-12
-9.9945e-10
-1.15865e-12
-9.99973e-10
-4.52238e-13
-1.03601e-12
-9.98975e-10
-8.60665e-13
-1.03024e-12
-9.99142e-10
-1.18617e-12
-1.01628e-12
-9.99454e-10
-1.3969e-12
-9.97839e-13
-9.99885e-10
-9.77196e-13
-1.0004e-09
-4.44384e-13
-7.50283e-13
-9.99367e-10
-8.46573e-13
-7.45851e-13
-9.99528e-10
-1.16769e-12
-7.353e-13
-9.99831e-10
-1.37616e-12
-7.21232e-13
-1.00025e-09
-7.05571e-13
-1.00075e-09
-4.38394e-13
-3.94055e-13
-9.9965e-10
-8.35818e-13
-3.91668e-13
-9.99807e-10
-1.15344e-12
-3.86006e-13
-1.0001e-09
-1.36026e-12
-3.78447e-13
-1.00051e-09
-3.69998e-13
-1.001e-09
-4.34141e-13
-9.99805e-10
-8.27996e-13
-9.99959e-10
-1.14296e-12
-1.00025e-09
-1.34834e-12
-1.00065e-09
-1.00114e-09
-6.26578e-13
-1.67567e-12
-9.97984e-10
-1.19165e-12
-1.6646e-12
-9.98218e-10
-1.64131e-12
-1.63938e-12
-9.98657e-10
-1.93172e-12
-1.60658e-12
-9.99261e-10
-1.57052e-12
-9.99974e-10
-6.12263e-13
-1.41648e-12
-9.98622e-10
-1.16628e-12
-1.40633e-12
-9.98846e-10
-1.60851e-12
-1.38363e-12
-9.99268e-10
-1.89552e-12
-1.35377e-12
-9.99851e-10
-1.32104e-12
-1.00054e-09
-5.99374e-13
-1.02579e-12
-9.99158e-10
-1.1434e-12
-1.0178e-12
-9.99372e-10
-1.57859e-12
-1.0004e-12
-9.99779e-10
-1.8626e-12
-9.77352e-13
-1.00034e-09
-9.52051e-13
-1.00101e-09
-5.89344e-13
-5.38989e-13
-9.99548e-10
-1.12566e-12
-5.34588e-13
-9.99754e-10
-1.55528e-12
-5.25234e-13
-1.00015e-09
-1.83689e-12
-5.12799e-13
-1.0007e-09
-4.99076e-13
-1.00135e-09
-5.82448e-13
-9.99761e-10
-1.11332e-12
-9.99963e-10
-1.53883e-12
-1.00035e-09
-1.81835e-12
-1.00089e-09
-1.00153e-09
-8.51643e-13
-2.29599e-12
-9.9727e-10
-1.62097e-12
-2.27631e-12
-9.97589e-10
-2.23322e-12
-2.23504e-12
-9.98187e-10
-2.62903e-12
-2.18214e-12
-9.99012e-10
-2.12547e-12
-9.99986e-10
-8.27736e-13
-1.9378e-12
-9.98153e-10
-1.57943e-12
-1.91966e-12
-9.98451e-10
-2.18025e-12
-1.88235e-12
-9.9902e-10
-2.57204e-12
-1.83346e-12
-9.99809e-10
-1.78098e-12
-1.00075e-09
-8.06181e-13
-1.40438e-12
-9.98885e-10
-1.54183e-12
-1.38951e-12
-9.99167e-10
-2.13135e-12
-1.36061e-12
-9.99711e-10
-2.51923e-12
-1.32225e-12
-1.00047e-09
-1.28093e-12
-1.00137e-09
-7.887e-13
-7.38794e-13
-9.99424e-10
-1.51226e-12
-7.30537e-13
-9.99689e-10
-2.09261e-12
-7.15241e-13
-1.00021e-09
-2.47716e-12
-6.94411e-13
-1.00094e-09
-6.71964e-13
-1.00181e-09
-7.77189e-13
-9.99723e-10
-1.49275e-12
-9.99978e-10
-2.06631e-12
-1.00049e-09
-2.44799e-12
-1.0012e-09
-1.00206e-09
-1.15815e-12
-3.15171e-12
-9.963e-10
-2.20694e-12
-3.1153e-12
-9.96734e-10
-3.04075e-12
-3.04624e-12
-9.97555e-10
-3.58124e-12
-2.95947e-12
-9.98685e-10
-2.8691e-12
-1.00002e-09
-1.11622e-12
-2.65227e-12
-9.97536e-10
-2.13697e-12
-2.6192e-12
-9.97927e-10
-2.95352e-12
-2.55794e-12
-9.98692e-10
-3.49015e-12
-2.47672e-12
-9.99755e-10
-2.39148e-12
-1.00103e-09
-1.07943e-12
-1.9277e-12
-9.9853e-10
-2.07516e-12
-1.89833e-12
-9.98892e-10
-2.87268e-12
-1.8505e-12
-9.99621e-10
-3.40447e-12
-1.78478e-12
-1.00063e-09
-1.7163e-12
-1.00184e-09
-1.0469e-12
-1.01667e-12
-9.99289e-10
-2.02548e-12
-1.00039e-12
-9.99608e-10
-2.80653e-12
-9.76121e-13
-1.00031e-09
-3.33449e-12
-9.40336e-13
-1.00126e-09
-9.03416e-13
-1.00242e-09
-1.02665e-12
-9.99713e-10
-1.99492e-12
-1.00001e-09
-2.76354e-12
-1.0007e-09
-3.28808e-12
-1.00162e-09
-1.00275e-09
-1.57656e-12
-4.34297e-12
-9.94955e-10
-3.01099e-12
-4.27151e-12
-9.95551e-10
-4.14734e-12
-4.15214e-12
-9.96696e-10
-4.88627e-12
-4.00462e-12
-9.98258e-10
-3.85517e-12
-1.00009e-09
-1.49698e-12
-3.62795e-12
-9.96754e-10
-2.88734e-12
-3.56689e-12
-9.97241e-10
-3.99742e-12
-3.46925e-12
-9.98264e-10
-4.73521e-12
-3.33186e-12
-9.9969e-10
-3.19137e-12
-1.00139e-09
-1.43379e-12
-2.66024e-12
-9.98064e-10
-2.78823e-12
-2.59599e-12
-9.98508e-10
-3.86241e-12
-2.51905e-12
-9.99497e-10
-4.59485e-12
-2.401e-12
-1.00083e-09
-2.28559e-12
-1.00243e-09
-1.36547e-12
-1.40907e-12
-9.99174e-10
-2.70423e-12
-1.3737e-12
-9.99492e-10
-3.74452e-12
-1.33967e-12
-1.00045e-09
-4.4759e-12
-1.27568e-12
-1.00165e-09
-1.21534e-12
-1.00317e-09
-1.32744e-12
-9.99795e-10
-2.65905e-12
-1.00005e-09
-3.67216e-12
-1.00103e-09
-4.40195e-12
-1.00216e-09
-1.00365e-09
-2.15448e-12
-6.03959e-12
-9.92966e-10
-4.13055e-12
-5.8865e-12
-9.93825e-10
-5.67798e-12
-5.66876e-12
-9.95489e-10
-6.68442e-12
-5.40316e-12
-9.97707e-10
-5.13584e-12
-1.00023e-09
-1.97989e-12
-4.93448e-12
-9.95879e-10
-3.89057e-12
-4.82437e-12
-9.96392e-10
-5.39976e-12
-4.68659e-12
-9.97737e-10
-6.41338e-12
-4.45124e-12
-9.99629e-10
-4.21491e-12
-1.00182e-09
-1.87824e-12
-3.71687e-12
-9.97403e-10
-3.74628e-12
-3.55096e-12
-9.97914e-10
-5.17539e-12
-3.44195e-12
-9.99313e-10
-6.18096e-12
-3.21191e-12
-1.00106e-09
-3.01473e-12
-1.00307e-09
-1.72145e-12
-1.977e-12
-9.99193e-10
-3.6033e-12
-1.88939e-12
-9.99272e-10
-4.94826e-12
-1.86359e-12
-1.00068e-09
-5.97415e-12
-1.74039e-12
-1.0021e-09
-1.64599e-12
-1.00398e-09
-1.65533e-12
-1.00012e-09
-3.5473e-12
-1.00005e-09
-4.81852e-12
-1.00162e-09
-5.86066e-12
-1.00286e-09
-1.00473e-09
-2.99089e-12
-8.5726e-12
-9.89631e-10
-5.75244e-12
-8.21324e-12
-9.91002e-10
-7.84733e-12
-7.78892e-12
-9.93634e-10
-9.17249e-12
-7.27317e-12
-9.97017e-10
-6.71946e-12
-1.00042e-09
-2.52614e-12
-6.60701e-12
-9.95318e-10
-5.20185e-12
-6.39528e-12
-9.95535e-10
-7.26117e-12
-6.27002e-12
-9.97197e-10
-8.60656e-12
-5.87544e-12
-9.99681e-10
-5.46284e-12
-1.00205e-09
-2.43772e-12
-5.33168e-12
-9.96241e-10
-5.06204e-12
-4.85211e-12
-9.96833e-10
-6.91206e-12
-4.76195e-12
-9.98971e-10
-8.22281e-12
-4.24282e-12
-1.00138e-09
-3.91428e-12
-1.00341e-09
-2.05047e-12
-2.8149e-12
-9.99659e-10
-4.79105e-12
-2.59402e-12
-9.98789e-10
-6.40639e-12
-2.67176e-12
-1.00115e-09
-7.85678e-12
-2.39541e-12
-1.00249e-09
-2.27006e-12
-1.00445e-09
-1.95598e-12
-1.00097e-09
-4.75173e-12
-9.99847e-10
-6.18203e-12
-1.00286e-09
-7.71057e-12
-1.00373e-09
-1.00583e-09
-4.32857e-12
-1.24868e-11
-9.83483e-10
-8.30188e-12
-1.16873e-11
-9.85903e-10
-1.11293e-11
-1.08622e-11
-9.90359e-10
-1.26141e-11
-9.82391e-12
-9.96304e-10
-8.41233e-12
-1.00043e-09
-2.9799e-12
-8.75634e-12
-9.96069e-10
-6.78871e-12
-8.22819e-12
-9.95185e-10
-9.67123e-12
-8.25929e-12
-9.96917e-10
-1.13207e-11
-7.59947e-12
-1.00026e-09
-6.81959e-12
-1.00127e-09
-3.22465e-12
-7.94865e-12
-9.93824e-10
-6.9562e-12
-6.617e-12
-9.94712e-10
-9.30459e-12
-6.81832e-12
-9.98063e-10
-1.08288e-11
-5.40052e-12
-1.00206e-09
-4.9995e-12
-1.00243e-09
-2.15033e-12
-4.0504e-12
-1.00141e-09
-6.2949e-12
-3.52669e-12
-9.97735e-10
-8.06298e-12
-4.04019e-12
-1.00216e-09
-1.00791e-11
-3.33276e-12
-1.00254e-09
-3.26311e-12
-1.00359e-09
-2.10385e-12
-1.00292e-09
-6.39951e-12
-9.99078e-10
-7.76848e-12
-1.00553e-09
-9.96614e-12
-1.00486e-09
-1.00657e-09
-6.67411e-12
-1.83526e-11
-9.72083e-10
-1.26241e-11
-1.68209e-11
-9.76766e-10
-1.66608e-11
-1.53111e-11
-9.84092e-10
-1.7749e-11
-1.34237e-11
-9.96227e-10
-9.60154e-12
-9.99868e-10
-2.96375e-12
-1.17412e-11
-9.99717e-10
-8.35949e-12
-1.03753e-11
-9.96235e-10
-1.25253e-11
-1.08314e-11
-9.97231e-10
-1.46219e-11
-9.52549e-12
-1.00206e-09
-7.96909e-12
-9.97749e-10
-4.50751e-12
-1.22628e-11
-9.88795e-10
-9.79194e-12
-8.80918e-12
-9.90994e-10
-1.29152e-11
-1.03477e-11
-9.95423e-10
-1.45044e-11
-6.36978e-12
-1.00362e-09
-6.41584e-12
-9.98225e-10
-1.48948e-12
-6.12569e-12
-1.00605e-09
-7.9957e-12
-4.67906e-12
-9.95358e-10
-9.68045e-12
-6.57422e-12
-1.00425e-09
-1.26616e-11
-4.73252e-12
-1.0012e-09
-5.08986e-12
-9.99512e-10
-1.84496e-12
-1.0072e-09
-8.78353e-12
-9.96818e-10
-9.49832e-12
-1.01139e-09
-1.28207e-11
-1.00627e-09
-1.00668e-09
-1.10159e-11
-2.68632e-11
-9.51107e-10
-1.99995e-11
-2.43282e-11
-9.61397e-10
-2.65767e-11
-2.13944e-11
-9.71594e-10
-2.65023e-11
-1.84603e-11
-9.9909e-10
-9.18475e-12
-9.98443e-10
-1.70122e-12
-1.61255e-11
-1.00875e-09
-9.21212e-12
-1.28873e-11
-1.00016e-09
-1.48731e-11
-1.44272e-11
-9.98537e-10
-1.82656e-11
-1.14358e-11
-1.00569e-09
-8.16505e-12
-9.88089e-10
-7.06291e-12
-1.96134e-11
-9.78244e-10
-1.36906e-11
-1.06995e-11
-9.86554e-10
-1.80246e-11
-1.68336e-11
-9.88683e-10
-2.00103e-11
-6.33963e-12
-1.00673e-09
-8.61172e-12
-9.86967e-10
1.4979e-12
-1.01425e-11
-1.01702e-09
-9.50931e-12
-6.05418e-12
-9.88996e-10
-1.0197e-11
-1.16685e-11
-1.00873e-09
-1.54317e-11
-6.9123e-12
-9.95392e-10
-8.97806e-12
-9.88052e-10
-7.40684e-13
-1.0166e-09
-1.26976e-11
-9.90916e-10
-1.0869e-11
-1.02489e-09
-1.66893e-11
-1.00736e-09
-1.00684e-09
-1.9507e-11
-3.8751e-11
-9.12144e-10
-3.31656e-11
-3.58928e-11
-9.36414e-10
-4.54258e-11
-2.93694e-11
-9.45626e-10
-4.32093e-11
-2.4619e-11
-1.01187e-09
-4.22989e-12
-9.97403e-10
2.68634e-12
-2.32421e-11
-1.02695e-09
-8.69446e-12
-1.5964e-11
-1.00871e-09
-1.46256e-11
-1.95031e-11
-1.00247e-09
-2.16556e-11
-1.20067e-11
-1.01127e-09
-4.78606e-12
-9.65729e-10
-1.28345e-11
-3.35155e-11
-9.55136e-10
-1.96605e-11
-9.4433e-12
-9.86248e-10
-2.4836e-11
-2.99914e-11
-9.73019e-10
-2.91296e-11
-3.49901e-12
-1.01095e-09
-1.2359e-11
-9.6006e-10
1.1325e-11
-1.77527e-11