/*--------------------------------*- C++ -*----------------------------------*\
| =========                 |                                                 |
| \\      /  F ield         | OpenFOAM: The Open Source CFD Toolbox           |
|  \\    /   O peration     | Version:  5.x                                   |
|   \\  /    A nd           | Web:      www.OpenFOAM.org                      |
|    \\/     M anipulation  |                                                 |
\*---------------------------------------------------------------------------*/
FoamFile
{
    version     2.0;
    format      ascii;
    class       volScalarField;
    location    "0.003";
    object      p;
}
// * * * * * * * * * * * * * * * * * * * * * * * * * * * * * * * * * * * * * //

dimensions      [0 2 -2 0 0 0 0];

internalField   nonuniform List<scalar> 
180
(
9.06393e-09
2.71197e-08
4.52161e-08
6.34165e-08
8.16435e-08
9.99778e-08
1.18442e-07
1.3706e-07
1.55855e-07
1.74846e-07
1.94051e-07
2.13487e-07
2.33166e-07
2.53097e-07
2.73285e-07
2.93732e-07
3.14436e-07
3.3539e-07
3.56582e-07
3.77995e-07
3.99608e-07
4.21393e-07
4.43315e-07
4.65328e-07
4.87376e-07
5.09385e-07
5.31266e-07
5.52928e-07
5.74266e-07
5.95152e-07
6.15433e-07
6.34931e-07
6.53433e-07
6.7069e-07
6.86411e-07
7.00248e-07
7.11793e-07
7.20563e-07
7.25986e-07
7.27387e-07
7.23973e-07
7.14809e-07
6.98799e-07
6.7465e-07
6.4084e-07
5.95582e-07
5.36777e-07
4.61961e-07
3.68243e-07
2.52241e-07
1.09998e-07
-6.31015e-08
-2.72447e-07
-5.24324e-07
-8.26054e-07
-1.18616e-06
-1.61455e-06
-2.12303e-06
-2.72542e-06
-3.43786e-06
-4.27931e-06
-5.27199e-06
-6.44193e-06
-7.81969e-06
-9.44161e-06
-1.13501e-05
-1.35949e-05
-1.62343e-05
-1.93369e-05
-2.29833e-05
-2.72682e-05
-3.23029e-05
-3.82173e-05
-4.51687e-05
-5.33617e-05
-6.30535e-05
-7.43792e-05
-8.68547e-05
-0.00010033
-0.000122686
-0.000217789
0.000751828
0.00122796
0.00156104
0.0030891
0.00446964
0.00569617
0.00692136
0.00988391
0.0111946
0.0117439
0.0133496
0.0136517
0.0138706
0.0147605
0.01552
0.0164517
0.016892
0.0176925
0.0206293
0.0214476
0.0215477
0.02161
0.021634
0.0216448
0.0216408
0.0216385
0.0216378
0.0216375
0.0216373
0.0216371
0.021637
0.0216369
0.0216369
0.0216369
0.0216369
0.021637
0.0216371
0.0216371
0.0216372
0.0216373
0.0216374
0.0216375
0.0216376
0.0216377
0.0216377
0.0216378
0.0216379
0.021638
0.021638
0.0216381
0.0216381
0.0216382
0.0216382
0.0216383
0.0216383
0.0216384
0.0216384
0.0216384
0.0216385
0.0216385
0.0216385
0.0216385
0.0216386
0.0216386
0.0216386
0.0216386
0.0216387
0.0216387
0.0216387
0.0216387
0.0216387
0.0216387
0.0216387
0.0216388
0.0216388
0.0216388
0.0216388
0.0216388
0.0216388
0.0216388
0.0216388
0.0216388
0.0216388
0.0216388
0.0216389
0.0216389
0.0216389
0.0216389
0.0216389
0.0216389
0.0216389
0.0216389
0.0216389
0.0216389
0.0216389
0.0216389
0.0216389
0.0216389
0.0216389
)
;

boundaryField
{
    inlet
    {
        type            zeroGradient;
    }
    outlet
    {
        type            fixedValue;
        value           uniform 0;
    }
    repeat_boundary
    {
        type            zeroGradient;
    }
    procBoundary3to1
    {
        type            processor;
        value           nonuniform List<scalar> 
180
(
8.8814e-09
2.65138e-08
4.41089e-08
6.17858e-08
7.94978e-08
9.73079e-08
1.15236e-07
1.33301e-07
1.51516e-07
1.69892e-07
1.88435e-07
2.07147e-07
2.26027e-07
2.45072e-07
2.64276e-07
2.83631e-07
3.03131e-07
3.22767e-07
3.42534e-07
3.6243e-07
3.82453e-07
4.02609e-07
4.22904e-07
4.4335e-07
4.63958e-07
4.84743e-07
5.05714e-07
5.26871e-07
5.48198e-07
5.6965e-07
5.91131e-07
6.1247e-07
6.33581e-07
6.54371e-07
6.74773e-07
6.94686e-07
7.13965e-07
7.3242e-07
7.49807e-07
7.65824e-07
7.80098e-07
7.92183e-07
8.0154e-07
8.07525e-07
8.09368e-07
8.06143e-07
7.96742e-07
7.79871e-07
7.54022e-07
7.17683e-07
6.69081e-07
6.06142e-07
5.26443e-07
4.27156e-07
3.04992e-07
1.56145e-07
-2.37597e-08
-2.39691e-07
-4.97192e-07
-8.02268e-07
-1.1611e-06
-1.58161e-06
-2.074e-06
-2.64986e-06
-3.32235e-06
-4.10634e-06
-5.01857e-06
-6.07774e-06
-7.30469e-06
-8.72246e-06
-1.03563e-05
-1.22332e-05
-1.43818e-05
-1.68345e-05
-1.96405e-05
-2.28646e-05
-2.64453e-05
-2.97914e-05
-3.24572e-05
-3.86225e-05
-7.83185e-05
0.00059026
0.00106104
0.00104735
0.00440421
0.00568258
0.00682887
0.00761654
0.00809469
0.00937876
0.0118211
0.0140847
0.0158539
0.0163117
0.016547
0.0169963
0.0173749
0.0181697
0.0187113
0.019651
0.0210892
0.021415
0.0215596
0.0216487
0.0216695
0.0216678
0.0216613
0.0216573
0.0216546
0.0216524
0.0216504
0.0216487
0.0216472
0.0216459
0.0216448
0.0216438
0.021643
0.0216423
0.0216417
0.0216412
0.0216408
0.0216404
0.0216401
0.0216398
0.0216396
0.0216394
0.0216393
0.0216391
0.021639
0.021639
0.0216389
0.0216388
0.0216388
0.0216388
0.0216387
0.0216387
0.0216387
0.0216387
0.0216387
0.0216387
0.0216387
0.0216387
0.0216387
0.0216387
0.0216387
0.0216387
0.0216387
0.0216387
0.0216387
0.0216387
0.0216387
0.0216387
0.0216388
0.0216388
0.0216388
0.0216388
0.0216388
0.0216388
0.0216388
0.0216388
0.0216388
0.0216388
0.0216388
0.0216388
0.0216389
0.0216389
0.0216389
0.0216389
0.0216389
0.0216389
0.0216389
0.0216389
0.0216389
0.0216389
0.0216389
0.0216389
0.0216389
0.0216389
0.0216389
0.0216389
)
;
    }
    procBoundary3to2
    {
        type            processor;
        value           nonuniform List<scalar> 
180
(
8.64946e-09
2.58357e-08
4.29633e-08
6.01257e-08
7.72608e-08
9.44154e-08
1.11592e-07
1.28791e-07
1.46006e-07
1.63227e-07
1.8044e-07
1.97622e-07
2.1475e-07
2.31795e-07
2.48724e-07
2.65504e-07
2.82098e-07
2.9847e-07
3.14587e-07
3.30415e-07
3.45927e-07
3.61101e-07
3.75923e-07
3.9039e-07
4.04515e-07
4.18329e-07
4.31882e-07
4.45221e-07
4.58415e-07
4.71547e-07
4.8472e-07
4.98054e-07
5.11686e-07
5.2577e-07
5.4048e-07
5.56007e-07
5.72568e-07
5.90406e-07
6.09798e-07
6.31063e-07
6.54566e-07
6.80735e-07
7.10073e-07
7.43183e-07
7.80787e-07
8.23758e-07
8.73144e-07
9.30213e-07
9.96487e-07
1.07379e-06
1.1643e-06
1.27058e-06
1.39569e-06
1.5432e-06
1.71732e-06
1.92298e-06
2.16589e-06
2.45301e-06
2.79252e-06
3.19402e-06
3.66886e-06
4.23045e-06
4.89462e-06
5.6801e-06
6.6096e-06
7.7098e-06
9.01221e-06
1.05543e-05
1.23805e-05
1.45438e-05
1.71071e-05
2.01456e-05
2.37498e-05
2.80255e-05
3.30812e-05
3.90186e-05
4.607e-05
5.51431e-05
6.75967e-05
8.27929e-05
4.08658e-05
0.000998604
0.00139547
0.00162711
0.00389874
0.00469539
0.00711706
0.00826394
0.00899328
0.009875
0.0102077
0.0111947
0.0117682
0.0119571
0.0137757
0.0161312
0.0185275
0.0191937
0.0195111
0.020006
0.0203524
0.0206973
0.0212285
0.0215097
0.0216014
0.0216115
0.0216109
0.021614
0.0216179
0.0216211
0.0216238
0.0216261
0.021628
0.0216297
0.0216311
0.0216323
0.0216333
0.0216342
0.0216349
0.0216356
0.0216361
0.0216366
0.0216369
0.0216373
0.0216375
0.0216378
0.021638
0.0216381
0.0216383
0.0216384
0.0216385
0.0216386
0.0216386
0.0216387
0.0216387
0.0216388
0.0216388
0.0216388
0.0216388
0.0216388
0.0216389
0.0216389
0.0216389
0.0216389
0.0216389
0.0216389
0.0216389
0.0216389
0.0216389
0.0216389
0.0216389
0.0216389
0.0216389
0.0216389
0.0216389
0.0216389
0.0216389
0.0216389
0.0216389
0.0216389
0.0216389
0.0216389
0.0216389
0.0216389
0.0216389
0.0216389
0.0216389
0.0216389
0.0216389
0.0216389
0.0216389
0.0216389
0.0216389
0.0216389
0.0216389
0.0216389
0.0216389
0.0216389
0.0216389
0.0216389
)
;
    }
}


// ************************************************************************* //
