/*--------------------------------*- C++ -*----------------------------------*\
| =========                 |                                                 |
| \\      /  F ield         | OpenFOAM: The Open Source CFD Toolbox           |
|  \\    /   O peration     | Version:  5.x                                   |
|   \\  /    A nd           | Web:      www.OpenFOAM.org                      |
|    \\/     M anipulation  |                                                 |
\*---------------------------------------------------------------------------*/
FoamFile
{
    version     2.0;
    format      ascii;
    class       surfaceScalarField;
    location    "0.003";
    object      phi;
}
// * * * * * * * * * * * * * * * * * * * * * * * * * * * * * * * * * * * * * //

dimensions      [0 3 -1 0 0 0 0];

internalField   nonuniform List<scalar> 
179
(
-2.5001e-10
-2.5001e-10
-2.5001e-10
-2.50011e-10
-2.50011e-10
-2.50012e-10
-2.50013e-10
-2.50014e-10
-2.50016e-10
-2.50017e-10
-2.50019e-10
-2.50021e-10
-2.50023e-10
-2.50025e-10
-2.50028e-10
-2.50031e-10
-2.50034e-10
-2.50038e-10
-2.50042e-10
-2.50047e-10
-2.50052e-10
-2.50058e-10
-2.50064e-10
-2.50071e-10
-2.50079e-10
-2.50088e-10
-2.50097e-10
-2.50108e-10
-2.5012e-10
-2.50133e-10
-2.50147e-10
-2.50163e-10
-2.50181e-10
-2.50201e-10
-2.50223e-10
-2.50248e-10
-2.50275e-10
-2.50305e-10
-2.50339e-10
-2.50376e-10
-2.50417e-10
-2.50463e-10
-2.50513e-10
-2.50569e-10
-2.50631e-10
-2.507e-10
-2.50776e-10
-2.50861e-10
-2.50954e-10
-2.51058e-10
-2.51173e-10
-2.513e-10
-2.51441e-10
-2.51597e-10
-2.51769e-10
-2.5196e-10
-2.52171e-10
-2.52405e-10
-2.52663e-10
-2.52949e-10
-2.53265e-10
-2.53613e-10
-2.53999e-10
-2.54424e-10
-2.54893e-10
-2.55411e-10
-2.55982e-10
-2.56611e-10
-2.57304e-10
-2.58067e-10
-2.58906e-10
-2.59828e-10
-2.60841e-10
-2.61953e-10
-2.63173e-10
-2.64511e-10
-2.65977e-10
-2.6757e-10
-2.69209e-10
-2.70495e-10
-2.70583e-10
-2.70679e-10
-2.79476e-10
-2.7978e-10
-2.74993e-10
-2.72496e-10
-2.66768e-10
-2.61433e-10
-2.64575e-10
-2.69684e-10
-2.74296e-10
-2.74067e-10
-2.8557e-10
-2.81739e-10
-2.82764e-10
-2.77848e-10
-2.69455e-10
-2.54584e-10
-2.44841e-10
-2.45538e-10
-2.52717e-10
-2.58836e-10
-2.64677e-10
-2.67026e-10
-2.67226e-10
-2.65933e-10
-2.64587e-10
-2.63375e-10
-2.62268e-10
-2.61242e-10
-2.60292e-10
-2.59414e-10
-2.58604e-10
-2.57857e-10
-2.57169e-10
-2.56538e-10
-2.55958e-10
-2.55426e-10
-2.54938e-10
-2.54492e-10
-2.54085e-10
-2.53712e-10
-2.53372e-10
-2.53061e-10
-2.52778e-10
-2.52521e-10
-2.52286e-10
-2.52072e-10
-2.51877e-10
-2.51701e-10
-2.5154e-10
-2.51394e-10
-2.51262e-10
-2.51141e-10
-2.51032e-10
-2.50934e-10
-2.50844e-10
-2.50763e-10
-2.50689e-10
-2.50623e-10
-2.50563e-10
-2.50508e-10
-2.50459e-10
-2.50415e-10
-2.50374e-10
-2.50338e-10
-2.50305e-10
-2.50275e-10
-2.50249e-10
-2.50224e-10
-2.50202e-10
-2.50182e-10
-2.50164e-10
-2.50148e-10
-2.50133e-10
-2.5012e-10
-2.50108e-10
-2.50097e-10
-2.50087e-10
-2.50078e-10
-2.5007e-10
-2.50063e-10
-2.50056e-10
-2.5005e-10
-2.50045e-10
-2.5004e-10
-2.50035e-10
-2.50031e-10
-2.50028e-10
-2.50024e-10
-2.50021e-10
-2.50018e-10
-2.50016e-10
-2.50013e-10
-2.50011e-10
-2.50009e-10
-2.50007e-10
-2.50005e-10
-2.50003e-10
)
;

boundaryField
{
    inlet
    {
        type            calculated;
        value           uniform -2.50001e-10;
    }
    outlet
    {
        type            calculated;
        value           uniform 2.5001e-10;
    }
    repeat_boundary
    {
        type            calculated;
        value           uniform 0;
    }
    procBoundary3to1
    {
        type            processor;
        value           nonuniform List<scalar> 
180
(
1.34305e-16
2.27086e-16
3.52648e-16
4.87927e-16
6.29074e-16
7.76551e-16
9.31815e-16
1.09659e-15
1.27273e-15
1.4622e-15
1.6671e-15
1.8897e-15
2.13246e-15
2.39805e-15
2.68938e-15
3.00962e-15
3.36223e-15
3.75099e-15
4.18005e-15
4.65393e-15
5.17763e-15
5.7566e-15
6.39684e-15
7.10498e-15
7.88829e-15
8.7548e-15
9.7134e-15
1.0774e-14
1.19478e-14
1.3247e-14
1.46856e-14
1.62792e-14
1.80447e-14
2.00007e-14
2.21676e-14
2.45681e-14
2.72274e-14
3.01736e-14
3.34376e-14
3.70539e-14
4.10609e-14
4.55008e-14
5.04206e-14
5.58723e-14
6.19133e-14
6.86071e-14
7.6024e-14
8.42416e-14
9.33463e-14
1.03432e-13
1.14604e-13
1.26977e-13
1.40679e-13
1.55849e-13
1.72645e-13
1.91236e-13
2.11813e-13
2.34583e-13
2.59774e-13
2.87639e-13
3.18453e-13
3.52518e-13
3.90166e-13
4.31769e-13
4.77738e-13
5.28514e-13
5.84581e-13
6.46466e-13
7.1474e-13
7.90019e-13
8.72992e-13
9.64427e-13
1.06526e-12
1.17642e-12
1.2986e-12
1.4313e-12
1.56832e-12
1.68595e-12
1.69098e-12
1.37214e-12
2.17639e-13
8.60703e-14
6.45207e-12
2.84256e-13
-2.49575e-12
-2.32659e-12
-3.06152e-12
-2.81248e-12
2.15012e-12
1.75239e-12
-6.92483e-13
-8.87058e-13
-1.03046e-11
-6.18304e-12
-2.11339e-12
-4.26588e-12
-4.56318e-12
-4.62188e-12
-3.34887e-12
2.97314e-13
1.51941e-12
1.94807e-12
1.9683e-12
1.11445e-12
8.12041e-13
5.8249e-13
5.79339e-13
5.68167e-13
5.19959e-13
4.613e-13
4.06324e-13
3.57697e-13
3.14968e-13
2.7742e-13
2.44425e-13
2.15424e-13
1.89924e-13
1.67492e-13
1.4775e-13
1.30369e-13
1.1506e-13
1.0157e-13
8.96798e-14
7.91943e-14
6.99441e-14
6.17802e-14
5.45739e-14
4.82193e-14
4.26156e-14
3.76732e-14
3.33134e-14
2.94665e-14
2.60715e-14
2.30745e-14
2.04282e-14
1.80906e-14
1.60252e-14
1.41996e-14
1.25851e-14
1.11564e-14
9.8914e-15
8.77026e-15
7.77595e-15
6.894e-15
6.11119e-15
5.41594e-15
4.79824e-15
4.2493e-15
3.76152e-15
3.32916e-15
2.94633e-15
2.60738e-15
2.30847e-15
2.04813e-15
1.81671e-15
1.60983e-15
1.42418e-15
1.25824e-15
1.11156e-15
9.82412e-16
8.68979e-16
7.69454e-16
6.82163e-16
6.05606e-16
5.38468e-16
4.79599e-16
4.27994e-16
3.8277e-16
3.43145e-16
3.08422e-16
2.77973e-16
2.51229e-16
2.2767e-16
2.06822e-16
1.88261e-16
1.71621e-16
1.56706e-16
1.4383e-16
1.34545e-16
1.19608e-16
)
;
    }
    procBoundary3to2
    {
        type            processor;
        value           nonuniform List<scalar> 
180
(
-2.40896e-17
-1.47355e-17
-1.38462e-17
-1.55206e-17
-1.76667e-17
-1.95163e-17
-2.08658e-17
-2.16196e-17
-2.17131e-17
-2.10897e-17
-1.97012e-17
-1.75193e-17
-1.45636e-17
-1.08504e-17
-6.40227e-18
-1.25777e-18
4.52352e-18
1.08804e-17
1.77213e-17
2.4905e-17
3.2192e-17
3.91751e-17
4.51885e-17
4.91796e-17
4.95244e-17
4.78061e-17
5.23716e-17
5.57395e-17
5.7755e-17
5.83605e-17
5.76297e-17
5.57901e-17
5.32334e-17
5.04964e-17
4.82251e-17
4.71212e-17
4.78837e-17
5.1152e-17
5.74538e-17
6.71585e-17
8.04343e-17
9.72273e-17
1.17324e-16
1.40176e-16
1.64961e-16
1.90564e-16
2.15495e-16
2.37795e-16
2.54854e-16
2.63003e-16
2.5767e-16
2.33077e-16
1.81768e-16
9.4026e-17
-4.2797e-17
-2.42525e-16
-5.00292e-16
-8.47082e-16
-1.30512e-15
-1.9016e-15
-2.66909e-15
-3.64755e-15
-4.88524e-15
-6.37411e-15
-8.26299e-15
-1.06367e-14
-1.35735e-14
-1.71989e-14
-2.16717e-14
-2.71705e-14
-3.391e-14
-4.21493e-14
-5.21986e-14
-6.43891e-14
-7.87857e-14
-9.38409e-14
-1.02826e-13
-9.1797e-14
-5.23625e-14
-8.66789e-14
-1.30397e-13
1.01068e-14
2.34499e-12
1.96356e-14
-2.2912e-12
-1.70493e-13
-2.66612e-12
-2.52234e-12
9.9143e-13
3.35707e-12
5.30427e-12
6.58386e-13
2.18077e-11
2.351e-12
3.13957e-12
-6.50877e-13
-3.82892e-12
-1.02489e-11
-6.39499e-12
4.00746e-13
5.65937e-12
4.17169e-12
3.8721e-12
1.23523e-12
-6.12228e-13
-1.87544e-12
-1.92545e-12
-1.77977e-12
-1.62755e-12
-1.48682e-12
-1.35623e-12
-1.23584e-12
-1.12544e-12
-1.02436e-12
-9.31862e-13
-8.47282e-13
-7.70006e-13
-6.99455e-13
-6.3509e-13
-5.76406e-13
-5.22936e-13
-4.74245e-13
-4.29927e-13
-3.89611e-13
-3.52956e-13
-3.19648e-13
-2.89396e-13
-2.61932e-13
-2.37009e-13
-2.14403e-13
-1.93905e-13
-1.75326e-13
-1.5849e-13
-1.43237e-13
-1.29423e-13
-1.16917e-13
-1.05598e-13
-9.53571e-14
-8.60938e-14
-7.77172e-14
-7.01442e-14
-6.32996e-14
-5.71146e-14
-5.15271e-14
-4.64804e-14
-4.19233e-14
-3.78092e-14
-3.40959e-14
-3.07451e-14
-2.77222e-14
-2.49958e-14
-2.25373e-14
-2.03209e-14
-1.83233e-14
-1.65234e-14
-1.49019e-14
-1.34416e-14
-1.21267e-14
-1.09433e-14
-9.87843e-15
-8.92073e-15
-8.05982e-15
-7.28637e-15
-6.59202e-15
-5.96928e-15
-5.41143e-15
-4.91248e-15
-4.46707e-15
-4.07045e-15
-3.7184e-15
-3.4072e-15
-3.13356e-15
-2.89461e-15
-2.68783e-15
-2.51107e-15
-2.36242e-15
-2.24003e-15
-2.14194e-15
-2.0667e-15
-2.06389e-15
)
;
    }
}


// ************************************************************************* //
