/*--------------------------------*- C++ -*----------------------------------*\
| =========                 |                                                 |
| \\      /  F ield         | OpenFOAM: The Open Source CFD Toolbox           |
|  \\    /   O peration     | Version:  5.x                                   |
|   \\  /    A nd           | Web:      www.OpenFOAM.org                      |
|    \\/     M anipulation  |                                                 |
\*---------------------------------------------------------------------------*/
FoamFile
{
    version     2.0;
    format      ascii;
    class       volVectorField;
    location    "0.003";
    object      stored_U;
}
// * * * * * * * * * * * * * * * * * * * * * * * * * * * * * * * * * * * * * //

dimensions      [0 1 -1 0 0 0 0];

internalField   nonuniform List<vector> 
180
(
(1.09896e-09 -4.30259e-09 -0.001)
(1.27032e-09 -7.36508e-09 -0.001)
(1.77503e-09 -1.15731e-08 -0.001)
(2.41935e-09 -1.62123e-08 -0.00100001)
(3.1133e-09 -2.11089e-08 -0.00100001)
(3.83288e-09 -2.62636e-08 -0.00100001)
(4.57487e-09 -3.17227e-08 -0.00100001)
(5.34096e-09 -3.7545e-08 -0.00100002)
(6.13358e-09 -4.37945e-08 -0.00100002)
(6.95508e-09 -5.05403e-08 -0.00100003)
(7.8075e-09 -5.78568e-08 -0.00100003)
(8.69254e-09 -6.58246e-08 -0.00100004)
(9.61151e-09 -7.45313e-08 -0.00100005)
(1.05653e-08 -8.40727e-08 -0.00100006)
(1.15545e-08 -9.45536e-08 -0.00100007)
(1.25792e-08 -1.06089e-07 -0.00100008)
(1.3639e-08 -1.18806e-07 -0.00100009)
(1.4733e-08 -1.32842e-07 -0.0010001)
(1.58601e-08 -1.48354e-07 -0.00100012)
(1.70181e-08 -1.65509e-07 -0.00100014)
(1.82045e-08 -1.84495e-07 -0.00100015)
(1.94158e-08 -2.05521e-07 -0.00100018)
(2.06474e-08 -2.28816e-07 -0.0010002)
(2.18934e-08 -2.54635e-07 -0.00100023)
(2.31464e-08 -2.8326e-07 -0.00100026)
(2.43968e-08 -3.15005e-07 -0.00100029)
(2.56328e-08 -3.50216e-07 -0.00100033)
(2.68396e-08 -3.89279e-07 -0.00100037)
(2.79992e-08 -4.3262e-07 -0.00100041)
(2.90892e-08 -4.80715e-07 -0.00100046)
(3.00831e-08 -5.34089e-07 -0.00100052)
(3.09483e-08 -5.93326e-07 -0.00100058)
(3.16461e-08 -6.59074e-07 -0.00100065)
(3.21303e-08 -7.32054e-07 -0.00100073)
(3.23459e-08 -8.13062e-07 -0.00100082)
(3.22274e-08 -9.02986e-07 -0.00100092)
(3.16978e-08 -1.00281e-06 -0.00100102)
(3.06656e-08 -1.11363e-06 -0.00100114)
(2.90232e-08 -1.23665e-06 -0.00100128)
(2.6644e-08 -1.37323e-06 -0.00100143)
(2.33798e-08 -1.52486e-06 -0.00100159)
(1.90581e-08 -1.6932e-06 -0.00100178)
(1.34768e-08 -1.8801e-06 -0.00100199)
(6.39928e-09 -2.08761e-06 -0.00100222)
(-2.45137e-09 -2.318e-06 -0.00100247)
(-1.33994e-08 -2.57381e-06 -0.00100276)
(-2.68239e-08 -2.85784e-06 -0.00100308)
(-4.31678e-08 -3.17321e-06 -0.00100344)
(-6.2949e-08 -3.52339e-06 -0.00100383)
(-8.67721e-08 -3.91225e-06 -0.00100427)
(-1.1534e-07 -4.34407e-06 -0.00100477)
(-1.49471e-07 -4.8236e-06 -0.00100532)
(-1.90113e-07 -5.35616e-06 -0.00100593)
(-2.38363e-07 -5.94763e-06 -0.00100661)
(-2.95494e-07 -6.60455e-06 -0.00100738)
(-3.62967e-07 -7.3342e-06 -0.00100823)
(-4.4248e-07 -8.14469e-06 -0.00100918)
(-5.36042e-07 -9.04507e-06 -0.00101024)
(-6.45991e-07 -1.00454e-05 -0.00101143)
(-7.75038e-07 -1.11571e-05 -0.00101275)
(-9.26346e-07 -1.23928e-05 -0.00101423)
(-1.10358e-06 -1.37665e-05 -0.00101588)
(-1.31103e-06 -1.52938e-05 -0.00101773)
(-1.55368e-06 -1.69921e-05 -0.0010198)
(-1.83745e-06 -1.88808e-05 -0.00102212)
(-2.16921e-06 -2.09817e-05 -0.00102471)
(-2.55694e-06 -2.33192e-05 -0.00102761)
(-3.00996e-06 -2.59203e-05 -0.00103086)
(-3.53914e-06 -2.88156e-05 -0.0010345)
(-4.15723e-06 -3.20393e-05 -0.00103859)
(-4.87907e-06 -3.56296e-05 -0.00104317)
(-5.72205e-06 -3.96298e-05 -0.00104832)
(-6.70661e-06 -4.40884e-05 -0.00105406)
(-7.85811e-06 -4.90596e-05 -0.00106043)
(-9.21632e-06 -5.45993e-05 -0.00106775)
(-1.08766e-05 -6.07425e-05 -0.00107769)
(-1.30821e-05 -6.72977e-05 -0.00109157)
(-1.63163e-05 -7.36621e-05 -0.00109501)
(-2.09978e-05 -7.69001e-05 -0.00105006)
(-2.51282e-05 -7.02719e-05 -0.000826722)
(-2.75684e-05 -4.58641e-05 -0.00331935)
(-7.20443e-06 -4.92055e-05 -4.61372e-05)
(-0.000121888 -0.000298872 -0.00397935)
(4.97217e-06 -5.77619e-05 -8.78384e-05)
(0.000158166 0.000325357 -0.00435219)
(2.95724e-05 -5.54761e-05 -0.000184499)
(0.000372107 0.000370975 -0.00473295)
(1.13708e-06 -3.83998e-05 -0.000286802)
(-3.39698e-05 -0.000121803 -0.00475163)
(-6.73276e-05 -7.91301e-05 -0.00140193)
(-0.000282143 0.000113051 -0.00548853)
(-5.22251e-05 4.09371e-05 -0.0001833)
(-0.00123536 0.000994182 -0.00463831)
(-9.02476e-05 6.97415e-05 -0.000420407)
(-0.000272414 0.000407424 -0.00460581)
(8.18191e-05 0.000132538 -0.00126886)
(0.000678808 0.000375252 -0.00333614)
(0.000625551 0.000348008 -0.00265841)
(0.000371104 0.000202736 -0.0051289)
(9.66617e-07 -1.62591e-05 -0.000917179)
(-0.00024074 -0.000120485 -0.00325428)
(-0.000273572 -0.000102388 -0.0012898)
(-0.000302347 -0.000127507 -0.00167329)
(-9.32441e-05 -6.90497e-05 -0.00119144)
(2.24827e-05 -5.05488e-05 -0.00122104)
(6.63218e-05 -3.53261e-05 -0.00108119)
(7.0929e-05 -2.91698e-05 -0.00105334)
(6.63996e-05 -2.56252e-05 -0.00105376)
(6.07442e-05 -2.25652e-05 -0.00105202)
(5.53242e-05 -1.97844e-05 -0.00104772)
(5.02885e-05 -1.7338e-05 -0.00104341)
(4.56663e-05 -1.52036e-05 -0.00103957)
(4.1448e-05 -1.33369e-05 -0.0010361)
(3.76042e-05 -1.17017e-05 -0.00103291)
(3.41038e-05 -1.02688e-05 -0.00102999)
(3.09176e-05 -9.01327e-06 -0.00102731)
(2.80192e-05 -7.91293e-06 -0.00102485)
(2.53838e-05 -6.94846e-06 -0.00102261)
(2.29888e-05 -6.10295e-06 -0.00102055)
(2.08133e-05 -5.36161e-06 -0.00101868)
(1.88381e-05 -4.7115e-06 -0.00101697)
(1.70455e-05 -4.14129e-06 -0.00101541)
(1.54192e-05 -3.64107e-06 -0.00101398)
(1.39444e-05 -3.20217e-06 -0.00101269)
(1.26076e-05 -2.81698e-06 -0.00101151)
(1.13961e-05 -2.47887e-06 -0.00101043)
(1.02986e-05 -2.182e-06 -0.00100945)
(9.3048e-06 -1.92127e-06 -0.00100857)
(8.40504e-06 -1.69222e-06 -0.00100776)
(7.5907e-06 -1.49095e-06 -0.00100702)
(6.85387e-06 -1.31403e-06 -0.00100636)
(6.18734e-06 -1.15847e-06 -0.00100575)
(5.58455e-06 -1.02165e-06 -0.0010052)
(5.0395e-06 -9.0128e-07 -0.00100471)
(4.54679e-06 -7.95362e-07 -0.00100425)
(4.10152e-06 -7.02137e-07 -0.00100385)
(3.69923e-06 -6.20068e-07 -0.00100348)
(3.33588e-06 -5.47807e-07 -0.00100314)
(3.00776e-06 -4.84172e-07 -0.00100284)
(2.71153e-06 -4.28126e-07 -0.00100256)
(2.44413e-06 -3.78758e-07 -0.00100231)
(2.20282e-06 -3.35266e-07 -0.00100209)
(1.98508e-06 -2.96947e-07 -0.00100188)
(1.78865e-06 -2.63181e-07 -0.0010017)
(1.61148e-06 -2.33422e-07 -0.00100153)
(1.4517e-06 -2.07189e-07 -0.00100138)
(1.30763e-06 -1.84059e-07 -0.00100125)
(1.17776e-06 -1.63657e-07 -0.00100112)
(1.0607e-06 -1.45656e-07 -0.00100101)
(9.55217e-07 -1.29766e-07 -0.00100091)
(8.60174e-07 -1.1573e-07 -0.00100082)
(7.7456e-07 -1.03326e-07 -0.00100074)
(6.97454e-07 -9.23576e-08 -0.00100066)
(6.28026e-07 -8.26526e-08 -0.0010006)
(5.65526e-07 -7.40623e-08 -0.00100054)
(5.09274e-07 -6.64559e-08 -0.00100048)
(4.58661e-07 -5.97178e-08 -0.00100043)
(4.13135e-07 -5.37451e-08 -0.00100039)
(3.722e-07 -4.84468e-08 -0.00100035)
(3.35409e-07 -4.37429e-08 -0.00100031)
(3.0236e-07 -3.95628e-08 -0.00100028)
(2.72691e-07 -3.58448e-08 -0.00100025)
(2.46075e-07 -3.25349e-08 -0.00100022)
(2.22222e-07 -2.95855e-08 -0.0010002)
(2.00867e-07 -2.69551e-08 -0.00100018)
(1.81775e-07 -2.46069e-08 -0.00100016)
(1.64735e-07 -2.25089e-08 -0.00100014)
(1.49559e-07 -2.06326e-08 -0.00100012)
(1.36078e-07 -1.8953e-08 -0.00100011)
(1.24144e-07 -1.7448e-08 -0.0010001)
(1.13623e-07 -1.60981e-08 -0.00100008)
(1.04398e-07 -1.48861e-08 -0.00100007)
(9.63674e-08 -1.37967e-08 -0.00100006)
(8.94412e-08 -1.28165e-08 -0.00100005)
(8.35418e-08 -1.1934e-08 -0.00100004)
(7.86014e-08 -1.11396e-08 -0.00100004)
(7.45543e-08 -1.04307e-08 -0.00100003)
(7.13349e-08 -9.82249e-09 -0.00100002)
(6.89149e-08 -9.37412e-09 -0.00100001)
(6.73942e-08 -9.26599e-09 -0.00100001)
)
;

boundaryField
{
    inlet
    {
        type            calculated;
        value           uniform (6.73942e-08 -9.26599e-09 -0.00100001);
    }
    outlet
    {
        type            calculated;
        value           uniform (1.09896e-09 -4.30259e-09 -0.001);
    }
    repeat_boundary
    {
        type            calculated;
        value           nonuniform List<vector> 
360
(
(0 -4.30259e-09 -0.001)
(0 -7.36508e-09 -0.001)
(0 -1.15731e-08 -0.001)
(0 -1.62123e-08 -0.00100001)
(0 -2.11089e-08 -0.00100001)
(0 -2.62636e-08 -0.00100001)
(0 -3.17227e-08 -0.00100001)
(0 -3.7545e-08 -0.00100002)
(0 -4.37945e-08 -0.00100002)
(0 -5.05403e-08 -0.00100003)
(0 -5.78568e-08 -0.00100003)
(0 -6.58246e-08 -0.00100004)
(0 -7.45313e-08 -0.00100005)
(0 -8.40727e-08 -0.00100006)
(0 -9.45536e-08 -0.00100007)
(0 -1.06089e-07 -0.00100008)
(0 -1.18806e-07 -0.00100009)
(0 -1.32842e-07 -0.0010001)
(0 -1.48354e-07 -0.00100012)
(0 -1.65509e-07 -0.00100014)
(0 -1.84495e-07 -0.00100015)
(0 -2.05521e-07 -0.00100018)
(0 -2.28816e-07 -0.0010002)
(0 -2.54635e-07 -0.00100023)
(0 -2.8326e-07 -0.00100026)
(0 -3.15005e-07 -0.00100029)
(0 -3.50216e-07 -0.00100033)
(0 -3.89279e-07 -0.00100037)
(0 -4.3262e-07 -0.00100041)
(0 -4.80715e-07 -0.00100046)
(0 -5.34089e-07 -0.00100052)
(0 -5.93326e-07 -0.00100058)
(0 -6.59074e-07 -0.00100065)
(0 -7.32054e-07 -0.00100073)
(0 -8.13062e-07 -0.00100082)
(0 -9.02986e-07 -0.00100092)
(0 -1.00281e-06 -0.00100102)
(0 -1.11363e-06 -0.00100114)
(0 -1.23665e-06 -0.00100128)
(0 -1.37323e-06 -0.00100143)
(0 -1.52486e-06 -0.00100159)
(0 -1.6932e-06 -0.00100178)
(0 -1.8801e-06 -0.00100199)
(0 -2.08761e-06 -0.00100222)
(0 -2.318e-06 -0.00100247)
(0 -2.57381e-06 -0.00100276)
(0 -2.85784e-06 -0.00100308)
(0 -3.17321e-06 -0.00100344)
(0 -3.52339e-06 -0.00100383)
(0 -3.91225e-06 -0.00100427)
(0 -4.34407e-06 -0.00100477)
(0 -4.8236e-06 -0.00100532)
(0 -5.35616e-06 -0.00100593)
(0 -5.94763e-06 -0.00100661)
(0 -6.60455e-06 -0.00100738)
(0 -7.3342e-06 -0.00100823)
(0 -8.14469e-06 -0.00100918)
(0 -9.04507e-06 -0.00101024)
(0 -1.00454e-05 -0.00101143)
(0 -1.11571e-05 -0.00101275)
(0 -1.23928e-05 -0.00101423)
(0 -1.37665e-05 -0.00101588)
(0 -1.52938e-05 -0.00101773)
(0 -1.69921e-05 -0.0010198)
(0 -1.88808e-05 -0.00102212)
(0 -2.09817e-05 -0.00102471)
(0 -2.33192e-05 -0.00102761)
(0 -2.59203e-05 -0.00103086)
(0 -2.88156e-05 -0.0010345)
(0 -3.20393e-05 -0.00103859)
(0 -3.56296e-05 -0.00104317)
(0 -3.96298e-05 -0.00104832)
(0 -4.40884e-05 -0.00105406)
(0 -4.90596e-05 -0.00106043)
(0 -5.45993e-05 -0.00106775)
(0 -6.07425e-05 -0.00107769)
(0 -6.72977e-05 -0.00109157)
(0 -7.36621e-05 -0.00109501)
(0 -7.69001e-05 -0.00105006)
(0 -7.02719e-05 -0.000826722)
(0 -4.58641e-05 -0.00331935)
(0 -4.92055e-05 -4.61372e-05)
(0 -0.000298872 -0.00397935)
(0 -5.77619e-05 -8.78384e-05)
(0 0.000325357 -0.00435219)
(0 -5.54761e-05 -0.000184499)
(0 0.000370975 -0.00473295)
(0 -3.83998e-05 -0.000286802)
(0 -0.000121803 -0.00475163)
(0 -7.91301e-05 -0.00140193)
(0 0.000113051 -0.00548853)
(0 4.09371e-05 -0.0001833)
(0 0.000994182 -0.00463831)
(0 6.97415e-05 -0.000420407)
(0 0.000407424 -0.00460581)
(0 0.000132538 -0.00126886)
(0 0.000375252 -0.00333614)
(0 0.000348008 -0.00265841)
(0 0.000202736 -0.0051289)
(0 -1.62591e-05 -0.000917179)
(0 -0.000120485 -0.00325428)
(0 -0.000102388 -0.0012898)
(0 -0.000127507 -0.00167329)
(0 -6.90497e-05 -0.00119144)
(0 -5.05488e-05 -0.00122104)
(0 -3.53261e-05 -0.00108119)
(0 -2.91698e-05 -0.00105334)
(0 -2.56252e-05 -0.00105376)
(0 -2.25652e-05 -0.00105202)
(0 -1.97844e-05 -0.00104772)
(0 -1.7338e-05 -0.00104341)
(0 -1.52036e-05 -0.00103957)
(0 -1.33369e-05 -0.0010361)
(0 -1.17017e-05 -0.00103291)
(0 -1.02688e-05 -0.00102999)
(0 -9.01327e-06 -0.00102731)
(0 -7.91293e-06 -0.00102485)
(0 -6.94846e-06 -0.00102261)
(0 -6.10295e-06 -0.00102055)
(0 -5.36161e-06 -0.00101868)
(0 -4.7115e-06 -0.00101697)
(0 -4.14129e-06 -0.00101541)
(0 -3.64107e-06 -0.00101398)
(0 -3.20217e-06 -0.00101269)
(0 -2.81698e-06 -0.00101151)
(0 -2.47887e-06 -0.00101043)
(0 -2.182e-06 -0.00100945)
(0 -1.92127e-06 -0.00100857)
(0 -1.69222e-06 -0.00100776)
(0 -1.49095e-06 -0.00100702)
(0 -1.31403e-06 -0.00100636)
(0 -1.15847e-06 -0.00100575)
(0 -1.02165e-06 -0.0010052)
(0 -9.0128e-07 -0.00100471)
(0 -7.95362e-07 -0.00100425)
(0 -7.02137e-07 -0.00100385)
(0 -6.20068e-07 -0.00100348)
(0 -5.47807e-07 -0.00100314)
(0 -4.84172e-07 -0.00100284)
(0 -4.28126e-07 -0.00100256)
(0 -3.78758e-07 -0.00100231)
(0 -3.35266e-07 -0.00100209)
(0 -2.96947e-07 -0.00100188)
(0 -2.63181e-07 -0.0010017)
(0 -2.33422e-07 -0.00100153)
(0 -2.07189e-07 -0.00100138)
(0 -1.84059e-07 -0.00100125)
(0 -1.63657e-07 -0.00100112)
(0 -1.45656e-07 -0.00100101)
(0 -1.29766e-07 -0.00100091)
(0 -1.1573e-07 -0.00100082)
(0 -1.03326e-07 -0.00100074)
(0 -9.23576e-08 -0.00100066)
(0 -8.26526e-08 -0.0010006)
(0 -7.40623e-08 -0.00100054)
(0 -6.64559e-08 -0.00100048)
(0 -5.97178e-08 -0.00100043)
(0 -5.37451e-08 -0.00100039)
(0 -4.84468e-08 -0.00100035)
(0 -4.37429e-08 -0.00100031)
(0 -3.95628e-08 -0.00100028)
(0 -3.58448e-08 -0.00100025)
(0 -3.25349e-08 -0.00100022)
(0 -2.95855e-08 -0.0010002)
(0 -2.69551e-08 -0.00100018)
(0 -2.46069e-08 -0.00100016)
(0 -2.25089e-08 -0.00100014)
(0 -2.06326e-08 -0.00100012)
(0 -1.8953e-08 -0.00100011)
(0 -1.7448e-08 -0.0010001)
(0 -1.60981e-08 -0.00100008)
(0 -1.48861e-08 -0.00100007)
(0 -1.37967e-08 -0.00100006)
(0 -1.28165e-08 -0.00100005)
(0 -1.1934e-08 -0.00100004)
(0 -1.11396e-08 -0.00100004)
(0 -1.04307e-08 -0.00100003)
(0 -9.82249e-09 -0.00100002)
(0 -9.37412e-09 -0.00100001)
(0 -9.26599e-09 -0.00100001)
(1.09896e-09 0 -0.001)
(1.27032e-09 0 -0.001)
(1.77503e-09 0 -0.001)
(2.41935e-09 0 -0.00100001)
(3.1133e-09 0 -0.00100001)
(3.83288e-09 0 -0.00100001)
(4.57487e-09 0 -0.00100001)
(5.34096e-09 0 -0.00100002)
(6.13358e-09 0 -0.00100002)
(6.95508e-09 0 -0.00100003)
(7.8075e-09 0 -0.00100003)
(8.69254e-09 0 -0.00100004)
(9.61151e-09 0 -0.00100005)
(1.05653e-08 0 -0.00100006)
(1.15545e-08 0 -0.00100007)
(1.25792e-08 0 -0.00100008)
(1.3639e-08 0 -0.00100009)
(1.4733e-08 0 -0.0010001)
(1.58601e-08 0 -0.00100012)
(1.70181e-08 0 -0.00100014)
(1.82045e-08 0 -0.00100015)
(1.94158e-08 0 -0.00100018)
(2.06474e-08 0 -0.0010002)
(2.18934e-08 0 -0.00100023)
(2.31464e-08 0 -0.00100026)
(2.43968e-08 0 -0.00100029)
(2.56328e-08 0 -0.00100033)
(2.68396e-08 0 -0.00100037)
(2.79992e-08 0 -0.00100041)
(2.90892e-08 0 -0.00100046)
(3.00831e-08 0 -0.00100052)
(3.09483e-08 0 -0.00100058)
(3.16461e-08 0 -0.00100065)
(3.21303e-08 0 -0.00100073)
(3.23459e-08 0 -0.00100082)
(3.22274e-08 0 -0.00100092)
(3.16978e-08 0 -0.00100102)
(3.06656e-08 0 -0.00100114)
(2.90232e-08 0 -0.00100128)
(2.6644e-08 0 -0.00100143)
(2.33798e-08 0 -0.00100159)
(1.90581e-08 0 -0.00100178)
(1.34768e-08 0 -0.00100199)
(6.39928e-09 0 -0.00100222)
(-2.45137e-09 0 -0.00100247)
(-1.33994e-08 0 -0.00100276)
(-2.68239e-08 0 -0.00100308)
(-4.31678e-08 0 -0.00100344)
(-6.2949e-08 0 -0.00100383)
(-8.67721e-08 0 -0.00100427)
(-1.1534e-07 0 -0.00100477)
(-1.49471e-07 0 -0.00100532)
(-1.90113e-07 0 -0.00100593)
(-2.38363e-07 0 -0.00100661)
(-2.95494e-07 0 -0.00100738)
(-3.62967e-07 0 -0.00100823)
(-4.4248e-07 0 -0.00100918)
(-5.36042e-07 0 -0.00101024)
(-6.45991e-07 0 -0.00101143)
(-7.75038e-07 0 -0.00101275)
(-9.26346e-07 0 -0.00101423)
(-1.10358e-06 0 -0.00101588)
(-1.31103e-06 0 -0.00101773)
(-1.55368e-06 0 -0.0010198)
(-1.83745e-06 0 -0.00102212)
(-2.16921e-06 0 -0.00102471)
(-2.55694e-06 0 -0.00102761)
(-3.00996e-06 0 -0.00103086)
(-3.53914e-06 0 -0.0010345)
(-4.15723e-06 0 -0.00103859)
(-4.87907e-06 0 -0.00104317)
(-5.72205e-06 0 -0.00104832)
(-6.70661e-06 0 -0.00105406)
(-7.85811e-06 0 -0.00106043)
(-9.21632e-06 0 -0.00106775)
(-1.08766e-05 0 -0.00107769)
(-1.30821e-05 0 -0.00109157)
(-1.63163e-05 0 -0.00109501)
(-2.09978e-05 0 -0.00105006)
(-2.51282e-05 0 -0.000826722)
(-2.75684e-05 0 -0.00331935)
(-7.20443e-06 0 -4.61372e-05)
(-0.000121888 0 -0.00397935)
(4.97217e-06 0 -8.78384e-05)
(0.000158166 0 -0.00435219)
(2.95724e-05 0 -0.000184499)
(0.000372107 0 -0.00473295)
(1.13708e-06 0 -0.000286802)
(-3.39698e-05 0 -0.00475163)
(-6.73276e-05 0 -0.00140193)
(-0.000282143 0 -0.00548853)
(-5.22251e-05 0 -0.0001833)
(-0.00123536 0 -0.00463831)
(-9.02476e-05 0 -0.000420407)
(-0.000272414 0 -0.00460581)
(8.18191e-05 0 -0.00126886)
(0.000678808 0 -0.00333614)
(0.000625551 0 -0.00265841)
(0.000371104 0 -0.0051289)
(9.66617e-07 0 -0.000917179)
(-0.00024074 0 -0.00325428)
(-0.000273572 0 -0.0012898)
(-0.000302347 0 -0.00167329)
(-9.32441e-05 0 -0.00119144)
(2.24827e-05 0 -0.00122104)
(6.63218e-05 0 -0.00108119)
(7.0929e-05 0 -0.00105334)
(6.63996e-05 0 -0.00105376)
(6.07442e-05 0 -0.00105202)
(5.53242e-05 0 -0.00104772)
(5.02885e-05 0 -0.00104341)
(4.56663e-05 0 -0.00103957)
(4.1448e-05 0 -0.0010361)
(3.76042e-05 0 -0.00103291)
(3.41038e-05 0 -0.00102999)
(3.09176e-05 0 -0.00102731)
(2.80192e-05 0 -0.00102485)
(2.53838e-05 0 -0.00102261)
(2.29888e-05 0 -0.00102055)
(2.08133e-05 0 -0.00101868)
(1.88381e-05 0 -0.00101697)
(1.70455e-05 0 -0.00101541)
(1.54192e-05 0 -0.00101398)
(1.39444e-05 0 -0.00101269)
(1.26076e-05 0 -0.00101151)
(1.13961e-05 0 -0.00101043)
(1.02986e-05 0 -0.00100945)
(9.3048e-06 0 -0.00100857)
(8.40504e-06 0 -0.00100776)
(7.5907e-06 0 -0.00100702)
(6.85387e-06 0 -0.00100636)
(6.18734e-06 0 -0.00100575)
(5.58455e-06 0 -0.0010052)
(5.0395e-06 0 -0.00100471)
(4.54679e-06 0 -0.00100425)
(4.10152e-06 0 -0.00100385)
(3.69923e-06 0 -0.00100348)
(3.33588e-06 0 -0.00100314)
(3.00776e-06 0 -0.00100284)
(2.71153e-06 0 -0.00100256)
(2.44413e-06 0 -0.00100231)
(2.20282e-06 0 -0.00100209)
(1.98508e-06 0 -0.00100188)
(1.78865e-06 0 -0.0010017)
(1.61148e-06 0 -0.00100153)
(1.4517e-06 0 -0.00100138)
(1.30763e-06 0 -0.00100125)
(1.17776e-06 0 -0.00100112)
(1.0607e-06 0 -0.00100101)
(9.55217e-07 0 -0.00100091)
(8.60174e-07 0 -0.00100082)
(7.7456e-07 0 -0.00100074)
(6.97454e-07 0 -0.00100066)
(6.28026e-07 0 -0.0010006)
(5.65526e-07 0 -0.00100054)
(5.09274e-07 0 -0.00100048)
(4.58661e-07 0 -0.00100043)
(4.13135e-07 0 -0.00100039)
(3.722e-07 0 -0.00100035)
(3.35409e-07 0 -0.00100031)
(3.0236e-07 0 -0.00100028)
(2.72691e-07 0 -0.00100025)
(2.46075e-07 0 -0.00100022)
(2.22222e-07 0 -0.0010002)
(2.00867e-07 0 -0.00100018)
(1.81775e-07 0 -0.00100016)
(1.64735e-07 0 -0.00100014)
(1.49559e-07 0 -0.00100012)
(1.36078e-07 0 -0.00100011)
(1.24144e-07 0 -0.0010001)
(1.13623e-07 0 -0.00100008)
(1.04398e-07 0 -0.00100007)
(9.63674e-08 0 -0.00100006)
(8.94412e-08 0 -0.00100005)
(8.35418e-08 0 -0.00100004)
(7.86014e-08 0 -0.00100004)
(7.45543e-08 0 -0.00100003)
(7.13349e-08 0 -0.00100002)
(6.89149e-08 0 -0.00100001)
(6.73942e-08 0 -0.00100001)
)
;
    }
    procBoundary3to1
    {
        type            processor;
        value           nonuniform List<vector> 
180
(
(1.13851e-09 -4.30259e-09 -0.000999912)
(1.42933e-09 -7.36506e-09 -0.000999911)
(2.02502e-09 -1.15731e-08 -0.00099991)
(2.75496e-09 -1.62123e-08 -0.000999908)
(3.53577e-09 -2.11089e-08 -0.000999906)
(4.34354e-09 -2.62635e-08 -0.000999903)
(5.17504e-09 -3.17227e-08 -0.0009999)
(6.03215e-09 -3.7545e-08 -0.000999896)
(6.9177e-09 -4.37945e-08 -0.000999891)
(7.83454e-09 -5.05403e-08 -0.000999885)
(8.78536e-09 -5.78568e-08 -0.000999879)
(9.77262e-09 -6.58245e-08 -0.000999872)
(1.07986e-08 -7.45312e-08 -0.000999863)
(1.18652e-08 -8.40727e-08 -0.000999854)
(1.29744e-08 -9.45536e-08 -0.000999844)
(1.41276e-08 -1.06089e-07 -0.000999832)
(1.53263e-08 -1.18805e-07 -0.000999819)
(1.65717e-08 -1.32842e-07 -0.000999805)
(1.78647e-08 -1.48353e-07 -0.000999789)
(1.9206e-08 -1.65508e-07 -0.000999771)
(2.05961e-08 -1.84495e-07 -0.000999751)
(2.20352e-08 -2.05521e-07 -0.000999729)
(2.35232e-08 -2.28816e-07 -0.000999704)
(2.50594e-08 -2.54635e-07 -0.000999677)
(2.66426e-08 -2.8326e-07 -0.000999647)
(2.82709e-08 -3.15004e-07 -0.000999613)
(2.99416e-08 -3.50215e-07 -0.000999576)
(3.16508e-08 -3.89278e-07 -0.000999535)
(3.33931e-08 -4.32619e-07 -0.000999489)
(3.51619e-08 -4.80713e-07 -0.000999439)
(3.69481e-08 -5.34087e-07 -0.000999383)
(3.87406e-08 -5.93324e-07 -0.000999321)
(4.05253e-08 -6.59072e-07 -0.000999253)
(4.22849e-08 -7.3205e-07 -0.000999177)
(4.39979e-08 -8.13058e-07 -0.000999093)
(4.56387e-08 -9.02981e-07 -0.000999001)
(4.71762e-08 -1.0028e-06 -0.000998898)
(4.85732e-08 -1.11362e-06 -0.000998784)
(4.97858e-08 -1.23664e-06 -0.000998659)
(5.07624e-08 -1.37322e-06 -0.00099852)
(5.14422e-08 -1.52484e-06 -0.000998366)
(5.17541e-08 -1.69318e-06 -0.000998195)
(5.16151e-08 -1.88007e-06 -0.000998007)
(5.09269e-08 -2.08758e-06 -0.000997798)
(4.95731e-08 -2.31796e-06 -0.000997567)
(4.7415e-08 -2.57376e-06 -0.000997312)
(4.42899e-08 -2.85778e-06 -0.00099703)
(4.00067e-08 -3.17314e-06 -0.000996717)
(3.43527e-08 -3.52331e-06 -0.000996372)
(2.70767e-08 -3.91215e-06 -0.00099599)
(1.78882e-08 -4.34394e-06 -0.000995567)
(6.45167e-09 -4.82345e-06 -0.0009951)
(-7.62016e-09 -5.35597e-06 -0.000994583)
(-2.47714e-08 -5.9474e-06 -0.000994011)
(-4.55083e-08 -6.60426e-06 -0.000993379)
(-7.04025e-08 -7.33384e-06 -0.00099268)
(-1.00092e-07 -8.14425e-06 -0.000991907)
(-1.35273e-07 -9.04452e-06 -0.000991051)
(-1.76686e-07 -1.00448e-05 -0.000990103)
(-2.25064e-07 -1.11563e-05 -0.000989052)
(-2.8106e-07 -1.23917e-05 -0.000987886)
(-3.45559e-07 -1.37652e-05 -0.000986595)
(-4.19755e-07 -1.52922e-05 -0.000985167)
(-5.04969e-07 -1.69901e-05 -0.000983587)
(-6.02619e-07 -1.88784e-05 -0.000981838)
(-7.14246e-07 -2.09787e-05 -0.0009799)
(-8.41459e-07 -2.33155e-05 -0.000977754)
(-9.85921e-07 -2.59157e-05 -0.000975375)
(-1.14936e-06 -2.88099e-05 -0.000972736)
(-1.33344e-06 -3.20322e-05 -0.000969808)
(-1.53977e-06 -3.56208e-05 -0.000966559)
(-1.76984e-06 -3.96188e-05 -0.000962947)
(-2.02524e-06 -4.40741e-05 -0.000958903)
(-2.30944e-06 -4.90381e-05 -0.000954328)
(-2.63619e-06 -5.45561e-05 -0.000949368)
(-3.06386e-06 -6.06234e-05 -0.00094515)
(-3.82284e-06 -6.70018e-05 -0.000942665)
(-5.64531e-06 -7.24882e-05 -0.000930491)
(-1.0131e-05 -7.28388e-05 -0.000878108)
(-1.84145e-05 -5.86507e-05 -0.000671524)
(-2.30411e-05 -1.40269e-05 -0.00240225)
(5.97097e-05 -9.31944e-06 -6.25992e-05)
(0.000200814 -0.000282558 -0.00247732)
(8.44431e-05 -7.8725e-05 -0.00318835)
(2.89471e-05 4.63141e-05 -0.000709366)
(-0.000524347 0.00034504 -0.00406945)
(4.45967e-05 4.42354e-05 -0.000282138)
(-0.000271926 0.000314394 -0.00296777)
(9.41296e-05 -7.08336e-05 -0.00173979)
(0.00032526 -9.77784e-05 -0.00350799)
(6.47973e-05 3.88837e-05 -0.00161333)
(1.519e-05 0.000109818 -0.00398088)
(-5.14061e-05 9.45783e-05 -0.00102977)
(-0.000141525 0.000633938 -0.00405328)
(-2.45883e-05 -3.97053e-05 -0.000130803)
(-0.000256695 0.000549713 -0.00438792)
(-0.000153803 0.000256506 -0.00181836)
(-0.000218346 0.000299504 -0.0022012)
(-0.000202386 0.000360413 -0.00369961)
(-0.000106207 -8.3262e-05 -0.00188028)
(-0.000265719 -8.88156e-05 -0.0028827)
(-0.000422121 -9.93532e-05 -0.002595)
(-0.000113224 -7.35531e-05 -0.00179373)
(1.33512e-05 -3.60675e-05 -0.0017319)
(5.81185e-05 -1.86924e-05 -0.0013937)
(0.000100326 -1.78357e-05 -0.00124555)
(0.000108516 -2.23949e-05 -0.00114046)
(0.000102644 -2.36278e-05 -0.00111825)
(9.31383e-05 -2.20726e-05 -0.00111105)
(8.3565e-05 -1.96668e-05 -0.00110098)
(7.47799e-05 -1.73016e-05 -0.00109017)
(6.68896e-05 -1.51852e-05 -0.00108045)
(5.98349e-05 -1.33243e-05 -0.00107189)
(5.35323e-05 -1.16921e-05 -0.00106428)
(4.79012e-05 -1.02615e-05 -0.00105748)
(4.28693e-05 -9.0076e-06 -0.0010514)
(3.8372e-05 -7.90853e-06 -0.00104597)
(3.43516e-05 -6.94504e-06 -0.00104112)
(3.0757e-05 -6.1003e-06 -0.00103679)
(2.75425e-05 -5.35955e-06 -0.00103292)
(2.46674e-05 -4.70989e-06 -0.00102946)
(2.20953e-05 -4.14004e-06 -0.00102637)
(1.9794e-05 -3.64009e-06 -0.0010236)
(1.77347e-05 -3.2014e-06 -0.00102113)
(1.58915e-05 -2.81638e-06 -0.00101892)
(1.42416e-05 -2.4784e-06 -0.00101694)
(1.27644e-05 -2.18163e-06 -0.00101517)
(1.14418e-05 -1.92098e-06 -0.00101359)
(1.02572e-05 -1.692e-06 -0.00101217)
(9.19627e-06 -1.49077e-06 -0.00101091)
(8.24588e-06 -1.31389e-06 -0.00100977)
(7.39443e-06 -1.15835e-06 -0.00100875)
(6.63155e-06 -1.02156e-06 -0.00100785)
(5.94796e-06 -9.01211e-07 -0.00100703)
(5.33535e-06 -7.95307e-07 -0.0010063)
(4.78626e-06 -7.02094e-07 -0.00100565)
(4.29402e-06 -6.20034e-07 -0.00100506)
(3.85269e-06 -5.4778e-07 -0.00100454)
(3.45695e-06 -4.84151e-07 -0.00100407)
(3.10206e-06 -4.28109e-07 -0.00100365)
(2.78377e-06 -3.78744e-07 -0.00100327)
(2.49827e-06 -3.35255e-07 -0.00100293)
(2.24217e-06 -2.96939e-07 -0.00100263)
(2.01243e-06 -2.63174e-07 -0.00100236)
(1.80631e-06 -2.33416e-07 -0.00100211)
(1.62137e-06 -2.07185e-07 -0.00100189)
(1.45543e-06 -1.84055e-07 -0.0010017)
(1.30654e-06 -1.63655e-07 -0.00100152)
(1.17292e-06 -1.45654e-07 -0.00100136)
(1.05301e-06 -1.29764e-07 -0.00100122)
(9.45409e-07 -1.15729e-07 -0.00100109)
(8.48843e-07 -1.03325e-07 -0.00100098)
(7.62184e-07 -9.23567e-08 -0.00100088)
(6.8442e-07 -8.26518e-08 -0.00100079)
(6.14643e-07 -7.40617e-08 -0.0010007)
(5.52041e-07 -6.64555e-08 -0.00100063)
(4.95885e-07 -5.97174e-08 -0.00100057)
(4.4552e-07 -5.37448e-08 -0.00100051)
(4.0036e-07 -4.84466e-08 -0.00100045)
(3.59882e-07 -4.37427e-08 -0.0010004)
(3.23613e-07 -3.95626e-08 -0.00100036)
(2.91132e-07 -3.58447e-08 -0.00100032)
(2.62063e-07 -3.25348e-08 -0.00100029)
(2.36068e-07 -2.95854e-08 -0.00100026)
(2.12844e-07 -2.6955e-08 -0.00100023)
(1.92124e-07 -2.46069e-08 -0.0010002)
(1.73666e-07 -2.25089e-08 -0.00100018)
(1.57256e-07 -2.06326e-08 -0.00100016)
(1.42704e-07 -1.8953e-08 -0.00100014)
(1.2984e-07 -1.7448e-08 -0.00100013)
(1.18517e-07 -1.60981e-08 -0.00100011)
(1.08601e-07 -1.48861e-08 -0.0010001)
(9.99769e-08 -1.37967e-08 -0.00100008)
(9.2545e-08 -1.28165e-08 -0.00100007)
(8.62182e-08 -1.1934e-08 -0.00100006)
(8.09236e-08 -1.11396e-08 -0.00100005)
(7.6604e-08 -1.04307e-08 -0.00100004)
(7.3224e-08 -9.82249e-09 -0.00100003)
(7.07927e-08 -9.37412e-09 -0.00100002)
(6.9501e-08 -9.26599e-09 -0.00100002)
)
;
    }
    procBoundary3to2
    {
        type            processor;
        value           nonuniform List<vector> 
180
(
(1.09896e-09 -4.26304e-09 -0.00100002)
(1.27032e-09 -7.20606e-09 -0.00100002)
(1.77503e-09 -1.13231e-08 -0.00100002)
(2.41935e-09 -1.58767e-08 -0.00100002)
(3.1133e-09 -2.06864e-08 -0.00100002)
(3.83289e-09 -2.57529e-08 -0.00100003)
(4.57487e-09 -3.11225e-08 -0.00100003)
(5.34096e-09 -3.68538e-08 -0.00100003)
(6.13358e-09 -4.30104e-08 -0.00100004)
(6.95509e-09 -4.96609e-08 -0.00100004)
(7.80751e-09 -5.68789e-08 -0.00100005)
(8.69255e-09 -6.47445e-08 -0.00100006)
(9.61152e-09 -7.33442e-08 -0.00100007)
(1.05653e-08 -8.27728e-08 -0.00100008)
(1.15545e-08 -9.31338e-08 -0.00100009)
(1.25792e-08 -1.04541e-07 -0.0010001)
(1.3639e-08 -1.17118e-07 -0.00100011)
(1.47331e-08 -1.31004e-07 -0.00100013)
(1.58601e-08 -1.46349e-07 -0.00100014)
(1.70181e-08 -1.63321e-07 -0.00100016)
(1.82045e-08 -1.82104e-07 -0.00100018)
(1.94158e-08 -2.02902e-07 -0.0010002)
(2.06474e-08 -2.2594e-07 -0.00100023)
(2.18935e-08 -2.51469e-07 -0.00100025)
(2.31465e-08 -2.79764e-07 -0.00100028)
(2.43969e-08 -3.11131e-07 -0.00100032)
(2.56329e-08 -3.45907e-07 -0.00100035)
(2.68397e-08 -3.84467e-07 -0.00100039)
(2.79993e-08 -4.27226e-07 -0.00100044)
(2.90894e-08 -4.74642e-07 -0.00100049)
(3.00833e-08 -5.27224e-07 -0.00100054)
(3.09485e-08 -5.85534e-07 -0.0010006)
(3.16464e-08 -6.50195e-07 -0.00100067)
(3.21307e-08 -7.21899e-07 -0.00100074)
(3.23464e-08 -8.0141e-07 -0.00100082)
(3.22281e-08 -8.89575e-07 -0.00100092)
(3.16986e-08 -9.87333e-07 -0.00100102)
(3.06666e-08 -1.09572e-06 -0.00100113)
(2.90244e-08 -1.21589e-06 -0.00100125)
(2.66455e-08 -1.34911e-06 -0.00100138)
(2.33817e-08 -1.4968e-06 -0.00100153)
(1.90603e-08 -1.6605e-06 -0.00100169)
(1.34796e-08 -1.84196e-06 -0.00100187)
(6.40273e-09 -2.04308e-06 -0.00100207)
(-2.4471e-09 -2.26598e-06 -0.00100229)
(-1.33941e-08 -2.51299e-06 -0.00100254)
(-2.68173e-08 -2.78672e-06 -0.0010028)
(-4.31597e-08 -3.09004e-06 -0.0010031)
(-6.2939e-08 -3.4261e-06 -0.00100342)
(-8.67596e-08 -3.79841e-06 -0.00100378)
(-1.15325e-07 -4.21085e-06 -0.00100417)
(-1.49452e-07 -4.66769e-06 -0.0010046)
(-1.90089e-07 -5.17368e-06 -0.00100508)
(-2.38333e-07 -5.73405e-06 -0.0010056)
(-2.95457e-07 -6.35459e-06 -0.00100618)
(-3.62921e-07 -7.04166e-06 -0.00100681)
(-4.42422e-07 -7.80234e-06 -0.00100751)
(-5.35971e-07 -8.64434e-06 -0.00100827)
(-6.45902e-07 -9.57619e-06 -0.00100911)
(-7.74927e-07 -1.06072e-05 -0.00101003)
(-9.26208e-07 -1.17476e-05 -0.00101103)
(-1.10341e-06 -1.30085e-05 -0.00101214)
(-1.31082e-06 -1.44026e-05 -0.00101334)
(-1.55341e-06 -1.59435e-05 -0.00101466)
(-1.83712e-06 -1.76462e-05 -0.0010161)
(-2.1688e-06 -1.9527e-05 -0.00101767)
(-2.55642e-06 -2.1604e-05 -0.00101937)
(-3.0093e-06 -2.38966e-05 -0.00102123)
(-3.53833e-06 -2.64263e-05 -0.00102324)
(-4.1562e-06 -2.9216e-05 -0.00102543)
(-4.87777e-06 -3.2291e-05 -0.00102779)
(-5.72037e-06 -3.56784e-05 -0.00103034)
(-6.70431e-06 -3.94079e-05 -0.00103306)
(-7.85461e-06 -4.35111e-05 -0.00103587)
(-9.21027e-06 -4.80144e-05 -0.00103896)
(-1.08634e-05 -5.29031e-05 -0.00104371)
(-1.30701e-05 -5.79647e-05 -0.00105239)
(-1.6341e-05 -6.22569e-05 -0.00105448)
(-2.13344e-05 -6.27246e-05 -0.00101624)
(-2.61627e-05 -5.22116e-05 -0.000680826)
(-2.83063e-05 -1.36256e-05 -0.00316476)
(-8.42215e-06 -2.31444e-06 -4.37005e-05)
(-0.000138891 4.08074e-05 -0.00374777)
(-1.25159e-05 5.95717e-06 -0.000299545)
(0.000101968 -0.000139315 -0.00374496)
(7.01755e-05 -0.000204049 -0.0040722)
(3.36044e-05 -1.48538e-05 -0.000536403)
(0.000410047 -0.00035841 -0.00450603)
(-4.21446e-06 5.67323e-05 -0.00112766)
(-0.000256446 0.000774737 -0.00282494)
(-0.000340823 0.000981736 -0.00313005)
(-0.000120961 0.000225048 -0.000679167)
(-0.000935143 0.00142743 -0.00269373)
(-0.000287441 0.000501075 -0.00251815)
(-3.48273e-05 6.0197e-05 -0.00018019)
(0.000121367 8.9374e-06 -0.00495078)
(4.20999e-05 -6.5468e-07 -0.000480015)
(0.000745816 -0.000611877 -0.00261512)
(0.000677192 -0.000510374 -0.00193032)
(5.20607e-06 -0.000306142 -0.00143647)
(-0.000259839 -0.000383171 -0.00238872)
(-0.00012766 -0.000122773 -0.00181003)
(-3.80131e-05 1.01218e-05 -0.00183458)
(3.34864e-06 2.4434e-05 -0.00156865)
(4.16135e-05 8.18523e-06 -0.00120489)
(7.53134e-05 2.03029e-05 -0.00103305)
(7.43913e-05 1.8187e-05 -0.000905486)