/*--------------------------------*- C++ -*----------------------------------*\
| =========                 |                                                 |
| \\      /  F ield         | OpenFOAM: The Open Source CFD Toolbox           |
|  \\    /   O peration     | Version:  5.x                                   |
|   \\  /    A nd           | Web:      www.OpenFOAM.org                      |
|    \\/     M anipulation  |                                                 |
\*---------------------------------------------------------------------------*/
FoamFile
{
    version     2.0;
    format      ascii;
    class       volScalarField;
    location    "0.08";
    object      p;
}
// * * * * * * * * * * * * * * * * * * * * * * * * * * * * * * * * * * * * * //

dimensions      [0 2 -2 0 0 0 0];

internalField   nonuniform List<scalar> 
2250
(
2.14373e-10
2.30971e-10
2.53844e-10
2.96778e-10
3.55294e-10
2.11657e-10
2.2371e-10
2.46604e-10
2.84286e-10
3.33978e-10
1.98349e-10
2.09579e-10
2.1857e-10
2.32475e-10
2.53343e-10
1.96579e-10
1.98901e-10
1.78191e-10
1.49176e-10
1.18292e-10
2.32549e-10
2.07708e-10
1.32961e-10
3.74322e-11
-1.0823e-10
6.23726e-10
6.64382e-10
7.37255e-10
8.5592e-10
1.00928e-09
6.05318e-10
6.39292e-10
7.04956e-10
8.14107e-10
9.45019e-10
5.62634e-10
5.83619e-10
6.13935e-10
6.70084e-10
7.42054e-10
5.32831e-10
5.26414e-10
4.85741e-10
4.49674e-10
3.98867e-10
5.69539e-10
4.85099e-10
3.25549e-10
1.42647e-10
-1.65491e-10
1.00018e-09
1.05398e-09
1.16619e-09
1.34646e-09
1.55903e-09
9.51719e-10
9.96307e-10
1.10572e-09
1.27979e-09
1.47401e-09
8.572e-10
8.84459e-10
9.56022e-10
1.07746e-09
1.23292e-09
7.58474e-10
7.45383e-10
7.40735e-10
7.83681e-10
8.25143e-10
6.71317e-10
5.79874e-10
4.7736e-10
3.96639e-10
1.85871e-10
1.35749e-09
1.41976e-09
1.56573e-09
1.78328e-09
2.02378e-09
1.27275e-09
1.33343e-09
1.48705e-09
1.7021e-09
1.92944e-09
1.11834e-09
1.16554e-09
1.28904e-09
1.46681e-09
1.68685e-09
9.19745e-10
9.25867e-10
9.94917e-10
1.13728e-09
1.30987e-09
6.54311e-10
6.19521e-10
6.5093e-10
7.58981e-10
8.26684e-10
1.75337e-09
1.83388e-09
1.99726e-09
2.2158e-09
2.44581e-09
1.65039e-09
1.73332e-09
1.90649e-09
2.11583e-09
2.3263e-09
1.44601e-09
1.51959e-09
1.66737e-09
1.84665e-09
2.05166e-09
1.15624e-09
1.19464e-09
1.30828e-09
1.47463e-09
1.68594e-09
7.58681e-10
7.90846e-10
9.02331e-10
1.10299e-09
1.3714e-09
2.24557e-09
2.33881e-09
2.48966e-09
2.67208e-09
2.85201e-09
2.13567e-09
2.22583e-09
2.37719e-09
2.53837e-09
2.68962e-09
1.89514e-09
1.97741e-09
2.10392e-09
2.228e-09
2.35177e-09
1.54621e-09
1.60468e-09
1.70286e-09
1.80435e-09
1.9348e-09
1.10439e-09
1.1693e-09
1.26085e-09
1.39496e-09
1.65149e-09
2.83687e-09
2.91366e-09
3.03205e-09
3.17029e-09
3.29561e-09
2.70449e-09
2.77755e-09
2.88665e-09
2.99854e-09
3.09823e-09
2.43665e-09
2.50456e-09
2.58839e-09
2.65487e-09
2.70887e-09
2.0572e-09
2.11753e-09
2.17106e-09
2.19233e-09
2.20801e-09
1.62883e-09
1.68731e-09
1.71177e-09
1.70502e-09
1.77891e-09
3.47879e-09
3.52938e-09
3.62864e-09
3.75449e-09
3.86436e-09
3.31179e-09
3.36593e-09
3.45303e-09
3.55509e-09
3.6529e-09
3.01431e-09
3.067e-09
3.12704e-09
3.18273e-09
3.23333e-09
2.60333e-09
2.65782e-09
2.68373e-09
2.67967e-09
2.64582e-09
2.15916e-09
2.19404e-09
2.17325e-09
2.07877e-09
1.96265e-09
4.16657e-09
4.21676e-09
4.32997e-09
4.48627e-09
4.64218e-09
3.96721e-09
4.02595e-09
4.12839e-09
4.26504e-09
4.41853e-09
3.61315e-09
3.66911e-09
3.74015e-09
3.83606e-09
3.95027e-09
3.12115e-09
3.17171e-09
3.20533e-09
3.2444e-09
3.27314e-09
2.55273e-09
2.57316e-09
2.55762e-09
2.50051e-09
2.37745e-09
4.95614e-09
5.03946e-09
5.18825e-09
5.39703e-09
5.64861e-09
4.72114e-09
4.80598e-09
4.94422e-09
5.13677e-09
5.37875e-09
4.25421e-09
4.32744e-09
4.4323e-09
4.59301e-09
4.7995e-09
3.59604e-09
3.6472e-09
3.71619e-09
3.8345e-09
3.99512e-09
2.78757e-09
2.81639e-09
2.84581e-09
2.91498e-09
2.97595e-09
5.91315e-09
6.03533e-09
6.21157e-09
6.45955e-09
6.79359e-09
5.60899e-09
5.71587e-09
5.88037e-09
6.1157e-09
6.4197e-09
4.95276e-09
5.03921e-09
5.17751e-09
5.39376e-09
5.66373e-09
4.03253e-09
4.08873e-09
4.20401e-09
4.39248e-09
4.64721e-09
2.90226e-09
2.95736e-09
3.04836e-09
3.22584e-09
3.436e-09
7.09024e-09
7.22098e-09
7.39528e-09
7.63951e-09
7.96009e-09
6.6489e-09
6.7537e-09
6.91616e-09
7.15095e-09
7.43777e-09
5.71851e-09
5.80302e-09
5.95388e-09
6.19223e-09
6.46646e-09
4.43026e-09
4.49393e-09
4.64981e-09
4.87468e-09
5.13034e-09
2.88536e-09
2.97256e-09
3.12742e-09
3.33276e-09
3.48094e-09
8.57026e-09
8.67327e-09
8.82103e-09
9.01867e-09
9.22923e-09
7.91149e-09
7.996e-09
8.13194e-09
8.32517e-09
8.54278e-09
6.6107e-09
6.68244e-09
6.82116e-09
7.05158e-09
7.30227e-09
4.81512e-09
4.88736e-09
5.06736e-09
5.30052e-09
5.52075e-09
2.69471e-09
2.8126e-09
3.01702e-09
3.20138e-09
3.19257e-09
1.05375e-08
1.06063e-08
1.07277e-08
1.08763e-08
1.09956e-08
9.58825e-09
9.65567e-09
9.76452e-09
9.92083e-09
1.01064e-08
7.78753e-09
7.84963e-09
7.97293e-09
8.19306e-09
8.44151e-09
5.29307e-09
5.37686e-09
5.56225e-09
5.79337e-09
6.02129e-09
2.36501e-09
2.49661e-09
2.70829e-09
2.88733e-09
2.87783e-09
1.33068e-08
1.33665e-08
1.3487e-08
1.36349e-08
1.37842e-08
1.19873e-08
1.20567e-08
1.21677e-08
1.23378e-08
1.2567e-08
9.49881e-09
9.56886e-09
9.7031e-09
9.93148e-09
1.02033e-08
6.04808e-09
6.14731e-09
6.32797e-09
6.56568e-09
6.84858e-09
2.00346e-09
2.11436e-09
2.29562e-09
2.51967e-09
2.72039e-09
1.72978e-08
1.73803e-08
1.75368e-08
1.77441e-08
1.80149e-08
1.54882e-08
1.55834e-08
1.5738e-08
1.59688e-08
1.62719e-08
1.2049e-08
1.21496e-08
1.2327e-08
1.25837e-08
1.28879e-08
7.28654e-09
7.40369e-09
7.59155e-09
7.87077e-09
8.22053e-09
1.69338e-09
1.77364e-09
1.95033e-09
2.27051e-09
2.71898e-09
2.30203e-08
2.31463e-08
2.33665e-08
2.36616e-08
2.40513e-08
2.05377e-08
2.06749e-08
2.08972e-08
2.12039e-08
2.15778e-08
1.5787e-08
1.59292e-08
1.61659e-08
1.64796e-08
1.68452e-08
9.21342e-09
9.35542e-09
9.59188e-09
9.96982e-09
1.04071e-08
1.47886e-09
1.57633e-09
1.83229e-09
2.29083e-09
2.91123e-09
3.11212e-08
3.1296e-08
3.15861e-08
3.19721e-08
3.24514e-08
2.77037e-08
2.78817e-08
2.81761e-08
2.85707e-08
2.90334e-08
2.11467e-08
2.13283e-08
2.1641e-08
2.20591e-08
2.25382e-08
1.20832e-08
1.22717e-08
1.2614e-08
1.31341e-08
1.37078e-08
1.42026e-09
1.6053e-09
2.01453e-09
2.64094e-09
3.41481e-09
4.24773e-08
4.26953e-08
4.30571e-08
4.35447e-08
4.41125e-08
3.77648e-08
3.79794e-08
3.83592e-08
3.88676e-08
3.94386e-08
2.87363e-08
2.89671e-08
2.93882e-08
2.99472e-08
3.05611e-08
1.62839e-08
1.65502e-08
1.7036e-08
1.76996e-08
1.84388e-08
1.6339e-09
1.94265e-09
2.52517e-09
3.32122e-09
4.27013e-09
5.83122e-08
5.85767e-08
5.90315e-08
5.96412e-08
6.0313e-08
5.18293e-08
5.21018e-08
5.25926e-08
5.32307e-08
5.39187e-08
3.94442e-08
3.97527e-08
4.03047e-08
4.10129e-08
4.17763e-08
2.23859e-08
2.27478e-08
2.33795e-08
2.41912e-08
2.51208e-08
2.30982e-09
2.73265e-09
3.47667e-09
4.44654e-09
5.59527e-09
8.03348e-08
8.06718e-08
8.12501e-08
8.20022e-08
8.28369e-08
7.14531e-08
7.18167e-08
7.24345e-08
7.32245e-08
7.41044e-08
5.44985e-08
5.49027e-08
5.55946e-08
5.64897e-08
5.74984e-08
3.11462e-08
3.16049e-08
3.23953e-08
3.34358e-08
3.46492e-08
3.68251e-09
4.20628e-09
5.13136e-09
6.35348e-09
7.82042e-09
1.10896e-07
1.11332e-07
1.12054e-07
1.12988e-07
1.14091e-07
9.87434e-08
9.92074e-08
9.99776e-08
1.00989e-07
1.02174e-07
7.55291e-08
7.60374e-08
7.69163e-08
7.80917e-08
7.94674e-08
4.35539e-08
4.41325e-08
4.51546e-08
4.65556e-08
4.81834e-08
5.98296e-09
6.64227e-09
7.83722e-09
9.46938e-09
1.14393e-08
1.53198e-07
1.53745e-07
1.54638e-07
1.55801e-07
1.57169e-07
1.36557e-07
1.3713e-07
1.38112e-07
1.3941e-07
1.40888e-07
1.04766e-07
1.05417e-07
1.06574e-07
1.08111e-07
1.09885e-07
6.09764e-08
6.17402e-08
6.31129e-08
6.49941e-08
6.71522e-08
9.48817e-09
1.03719e-08
1.19984e-08
1.42522e-08
1.69095e-08
2.11647e-07
2.12328e-07
2.13429e-07
2.14813e-07
2.16287e-07
1.88861e-07
1.89587e-07
1.9084e-07
1.92421e-07
1.94096e-07
1.45342e-07
1.46204e-07
1.47727e-07
1.49688e-07
1.51872e-07
8.53509e-08
8.6389e-08
8.82608e-08
9.07689e-08
9.3611e-08
1.46953e-08
1.59397e-08
1.82349e-08
2.13754e-08
2.49866e-08
2.92318e-07
2.93178e-07
2.94512e-07
2.96078e-07
2.97551e-07
2.61142e-07
2.6208e-07
2.63644e-07
2.65528e-07
2.67413e-07
2.01578e-07
2.0273e-07
2.0473e-07
2.07255e-07
2.09973e-07
1.19384e-07
1.20821e-07
1.23412e-07
1.26803e-07
1.30556e-07
2.24775e-08
2.42683e-08
2.75332e-08
3.18729e-08
3.67587e-08
4.03504e-07
4.04584e-07
4.0619e-07
4.07943e-07
4.09396e-07
3.60842e-07
3.62064e-07
3.64045e-07
3.66346e-07
3.68516e-07
2.79341e-07
2.80912e-07
2.83607e-07
2.8695e-07
2.90396e-07
1.66785e-07
1.68826e-07
1.72474e-07
1.77142e-07
1.8212e-07
3.40045e-08
3.65803e-08
4.1229e-08
4.7246e-08
5.38196e-08
5.5647e-07
5.57858e-07
5.59848e-07
5.61791e-07
5.62982e-07
4.98088e-07
4.99751e-07
5.02363e-07
5.05208e-07
5.07518e-07
3.86649e-07
3.8888e-07
3.92629e-07
3.9709e-07
4.01352e-07
2.32572e-07
2.3554e-07
2.40742e-07
2.4723e-07
2.53861e-07
5.06164e-08
5.43528e-08
6.10444e-08
6.95687e-08
7.86742e-08
7.66632e-07
7.68582e-07
7.71155e-07
7.73183e-07
7.73367e-07
6.8677e-07
6.89192e-07
6.92771e-07
6.96218e-07
6.98143e-07
5.34523e-07
5.37836e-07
5.43185e-07
5.49151e-07
5.54171e-07
3.23546e-07
3.27961e-07
3.35533e-07
3.44664e-07
3.53558e-07
7.40926e-08
7.96227e-08
8.9427e-08
1.01791e-07
1.14784e-07
1.0551e-06
1.05821e-06
1.0617e-06
1.06364e-06
1.06151e-06
9.45811e-07
9.49627e-07
9.54758e-07
9.58931e-07
9.5967e-07
7.38086e-07
7.43261e-07
7.51188e-07
7.59418e-07
7.65244e-07
4.489e-07
4.557e-07
4.67168e-07
4.8043e-07
4.92704e-07
1.07077e-07
1.15431e-07
1.30226e-07
1.48635e-07
1.67514e-07
1.45057e-06
1.45623e-06
1.46129e-06
1.46315e-06
1.45678e-06
1.30051e-06
1.30707e-06
1.31498e-06
1.32032e-06
1.31886e-06
1.01816e-06
1.02678e-06
1.03914e-06
1.05118e-06
1.05816e-06
6.20672e-07
6.31659e-07
6.50018e-07
6.70132e-07
6.87949e-07
1.53559e-07
1.66451e-07
1.8947e-07
2.17558e-07
2.45703e-07
1.99185e-06
2.00366e-06
2.01127e-06
2.01393e-06
2.00033e-06
1.78343e-06
1.79562e-06
1.809e-06
1.81643e-06
1.81177e-06
1.40428e-06
1.4198e-06
1.43971e-06
1.45875e-06
1.46751e-06
8.5292e-07
8.71651e-07
9.03341e-07
9.35009e-07
9.62658e-07
2.20882e-07
2.40699e-07
2.76972e-07
3.20516e-07
3.63337e-07
2.73125e-06
2.75867e-06
2.76859e-06
2.77603e-06
2.75118e-06
2.43374e-06
2.45745e-06
2.48263e-06
2.49356e-06
2.48768e-06
1.94152e-06
1.97229e-06
2.0033e-06
2.03668e-06
2.04705e-06
1.15652e-06
1.18967e-06
1.25061e-06
1.30089e-06
1.34886e-06
3.25554e-07
3.55141e-07
4.11575e-07
4.78971e-07
5.44168e-07
3.73571e-06
3.80175e-06
3.80895e-06
3.83412e-06
3.79328e-06
3.29742e-06
3.34495e-06
3.39788e-06
3.41127e-06
3.41791e-06
2.69445e-06
2.76267e-06
2.80348e-06
2.87187e-06
2.87819e-06
1.53632e-06
1.59306e-06
1.72338e-06
1.79569e-06
1.89485e-06
4.9535e-07
5.40541e-07
6.29279e-07
7.34163e-07
8.3016e-07
5.08339e-06
5.23768e-06
5.23193e-06
5.30858e-06
5.23969e-06
4.43579e-06
4.52962e-06
4.6519e-06
4.65206e-06
4.70449e-06
3.72893e-06
3.8916e-06
3.9246e-06
4.09376e-06
4.065e-06
2.00991e-06
2.09621e-06
2.38358e-06
2.46568e-06
2.6836e-06
7.5065e-07
8.26503e-07
9.75855e-07
1.15017e-06
1.28668e-06
6.85093e-06
7.18537e-06
7.16026e-06
7.36336e-06
7.22798e-06
5.92397e-06
6.09335e-06
6.38465e-06
6.34478e-06
6.48069e-06
5.09896e-06
5.46638e-06
5.45661e-06
5.89586e-06
5.7108e-06
2.59208e-06
2.7305e-06
3.3306e-06
3.40318e-06
3.8403e-06
1.09102e-06
1.22603e-06
1.49117e-06
1.80712e-06
1.99376e-06
9.12863e-06
9.67898e-06
9.75693e-06
1.01917e-05
9.86462e-06
7.89556e-06
8.1674e-06
8.80526e-06
8.70777e-06
8.95332e-06
6.87688e-06
7.57117e-06
7.47763e-06
8.42411e-06
7.94855e-06
3.31497e-06
3.56686e-06
4.70876e-06
4.78805e-06
5.60604e-06
1.53593e-06
1.78404e-06
2.26707e-06
2.87134e-06
3.10413e-06
1.35045e-05
1.58265e-05
1.55235e-05
1.67135e-05
1.65138e-05
1.16213e-05
1.26289e-05
1.41561e-05
1.3181e-05
1.33945e-05
1.06436e-05
1.31368e-05
1.31234e-05
1.5543e-05
1.37246e-05
5.5277e-06
5.7817e-06
8.99819e-06
8.05702e-06
9.13907e-06
2.51949e-06
3.59002e-06
5.19745e-06
6.28639e-06
6.14964e-06
1.12669e-05
1.26972e-05
1.45391e-05
1.5128e-05
1.39583e-05
1.01514e-05
1.06453e-05
1.38973e-05
1.41502e-05
1.4825e-05
7.78975e-06
9.76812e-06
1.13739e-05
1.26677e-05
1.10253e-05
9.34401e-07
3.08622e-06
7.05893e-06
6.31838e-06
9.86828e-06
-7.98528e-07
-6.80871e-08
2.02598e-06
2.77668e-06
4.48294e-06
2.31501e-05
3.49535e-05
3.40739e-05
4.02765e-05
4.15316e-05
2.34381e-05
2.50237e-05
3.35593e-05
2.76606e-05
2.37032e-05
1.91092e-05
3.23807e-05
3.57856e-05
4.59266e-05
3.29249e-05
1.12645e-05
1.26209e-05
2.72503e-05
1.82176e-05
1.86088e-05
3.92339e-06
9.71323e-06
1.78298e-05
1.90472e-05
1.4976e-05
5.19153e-06
-9.44661e-07
3.92e-05
1.6839e-05
1.20931e-05
1.89071e-05
4.28007e-06
2.59113e-05
3.248e-05
3.30841e-05
1.37789e-06
1.94921e-06
4.57087e-05
1.25195e-05
1.77787e-05
-1.63971e-05
5.24447e-06
6.05496e-06
6.6085e-06
2.37163e-05
-1.21283e-05
-1.34765e-06
9.73999e-06
5.94612e-06
1.21015e-05
-9.65054e-06
3.58202e-06
0.00018435
3.42272e-05
6.88772e-05
9.80827e-05
-2.64487e-05
5.19931e-05
8.00094e-05
-5.19735e-05
-2.08601e-05
1.09129e-05
0.000195282
0.000111384
7.68177e-05
-1.72147e-05
4.55472e-05
1.85502e-05
-5.13653e-06
-6.4322e-05
-5.29336e-05
-1.00519e-05
4.69026e-05
2.61497e-05
3.92308e-06
0.000651347
0.000847803
0.000985824
0.000450016
0.000680305
0.00130229
0.000664358
0.000661152
0.000601455
0.000356135
0.00105619
0.000483777
0.000551214
0.000800012
0.000533527
0.000504287
0.00014754
0.000796511
0.00066863
0.000124959
0.00014056
0.000517327
0.000512786
0.000116712
8.83691e-05
0.0016342
0.00114237
0.00110119
0.00138112
0.000873743
0.00128618
0.00144437
0.00113349
0.00136053
0.00107873
0.00150914
0.0012355
0.00106265
0.00174843
0.0012431
0.00152052
0.00136322
0.0010746
0.00147733
0.00102553
0.00146149
0.00143952
0.00103316
0.00310644
0.00146397
0.00150269
0.00142798
0.00155744
0.00175704
0.00190411
0.0017042
0.00166528
0.00170971
0.00189806
0.00108303
0.00171182
0.00164661
0.0016255
0.00177525
0.00187194
0.00150649
0.00188344
0.0015337
0.0017612
0.00159519
0.00242113
0.00198178
0.00171857
0.00146846
0.00172946
0.00168534
0.00169324
0.00199272
0.00206998
0.00303178
0.00208276
0.00191771
0.00206568
0.00216015
0.00322999
0.00186411
0.00182258
0.00188946
0.00168345
0.00184804
0.00351567
0.00224684
0.00211757
0.00230952
0.00205235
0.00244237
0.00230247
0.0019967
0.00253807
0.0023811
0.00337915
0.00260724
0.00298538
0.00246291
0.00305266
0.00244068
0.00249422
0.00261403
0.00258657
0.00258032
0.00236585
0.00262754
0.00216862
0.00242701
0.00245397
0.00260785
0.00274501
0.00238627
0.00342162
0.00223782
0.00199577
0.0022045
0.00234316
0.00258088
0.00235582
0.00415658
0.0040706
0.00333212
0.00339417
0.00273627
0.00354112
0.00304695
0.00328905
0.002962
0.00242471
0.00314033
0.00322162
0.0035792
0.00300702
0.00320555
0.00275378
0.00285906
0.00284688
0.00272919
0.00271775
0.00241189
0.00247105
0.00325417
0.00305659
0.00263658
0.00480935
0.0047951
0.00373455
0.00396667
0.00358205
0.00429977
0.00423394
0.00404102
0.00382563
0.00377352
0.00400125
0.00390509
0.00398861
0.00396133
0.00387446
0.00419378
0.00361523
0.0038353
0.00363102
0.00355357
0.00366169
0.00408629
0.00381758
0.00377984
0.00365498
0.00529319
0.00538505
0.00508319
0.00459252
0.00539106
0.00498644
0.00526754
0.00493622
0.00459632
0.00544549
0.00464086
0.00473504
0.00452644
0.00470778
0.0045276
0.00481855
0.00480331
0.00456279
0.00452464
0.00456043
0.00461439
0.00458339
0.00423271
0.00404204
0.00439052
0.00545655
0.00573936
0.00579408
0.00537461
0.00576505
0.00564491
0.00573261
0.0060291
0.0055236
0.00606118
0.00561515
0.00555823
0.00551211
0.00538033
0.00559025
0.00498183
0.0055864
0.00549661
0.00545353
0.00524511
0.00524484
0.00530142
0.00530269
0.00494185
0.00524889
0.0064141
0.00636327
0.00633808
0.00630593
0.0063231
0.00654011
0.00634574
0.00627553
0.0062693
0.00635452
0.00636691
0.00635768
0.00629324
0.00591206
0.00629896
0.00616602
0.00634795
0.00619639
0.0061594
0.00630338
0.00624696
0.00626601
0.00632904
0.00617569
0.00626175
0.00663357
0.00661948
0.00660571
0.00661588
0.00663426
0.00662565
0.00662687
0.00653421
0.00660423
0.00657316
0.0065966
0.00663077
0.00661299
0.00657291
0.0066085
0.00658776
0.00660366
0.00658383
0.0065759
0.0066206
0.00663479
0.00660488
0.00658542
0.00656597
0.00658483
0.00660615
0.00659704
0.00660684
0.00660461
0.00658595
0.00661238
0.00660733
0.00661264
0.00660798
0.00660231
0.00661412
0.00661044
0.0066131
0.00660936
0.00661459
0.00661177
0.00660434
0.00661222
0.00660769
0.00661298
0.00661495
0.00661295
0.00660964
0.00661055
0.0066143
0.0066183
0.00661545
0.00661105
0.00661137
0.00661371
0.00661356
0.00661452
0.00660194
0.00661059
0.00660776
0.00661251
0.00661456
0.00661332
0.00660903
0.00661432
0.00660543
0.00660747
0.00660553
0.0066059
0.00661373
0.00661202
0.00661364
0.0066138
0.00660952
0.00661219
0.00661179
0.00661084
0.00661159
0.00661142
0.00660997
0.00661178
0.00661137
0.00661111
0.00661199
0.00661103
0.00661305
0.00661251
0.00661326
0.00661227
0.00661369
0.00661017
0.00660948
0.00661123
0.00661094
0.00661316
0.00661299
0.00661311
0.00661339
0.00661318
0.00661417
0.00661257
0.00661199
0.00661201
0.00661199
0.00661213
0.00661168
0.00661157
0.00661079
0.00661197
0.00661199
0.00661265
0.00661247
0.00661282
0.00661219
0.00661327
0.00661005
0.00661026
0.00661086
0.00661104
0.00661274
0.00661256
0.00661277
0.00661294
0.0066127
0.00661349
0.00661239
0.00661218
0.0066123
0.00661233
0.00661256
0.00661186
0.00661184
0.00661178
0.00661226
0.00661255
0.00661262
0.00661254
0.00661279
0.00661256
0.00661315
0.00661097
0.0066111
0.00661163
0.00661178
0.00661277
0.00661258
0.00661273
0.00661292
0.00661285
0.00661331
0.00661242
0.00661236
0.00661248
0.00661254
0.00661277
0.0066121
0.00661211
0.00661222
0.00661247
0.00661279
0.00661261
0.00661258
0.00661274
0.0066127
0.00661306
0.00661157
0.00661167
0.00661201
0.00661223
0.00661283
0.00661259
0.00661267
0.0066128
0.00661286
0.00661315
0.00661251
0.0066125
0.0066126
0.00661268
0.00661288
0.00661232
0.00661235
0.00661248
0.00661264
0.00661289
0.00661263
0.00661263
0.00661273
0.00661277
0.006613
0.00661201
0.00661207
0.00661232
0.00661249
0.00661289
0.00661263
0.00661267
0.00661276
0.00661285
0.00661304
0.0066126
0.00661261
0.00661269
0.00661277
0.00661292
0.0066125
0.00661253
0.00661264
0.00661275
0.00661293
0.00661266
0.00661268
0.00661275
0.00661281
0.00661297
0.00661231
0.00661237
0.00661252
0.00661267
0.00661292
0.00661266
0.00661269
0.00661275
0.00661284
0.00661298
0.00661268
0.0066127
0.00661276
0.00661283
0.00661294
0.00661263
0.00661266
0.00661274
0.00661283
0.00661295
0.0066127
0.00661272
0.00661278
0.00661284
0.00661296
0.00661252
0.00661257
0.00661267
0.00661278
0.00661294
0.00661269
0.00661272
0.00661277
0.00661285
0.00661295
0.00661274
0.00661277
0.00661281
0.00661287
0.00661296
0.00661273
0.00661275
0.0066128
0.00661287
0.00661296
0.00661275
0.00661277
0.00661281
0.00661287
0.00661296
0.00661267
0.0066127
0.00661277
0.00661285
0.00661295
0.00661273
0.00661276
0.0066128
0.00661286
0.00661295
0.0066128
0.00661282
0.00661285
0.0066129
0.00661296
0.00661279
0.00661281
0.00661285
0.0066129
0.00661296
0.00661279
0.00661281
0.00661285
0.0066129
0.00661296
0.00661276
0.00661279
0.00661283
0.00661289
0.00661296
0.00661278
0.0066128
0.00661283
0.00661289
0.00661295
0.00661284
0.00661286
0.00661288
0.00661292
0.00661297
0.00661284
0.00661286
0.00661288
0.00661292
0.00661297
0.00661284
0.00661285
0.00661288
0.00661292
0.00661296
0.00661282
0.00661284
0.00661287
0.00661291
0.00661296
0.00661282
0.00661284
0.00661286
0.00661291
0.00661296
0.00661288
0.00661289
0.00661291
0.00661294
0.00661297
0.00661288
0.00661289
0.00661291
0.00661293
0.00661297
0.00661287
0.00661288
0.0066129
0.00661293
0.00661297
0.00661286
0.00661288
0.0066129
0.00661293
0.00661296
0.00661286
0.00661287
0.00661289
0.00661292
0.00661296
0.0066129
0.00661291
0.00661292
0.00661295
0.00661297
0.0066129
0.00661291
0.00661292
0.00661294
0.00661297
0.0066129
0.00661291
0.00661292
0.00661294
0.00661297
0.00661289
0.0066129
0.00661292
0.00661294
0.00661297
0.00661289
0.0066129
0.00661291
0.00661294
0.00661296
0.00661292
0.00661292
0.00661294
0.00661295
0.00661297
0.00661292
0.00661292
0.00661294
0.00661295
0.00661297
0.00661292
0.00661292
0.00661293
0.00661295
0.00661297
0.00661291
0.00661292
0.00661293
0.00661295
0.00661297
0.00661291
0.00661292
0.00661293
0.00661295
0.00661297
0.00661293
0.00661294
0.00661294
0.00661296
0.00661297
0.00661293
0.00661294
0.00661294
0.00661296
0.00661297
0.00661293
0.00661293
0.00661294
0.00661295
0.00661297
0.00661293
0.00661293
0.00661294
0.00661295
0.00661297
0.00661293
0.00661293
0.00661294
0.00661295
0.00661297
0.00661294
0.00661294
0.00661295
0.00661296
0.00661297
0.00661294
0.00661294
0.00661295
0.00661296
0.00661297
0.00661294
0.00661294
0.00661295
0.00661296
0.00661297
0.00661294
0.00661294
0.00661295
0.00661296
0.00661297
0.00661294
0.00661294
0.00661295
0.00661296
0.00661297
0.00661295
0.00661295
0.00661295
0.00661296
0.00661297
0.00661295
0.00661295
0.00661295
0.00661296
0.00661297
0.00661295
0.00661295
0.00661295
0.00661296
0.00661297
0.00661294
0.00661295
0.00661295
0.00661296
0.00661297
0.00661294
0.00661295
0.00661295
0.00661296
0.00661297
0.00661295
0.00661295
0.00661296
0.00661296
0.00661297
0.00661295
0.00661295
0.00661296
0.00661296
0.00661297
0.00661295
0.00661295
0.00661296
0.00661296
0.00661297
0.00661295
0.00661295
0.00661296
0.00661296
0.00661297
0.00661295
0.00661295
0.00661295
0.00661296
0.00661297
0.00661295
0.00661296
0.00661296
0.00661296
0.00661297
0.00661295
0.00661296
0.00661296
0.00661296
0.00661297
0.00661295
0.00661296
0.00661296
0.00661296
0.00661297
0.00661295
0.00661295
0.00661296
0.00661296
0.00661297
0.00661295
0.00661295
0.00661296
0.00661296
0.00661297
0.00661296
0.00661296
0.00661296
0.00661296
0.00661297
0.00661296
0.00661296
0.00661296
0.00661296
0.00661297
0.00661296
0.00661296
0.00661296
0.00661296
0.00661297
0.00661296
0.00661296
0.00661296
0.00661296
0.00661297
0.00661296
0.00661296
0.00661296
0.00661296
0.00661296
0.00661296
0.00661296
0.00661296
0.00661296
0.00661296
0.00661296
0.00661296
0.00661296
0.00661296
0.00661296
0.00661296
0.00661296
0.00661296
0.00661296
0.00661296
0.00661296
0.00661296
0.00661296
0.00661296
0.00661296
0.00661296
0.00661296
0.00661296
0.00661296
0.00661296
0.00661296
0.00661296
0.00661296
0.00661296
0.00661296
0.00661296
0.00661296
0.00661296
0.00661296
0.00661296
0.00661296
0.00661296
0.00661296
0.00661296
0.00661296
0.00661296
0.00661296
0.00661296
0.00661296
0.00661296
0.00661296
0.00661296
0.00661296
0.00661296
0.00661296
0.00661296
0.00661296
0.00661296
0.00661296
0.00661296
0.00661296
0.00661296
0.00661296
0.00661296
0.00661296
0.00661296
0.00661296
0.00661296
0.00661296
0.00661296
0.00661296
0.00661296
0.00661296
0.00661296
0.00661296
0.00661296
0.00661296
0.00661296
0.00661296
0.00661296
0.00661296
0.00661296
0.00661296
0.00661296
0.00661296
0.00661296
0.00661296
0.00661296
0.00661296
0.00661296
0.00661296
0.00661296
0.00661296
0.00661296
0.00661296
0.00661296
0.00661296
0.00661296
0.00661296
0.00661296
0.00661296
0.00661296
0.00661296
0.00661296
0.00661296
0.00661296
0.00661296
0.00661296
0.00661296
0.00661296
0.00661296
0.00661296
0.00661296
0.00661296
0.00661296
0.00661296
0.00661296
0.00661296
0.00661296
0.00661296
0.00661296
0.00661296
0.00661296
0.00661296
0.00661296
0.00661296
0.00661296
0.00661296
0.00661296
0.00661296
0.00661296
0.00661296
0.00661296
0.00661296
0.00661296
0.00661296
0.00661296
0.00661296
0.00661296
0.00661296
0.00661296
0.00661296
0.00661296
0.00661296
0.00661296
0.00661296
0.00661296
0.00661296
0.00661296
0.00661296
0.00661296
0.00661296
0.00661296
0.00661296
0.00661296
0.00661296
0.00661296
0.00661296
0.00661296
0.00661296
0.00661296
0.00661296
0.00661296
0.00661296
0.00661296
0.00661296
0.00661296
0.00661296
0.00661296
0.00661296
0.00661296
0.00661296
0.00661296
0.00661296
0.00661296
0.00661296
0.00661296
0.00661296
0.00661296
0.00661296
0.00661296
0.00661296
0.00661296
0.00661296
0.00661296
0.00661296
0.00661296
0.00661296
0.00661296
0.00661296
0.00661296
0.00661296
0.00661296
0.00661296
0.00661296
0.00661296
0.00661296
0.00661296
0.00661296
0.00661296
0.00661296
0.00661296
0.00661296
0.00661296
0.00661296
0.00661296
0.00661296
0.00661296
0.00661296
0.00661296
0.00661296
0.00661296
0.00661296
0.00661296
0.00661296
0.00661296
0.00661296
0.00661296
0.00661296
0.00661296
0.00661296
0.00661296
0.00661296
0.00661296
0.00661296
0.00661296
0.00661296
0.00661296
0.00661296
0.00661296
0.00661296
0.00661296
0.00661296
0.00661296
0.00661296
0.00661296
0.00661296
0.00661296
0.00661296
0.00661296
0.00661296
0.00661296
0.00661296
0.00661296
0.00661296
0.00661296
0.00661296
0.00661296
0.00661296
0.00661296
0.00661296
0.00661296
0.00661296
0.00661296
0.00661296
0.00661296
0.00661296
0.00661296
0.00661296
0.00661296
0.00661296
0.00661296
0.00661296
0.00661296
0.00661296
0.00661296
0.00661296
0.00661296
0.00661296
0.00661296
0.00661296
0.00661296
0.00661296
0.00661296
0.00661296
0.00661296
0.00661296
0.00661296
0.00661296
0.00661296
0.00661296
0.00661296
0.00661296
0.00661296
0.00661296
0.00661296
0.00661296
0.00661296
0.00661296
0.00661296
0.00661296
0.00661296
0.00661296
0.00661296
0.00661296
0.00661296
0.00661296
0.00661296
0.00661296
0.00661296
0.00661296
0.00661296
0.00661296
0.00661296
0.00661296
0.00661296
0.00661296
0.00661296
0.00661296
0.00661296
0.00661296
0.00661296
0.00661296
0.00661296
0.00661296
0.00661296
0.00661296
0.00661296
0.00661296
0.00661296
0.00661296
0.00661296
0.00661296
0.00661296
0.00661296
0.00661296
0.00661296
0.00661296
0.00661296
0.00661296
0.00661296
0.00661296
0.00661296
0.00661296
0.00661296
0.00661296
0.00661296
0.00661296
0.00661296
0.00661296
0.00661296
0.00661296
0.00661296
0.00661296
0.00661296
0.00661296
0.00661296
0.00661296
0.00661296
0.00661296
0.00661296
0.00661296
0.00661296
0.00661296
0.00661296
0.00661296
0.00661296
0.00661296
0.00661296
0.00661296
0.00661296
0.00661296
0.00661296
0.00661296
0.00661296
0.00661296
0.00661296
0.00661296
0.00661296
0.00661296
0.00661296
0.00661296
0.00661296
0.00661296
0.00661296
0.00661296
0.00661296
0.00661296
0.00661296
0.00661296
0.00661296
0.00661296
0.00661296
0.00661296
0.00661296
0.00661296
0.00661296
0.00661296
0.00661296
0.00661296
0.00661296
0.00661296
0.00661296
0.00661296
0.00661296
0.00661296
0.00661296
0.00661296
0.00661296
0.00661296
0.00661296
0.00661296
0.00661296
0.00661296
0.00661296
0.00661296
0.00661296
0.00661296
0.00661296
0.00661296
0.00661296
0.00661296
0.00661296
0.00661296
0.00661296
0.00661296
0.00661296
0.00661296
0.00661296
0.00661296
0.00661296
0.00661296
0.00661296
0.00661296
0.00661296
0.00661296
0.00661296
0.00661296
0.00661296
0.00661296
)
;

boundaryField
{
    inlet
    {
        type            zeroGradient;
    }
    outlet
    {
        type            fixedValue;
        value           uniform 0;
    }
    repeat_boundary
    {
        type            zeroGradient;
    }
    procBoundary0to1
    {
        type            processor;
        value           nonuniform List<scalar> 
450
(
3.70643e-10
3.49972e-10
2.85561e-10
1.89456e-10
7.77587e-11
1.05144e-09
9.90291e-10
8.22328e-10
5.86256e-10
3.54177e-10
1.62051e-09
1.5361e-09
1.30094e-09
9.82813e-10
7.33938e-10
2.10184e-09
2.00891e-09
1.74084e-09
1.35814e-09
1.04294e-09
2.53897e-09
2.42113e-09
2.12262e-09
1.6677e-09
1.16883e-09
2.96316e-09
2.8029e-09
2.47444e-09
1.98115e-09
1.33479e-09
3.42452e-09
3.23007e-09
2.88083e-09
2.40348e-09
1.78242e-09
4.00433e-09
3.79496e-09
3.41061e-09
2.92711e-09
2.39098e-09
4.78844e-09
4.56716e-09
4.10363e-09
3.51501e-09
2.92843e-09
5.80444e-09
5.54412e-09
4.95917e-09
4.19304e-09
3.41159e-09
6.96375e-09
6.61045e-09
5.87607e-09
4.92382e-09
3.93518e-09
8.14285e-09
7.64314e-09
6.71544e-09
5.52639e-09
4.30103e-09
9.42061e-09
8.74366e-09
7.51937e-09
5.88914e-09
4.14908e-09
1.11961e-08
1.03003e-08
8.60021e-09
6.21333e-09
3.49577e-09
1.39966e-08
1.27715e-08
1.03618e-08
6.91983e-09
2.8469e-09
1.82458e-08
1.65122e-08
1.31262e-08
8.35353e-09
2.66891e-09
2.43277e-08
2.18844e-08
1.71986e-08
1.07041e-08
3.02309e-09
3.2822e-08
2.94401e-08
2.30086e-08
1.41664e-08
3.77668e-09
4.4617e-08
3.99708e-08
3.11547e-08
1.90588e-08
4.86098e-09
6.09614e-08
5.45985e-08
4.25205e-08
2.59272e-08
6.38439e-09
8.36399e-08
7.49817e-08
5.84665e-08
3.57111e-08
8.83758e-09
1.15088e-07
1.03319e-07
8.07788e-08
4.96818e-08
1.29848e-08
1.58391e-07
1.42333e-07
1.1163e-07
6.92915e-08
1.93849e-08
2.17682e-07
1.95799e-07
1.54076e-07
9.65172e-08
2.85854e-08
2.9891e-07
2.6924e-07
2.12621e-07
1.34368e-07
4.17732e-08
4.10296e-07
3.7017e-07
2.93386e-07
1.86961e-07
6.07181e-08
5.62693e-07
5.08444e-07
4.04452e-07
2.59843e-07
8.79188e-08
7.70571e-07
6.97321e-07
5.56972e-07
3.61016e-07
1.27436e-07
1.05369e-06
9.55127e-07
7.66856e-07
5.01998e-07
1.85309e-07
1.43915e-06
1.30675e-06
1.05684e-06
6.99203e-07
2.70973e-07
1.96369e-06
1.78421e-06
1.46035e-06
9.7565e-07
4.00928e-07
2.67581e-06
2.42604e-06
2.02923e-06
1.36133e-06
6.04918e-07
3.63707e-06
3.27883e-06
2.83969e-06
1.89697e-06
9.36571e-07
4.92924e-06
4.41064e-06
3.99608e-06
2.65047e-06
1.48043e-06
6.65909e-06
5.92186e-06
5.63645e-06
3.73457e-06
2.34086e-06
8.99838e-06
7.98943e-06
7.92394e-06
5.3496e-06
3.59524e-06
1.40902e-05
1.21669e-05
1.44129e-05
9.55477e-06
8.55821e-06
1.14572e-05
1.09257e-05
1.01208e-05
7.35378e-06
3.97881e-06
3.17517e-05
2.60545e-05
3.73671e-05
2.10662e-05
2.50996e-05
2.83459e-05
2.06249e-05
1.67803e-06
1.0068e-05
-5.23684e-06
0.000112284
6.48625e-05
2.64818e-05
-4.69807e-05
2.38607e-06
9.86503e-05
0.000824789
0.000621691
0.000641012
0.000707344
0.00223214
0.00199254
0.0012831
0.00195026
0.00114218
0.00237864
0.00226025
0.0025846
0.00236741
0.00114113
0.0028641
0.00293323
0.00260659
0.00238317
0.00250811
0.00299076
0.00287186
0.00286001
0.00226945
0.00248039
0.00312356
0.00306377
0.00308387
0.00369928
0.00223264
0.00419573
0.00391667
0.00351381
0.00375107
0.00349955
0.00462345
0.00439914
0.00461443
0.00422239
0.00466938
0.00526983
0.00518987
0.00546951
0.0056089
0.0052785
0.00612933
0.00628862
0.00640775
0.00640426
0.00594974
0.00657944
0.00663827
0.00663741
0.00663642
0.00662037
0.00661126
0.00661694
0.00660577
0.00659682
0.00661313
0.00661103
0.00661583
0.00661735