/*--------------------------------*- C++ -*----------------------------------*\
| =========                 |                                                 |
| \\      /  F ield         | OpenFOAM: The Open Source CFD Toolbox           |
|  \\    /   O peration     | Version:  5.x                                   |
|   \\  /    A nd           | Web:      www.OpenFOAM.org                      |
|    \\/     M anipulation  |                                                 |
\*---------------------------------------------------------------------------*/
FoamFile
{
    version     2.0;
    format      ascii;
    class       volVectorField;
    location    "0.08";
    object      stored_U;
}
// * * * * * * * * * * * * * * * * * * * * * * * * * * * * * * * * * * * * * //

dimensions      [0 1 -1 0 0 0 0];

internalField   nonuniform List<vector> 
2250
(
(-3.45503e-11 -3.21378e-11 -0.000999998)
(-9.2811e-11 -3.07696e-11 -0.000999998)
(-1.35597e-10 -3.10338e-11 -0.000999998)
(-1.69228e-10 -3.28438e-11 -0.000999998)
(-2.01605e-10 -3.61819e-11 -0.000999999)
(-3.31865e-11 -8.52583e-11 -0.000999998)
(-9.18149e-11 -8.37692e-11 -0.000999998)
(-1.37936e-10 -8.89085e-11 -0.000999998)
(-1.74723e-10 -9.94672e-11 -0.000999998)
(-2.06334e-10 -1.13295e-10 -0.000999999)
(-3.2972e-11 -1.21237e-10 -0.000999998)
(-9.64774e-11 -1.22865e-10 -0.000999998)
(-1.51576e-10 -1.375e-10 -0.000999998)
(-1.9398e-10 -1.61256e-10 -0.000999999)
(-2.16826e-10 -1.90237e-10 -0.000999999)
(-3.4583e-11 -1.38073e-10 -0.000999998)
(-1.07836e-10 -1.45833e-10 -0.000999998)
(-1.7633e-10 -1.69972e-10 -0.000999999)
(-2.27486e-10 -2.05623e-10 -0.000999999)
(-2.32016e-10 -2.45075e-10 -0.000999999)
(-4.05169e-11 -1.64629e-10 -0.000999998)
(-1.2814e-10 -1.69925e-10 -0.000999999)
(-2.11339e-10 -1.84535e-10 -0.000999999)
(-2.69054e-10 -2.02516e-10 -0.000999999)
(-2.64861e-10 -2.34438e-10 -0.001)
(-9.16835e-11 -8.53541e-11 -0.000999997)
(-2.49206e-10 -8.19995e-11 -0.000999998)
(-3.68743e-10 -8.33594e-11 -0.000999998)
(-4.65871e-10 -8.95797e-11 -0.000999998)
(-5.55504e-10 -1.01474e-10 -0.000999998)
(-8.83392e-11 -2.3054e-10 -0.000999998)
(-2.47461e-10 -2.29234e-10 -0.000999998)
(-3.76968e-10 -2.44396e-10 -0.000999998)
(-4.84928e-10 -2.73033e-10 -0.000999998)
(-5.70073e-10 -3.1061e-10 -0.000999999)
(-9.01664e-11 -3.35268e-10 -0.000999998)
(-2.63096e-10 -3.45699e-10 -0.000999998)
(-4.13225e-10 -3.84403e-10 -0.000999998)
(-5.33047e-10 -4.42229e-10 -0.000999998)
(-5.93007e-10 -5.11872e-10 -0.000999999)
(-9.82172e-11 -3.97335e-10 -0.000999998)
(-2.96012e-10 -4.26042e-10 -0.000999998)
(-4.73504e-10 -4.84528e-10 -0.000999998)
(-6.12457e-10 -5.65517e-10 -0.000999999)
(-6.19949e-10 -6.44129e-10 -0.000999999)
(-1.1825e-10 -4.61772e-10 -0.000999998)
(-3.49627e-10 -4.80397e-10 -0.000999999)
(-5.52655e-10 -5.13632e-10 -0.000999999)
(-6.9268e-10 -5.45934e-10 -0.000999999)
(-6.8034e-10 -6.04051e-10 -0.001)
(-1.54698e-10 -1.43756e-10 -0.000999997)
(-4.32854e-10 -1.41397e-10 -0.000999997)
(-6.56144e-10 -1.43622e-10 -0.000999997)
(-8.36093e-10 -1.53022e-10 -0.000999998)
(-9.85077e-10 -1.69948e-10 -0.000999998)
(-1.52355e-10 -4.0388e-10 -0.000999997)
(-4.33191e-10 -4.07961e-10 -0.000999997)
(-6.68996e-10 -4.28277e-10 -0.000999998)
(-8.64216e-10 -4.63696e-10 -0.000999998)
(-1.00468e-09 -5.09588e-10 -0.000999998)
(-1.58359e-10 -6.11164e-10 -0.000999997)
(-4.57292e-10 -6.3283e-10 -0.000999998)
(-7.13141e-10 -6.79408e-10 -0.000999998)
(-9.19211e-10 -7.42074e-10 -0.000999998)
(-1.02635e-09 -8.1796e-10 -0.000999999)
(-1.72931e-10 -7.63668e-10 -0.000999998)
(-5.00316e-10 -8.03492e-10 -0.000999998)
(-7.78248e-10 -8.64453e-10 -0.000999998)
(-1.00288e-09 -9.44797e-10 -0.000999999)
(-1.03885e-09 -1.05095e-09 -0.000999999)
(-1.96716e-10 -8.54072e-10 -0.000999998)
(-5.56574e-10 -8.79845e-10 -0.000999998)
(-8.54341e-10 -9.10381e-10 -0.000999999)
(-1.1057e-09 -9.23674e-10 -0.000999999)
(-1.03169e-09 -9.14683e-10 -0.000999999)
(-2.31963e-10 -2.14716e-10 -0.000999996)
(-6.64457e-10 -2.14502e-10 -0.000999996)
(-1.02619e-09 -2.16315e-10 -0.000999997)
(-1.30884e-09 -2.2505e-10 -0.000999997)
(-1.51793e-09 -2.41247e-10 -0.000999998)
(-2.31787e-10 -6.20839e-10 -0.000999996)
(-6.66918e-10 -6.29611e-10 -0.000999997)
(-1.03875e-09 -6.46582e-10 -0.000999997)
(-1.33657e-09 -6.7469e-10 -0.000999997)
(-1.5363e-09 -7.1212e-10 -0.000999998)
(-2.40004e-10 -9.63918e-10 -0.000999997)
(-6.90313e-10 -9.89257e-10 -0.000999997)
(-1.07331e-09 -1.02459e-09 -0.000999997)
(-1.3772e-09 -1.06717e-09 -0.000999998)
(-1.54741e-09 -1.12448e-09 -0.000999998)
(-2.55255e-10 -1.2345e-09 -0.000999997)
(-7.25711e-10 -1.26638e-09 -0.000999997)
(-1.11667e-09 -1.30221e-09 -0.000999998)
(-1.43663e-09 -1.35209e-09 -0.000999998)
(-1.53515e-09 -1.45959e-09 -0.000999999)
(-2.69354e-10 -1.35074e-09 -0.000999998)
(-7.55445e-10 -1.37276e-09 -0.000999998)
(-1.15884e-09 -1.38429e-09 -0.000999998)
(-1.53455e-09 -1.36448e-09 -0.000999999)
(-1.45229e-09 -1.27906e-09 -0.000999999)
(-3.356e-10 -3.05201e-10 -0.000999995)
(-9.73196e-10 -3.06527e-10 -0.000999995)
(-1.51745e-09 -3.07491e-10 -0.000999996)
(-1.93312e-09 -3.13865e-10 -0.000999996)
(-2.20564e-09 -3.25719e-10 -0.000999997)
(-3.3698e-10 -8.9144e-10 -0.000999995)
(-9.76792e-10 -9.00538e-10 -0.000999995)
(-1.52773e-09 -9.10416e-10 -0.000999996)
(-1.95522e-09 -9.26689e-10 -0.000999997)
(-2.22033e-09 -9.48003e-10 -0.000999997)
(-3.43582e-10 -1.39576e-09 -0.000999996)
(-9.92327e-10 -1.4151e-09 -0.000999996)
(-1.54657e-09 -1.43291e-09 -0.000999996)
(-1.97466e-09 -1.45039e-09 -0.000999997)
(-2.22263e-09 -1.47896e-09 -0.000999998)
(-3.53603e-10 -1.79181e-09 -0.000999996)
(-1.01123e-09 -1.80709e-09 -0.000999996)
(-1.56303e-09 -1.81546e-09 -0.000999997)
(-2.00147e-09 -1.83127e-09 -0.000999998)
(-2.20037e-09 -1.94728e-09 -0.000999998)
(-3.55329e-10 -1.95605e-09 -0.000999997)
(-1.01233e-09 -1.97058e-09 -0.000999997)
(-1.57054e-09 -1.96605e-09 -0.000999998)
(-2.10647e-09 -1.93073e-09 -0.000999998)
(-2.07286e-09 -1.79854e-09 -0.000999999)
(-4.80417e-10 -4.23586e-10 -0.000999993)
(-1.39504e-09 -4.24398e-10 -0.000999994)
(-2.17869e-09 -4.25262e-10 -0.000999994)
(-2.77251e-09 -4.29546e-10 -0.000999995)
(-3.11714e-09 -4.35189e-10 -0.000999996)
(-4.81332e-10 -1.23136e-09 -0.000999994)
(-1.39855e-09 -1.23579e-09 -0.000999994)
(-2.18789e-09 -1.24085e-09 -0.000999995)
(-2.78761e-09 -1.24894e-09 -0.000999996)
(-3.12708e-09 -1.2555e-09 -0.000999997)
(-4.83411e-10 -1.92149e-09 -0.000999994)
(-1.40484e-09 -1.93016e-09 -0.000999995)
(-2.19597e-09 -1.93716e-09 -0.000999995)
(-2.79256e-09 -1.94136e-09 -0.000999996)
(-3.12547e-09 -1.9482e-09 -0.000999997)
(-4.86429e-10 -2.44701e-09 -0.000999995)
(-1.41059e-09 -2.45168e-09 -0.000999995)
(-2.19911e-09 -2.44997e-09 -0.000999996)
(-2.799e-09 -2.45068e-09 -0.000999997)
(-3.10587e-09 -2.51244e-09 -0.000999998)
(-4.83574e-10 -2.69652e-09 -0.000999996)
(-1.40305e-09 -2.70665e-09 -0.000999996)
(-2.19465e-09 -2.69799e-09 -0.000999997)
(-2.85506e-09 -2.66662e-09 -0.000999998)
(-3.02723e-09 -2.5836e-09 -0.000999999)
(-6.80316e-10 -5.79851e-10 -0.000999991)
(-1.96843e-09 -5.78232e-10 -0.000999992)
(-3.06537e-09 -5.79266e-10 -0.000999993)
(-3.89217e-09 -5.8152e-10 -0.000999994)
(-4.33301e-09 -5.8002e-10 -0.000999995)
(-6.78881e-10 -1.67067e-09 -0.000999992)
(-1.97034e-09 -1.66819e-09 -0.000999992)
(-3.07415e-09 -1.67193e-09 -0.000999993)
(-3.89991e-09 -1.67705e-09 -0.000999994)
(-4.33822e-09 -1.67514e-09 -0.000999996)
(-6.76095e-10 -2.58931e-09 -0.000999992)
(-1.97027e-09 -2.58942e-09 -0.000999993)
(-3.0799e-09 -2.59615e-09 -0.000999994)
(-3.90278e-09 -2.60221e-09 -0.000999995)
(-4.33662e-09 -2.60971e-09 -0.000999996)
(-6.74406e-10 -3.26932e-09 -0.000999993)
(-1.97245e-09 -3.27531e-09 -0.000999994)
(-3.08696e-09 -3.28463e-09 -0.000999995)
(-3.91388e-09 -3.29955e-09 -0.000999996)
(-4.32495e-09 -3.33794e-09 -0.000999997)
(-6.76319e-10 -3.64374e-09 -0.000999994)
(-1.97944e-09 -3.65449e-09 -0.000999995)
(-3.10379e-09 -3.65348e-09 -0.000999996)
(-3.95609e-09 -3.63808e-09 -0.000999997)
(-4.30541e-09 -3.61612e-09 -0.000999998)
(-9.48221e-10 -7.87463e-10 -0.000999988)
(-2.73524e-09 -7.83031e-10 -0.000999989)
(-4.24453e-09 -7.83289e-10 -0.00099999)
(-5.37021e-09 -7.83245e-10 -0.000999992)
(-5.95617e-09 -7.76438e-10 -0.000999994)
(-9.44087e-10 -2.2586e-09 -0.000999989)
(-2.73447e-09 -2.25142e-09 -0.000999989)
(-4.25222e-09 -2.25547e-09 -0.000999991)
(-5.37292e-09 -2.26128e-09 -0.000999992)
(-5.95965e-09 -2.25893e-09 -0.000999994)
(-9.38849e-10 -3.48766e-09 -0.00099999)
(-2.73302e-09 -3.48656e-09 -0.00099999)
(-4.26215e-09 -3.5002e-09 -0.000999992)
(-5.38385e-09 -3.51751e-09 -0.000999993)
(-5.96277e-09 -3.53965e-09 -0.000999995)
(-9.36947e-10 -4.38781e-09 -0.000999991)
(-2.74074e-09 -4.40367e-09 -0.000999992)
(-4.28321e-09 -4.43362e-09 -0.000999993)
(-5.41297e-09 -4.47199e-09 -0.000999994)
(-5.96446e-09 -4.54095e-09 -0.000999996)
(-9.47061e-10 -4.91955e-09 -0.000999992)
(-2.77064e-09 -4.93509e-09 -0.000999993)
(-4.32993e-09 -4.94825e-09 -0.000999994)
(-5.49119e-09 -4.95445e-09 -0.000999996)
(-5.96978e-09 -4.95845e-09 -0.000999998)
(-1.30085e-09 -1.06577e-09 -0.000999984)
(-3.75403e-09 -1.06074e-09 -0.000999985)
(-5.81886e-09 -1.05958e-09 -0.000999987)
(-7.33871e-09 -1.05823e-09 -0.000999989)
(-8.14057e-09 -1.05131e-09 -0.000999991)
(-1.29626e-09 -3.06521e-09 -0.000999985)
(-3.7525e-09 -3.05996e-09 -0.000999986)
(-5.82655e-09 -3.06401e-09 -0.000999987)
(-7.34347e-09 -3.07116e-09 -0.00099999)
(-8.14715e-09 -3.07223e-09 -0.000999992)
(-1.29267e-09 -4.7416e-09 -0.000999986)
(-3.75416e-09 -4.74834e-09 -0.000999987)
(-5.84066e-09 -4.76739e-09 -0.000999989)
(-7.36079e-09 -4.79102e-09 -0.000999991)
(-8.15427e-09 -4.81799e-09 -0.000999993)
(-1.29483e-09 -5.97312e-09 -0.000999988)
(-3.76981e-09 -6.00005e-09 -0.000999989)
(-5.86926e-09 -6.03743e-09 -0.00099999)
(-7.39488e-09 -6.07754e-09 -0.000999993)
(-8.16037e-09 -6.15266e-09 -0.000999995)
(-1.30915e-09 -6.68744e-09 -0.00099999)
(-3.80731e-09 -6.70773e-09 -0.000999991)
(-5.91741e-09 -6.72847e-09 -0.000999992)
(-7.47602e-09 -6.74213e-09 -0.000999995)
(-8.16508e-09 -6.74796e-09 -0.000999997)
(-1.76787e-09 -1.44379e-09 -0.000999979)
(-5.12047e-09 -1.4424e-09 -0.00099998)
(-7.95142e-09 -1.44089e-09 -0.000999982)
(-1.00153e-08 -1.43991e-09 -0.000999985)
(-1.11168e-08 -1.43668e-09 -0.000999988)
(-1.76708e-09 -4.18144e-09 -0.00099998)
(-5.12395e-09 -4.18598e-09 -0.000999981)
(-7.96284e-09 -4.18846e-09 -0.000999983)
(-1.00289e-08 -4.19243e-09 -0.000999986)
(-1.11284e-08 -4.19146e-09 -0.000999989)
(-1.76839e-09 -6.49902e-09 -0.000999981)
(-5.12929e-09 -6.51827e-09 -0.000999983)
(-7.9723e-09 -6.53122e-09 -0.000999985)
(-1.00372e-08 -6.54074e-09 -0.000999988)
(-1.1128e-08 -6.54303e-09 -0.000999991)
(-1.77512e-09 -8.20945e-09 -0.000999984)
(-5.14455e-09 -8.23789e-09 -0.000999985)
(-7.98537e-09 -8.2541e-09 -0.000999987)
(-1.00418e-08 -8.25722e-09 -0.00099999)
(-1.11192e-08 -8.28134e-09 -0.000999993)
(-1.78244e-09 -9.14082e-09 -0.000999987)
(-5.15862e-09 -9.15753e-09 -0.000999988)
(-7.99062e-09 -9.16558e-09 -0.00099999)
(-1.00644e-08 -9.16273e-09 -0.000999993)
(-1.11102e-08 -9.15796e-09 -0.000999996)
(-2.39993e-09 -1.96328e-09 -0.000999971)
(-6.98111e-09 -1.96929e-09 -0.000999973)
(-1.08718e-08 -1.96902e-09 -0.000999976)
(-1.36972e-08 -1.96766e-09 -0.00099998)
(-1.51961e-08 -1.96424e-09 -0.000999985)
(-2.40676e-09 -5.7208e-09 -0.000999973)
(-6.99559e-09 -5.73863e-09 -0.000999974)
(-1.08891e-08 -5.73549e-09 -0.000999977)
(-1.37167e-08 -5.72622e-09 -0.000999981)
(-1.52087e-08 -5.7085e-09 -0.000999986)
(-2.41222e-09 -8.92448e-09 -0.000999975)
(-6.99824e-09 -8.95055e-09 -0.000999977)
(-1.0879e-08 -8.94123e-09 -0.000999979)
(-1.36959e-08 -8.9167e-09 -0.000999983)
(-1.51846e-08 -8.87442e-09 -0.000999988)
(-2.41745e-09 -1.12804e-08 -0.000999978)
(-6.99645e-09 -1.12947e-08 -0.00099998)
(-1.08554e-08 -1.12687e-08 -0.000999983)
(-1.36514e-08 -1.12198e-08 -0.000999987)
(-1.51393e-08 -1.11645e-08 -0.000999991)
(-2.40681e-09 -1.24995e-08 -0.000999982)
(-6.96556e-09 -1.2502e-08 -0.000999984)
(-1.08028e-08 -1.24795e-08 -0.000999987)
(-1.35917e-08 -1.24399e-08 -0.00099999)
(-1.51081e-08 -1.2416e-08 -0.000999995)
(-3.27049e-09 -2.6807e-09 -0.000999961)
(-9.53502e-09 -2.69449e-09 -0.000999963)
(-1.48712e-08 -2.6941e-09 -0.000999967)
(-1.87437e-08 -2.68739e-09 -0.000999973)
(-2.07725e-08 -2.67365e-09 -0.000999979)
(-3.28539e-09 -7.82813e-09 -0.000999963)
(-9.56035e-09 -7.85399e-09 -0.000999965)
(-1.48901e-08 -7.83802e-09 -0.000999969)
(-1.87564e-08 -7.80429e-09 -0.000999975)
(-2.07799e-08 -7.75523e-09 -0.000999981)
(-3.28877e-09 -1.22193e-08 -0.000999966)
(-9.54823e-09 -1.22383e-08 -0.000999968)
(-1.48484e-08 -1.21963e-08 -0.000999972)
(-1.86961e-08 -1.21293e-08 -0.000999978)
(-2.07234e-08 -1.20431e-08 -0.000999984)
(-3.28347e-09 -1.54159e-08 -0.000999971)
(-9.51568e-09 -1.54093e-08 -0.000999973)
(-1.47812e-08 -1.53437e-08 -0.000999977)
(-1.86053e-08 -1.52534e-08 -0.000999982)
(-2.06403e-08 -1.51596e-08 -0.000999988)
(-3.25548e-09 -1.705e-08 -0.000999976)
(-9.44748e-09 -1.70387e-08 -0.000999978)
(-1.46907e-08 -1.69853e-08 -0.000999982)
(-1.8512e-08 -1.6913e-08 -0.000999987)
(-2.05619e-08 -1.68435e-08 -0.000999994)
(-4.47375e-09 -3.66981e-09 -0.000999948)
(-1.30346e-08 -3.68584e-09 -0.00099995)
(-2.03175e-08 -3.67992e-09 -0.000999956)
(-2.56033e-08 -3.66199e-09 -0.000999963)
(-2.8358e-08 -3.6306e-09 -0.000999972)
(-4.4913e-09 -1.06977e-08 -0.00099995)
(-1.3061e-08 -1.07188e-08 -0.000999953)
(-2.0329e-08 -1.06829e-08 -0.000999958)
(-2.55992e-08 -1.062e-08 -0.000999966)
(-2.83576e-08 -1.05348e-08 -0.000999974)
(-4.4847e-09 -1.66689e-08 -0.000999954)
(-1.30245e-08 -1.66705e-08 -0.000999957)
(-2.02554e-08 -1.65974e-08 -0.000999963)
(-2.55032e-08 -1.64943e-08 -0.00099997)
(-2.82702e-08 -1.63758e-08 -0.000999979)
(-4.46454e-09 -2.09839e-08 -0.00099996)
(-1.29601e-08 -2.09656e-08 -0.000999963)
(-2.0153e-08 -2.0876e-08 -0.000999969)
(-2.53803e-08 -2.07619e-08 -0.000999976)
(-2.8157e-08 -2.06614e-08 -0.000999985)
(-4.43028e-09 -2.32182e-08 -0.000999967)
(-1.28778e-08 -2.32048e-08 -0.00099997)
(-2.00491e-08 -2.31308e-08 -0.000999976)
(-2.52886e-08 -2.30358e-08 -0.000999983)
(-2.80273e-08 -2.29182e-08 -0.000999992)
(-6.12428e-09 -5.02416e-09 -0.000999929)
(-1.78031e-08 -5.0333e-09 -0.000999933)
(-2.77066e-08 -5.01607e-09 -0.00099994)
(-3.48979e-08 -4.98412e-09 -0.00099995)
(-3.86592e-08 -4.93657e-09 -0.000999962)
(-6.13552e-09 -1.45978e-08 -0.000999932)
(-1.78171e-08 -1.46022e-08 -0.000999936)
(-2.77054e-08 -1.45429e-08 -0.000999943)
(-3.48795e-08 -1.44523e-08 -0.000999953)
(-3.86536e-08 -1.43367e-08 -0.000999965)
(-6.11495e-09 -2.26971e-08 -0.000999938)
(-1.77545e-08 -2.26817e-08 -0.000999942)
(-2.76065e-08 -2.25846e-08 -0.000999949)
(-3.47567e-08 -2.24527e-08 -0.000999959)
(-3.85358e-08 -2.23076e-08 -0.000999971)
(-6.08182e-09 -2.8549e-08 -0.000999946)
(-1.76647e-08 -2.8532e-08 -0.00099995)
(-2.74766e-08 -2.84255e-08 -0.000999957)
(-3.46063e-08 -2.82877e-08 -0.000999967)
(-3.83908e-08 -2.81706e-08 -0.000999979)
(-6.04899e-09 -3.16199e-08 -0.000999956)
(-1.75784e-08 -3.1613e-08 -0.00099996)
(-2.73586e-08 -3.15194e-08 -0.000999967)
(-3.45018e-08 -3.13958e-08 -0.000999977)
(-3.82056e-08 -3.12264e-08 -0.000999989)
(-8.36861e-09 -6.86644e-09 -0.000999903)
(-2.42791e-08 -6.86243e-09 -0.000999909)
(-3.77392e-08 -6.83085e-09 -0.000999919)
(-4.75206e-08 -6.78435e-09 -0.000999932)
(-5.26694e-08 -6.72608e-09 -0.000999949)
(-8.36747e-09 -1.99024e-08 -0.000999908)
(-2.42733e-08 -1.98858e-08 -0.000999913)
(-3.77261e-08 -1.98006e-08 -0.000999923)
(-4.74985e-08 -1.96809e-08 -0.000999937)
(-5.26612e-08 -1.9539e-08 -0.000999953)
(-8.33354e-09 -3.0907e-08 -0.000999916)
(-2.41859e-08 -3.08807e-08 -0.000999921)
(-3.76019e-08 -3.07587e-08 -0.000999931)
(-4.7347e-08 -3.05908e-08 -0.000999945)
(-5.25027e-08 -3.04081e-08 -0.000999961)
(-8.28945e-09 -3.88857e-08 -0.000999927)
(-2.4071e-08 -3.88718e-08 -0.000999932)
(-3.74366e-08 -3.87358e-08 -0.000999942)
(-4.71531e-08 -3.85509e-08 -0.000999956)
(-5.23015e-08 -3.83671e-08 -0.000999972)
(-8.25333e-09 -4.30908e-08 -0.00099994)
(-2.39647e-08 -4.30857e-08 -0.000999946)
(-3.72762e-08 -4.29539e-08 -0.000999956)
(-4.69782e-08 -4.27699e-08 -0.000999969)
(-5.20357e-08 -4.25202e-08 -0.000999985)
(-1.14106e-08 -9.36709e-09 -0.000999869)
(-3.3078e-08 -9.35058e-09 -0.000999876)
(-5.13986e-08 -9.30358e-09 -0.000999889)
(-6.47224e-08 -9.24151e-09 -0.000999908)
(-7.17655e-08 -9.17398e-09 -0.00099993)
(-1.1398e-08 -2.71292e-08 -0.000999874)
(-3.30548e-08 -2.70949e-08 -0.000999882)
(-5.13775e-08 -2.69782e-08 -0.000999895)
(-6.4705e-08 -2.68196e-08 -0.000999914)
(-7.17531e-08 -2.66433e-08 -0.000999936)
(-1.13514e-08 -4.21208e-08 -0.000999886)
(-3.29387e-08 -4.20867e-08 -0.000999893)
(-5.12149e-08 -4.19257e-08 -0.000999906)
(-6.4507e-08 -4.1696e-08 -0.000999925)
(-7.153e-08 -4.1444e-08 -0.000999947)
(-1.12938e-08 -5.30151e-08 -0.000999901)
(-3.27865e-08 -5.29942e-08 -0.000999908)
(-5.09872e-08 -5.28019e-08 -0.000999922)
(-6.42304e-08 -5.25288e-08 -0.00099994)
(-7.12308e-08 -5.22318e-08 -0.000999962)
(-1.12407e-08 -5.87471e-08 -0.000999919)
(-3.26289e-08 -5.87278e-08 -0.000999926)
(-5.0743e-08 -5.85228e-08 -0.00099994)
(-6.39369e-08 -5.82331e-08 -0.000999958)
(-7.08318e-08 -5.78457e-08 -0.00099998)
(-1.55427e-08 -1.27693e-08 -0.000999821)
(-4.50623e-08 -1.27455e-08 -0.000999831)
(-7.0038e-08 -1.26818e-08 -0.000999849)
(-8.82141e-08 -1.26e-08 -0.000999875)
(-9.78304e-08 -1.25152e-08 -0.000999905)
(-1.55242e-08 -3.69924e-08 -0.000999829)
(-4.50295e-08 -3.69463e-08 -0.000999839)
(-7.00119e-08 -3.67863e-08 -0.000999857)
(-8.81998e-08 -3.65677e-08 -0.000999883)
(-9.78062e-08 -3.6329e-08 -0.000999913)
(-1.54628e-08 -5.74497e-08 -0.000999844)
(-4.4872e-08 -5.74042e-08 -0.000999854)
(-6.97837e-08 -5.7176e-08 -0.000999872)
(-8.79192e-08 -5.68436e-08 -0.000999898)
(-9.74792e-08 -5.6473e-08 -0.000999928)
(-1.53836e-08 -7.23134e-08 -0.000999865)
(-4.46566e-08 -7.22705e-08 -0.000999875)
(-6.94519e-08 -7.19845e-08 -0.000999893)
(-8.75065e-08 -7.15726e-08 -0.000999919)
(-9.70233e-08 -7.11112e-08 -0.000999948)
(-1.5298e-08 -8.01071e-08 -0.00099989)
(-4.4412e-08 -8.00545e-08 -0.0009999)
(-6.9077e-08 -7.97307e-08 -0.000999918)
(-8.70459e-08 -7.9277e-08 -0.000999943)
(-9.6432e-08 -7.869e-08 -0.000999972)
(-2.11766e-08 -1.74157e-08 -0.000999756)
(-6.14222e-08 -1.73894e-08 -0.000999769)
(-9.55002e-08 -1.73032e-08 -0.000999795)
(-1.20313e-07 -1.71883e-08 -0.000999829)
(-1.33425e-07 -1.70648e-08 -0.00099987)
(-2.11574e-08 -5.04769e-08 -0.000999767)
(-6.13837e-08 -5.04197e-08 -0.00099978)
(-9.54611e-08 -5.01893e-08 -0.000999806)
(-1.20282e-07 -4.98686e-08 -0.00099984)
(-1.3337e-07 -4.95108e-08 -0.000999881)
(-2.10736e-08 -7.84076e-08 -0.000999788)
(-6.11561e-08 -7.83361e-08 -0.000999801)
(-9.51179e-08 -7.799e-08 -0.000999826)
(-1.19855e-07 -7.74902e-08 -0.000999861)
(-1.32875e-07 -7.69203e-08 -0.000999902)
(-2.0957e-08 -9.86758e-08 -0.000999816)
(-6.08315e-08 -9.85883e-08 -0.00099983)
(-9.46161e-08 -9.81474e-08 -0.000999855)
(-1.19225e-07 -9.75157e-08 -0.000999889)
(-1.32174e-07 -9.67933e-08 -0.00099993)
(-2.08209e-08 -1.09265e-07 -0.00099985)
(-6.04499e-08 -1.09157e-07 -0.000999863)
(-9.40333e-08 -1.08649e-07 -0.000999888)
(-1.18501e-07 -1.07939e-07 -0.000999922)
(-1.31303e-07 -1.07063e-07 -0.000999962)
(-2.8876e-08 -2.37791e-08 -0.000999667)
(-8.37763e-08 -2.37478e-08 -0.000999685)
(-1.30282e-07 -2.36211e-08 -0.00099972)
(-1.64155e-07 -2.34462e-08 -0.000999768)
(-1.82031e-07 -2.32512e-08 -0.000999824)
(-2.88544e-08 -6.89322e-08 -0.000999682)
(-8.37189e-08 -6.88478e-08 -0.0009997)
(-1.302e-07 -6.84933e-08 -0.000999735)
(-1.64066e-07 -6.79979e-08 -0.000999783)
(-1.81912e-07 -6.74345e-08 -0.000999838)
(-2.87295e-08 -1.07067e-07 -0.000999711)
(-8.33665e-08 -1.06935e-07 -0.000999729)
(-1.29661e-07 -1.06389e-07 -0.000999763)
(-1.63396e-07 -1.05618e-07 -0.000999811)
(-1.81149e-07 -1.04724e-07 -0.000999866)
(-2.85486e-08 -1.34708e-07 -0.00099975)
(-8.28585e-08 -1.34535e-07 -0.000999768)
(-1.28883e-07 -1.33837e-07 -0.000999802)
(-1.62418e-07 -1.32852e-07 -0.000999849)
(-1.80068e-07 -1.31711e-07 -0.000999904)
(-2.83328e-08 -1.49104e-07 -0.000999796)
(-8.22543e-08 -1.489e-07 -0.000999814)
(-1.27962e-07 -1.48102e-07 -0.000999848)
(-1.6127e-07 -1.46992e-07 -0.000999894)
(-1.78762e-07 -1.45671e-07 -0.000999949)
(-3.93994e-08 -3.24993e-08 -0.000999546)
(-1.14312e-07 -3.24488e-08 -0.000999571)
(-1.77774e-07 -3.2251e-08 -0.000999618)
(-2.24012e-07 -3.1978e-08 -0.000999683)
(-2.48403e-07 -3.16683e-08 -0.00099976)
(-3.9362e-08 -9.41985e-08 -0.000999567)
(-1.14199e-07 -9.40477e-08 -0.000999592)
(-1.776e-07 -9.3488e-08 -0.000999639)
(-2.23809e-07 -9.27136e-08 -0.000999704)
(-2.48166e-07 -9.18258e-08 -0.00099978)
(-3.91645e-08 -1.46268e-07 -0.000999606)
(-1.13641e-07 -1.46023e-07 -0.000999631)
(-1.7675e-07 -1.45158e-07 -0.000999677)
(-2.22755e-07 -1.43959e-07 -0.000999742)
(-2.46985e-07 -1.42565e-07 -0.000999818)
(-3.8881e-08 -1.83974e-07 -0.00099966)
(-1.12843e-07 -1.83653e-07 -0.000999684)
(-1.75537e-07 -1.82549e-07 -0.00099973)
(-2.2124e-07 -1.81019e-07 -0.000999794)
(-2.45327e-07 -1.79248e-07 -0.000999869)
(-3.8541e-08 -2.0356e-07 -0.000999722)
(-1.11889e-07 -2.03193e-07 -0.000999747)
(-1.74093e-07 -2.01948e-07 -0.000999793)
(-2.19454e-07 -2.00231e-07 -0.000999856)
(-2.43348e-07 -1.98224e-07 -0.00099993)
(-5.377e-08 -4.44469e-08 -0.000999381)
(-1.56001e-07 -4.43553e-08 -0.000999415)
(-2.4261e-07 -4.40473e-08 -0.000999479)
(-3.05731e-07 -4.36253e-08 -0.000999568)
(-3.39045e-07 -4.3141e-08 -0.000999673)
(-5.36961e-08 -1.28799e-07 -0.000999409)
(-1.55786e-07 -1.28528e-07 -0.000999443)
(-2.42283e-07 -1.27656e-07 -0.000999507)
(-3.05339e-07 -1.26456e-07 -0.000999596)
(-3.38606e-07 -1.25074e-07 -0.0009997)
(-5.33855e-08 -1.99928e-07 -0.000999463)
(-1.54911e-07 -1.99498e-07 -0.000999496)
(-2.40958e-07 -1.9815e-07 -0.00099956)
(-3.03699e-07 -1.96294e-07 -0.000999648)
(-3.3679e-07 -1.94145e-07 -0.000999752)
(-5.29463e-08 -2.51374e-07 -0.000999536)
(-1.53673e-07 -2.50819e-07 -0.00099957)
(-2.39081e-07 -2.491e-07 -0.000999633)
(-3.01367e-07 -2.46742e-07 -0.00099972)
(-3.34257e-07 -2.44024e-07 -0.000999822)
(-5.24211e-08 -2.78028e-07 -0.000999622)
(-1.52195e-07 -2.77396e-07 -0.000999656)
(-2.3685e-07 -2.75475e-07 -0.000999718)
(-2.98623e-07 -2.72841e-07 -0.000999804)
(-3.31241e-07 -2.6978e-07 -0.000999905)
(-7.33908e-08 -6.08281e-08 -0.000999155)
(-2.12926e-07 -6.06717e-08 -0.000999202)
(-3.3115e-07 -6.02012e-08 -0.00099929)
(-4.17336e-07 -5.95565e-08 -0.000999411)
(-4.62873e-07 -5.88122e-08 -0.000999554)
(-7.32583e-08 -1.76234e-07 -0.000999194)
(-2.12548e-07 -1.75777e-07 -0.00099924)
(-3.30579e-07 -1.74438e-07 -0.000999328)
(-4.16643e-07 -1.72598e-07 -0.000999449)
(-4.62102e-07 -1.70473e-07 -0.000999591)
(-7.278e-08 -2.73468e-07 -0.000999267)
(-2.11202e-07 -2.72749e-07 -0.000999313)
(-3.28539e-07 -2.70676e-07 -0.000999401)
(-4.14115e-07 -2.67829e-07 -0.000999521)
(-4.59326e-07 -2.64533e-07 -0.000999662)
(-7.21072e-08 -3.43687e-07 -0.000999368)
(-2.09303e-07 -3.42765e-07 -0.000999414)
(-3.25661e-07 -3.40119e-07 -0.0009995)
(-4.10545e-07 -3.365e-07 -0.000999618)
(-4.55444e-07 -3.32319e-07 -0.000999758)
(-7.13052e-08 -3.79939e-07 -0.000999486)
(-2.07036e-07 -3.78888e-07 -0.000999531)
(-3.22232e-07 -3.75932e-07 -0.000999616)
(-4.06314e-07 -3.71886e-07 -0.000999733)
(-4.50823e-07 -3.67191e-07 -0.00099987)
(-1.002e-07 -8.33297e-08 -0.000998847)
(-2.90702e-07 -8.30757e-08 -0.00099891)
(-4.52112e-07 -8.23623e-08 -0.00099903)
(-5.6983e-07 -8.1385e-08 -0.000999196)
(-6.32117e-07 -8.02525e-08 -0.000999391)
(-9.99782e-08 -2.41377e-07 -0.0009989)
(-2.9007e-07 -2.40633e-07 -0.000998963)
(-4.51157e-07 -2.38591e-07 -0.000999083)
(-5.6866e-07 -2.35793e-07 -0.000999248)
(-6.30819e-07 -2.32545e-07 -0.000999443)
(-9.92484e-08 -3.74403e-07 -0.000999001)
(-2.88013e-07 -3.73231e-07 -0.000999064)
(-4.48041e-07 -3.70061e-07 -0.000999183)
(-5.6479e-07 -3.65719e-07 -0.000999346)
(-6.26584e-07 -3.60683e-07 -0.000999539)
(-9.82216e-08 -4.70289e-07 -0.00099914)
(-2.85115e-07 -4.68781e-07 -0.000999202)
(-4.43649e-07 -4.64726e-07 -0.000999319)
(-5.59343e-07 -4.59186e-07 -0.00099948)
(-6.20639e-07 -4.52774e-07 -0.000999671)
(-9.69938e-08 -5.19554e-07 -0.000999301)
(-2.81642e-07 -5.17833e-07 -0.000999363)
(-4.38389e-07 -5.13273e-07 -0.000999478)
(-5.52838e-07 -5.07046e-07 -0.000999637)
(-6.13572e-07 -4.99853e-07 -0.000999824)
(-1.3687e-07 -1.14304e-07 -0.000998425)
(-3.97046e-07 -1.13895e-07 -0.000998512)
(-6.17447e-07 -1.12813e-07 -0.000998676)
(-7.78258e-07 -1.11335e-07 -0.000998903)
(-8.63517e-07 -1.09617e-07 -0.00099917)
(-1.36504e-07 -3.3101e-07 -0.000998498)
(-3.96007e-07 -3.29809e-07 -0.000998585)
(-6.15881e-07 -3.267e-07 -0.000998749)
(-7.76332e-07 -3.22458e-07 -0.000998975)
(-8.61386e-07 -3.17533e-07 -0.00099924)
(-1.35388e-07 -5.13167e-07 -0.000998637)
(-3.92865e-07 -5.11267e-07 -0.000998723)
(-6.11135e-07 -5.06424e-07 -0.000998885)
(-7.70451e-07 -4.99829e-07 -0.000999109)
(-8.54958e-07 -4.92198e-07 -0.000999372)
(-1.33816e-07 -6.44142e-07 -0.000998828)
(-3.88435e-07 -6.41683e-07 -0.000998913)
(-6.04448e-07 -6.35475e-07 -0.000999072)
(-7.62189e-07 -6.27037e-07 -0.000999293)
(-8.45927e-07 -6.17301e-07 -0.000999552)
(-1.31924e-07 -7.11028e-07 -0.00099905)
(-3.83106e-07 -7.08214e-07 -0.000999134)
(-5.96411e-07 -7.0117e-07 -0.00099929)
(-7.52278e-07 -6.91615e-07 -0.000999507)
(-8.35186e-07 -6.80654e-07 -0.000999761)
(-1.87093e-07 -1.57031e-07 -0.000997847)
(-5.4258e-07 -1.56366e-07 -0.000997966)
(-8.43536e-07 -1.54719e-07 -0.000998192)
(-1.06316e-06 -1.52487e-07 -0.000998501)
(-1.17993e-06 -1.49906e-07 -0.000998866)
(-1.86486e-07 -4.54599e-07 -0.000997949)
(-5.40878e-07 -4.52651e-07 -0.000998067)
(-8.40995e-07 -4.47908e-07 -0.000998292)
(-1.06006e-06 -4.415e-07 -0.0009986)
(-1.17652e-06 -4.34116e-07 -0.000998963)
(-1.84766e-07 -7.04288e-07 -0.000998141)
(-5.36063e-07 -7.01201e-07 -0.000998258)
(-8.33788e-07 -6.93795e-07 -0.00099848)
(-1.05121e-06 -6.83825e-07 -0.000998785)
(-1.16685e-06 -6.72386e-07 -0.000999144)
(-1.82337e-07 -8.83216e-07 -0.000998403)
(-5.29264e-07 -8.79214e-07 -0.000998519)
(-8.23625e-07 -8.697e-07 -0.000998737)
(-1.03877e-06 -8.56915e-07 -0.000999037)
(-1.15326e-06 -8.4228e-07 -0.00099939)
(-1.79411e-07 -9.73897e-07 -0.000998709)
(-5.21073e-07 -9.69301e-07 -0.000998823)
(-8.11384e-07 -9.58425e-07 -0.000999036)
(-1.02379e-06 -9.43808e-07 -0.00099933)
(-1.13702e-06 -9.27142e-07 -0.000999677)
(-2.56018e-07 -2.16099e-07 -0.000997055)
(-7.42005e-07 -2.15004e-07 -0.000997219)
(-1.15287e-06 -2.1249e-07 -0.000997528)
(-1.45264e-06 -2.09131e-07 -0.000997952)
(-1.6125e-06 -2.05304e-07 -0.00099845)
(-2.55001e-07 -6.25426e-07 -0.000997196)
(-7.39214e-07 -6.2223e-07 -0.000997359)
(-1.1488e-06 -6.14986e-07 -0.000997666)
(-1.44777e-06 -6.05356e-07 -0.000998088)
(-1.60719e-06 -5.9441e-07 -0.000998584)
(-2.52314e-07 -9.68103e-07 -0.000997462)
(-7.31798e-07 -9.63054e-07 -0.000997623)
(-1.13789e-06 -9.51723e-07 -0.000997926)
(-1.43455e-06 -9.36718e-07 -0.000998343)
(-1.5928e-06 -9.1973e-07 -0.000998833)
(-2.48524e-07 -1.21256e-06 -0.000997825)
(-7.21322e-07 -1.20603e-06 -0.000997983)
(-1.12247e-06 -1.19142e-06 -0.00099828)
(-1.41593e-06 -1.1721e-06 -0.000998689)
(-1.57258e-06 -1.15027e-06 -0.000999171)
(-2.43962e-07 -1.33523e-06 -0.000998246)
(-7.0867e-07 -1.32772e-06 -0.0009984)
(-1.10381e-06 -1.31091e-06 -0.00099869)
(-1.3934e-06 -1.2886e-06 -0.000999091)
(-1.54822e-06 -1.26335e-06 -0.000999563)
(-3.50972e-07 -2.97934e-07 -0.000995969)
(-1.01586e-06 -2.96081e-07 -0.000996196)
(-1.57642e-06 -2.92249e-07 -0.00099662)
(-1.9851e-06 -2.87217e-07 -0.0009972)
(-2.20353e-06 -2.81614e-07 -0.00099788)
(-3.49222e-07 -8.62269e-07 -0.000996164)
(-1.01127e-06 -8.56919e-07 -0.000996389)
(-1.56998e-06 -8.45861e-07 -0.00099681)
(-1.97757e-06 -8.31454e-07 -0.000997387)
(-2.19544e-06 -8.15417e-07 -0.000998064)
(-3.44941e-07 -1.3333e-06 -0.000996535)
(-9.9976e-07 -1.32491e-06 -0.000996756)
(-1.5535e-06 -1.30756e-06 -0.000997171)
(-1.958e-06 -1.28507e-06 -0.00099774)
(-2.17435e-06 -1.2601e-06 -0.000998409)
(-3.38929e-07 -1.66733e-06 -0.000997037)
(-9.83502e-07 -1.65652e-06 -0.000997252)
(-1.53015e-06 -1.634e-06 -0.000997658)
(-1.93032e-06 -1.60486e-06 -0.000998216)
(-2.14465e-06 -1.57257e-06 -0.000998874)
(-3.317e-07 -1.83262e-06 -0.000997619)
(-9.6376e-07 -1.82026e-06 -0.000997828)
(-1.50165e-06 -1.79418e-06 -0.000998223)
(-1.89657e-06 -1.76021e-06 -0.000998768)
(-2.10869e-06 -1.7223e-06 -0.000999411)
(-4.82754e-07 -4.11468e-07 -0.000994475)
(-1.39327e-06 -4.08162e-07 -0.000994793)
(-2.15692e-06 -4.02375e-07 -0.000995375)
(-2.71286e-06 -3.94796e-07 -0.000996169)
(-3.00981e-06 -3.86731e-07 -0.000997097)
(-4.79593e-07 -1.192e-06 -0.000994746)
(-1.38565e-06 -1.18268e-06 -0.000995059)
(-2.14681e-06 -1.16583e-06 -0.000995638)
(-2.7014e-06 -1.14428e-06 -0.000996427)
(-2.9978e-06 -1.12118e-06 -0.00099735)
(-4.72537e-07 -1.84071e-06 -0.000995265)
(-1.36752e-06 -1.82633e-06 -0.000995572)
(-2.12194e-06 -1.79972e-06 -0.00099614)
(-2.67272e-06 -1.76608e-06 -0.000996918)
(-2.96764e-06 -1.73e-06 -0.000997831)
(-4.62681e-07 -2.29716e-06 -0.000995961)
(-1.34193e-06 -2.27871e-06 -0.000996257)
(-2.08657e-06 -2.24378e-06 -0.000996812)
(-2.63197e-06 -2.19998e-06 -0.000997574)
(-2.92485e-06 -2.15294e-06 -0.000998471)
(-4.50868e-07 -2.51832e-06 -0.000996771)
(-1.31057e-06 -2.49773e-06 -0.000997055)
(-2.04294e-06 -2.45716e-06 -0.000997592)
(-2.58187e-06 -2.40567e-06 -0.000998333)
(-2.87313e-06 -2.34936e-06 -0.000999211)
(-6.68384e-07 -5.68653e-07 -0.000992415)
(-1.91658e-06 -5.62144e-07 -0.000992871)
(-2.95337e-06 -5.53713e-07 -0.00099367)
(-3.70726e-06 -5.41951e-07 -0.000994761)
(-4.10607e-06 -5.30694e-07 -0.000996024)
(-6.62089e-07 -1.65382e-06 -0.000992787)
(-1.90361e-06 -1.63638e-06 -0.000993232)
(-2.93753e-06 -1.61101e-06 -0.000994028)
(-3.68985e-06 -1.57844e-06 -0.000995107)
(-4.08891e-06 -1.54601e-06 -0.000996366)
(-6.49811e-07 -2.54928e-06 -0.000993529)
(-1.87435e-06 -2.52315e-06 -0.000993959)
(-2.90002e-06 -2.48247e-06 -0.00099474)
(-3.64832e-06 -2.43212e-06 -0.000995803)
(-4.04783e-06 -2.38136e-06 -0.000997047)
(-6.32678e-07 -3.17316e-06 -0.000994491)
(-1.8332e-06 -3.1398e-06 -0.000994899)