FoamFile
{version 2.0; format ascii;class Cloud<passiveParticle>; location 0;object  positions;}
352
(
( 3.01992 0.88354 0.499639 ) 0 
( 2.56363 3.50514 0.499969 ) 0 
( 1.218 2.22333 0.499976 ) 0 
( 0.287273 2.58904 0.499976 ) 0 
( 0.155055 0.348597 0.499488 ) 0 
( 1.15433 0.377892 0.499735 ) 0 
( 4.62651 2.15779 0.499839 ) 0 
( 4.70902 3.97872 0.499836 ) 0 
( 0.843861 4.34877 0.499588 ) 0 
( 4.05502 2.98 0.499977 ) 0 
( 1.56242 3.40942 0.499658 ) 0 
( 4.50613 0.736722 0.49968 ) 0 
( 3.11675 2.35723 0.499537 ) 0 
( 2.33595 1.61406 0.499662 ) 0 
( 0.479996 1.30556 0.499787 ) 0 
( 2.14577 2.59658 0.499975 ) 0 
( 2.44626 4.49828 0.499908 ) 0 
( 0.0745121 1.8921 1.20057 ) 0 
( 1.04478 4.31602 1.47824 ) 0 
( 3.66 3.90731 0.499977 ) 0 
( 3.27036 3.11685 1.13088 ) 0 
( 3.84098 2.27725 1.18399 ) 0 
( 0.707185 3.49973 1.00962 ) 0 
( 3.81859 1.54874 0.49974 ) 0 
( 2.1079 0.553999 0.742855 ) 0 
( 4.20085 4.85144 0.499501 ) 0 
( 0.017908 0.901072 1.32107 ) 0 
( 3.69753 0.14852 0.499737 ) 0 
( 1.93926 3.91923 1.27269 ) 0 
( 1.43571 1.29218 0.792478 ) 0 
( 0.661015 0.135605 1.33498 ) 0 
( 4.52611 1.45035 1.19941 ) 0 
( 1.21394 1.92946 1.53011 ) 0 
( 3.71891 0.856168 1.21383 ) 0 
( 2.21382 2.09929 1.36501 ) 0 
( 4.72839 4.94093 1.34371 ) 0 
( 0.193529 4.67959 1.85581 ) 0 
( 2.94024 4.05339 1.24665 ) 0 
( 1.55167 2.84826 1.327 ) 0 
( 1.95361 4.9069 1.42677 ) 0 
( 3.07483 1.62004 1.17337 ) 0 
( 4.27403 3.55371 1.29336 ) 0 
( 1.4355 0.648662 1.70439 ) 0 
( 0.559725 2.68459 1.56934 ) 0 
( 3.0628 2.39947 1.79942 ) 0 
( 2.30432 1.12604 1.57538 ) 0 
( 3.84927 4.45718 1.34822 ) 0 
( 4.33259 0.478561 1.90669 ) 0 
( 1.83975 2.39611 2.24321 ) 0 
( 2.55844 4.32647 2.12947 ) 0 
( 1.0711 3.44531 1.96899 ) 0 
( 4.74401 2.67305 1.34855 ) 0 
( 2.87545 0.335596 1.3449 ) 0 
( 0.590931 1.32276 2.02369 ) 0 
( 2.42054 3.16042 1.71083 ) 0 
( 4.14095 1.69794 2.08808 ) 0 
( 0.398423 3.95081 2.50904 ) 0 
( 0.863257 0.49201 2.50911 ) 0 
( 1.58887 1.4291 2.31027 ) 0 
( 0.879467 2.1942 2.43444 ) 0 
( 3.52625 3.62453 1.9532 ) 0 
( 4.81957 4.36332 2.15435 ) 0 
( 3.20206 0.359113 2.28918 ) 0 
( 3.19952 1.34577 2.12656 ) 0 
( 1.58097 4.23467 2.31801 ) 0 
( 2.32515 0.784193 2.51476 ) 0 
( 1.80212 3.31365 2.63826 ) 0 
( 0.108208 2.83038 2.44935 ) 0 
( 4.36609 3.08087 2.17923 ) 0 
( 1.29012 2.67302 3.2103 ) 0 
( 3.69585 2.45143 2.57137 ) 0 
( 0.937784 1.39893 3.06857 ) 0 
( 2.71018 2.41585 2.73486 ) 0 
( 3.33584 1.66111 3.06671 ) 0 
( 0.109078 0.736086 3.11851 ) 0 
( 4.12704 3.89717 2.70438 ) 0 
( 1.0867 4.20949 3.18669 ) 0 
( 0.0503573 1.73742 2.75598 ) 0 
( 0.540739 4.9306 2.76077 ) 0 
( 2.79848 3.40643 2.60311 ) 0 
( 3.91382 0.934077 2.69194 ) 0 
( 3.51617 4.56788 2.28425 ) 0 
( 3.02808 0.28375 3.27058 ) 0 
( 1.93336 1.91364 3.11409 ) 0 
( 0.191824 1.53152 3.72371 ) 0 
( 3.65315 4.56775 3.27453 ) 0 
( 4.67739 1.2966 3.22578 ) 0 
( 2.54017 3.04041 3.49694 ) 0 
( 0.320158 2.48448 3.363 ) 0 
( 2.7091 4.96455 3.27773 ) 0 
( 2.24594 4.10735 3.05381 ) 0 
( 2.54696 1.15581 3.41606 ) 0 
( 4.82601 2.2418 2.93568 ) 0 
( 4.25072 3.02379 3.17489 ) 0 
( 4.71569 4.43703 3.30571 ) 0 
( 1.58952 0.648566 3.17838 ) 0 
( 3.42661 2.5781 3.52561 ) 0 
( 1.66525 3.51163 3.60854 ) 0 
( 4.22062 2.73146 4.13047 ) 0 
( 1.76482 4.98772 2.94966 ) 0 
( 2.69917 3.91399 3.95657 ) 0 
( 0.11019 4.4015 3.49169 ) 0 
( 1.68836 1.33905 3.89467 ) 0 
( 3.43224 3.58992 3.35437 ) 0 
( 0.824005 0.192156 3.63164 ) 0 
( 0.672608 3.39268 3.58773 ) 0 
( 3.67819 0.935464 3.66334 ) 0 
( 4.49204 3.66629 3.9021 ) 0 
( 2.6167 2.07464 3.82603 ) 0 
( 4.54482 0.232461 3.0224 ) 0 
( 1.62641 4.43145 3.99864 ) 0 
( 2.55118 1.26555 4.40988 ) 0 
( 0.158988 2.19236 4.47322 ) 0 
( 1.00705 2.06804 3.95837 ) 0 
( 0.694031 4.7516 4.22403 ) 0 
( 3.1854 4.76919 4.13465 ) 0 
( 3.06365 0.420183 4.26018 ) 0 
( 1.82331 2.63564 4.06439 ) 0 
( 1.58355 0.409458 4.24735 ) 0 
( 4.16994 4.58499 4.13021 ) 0 
( 4.17813 1.74614 3.96693 ) 0 
( 0.708831 0.129168 4.64236 ) 0 
( 0.940109 2.94219 4.43923 ) 0 
( 3.4296 2.21409 4.45669 ) 0 
( 0.220745 3.87791 4.33612 ) 0 
( 1.9886 3.54288 4.55396 ) 0 
( 3.34851 3.22692 4.28214 ) 0 
( 1.82435 1.87379 4.72838 ) 0 
( 4.83066 0.390753 3.9673 ) 0 
( 4.29854 3.37451 4.89198 ) 0 
( 0.832761 1.07357 4.33882 ) 0 
( 3.53435 1.23124 4.6075 ) 0 
( 0.0761812 3.08146 4.92293 ) 0 
( 3.53326 4.07997 4.76973 ) 0 
( 2.57739 2.66583 4.72032 ) 0 
( 2.88887 1.7968 5.18682 ) 0 
( 2.31792 0.437069 4.92557 ) 0 
( 4.91258 2.08425 4.55503 ) 0 
( 4.97172 3.60474 5.59451 ) 0 
( 0.311947 2.38746 5.60281 ) 0 
( 2.47815 0.205572 5.88477 ) 0 
( 1.49878 0.98895 5.0793 ) 0 
( 3.08915 0.844068 5.41463 ) 0 
( 3.49255 2.87306 5.20598 ) 0 
( 1.66085 2.78188 5.11328 ) 0 
( 1.12706 4.00876 4.75482 ) 0 
( 3.28093 4.67202 5.53498 ) 0 
( 0.877649 1.78668 5.03823 ) 0 
( 0.500591 0.884961 5.26286 ) 0 
( 3.92455 0.293657 4.7526 ) 0 
( 2.56517 4.26185 4.94186 ) 0 
( 0.29789 4.20549 5.27768 ) 0 
( 4.77184 4.25465 4.86151 ) 0 
( 4.52084 1.09418 4.6964 ) 0 
( 1.1924 0.614538 5.95432 ) 0 
( 4.10852 1.90047 5.1204 ) 0 
( 2.63741 3.31273 5.48042 ) 0 
( 2.03439 1.59617 5.6657 ) 0 
( 0.40181 1.49655 6.04756 ) 0 
( 0.138301 4.63701 6.16542 ) 0 
( 4.37687 2.73003 5.65246 ) 0 
( 3.33631 0.710831 6.37413 ) 0 
( 3.6525 0.0586608 5.68541 ) 0 
( 4.19266 4.9702 6.04476 ) 0 
( 0.668123 3.36054 5.67864 ) 0 
( 1.7171 3.70316 5.50284 ) 0 
( 4.10162 4.97232 5.04925 ) 0 
( 2.94687 2.46351 5.93673 ) 0 
( 4.10603 0.945018 5.59373 ) 0 
( 1.03751 4.22539 6.01792 ) 0 
( 1.98232 2.69831 6.05607 ) 0 
( 2.38031 0.801955 6.68123 ) 0 
( 4.09274 4.08121 5.59815 ) 0 
( 4.69243 1.82217 5.92834 ) 0 
( 1.86154 4.67873 5.67877 ) 0 
( 3.58383 3.36314 6.07256 ) 0 
( 1.56221 1.35292 6.51808 ) 0 
( 1.20391 2.08272 5.93613 ) 0 
( 3.48236 1.62072 5.98623 ) 0 
( 1.77637 3.65512 6.49985 ) 0 
( 4.72053 4.18489 6.36929 ) 0 
( 3.01204 0.201359 7.17081 ) 0 
( 2.61357 4.13433 6.04986 ) 0 
( 3.67817 4.2542 6.51614 ) 0 
( 0.333022 3.78332 6.64805 ) 0 
( 3.8156 2.45161 6.4318 ) 0 
( 0.919874 2.02114 6.89282 ) 0 
( 4.4508 3.23694 6.55421 ) 0 
( 0.266287 0.528788 6.37081 ) 0 
( 4.59104 0.684311 6.42836 ) 0 
( 2.42068 1.87056 6.546 ) 0 
( 1.40158 0.450718 6.91828 ) 0 
( 2.68896 3.2463 6.50278 ) 0 
( 3.09641 1.3699 7.08671 ) 0 
( 4.13305 1.51727 6.73836 ) 0 
( 4.82467 2.23365 6.83009 ) 0 
( 1.08068 2.91672 6.47387 ) 0 
( 4.81534 1.04922 7.396 ) 0 
( 0.946501 4.50231 6.97431 ) 0 
( 4.29372 3.94609 7.24138 ) 0 
( 3.38332 3.01865 7.18501 ) 0 
( 0.535801 0.222479 7.36352 ) 0 
( 3.92892 0.641981 7.17653 ) 0 
( 0.380774 1.19081 7.11136 ) 0 
( 2.0018 1.60394 7.41384 ) 0 
( 0.590061 2.85086 7.34266 ) 0 
( 4.3281 2.86876 7.47557 ) 0 
( 2.8524 4.06812 7.04824 ) 0 
( 1.80796 2.5026 7.02087 ) 0 
( 3.69317 2.09824 7.4229 ) 0 
( 0.0720213 0.894245 8.03752 ) 0 
( 1.78308 0.866905 8.05296 ) 0 
( 1.23326 3.61641 7.33857 ) 0 
( 4.53867 0.125532 7.97912 ) 0 
( 3.75124 3.52044 7.96771 ) 0 
( 2.71365 2.30691 7.39657 ) 0 
( 4.59483 1.94992 7.82888 ) 0 
( 1.94467 4.48702 7.03153 ) 0 
( 3.62747 1.2349 7.92312 ) 0 
( 0.292166 3.75559 7.6467 ) 0 
( 0.921951 4.59164 7.96988 ) 0 
( 4.12783 4.93135 7.20077 ) 0 
( 4.20341 4.3974 8.12901 ) 0 
( 1.06426 1.53534 7.75483 ) 0 
( 2.76173 0.664489 8.02079 ) 0 
( 2.70911 1.65409 8.1539 ) 0 
( 1.68355 3.46081 8.21766 ) 0 
( 4.51379 1.05401 8.34935 ) 0 
( 3.44282 2.29823 8.37 ) 0 
( 0.103268 2.92554 8.21281 ) 0 
( 4.68331 2.76304 8.40414 ) 0 
( 3.248 4.76531 7.646 ) 0 
( 2.87027 3.05362 8.04276 ) 0 
( 2.34578 4.1873 7.90194 ) 0 
( 1.67814 4.37521 8.62213 ) 0 
( 1.22963 0.0343423 8.06211 ) 0 
( 2.19819 3.3557 7.36689 ) 0 
( 4.89151 3.65168 7.98687 ) 0 
( 1.29969 3.35799 9.13519 ) 0 
( 3.39622 4.1419 8.66587 ) 0 
( 3.96943 0.0473562 8.79736 ) 0 
( 3.05042 2.9785 9.02338 ) 0 
( 0.82539 0.718392 8.67091 ) 0 
( 3.64643 1.23553 8.92282 ) 0 
( 4.37394 1.91606 8.83618 ) 0 
( 2.45103 3.74478 8.79238 ) 0 
( 1.66716 1.74029 8.52582 ) 0 
( 4.6721 3.79649 8.95153 ) 0 
( 1.3607 2.56488 7.91292 ) 0 
( 0.207079 1.48984 8.82923 ) 0 
( 0.751286 2.31226 8.66423 ) 0 
( 2.13474 0.0378507 8.48756 ) 0 
( 0.261104 4.97524 8.98782 ) 0 
( 2.12413 2.62919 8.55555 ) 0 
( 2.65286 4.80922 8.6221 ) 0 
( 1.06645 1.46501 9.33987 ) 0 
( 0.333052 3.10426 9.16943 ) 0 
( 4.04364 3.03764 9.12178 ) 0 
( 0.631743 3.85817 8.58431 ) 0 
( 4.39245 0.745925 9.37419 ) 0 
( 4.14799 4.63407 9.10457 ) 0 
( 2.22481 4.45907 9.45522 ) 0 
( 2.65486 1.21397 9.05014 ) 0 
( 1.74779 0.793191 9.04948 ) 0 
( 1.51916 2.35587 9.30333 ) 0 
( 3.00594 0.287645 8.91412 ) 0 
( 2.18242 3.07521 9.51014 ) 0 
( 2.26134 0.0995363 9.55437 ) 0 
( 3.23341 4.86803 9.43408 ) 0 
( 3.46569 2.99621 9.93669 ) 0 
( 1.17708 0.386572 9.76283 ) 0 
( 0.173768 4.08911 9.44278 ) 0 
( 3.07898 3.84004 9.56479 ) 0 
( 0.441512 2.19904 9.60817 ) 0 
( 1.03944 2.90494 9.98777 ) 0 
( 1.76198 3.80319 10.0515 ) 0 
( 0.296063 0.814291 9.56093 ) 0 
( 3.82876 1.38764 9.89413 ) 0 
( 3.56439 2.18802 9.35629 ) 0 
( 3.30206 0.382802 9.86442 ) 0 
( 1.9852 1.46119 9.75461 ) 0 
( 2.56287 2.16581 9.34239 ) 0 
( 4.89765 4.44552 9.73879 ) 0 
( 1.0792 4.51228 9.411 ) 0 
( 2.02858 2.35963 10.1914 ) 0 
( 1.8471 0.713024 10.4294 ) 0 
( 4.52208 2.3836 9.70757 ) 0 
( 2.61045 4.23743 10.3537 ) 0 
( 0.795832 3.99779 10.2203 ) 0 
( 4.18554 0.566796 10.34 ) 0 
( 0.300528 0.152965 10.3109 ) 0 
( 3.89972 4.2339 9.9867 ) 0 
( 1.14875 1.88729 10.2425 ) 0 
( 3.08228 2.0045 10.2128 ) 0 
( 4.39332 3.36443 9.99964 ) 0 
( 2.59809 0.0560506 10.4949 ) 0 
( 2.76715 2.86303 10.6396 ) 0 
( 4.14011 1.54749 10.8308 ) 0 
( 0.864537 0.96785 10.514 ) 0 
( 0.702781 4.61258 11.0216 ) 0 
( 4.9896 1.78956 10.3621 ) 0 
( 2.33174 1.54784 10.6904 ) 0 
( 3.3654 3.66488 10.6733 ) 0 
( 2.14459 3.58199 10.9485 ) 0 
( 4.05608 2.51261 10.5828 ) 0 
( 0.120251 1.61885 10.3566 ) 0 
( 3.19807 1.05662 10.5959 ) 0 
( 1.50357 2.8154 10.91 ) 0 
( 4.75412 4.04068 10.6418 ) 0 
( 0.596274 3.22713 10.8253 ) 0 
( 1.624 4.81262 10.1939 ) 0 
( 1.76497 0.21387 11.2936 ) 0 
( 0.565231 2.34923 11.3169 ) 0 
( 0.207883 1.14778 11.2464 ) 0 
( 1.24297 1.62291 11.2023 ) 0 
( 3.68899 0.909909 11.4553 ) 0 
( 2.7609 4.4389 11.3215 ) 0 
( 2.67803 0.619922 11.3299 ) 0 
( 3.49973 2.89718 11.3194 ) 0 
( 0.769082 0.265988 11.2198 ) 0 
( 4.79059 2.17461 11.2632 ) 0 
( 1.51183 4.18908 11.4291 ) 0 
( 3.90518 4.44814 10.9816 ) 0 
( 3.14525 1.85236 11.1992 ) 0 
( 2.27097 2.32244 11.3199 ) 0 
( 4.64899 0.146946 11.1203 ) 0 
( 3.50925 0.0944745 10.9051 ) 0 
( 0.278016 0.36628 12.0851 ) 0 
( 4.9834 3.23814 11.3899 ) 0 
( 1.41781 2.37443 11.8389 ) 0 
( 0.422166 4.8263 11.9573 ) 0 
( 2.95082 2.47036 12.0381 ) 0 
( 1.10518 3.31125 11.682 ) 0 
( 1.25548 0.865672 11.8553 ) 0 
( 3.70926 3.79304 11.7112 ) 0 
( 2.10267 1.3734 11.648 ) 0 
( 2.11313 4.73104 12.0251 ) 0 
( 2.99064 1.24249 12.089 ) 0 
( 3.95998 1.94656 11.7712 ) 0 
( 3.26017 0.0851503 11.9423 ) 0 
( 4.56293 1.19468 12.0379 ) 0 
( 1.06953 2.97219 12.6221 ) 0 
( 4.13883 4.75753 12.3447 ) 0 
( 1.66214 0.391518 12.6362 ) 0 
( 4.67162 2.10078 12.4566 ) 0 
( 2.76917 3.4514 11.7184 ) 0 
( 3.70357 2.29528 12.6727 ) 0 
( 0.701674 0.7514 12.905 ) 0 
( 4.66106 4.07356 11.8352 ) 0 
( 0.46814 2.25411 12.9724 ) 0 
( 0.811404 1.68072 12.2275 ) 0 
( 4.22967 2.9867 11.997 ) 0 
)
