FoamFile
{version 2.0; format ascii;class vectorField; location 0;object  v;}
345
(
( -2.01173e-06 4.13801e-06 -4.8817e-06 )  
( -1.44316e-06 2.4304e-06 -5.12367e-06 )  
( -5.66108e-07 2.08808e-06 -5.10443e-06 )  
( -5.82229e-07 9.519e-07 -4.81922e-06 )  
( -1.36986e-06 2.89178e-06 -4.90585e-06 )  
( 5.84845e-07 6.41201e-07 -6.09357e-06 )  
( -1.51471e-06 3.23428e-06 -5.13413e-06 )  
( 1.33435e-06 2.92666e-06 -4.91889e-06 )  
( -2.27939e-06 1.81984e-06 -6.5008e-06 )  
( 5.8936e-07 3.34873e-06 -5.67139e-06 )  
( 6.2807e-07 2.26297e-06 -6.22065e-06 )  
( -1.81152e-06 3.45295e-06 -4.21309e-06 )  
( -2.34952e-06 2.50838e-06 -4.89598e-06 )  
( -7.40636e-07 1.80951e-06 -4.12122e-06 )  
( -1.69429e-06 2.41712e-06 -5.33978e-06 )  
( -7.50265e-08 6.42293e-07 -4.94669e-06 )  
( -2.75844e-07 1.07182e-06 -3.10907e-06 )  
( -3.75868e-06 5.74173e-06 -1.208e-05 )  
( -3.55451e-06 7.49684e-06 -1.03045e-05 )  
( -1.32222e-06 2.12605e-06 -5.18877e-06 )  
( -3.0776e-06 5.02752e-06 -1.09992e-05 )  
( 1.22465e-07 1.91246e-06 -4.85051e-06 )  
( -2.12723e-06 2.77761e-06 -3.54568e-06 )  
( -2.76239e-07 1.86961e-06 -4.26507e-06 )  
( -1.49528e-06 4.96446e-06 -9.99472e-06 )  
( -2.35702e-07 2.20075e-06 -5.23459e-06 )  
( -1.40008e-06 2.40713e-06 -6.33691e-06 )  
( -4.75316e-07 2.43654e-06 -4.44994e-06 )  
( 1.93531e-08 5.37749e-06 -5.25214e-06 )  
( 5.24841e-07 5.15568e-07 -5.15212e-06 )  
( -7.49025e-07 5.29275e-06 -1.29632e-05 )  
( 7.66389e-07 5.4985e-06 -9.54167e-06 )  
( -1.41609e-06 5.36875e-06 -9.73657e-06 )  
( 8.8345e-07 4.86591e-06 -8.41557e-06 )  
( -1.48521e-06 4.03596e-06 -1.08714e-05 )  
( -3.28186e-06 2.07067e-06 -3.83362e-06 )  
( -2.79715e-06 4.00758e-06 -9.9939e-06 )  
( 3.15709e-07 5.39294e-06 -1.02424e-05 )  
( -2.30396e-08 4.63687e-06 -1.22122e-05 )  
( -3.10815e-06 5.28975e-06 -1.08876e-05 )  
( -4.10701e-06 4.13314e-06 -1.04577e-05 )  
( 1.66295e-08 4.61617e-06 -1.14339e-05 )  
( 2.22716e-06 5.68988e-06 -9.89445e-06 )  
( -1.16655e-06 5.80624e-06 -1.21397e-05 )  
( -4.55479e-06 5.7396e-06 -8.23566e-06 )  
( -1.71659e-06 5.72088e-06 -1.05176e-05 )  
( -1.44433e-06 4.96751e-06 -1.67836e-05 )  
( -3.95241e-06 6.57212e-06 -1.02556e-05 )  
( -3.79755e-07 4.24993e-06 -9.04463e-06 )  
( -5.5469e-06 6.89945e-06 -1.62327e-05 )  
( -3.14081e-06 3.15863e-06 -8.65501e-06 )  
( 1.27649e-07 3.74858e-06 -9.40366e-06 )  
( -5.77326e-08 5.27045e-06 -1.49449e-05 )  
( -2.52044e-07 5.67424e-06 -1.07347e-05 )  
( -3.78193e-06 6.11036e-06 -1.82177e-05 )  
( -5.36063e-06 6.5384e-06 -1.36651e-05 )  
( -4.15906e-06 6.63672e-06 -1.6429e-05 )  
( -3.2473e-06 6.98976e-06 -1.44865e-05 )  
( -3.26676e-06 4.33858e-06 -1.46744e-05 )  
( -5.17267e-06 5.88304e-06 -1.60486e-05 )  
( -1.26972e-06 9.24213e-06 -1.64446e-05 )  
( -4.87095e-06 4.62845e-06 -1.27029e-05 )  
( -3.74072e-06 5.42965e-06 -1.47194e-05 )  
( -2.52192e-06 6.9868e-06 -1.60192e-05 )  
( -7.23219e-07 7.38898e-06 -1.55253e-05 )  
( -2.71233e-06 1.02436e-05 -1.96345e-05 )  
( -3.46979e-06 8.08108e-06 -1.56254e-05 )  
( 1.47772e-07 6.97157e-06 -1.22071e-05 )  
( -1.25915e-06 9.5275e-06 -1.10302e-05 )  
( -4.91706e-06 6.85438e-06 -1.93619e-05 )  
( -1.84448e-06 9.5736e-06 -1.73607e-05 )  
( 1.3888e-06 6.08821e-06 -1.6127e-05 )  
( -1.07404e-06 8.28405e-06 -1.4875e-05 )  
( 5.587e-07 6.24253e-06 -1.86408e-05 )  
( -5.13515e-06 5.3482e-06 -1.75665e-05 )  
( 4.39483e-07 1.02397e-05 -1.63271e-05 )  
( -6.4149e-06 7.30846e-06 -1.85242e-05 )  
( -4.59155e-06 6.56221e-06 -1.59809e-05 )  
( -3.74111e-06 7.66718e-06 -1.97654e-05 )  
( -5.45673e-06 6.15177e-06 -1.90493e-05 )  
( -5.71909e-06 6.91946e-06 -2.13871e-05 )  
( -4.90223e-06 7.23268e-06 -1.86789e-05 )  
( -1.50935e-06 8.61699e-06 -1.75644e-05 )  
( -3.88377e-06 7.58162e-06 -2.20113e-05 )  
( -9.94509e-07 9.01101e-06 -1.83051e-05 )  
( -1.62949e-06 6.19112e-06 -1.16572e-05 )  
( 1.06175e-06 7.96637e-06 -1.47202e-05 )  
( -6.11987e-06 5.95485e-06 -2.11004e-05 )  
( 1.31321e-06 1.22351e-05 -2.04983e-05 )  
( -6.18906e-06 5.991e-06 -1.92088e-05 )  
( -5.56365e-06 5.8146e-06 -2.02368e-05 )  
( -5.31853e-06 6.10795e-06 -2.01896e-05 )  
( 2.70607e-07 6.44209e-06 -1.84809e-05 )  
( -4.6118e-06 7.84139e-06 -1.99339e-05 )  
( -6.33136e-06 6.5551e-06 -2.23645e-05 )  
( -3.04004e-07 7.24377e-06 -1.6343e-05 )  
( -5.35248e-06 6.98143e-06 -2.18221e-05 )  
( 2.6024e-06 8.14198e-06 -1.7815e-05 )  
( -6.76955e-06 4.85006e-06 -2.32044e-05 )  
( 8.85109e-07 8.82699e-06 -2.07038e-05 )  
( -6.35309e-06 5.26543e-06 -2.15376e-05 )  
( -6.88574e-06 5.73307e-06 -2.30922e-05 )  
( -6.0222e-06 3.51473e-06 -2.23452e-05 )  
( -3.44971e-06 6.76435e-06 -2.168e-05 )  
( 4.89048e-06 4.15529e-06 -2.19031e-05 )  
( -4.5284e-06 7.38794e-06 -2.21719e-05 )  
( 1.72023e-06 6.86865e-06 -1.95329e-05 )  
( -4.85624e-06 5.79918e-06 -2.18549e-05 )  
( -3.21304e-06 4.1365e-06 -2.44727e-05 )  
( -2.92355e-06 6.80986e-06 -1.91722e-05 )  
( 9.11584e-07 7.90288e-06 -2.17574e-05 )  
( 3.64835e-06 5.28219e-06 -2.4083e-05 )  
( 4.70279e-06 5.93948e-06 -2.34509e-05 )  
( 2.37721e-06 9.49022e-06 -2.31353e-05 )  
( -5.91439e-06 4.23472e-06 -2.33883e-05 )  
( -2.0462e-06 3.66498e-06 -2.24269e-05 )  
( -5.54963e-06 6.71289e-06 -2.30958e-05 )  
( -5.44385e-06 5.17038e-06 -2.48828e-05 )  
( -5.85052e-06 4.25337e-06 -2.35047e-05 )  
( -6.04035e-06 3.46607e-06 -2.4191e-05 )  
( -4.7809e-06 5.86199e-06 -2.04648e-05 )  
( 5.09266e-07 5.88838e-06 -2.27398e-05 )  
( 6.76491e-06 2.73946e-06 -1.8547e-05 )  
( -6.41545e-06 3.80648e-06 -2.39837e-05 )  
( -3.60821e-07 7.88903e-06 -2.28419e-05 )  
( -7.59331e-06 4.36064e-06 -2.33555e-05 )  
( -3.10089e-06 7.15441e-06 -2.12915e-05 )  
( -6.57469e-06 3.7861e-06 -2.51141e-05 )  
( -4.60973e-06 3.15472e-06 -2.35995e-05 )  
( 2.12921e-06 5.48904e-06 -2.47328e-05 )  
( -6.54018e-06 3.25707e-06 -2.40758e-05 )  
( 1.69787e-08 2.77366e-06 -2.62227e-05 )  
( 3.45004e-06 5.43427e-06 -2.65129e-05 )  
( -5.98282e-06 3.08991e-06 -2.59795e-05 )  
( 5.30143e-06 4.5068e-06 -2.37633e-05 )  
( 5.51062e-06 3.92985e-06 -2.33902e-05 )  
( -1.86909e-06 5.09326e-06 -2.53375e-05 )  
( -4.92434e-06 4.89193e-06 -2.28763e-05 )  
( -6.173e-06 1.09066e-05 -2.25652e-05 )  
( -2.54159e-07 -1.97076e-06 -2.52998e-05 )  
( -3.66517e-06 3.7364e-06 -2.16674e-05 )  
( -6.0163e-07 -2.14388e-06 -2.37943e-05 )  
( -4.14448e-06 1.44506e-06 -2.59376e-05 )  
( -1.67117e-06 3.08378e-06 -2.37589e-05 )  
( -6.14352e-06 4.01277e-06 -2.54472e-05 )  
( -4.40278e-06 7.25226e-07 -2.6431e-05 )  
( -6.06988e-06 -1.06781e-06 -2.7253e-05 )  
( 5.38951e-06 3.7925e-06 -2.50946e-05 )  
( 1.71288e-06 3.44015e-06 -2.31714e-05 )  
( 3.44942e-06 -3.60584e-06 -2.38895e-05 )  
( -4.08544e-06 4.41452e-06 -2.18578e-05 )  
( -5.92399e-06 1.7678e-06 -2.5283e-05 )  
( 9.94656e-07 9.17967e-07 -2.30882e-05 )  
( -3.36466e-06 -8.01797e-07 -2.55955e-05 )  
( 1.90919e-06 -5.46911e-06 -2.20731e-05 )  
( -5.58168e-06 2.16987e-06 -2.6507e-05 )  
( -4.94542e-06 1.6722e-06 -2.57733e-05 )  
( -5.42047e-06 -1.35532e-06 -2.49361e-05 )  
( 7.33326e-06 2.10486e-06 -2.36632e-05 )  
( -4.08873e-06 2.17105e-06 -2.30663e-05 )  
( -2.13693e-06 1.3318e-06 -2.46981e-05 )  
( 4.4103e-06 1.73372e-06 -2.64093e-05 )  
( 7.32789e-06 8.19217e-07 -2.35245e-05 )  
( -6.791e-06 1.90517e-07 -2.31271e-05 )  
( 5.92779e-06 1.44643e-06 -2.3006e-05 )  
( -4.10746e-06 -2.16717e-06 -2.57085e-05 )  
( 1.22032e-06 -4.14459e-06 -2.29203e-05 )  
( -3.22121e-06 -6.67095e-06 -2.56575e-05 )  
( 1.46637e-06 1.02312e-06 -2.30406e-05 )  
( -8.21471e-06 3.62484e-06 -2.5842e-05 )  
( -6.52619e-06 -2.26517e-06 -2.35128e-05 )  
( -4.37393e-06 -1.86194e-06 -2.67404e-05 )  
( -3.55423e-06 -1.02151e-06 -2.68615e-05 )  
( -4.88238e-07 -7.7595e-07 -2.43727e-05 )  
( 6.42131e-07 -2.82831e-06 -2.20261e-05 )  
( 6.84654e-06 -2.15741e-06 -2.62263e-05 )  
( 3.43909e-06 -1.61844e-06 -2.51525e-05 )  
( -1.64713e-06 -3.59753e-07 -2.05446e-05 )  
( 1.04449e-06 -5.91942e-06 -2.33171e-05 )  
( -5.90307e-06 4.72428e-07 -2.64871e-05 )  
( 5.73891e-06 -6.49939e-06 -2.26507e-05 )  
( 4.54486e-07 -1.25475e-06 -2.60155e-05 )  
( -5.23797e-06 1.1065e-06 -2.46583e-05 )  
( 3.46382e-07 -3.49628e-06 -2.59512e-05 )  
( 3.68766e-06 -1.29341e-06 -2.10507e-05 )  
( 1.08237e-06 -5.9926e-06 -2.49598e-05 )  
( 2.8564e-06 -2.50161e-06 -2.54996e-05 )  
( 9.28658e-06 -5.38966e-06 -2.46812e-05 )  
( 7.88296e-06 -6.74501e-06 -2.37008e-05 )  
( -2.1857e-06 -9.40077e-07 -2.55745e-05 )  
( -3.51416e-06 -5.0278e-06 -2.59345e-05 )  
( -1.66525e-06 -2.50067e-06 -2.52794e-05 )  
( 6.21604e-06 -6.06718e-06 -2.44266e-05 )  
( 8.84133e-06 -1.192e-06 -2.21379e-05 )  
( 5.39576e-06 -3.23238e-06 -2.34961e-05 )  
( 5.39908e-06 -9.18286e-06 -2.417e-05 )  
( -3.31882e-06 -7.71145e-07 -2.20019e-05 )  
( 1.12881e-05 -1.58538e-05 -2.26556e-05 )  
( -3.04504e-07 -1.94988e-08 -2.55967e-05 )  
( 4.78492e-06 -1.52625e-05 -2.23696e-05 )  
( -1.02908e-06 -1.05563e-05 -2.38541e-05 )  
( 9.13127e-06 1.10594e-06 -2.20171e-05 )  
( -1.13351e-07 4.6044e-06 -2.46749e-05 )  
( 8.11246e-06 -3.88729e-06 -2.1947e-05 )  
( -6.50087e-06 -1.19859e-05 -1.98537e-05 )  
( -4.37915e-06 -9.46252e-06 -2.78965e-05 )  
( 8.70258e-06 -8.66835e-06 -2.18037e-05 )  
( -3.45245e-06 -1.9767e-06 -2.48923e-05 )  
( 9.5113e-06 -7.54393e-06 -2.19924e-05 )  
( 1.9117e-06 -7.79256e-06 -2.33445e-05 )  
( -2.87974e-06 -1.62651e-08 -2.57827e-05 )  
( 6.81668e-06 -1.16908e-05 -2.12466e-05 )  
( -1.2367e-06 -8.29777e-06 -2.61281e-05 )  
( 1.82897e-06 -3.73092e-06 -2.47337e-05 )  
( -2.3274e-06 3.76707e-07 -2.36091e-05 )  
( 1.22271e-05 -7.55821e-06 -2.09195e-05 )  
( -1.12618e-06 4.67604e-08 -2.41085e-05 )  
( -2.14745e-05 1.11045e-05 -4.63611e-06 )  
( -8.07769e-06 -6.46145e-06 -2.03451e-05 )  
( 1.08242e-05 -5.28947e-06 -2.06817e-05 )  
( 1.58839e-05 -7.17531e-06 -1.83379e-05 )  
( 9.94438e-06 -1.29563e-06 -1.87345e-05 )  
( -2.38539e-06 -2.14664e-06 -2.59994e-05 )  
( 1.07096e-05 -8.50014e-06 -2.06512e-05 )  
( 4.66358e-06 -1.14291e-05 -2.21187e-05 )  
( 4.60995e-07 5.79814e-06 -2.36131e-05 )  
( 1.40485e-05 -1.36491e-05 -1.86705e-05 )  
( -1.50499e-06 1.45037e-06 -7.7097e-06 )  
( -3.28362e-06 -3.79229e-06 -2.44935e-05 )  
( 9.42975e-06 -1.00529e-05 -1.82178e-05 )  
( -3.42671e-06 -1.73051e-05 -1.99514e-05 )  
( -6.28463e-06 -7.16591e-06 -3.19043e-05 )  
( 1.19896e-05 -8.84362e-06 -2.08529e-05 )  
( -3.42497e-06 -1.53915e-05 -2.57584e-05 )  
( -2.05915e-06 -3.58888e-08 -2.57961e-05 )  
( -2.43486e-06 1.3212e-06 -2.8419e-05 )  
( 1.07278e-06 7.65774e-06 -2.46649e-05 )  
( 1.41206e-05 -6.61419e-06 -1.76114e-05 )  
( -1.01211e-06 -1.58567e-05 -1.24806e-05 )  
( 3.23795e-05 -6.56045e-07 -2.09286e-05 )  
( 1.03077e-05 -2.79982e-06 -2.22759e-05 )  
( 6.50035e-06 -1.05038e-05 -1.9286e-05 )  
( 1.68305e-06 -6.26829e-06 -1.85855e-05 )  
( 5.04868e-06 -8.81492e-07 -2.0671e-05 )  
( 1.10937e-05 -2.79333e-06 -1.47308e-05 )  
( 6.0422e-07 -5.80144e-06 -2.53408e-05 )  
( -6.92569e-06 4.02521e-07 -2.35952e-05 )  
( -3.81885e-07 -6.7747e-06 -2.34502e-05 )  
( -1.22723e-05 4.76041e-06 1.21525e-06 )  
( 1.21676e-05 -1.37917e-06 -2.1539e-05 )  
( 3.209e-06 2.76275e-06 -4.18055e-06 )  
( -1.05373e-06 2.84239e-07 -1.96526e-05 )  
( 3.11194e-06 1.03659e-06 -1.34436e-05 )  
( 1.02835e-05 -2.7923e-06 -2.51515e-05 )  
( 2.1308e-05 -1.03639e-06 -2.27745e-05 )  
( 1.33037e-06 7.33863e-06 -1.85388e-05 )  
( 8.06136e-06 -2.69164e-05 -1.05692e-05 )  
( 8.22086e-06 -4.76938e-06 -1.45324e-05 )  
( 1.70131e-05 1.27257e-05 -1.94558e-05 )  
( 8.05476e-06 1.00389e-06 -2.15311e-05 )  
( -2.27418e-05 -4.78967e-05 -4.13232e-06 )  
( -1.23373e-05 1.15903e-05 -2.34433e-05 )  
( 1.03747e-05 6.72563e-06 -2.42387e-05 )  
( 5.58281e-06 6.13513e-06 -2.1982e-05 )  
( -6.45212e-06 -3.06532e-06 -1.23177e-05 )  
( 1.53957e-05 1.68074e-05 -2.75864e-05 )  
( 2.28531e-05 8.55183e-06 -1.61695e-05 )  
( 5.94985e-06 1.44938e-05 -2.48687e-05 )  
( 7.56204e-06 8.63658e-06 -1.99889e-05 )  
( 1.17179e-05 1.09431e-05 -1.3075e-05 )  
( 1.10503e-05 1.12536e-05 -2.3589e-05 )  
( 7.92141e-06 1.19507e-05 -2.21787e-05 )  
( 1.22548e-05 -2.65786e-05 -2.26571e-05 )  
( -2.20977e-06 1.76617e-06 1.43985e-05 )  
( 1.27787e-05 1.29549e-05 -1.18018e-05 )  
( 1.01223e-05 -7.27635e-06 -2.06649e-05 )  
( 4.73228e-06 3.08685e-06 -2.4212e-06 )  
( -8.57246e-06 5.28344e-06 -2.36342e-05 )  
( -2.07329e-06 -1.11511e-05 -2.5492e-05 )  
( -7.72953e-07 1.23891e-05 -2.31746e-05 )  
( -4.03603e-06 1.38993e-05 -1.60157e-05 )  
( -3.28941e-06 1.4306e-05 -1.45335e-05 )  
( 3.63884e-05 2.31141e-05 -4.41704e-05 )  
( 1.3498e-05 4.35805e-06 -2.40648e-05 )  
( 1.37883e-05 1.08315e-05 -2.68162e-05 )  
( 2.32055e-05 1.0728e-05 -1.68029e-05 )  
( 2.21627e-05 4.25245e-06 -1.46243e-05 )  
( -2.37396e-06 1.91678e-05 -1.51482e-05 )  
( 7.54284e-06 7.2323e-09 -4.24888e-07 )  
( -2.61645e-06 -8.5262e-06 -1.22185e-05 )  
( 1.73224e-05 1.14606e-05 -2.08701e-05 )  
( -2.67187e-06 5.11087e-06 -1.22899e-07 )  
( -1.08488e-05 -2.21603e-05 -1.76858e-05 )  
( -1.06994e-05 2.16089e-05 -1.23647e-05 )  
( -1.02855e-06 2.02882e-06 -9.151e-06 )  
( 1.6278e-05 -1.13907e-05 -4.6381e-05 )  
( 2.96049e-05 8.66552e-06 -1.29947e-05 )  
( 3.18474e-07 1.19614e-05 -2.01201e-05 )  
( 2.4409e-05 2.97729e-05 -3.15277e-05 )  
( -1.37406e-06 1.55729e-05 -1.44952e-05 )  
( -2.55138e-07 -8.35403e-06 -1.50507e-05 )  
( 7.89181e-06 1.66571e-05 -2.64327e-05 )  
( 1.61526e-05 3.67585e-05 -1.22391e-05 )  
( 3.24916e-05 1.70097e-05 -2.43689e-05 )  
( -6.84278e-06 1.69635e-05 -1.06253e-05 )  
( 1.46488e-05 2.63771e-05 -2.56045e-05 )  
( -2.8195e-06 2.02408e-05 -1.87871e-05 )  
( 2.30352e-05 1.07055e-05 -2.00476e-05 )  
( -1.26736e-05 -1.0078e-05 2.01488e-05 )  
( -2.44799e-05 -1.49704e-05 4.94013e-06 )  
( -2.2895e-06 6.93387e-06 -1.20869e-05 )  
( 2.97889e-05 3.00075e-06 -2.40281e-05 )  
( 1.91943e-05 2.37115e-05 -1.37165e-05 )  
( -3.83271e-07 3.12756e-05 -6.04652e-05 )  
( -3.50573e-06 2.68572e-05 -1.99169e-05 )  
( 3.52653e-06 1.88442e-05 -1.23606e-05 )  
( -1.11601e-05 1.29272e-05 -2.30566e-05 )  
( 4.98122e-05 1.61912e-05 -5.2132e-05 )  
( -1.56766e-06 1.18038e-05 2.09568e-06 )  
( 2.23745e-06 -9.58288e-06 2.40091e-06 )  
( 8.05504e-06 1.8103e-06 -6.47279e-06 )  
( -1.3015e-05 2.05378e-05 -3.61385e-05 )  
( 1.58134e-05 2.14785e-05 -1.03238e-05 )  
( 2.79573e-05 -3.22895e-05 -1.59481e-05 )  
( -0.000115189 5.33395e-05 -3.31526e-05 )  
( 6.90713e-05 5.69643e-05 -5.38512e-05 )  
( 1.25384e-05 3.49259e-05 -5.12419e-06 )  
( 3.74878e-06 1.14843e-05 -7.05049e-06 )  
( 2.89779e-05 1.00117e-05 -1.52205e-05 )  
( -5.61213e-06 2.17917e-05 6.27389e-06 )  
( 1.78716e-05 2.8447e-05 -4.94907e-05 )  
( -6.48741e-06 1.55625e-05 -2.03575e-05 )  
( -9.98174e-06 -3.52645e-05 8.76548e-06 )  
( 1.58282e-05 -2.17866e-05 -4.58734e-05 )  
( 5.69675e-06 2.39228e-05 -8.05895e-06 )  
( 3.13337e-06 -3.62655e-05 -5.98899e-05 )  
( 2.26693e-05 1.36585e-05 -1.63524e-05 )  
( -6.9553e-07 5.69338e-05 2.98871e-05 )  
( -1.35097e-05 -1.33793e-05 1.00414e-05 )  
( 1.98362e-05 3.95944e-05 -2.2659e-05 )  
( -9.229e-06 2.68485e-05 1.41422e-06 )  
( 6.63069e-05 5.27334e-05 -1.62939e-05 )  
( 5.78822e-05 -1.88079e-05 -2.46658e-05 )  
( -3.95857e-05 2.91671e-05 -3.37069e-05 )  
( 5.23825e-06 2.28186e-05 -2.91629e-05 )  
)
