/*--------------------------------*- C++ -*----------------------------------*\
| =========                 |                                                 |
| \\      /  F ield         | OpenFOAM: The Open Source CFD Toolbox           |
|  \\    /   O peration     | Version:  5.x                                   |
|   \\  /    A nd           | Web:      www.OpenFOAM.org                      |
|    \\/     M anipulation  |                                                 |
\*---------------------------------------------------------------------------*/
FoamFile
{
    version     2.0;
    format      ascii;
    class       surfaceScalarField;
    location    "90000";
    object      phi;
}
// * * * * * * * * * * * * * * * * * * * * * * * * * * * * * * * * * * * * * //

dimensions      [0 3 -1 0 0 0 0];

internalField   nonuniform List<scalar> 
5825
(
-2.14982e-05
6.19622e-05
-1000
-1.3593e-05
6.60774e-05
-1000
-2.13547e-06
6.79236e-05
-1000
4.12567e-06
7.24469e-05
-1000
7.37842e-05
-1000
-1.59301e-05
0.000140527
-1000
-8.50727e-06
0.000143934
-1000
1.56996e-06
0.000140461
-1000
6.78351e-06
0.000134953
-1000
0.000129021
-1000
-1.53343e-05
0.000197689
-1000
-1.26113e-05
0.000197295
-1000
-5.66571e-06
0.000187118
-1000
-3.25235e-06
0.000175537
-1000
0.00017453
-1000
-1.82764e-05
0.000237064
-1000
-2.24363e-05
0.000226431
-1000
-1.91664e-05
0.000209676
-1000
-2.94084e-05
0.000199467
-1000
0.000202344
-1000
-2.16099e-05
-1000
-3.00107e-05
-1000
-2.78432e-05
-1000
-3.46943e-05
-1000
-1000
-4.81058e-05
0.00017086
-1000
-2.719e-05
0.000184017
-1000
-4.37118e-06
0.000187681
-1000
-1.92279e-06
0.0001929
-1000
0.000192206
-1000
-3.38228e-05
0.000384588
-1000
-1.68147e-05
0.000390093
-1000
-1.35765e-06
0.000378242
-1000
-8.71854e-06
0.000361593
-1000
0.000344234
-1000
-3.42371e-05
0.00053516
-1000
-2.88175e-05
0.000529714
-1000
-1.99177e-05
0.000503481
-1000
-3.22668e-05
0.000472392
-1000
0.000467519
-1000
-4.47153e-05
0.000625421
-1000
-5.31098e-05
0.000602932
-1000
-5.41342e-05
0.00056869
-1000
-9.84155e-05
0.000543638
-1000
0.000538031
-1000
-5.90867e-05
-1000
-6.96077e-05
-1000
-7.8705e-05
-1000
-0.000145908
-1000
-1000
-7.25221e-05
0.000320591
-1000
-6.40199e-05
0.000339993
-1000
-6.7161e-05
0.000342674
-1000
-9.96788e-05
0.000340358
-1000
0.000336674
-1000
-5.69728e-05
0.00068583
-1000
-5.9036e-05
0.000688839
-1000
-7.332e-05
0.000670741
-1000
-0.000119675
0.000645324
-1000
0.000621322
-1000
-5.99074e-05
0.00094371
-1000
-7.81256e-05
0.000935318
-1000
-0.000101024
0.000906242
-1000
-0.000149618
0.000870349
-1000
0.000849176
-1000
-7.10233e-05
0.0010882
-1000
-0.000102464
0.00107873
-1000
-0.00013657
0.00105336
-1000
-0.000194331
0.00101689
-1000
0.000999017
-1000
-8.6158e-05
-999.999
-0.000131461
-999.999
-0.000178079
-1000
-0.000311176
-1000
-1000
-0.000110241
0.000523993
-1000
-0.000149506
0.000541886
-1000
-0.000208912
0.000540374
-1000
-0.000282745
0.000530676
-1000
0.000522455
-1000
-9.80611e-05
0.00105695
-1000
-0.00015224
0.00105737
-1000
-0.000221752
0.00103862
-1000
-0.000299965
0.00100882
-1000
0.000984724
-1000
-0.000100324
0.00145153
-1000
-0.000171512
0.00144701
-1000
-0.000246831
0.00142375
-1000
-0.000327756
0.00138797
-1000
0.00136466
-1000
-0.000106729
0.00169826
-1000
-0.000197026
0.00170558
-1000
-0.000283591
0.00168715
-1000
-0.000366919
0.00165231
-1000
0.00162214
-1000
-0.000107339
-999.999
-0.000222403
-999.999
-0.00033519
-1000
-0.000444441
-1000
-1000
-0.000170343
0.000783667
-1000
-0.000299295
0.00079251
-1000
-0.000429282
0.000786929
-1000
-0.000536772
0.000772088
-1000
0.000758162
-1000
-0.000164995
0.00151756
-1000
-0.000309515
0.00151562
-1000
-0.000445269
0.00149826
-1000
-0.000556195
0.00146877
-1000
0.00144603
-1000
-0.000168234
0.00208975
-1000
-0.000328198
0.00208927
-1000
-0.000469241
0.00207023
-1000
-0.000579722
0.00203651
-1000
0.0020201
-1000
-0.000171498
0.00247997
-1000
-0.000351101
0.00248583
-1000
-0.000498153
0.00246507
-1000
-0.000593016
0.00242912
-1000
0.00242903
-1000
-0.000173276
-999.999
-0.000376512
-999.999
-0.000528573
-1000
-0.000609844
-1000
-1000
-0.000268297
0.00110087
-1000
-0.000516738
0.0011
-1000
-0.000726377
0.00109071
-1000
-0.00087233
0.00107576
-1000
0.00105824
-1000
-0.000273192
0.00209266
-1000
-0.000530205
0.00208793
-1000
-0.000742906
0.00207339
-1000
-0.000892588
0.00205049
-1000
0.00203219
-1000
-0.000281087
0.00288576
-1000
-0.000545847
0.00288411
-1000
-0.00076273
0.00286842
-1000
-0.00091273
0.00284257
-1000
0.00283901
-1000
-0.000286367
0.00342356
-1000
-0.00056342
0.00341986
-1000
-0.000783133
0.00339891
-1000
-0.000918235
0.00337003
-1000
0.00339069
-1000
-0.000299588
-999.999
-0.000592401
-999.999
-0.000798006
-1000
-0.000879616
-1000
-1000
-0.000415123
0.00149611
-1000
-0.000796252
0.00148889
-1000
-0.0011001
0.00148232
-1000
-0.00129691
0.00147489
-1000
0.00146385
-1000.01
-0.000426859
0.00283555
-1000
-0.000807542
0.00282961
-1000
-0.00111093
0.00282385
-1000
-0.00131061
0.00281615
-1000
0.00280502
-1000
-0.000437201
0.00390799
-1000
-0.000814685
0.0039065
-1000
-0.00111854
0.00390152
-1000
-0.00132158
0.00389112
-1000
0.00388054
-1000
-0.000444313
0.00460586
-1000
-0.000820104
0.00460653
-1000
-0.0011235
0.00459314
-1000
-0.00132229
0.00457418
-1000
0.00459987
-1000
-0.000460143
-999.999
-0.000844121
-999.999
-0.0011395
-1000
-0.00128443
-1000
-1000
-0.000607279
0.00202108
-1000.01
-0.00114181
0.00201693
-1000.01
-0.00156241
0.00201885
-1000.01
-0.00182402
0.00202304
-1000.01
0.00202589
-1000.01
-0.000617331
0.00384191
-1000
-0.00114548
0.00384112
-1000
-0.00156166
0.00384764
-1000.01
-0.00182547
0.00385447
-1000.01
0.00384952
-1000.01
-0.000625198
0.00529311
-1000
-0.00114096
0.00529998
-1000
-0.00155519
0.00530783
-1000
-0.00182878
0.00530877
-1000
0.00528143
-1000.01
-0.000629152
0.00621815
-1000
-0.0011352
0.00623494
-1000
-0.00155242
0.00622855
-1000
-0.00183645
0.00620708
-1000
0.00619856
-1000
-0.000627821
-999.999
-0.00114535
-999.999
-0.00157647
-999.999
-0.00186082
-1000
-1000
-0.000846402
0.00275039
-1000.01
-0.00158129
0.00275532
-1000.01
-0.00215756
0.00276499
-1000.01
-0.00250894
0.00277581
-1000.01
0.00278381
-1000.01
-0.00085119
0.00524053
-1000.01
-0.00157821
0.00525007
-1000.01
-0.0021507
0.00526175
-1000.01
-0.00250821
0.0052668
-1000.01
0.00525775
-1000.01
-0.000852891
0.00722281
-1000
-0.00156868
0.00724138
-1000
-0.00214358
0.00724989
-1000.01
-0.00251704
0.00724007
-1000.01
0.0071892
-1000.01
-0.000850967
0.00848632
-1000
-0.00156605
0.00851698
-1000
-0.00215444
0.00850786
-1000
-0.00255232
0.00846602
-1000
0.00836604
-1000
-0.000838219
-999.998
-0.0015715
-999.998
-0.00218313
-999.999
-0.00263814
-1000
-1000
-0.00115913
0.00376458
-1000.01
-0.00217361
0.0037785
-1000.01
-0.00297381
0.00378812
-1000.01
-0.00346958
0.0037921
-1000.01
0.00378851
-1000.01
-0.00115817
0.0071771
-1000.01
-0.00217209
0.00719592
-1000.01
-0.00297606
0.00719924
-1000.01
-0.0034837
0.00718393
-1000.01
0.00715768
-1000.01
-0.00115509
0.00989427
-1000.01
-0.00217101
0.00991893
-1000.01
-0.00298695
0.00990895
-1000.01
-0.00351106
0.00986377
-1000.01
0.00978746
-1000.01
-0.00115412
0.0116364
-1000
-0.00218876
0.0116648
-1000
-0.00303171
0.0116377
-1000
-0.0035936
0.0115643
-1000
0.0113625
-1000.01
-0.00115069
-999.997
-0.00221245
-999.998
-0.0030718
-999.999
-0.00369961
-1000
-1000
-0.00158409
0.00515375
-1000.01
-0.00299672
0.00517207
-1000.01
-0.00412157
0.00517259
-1000.02
-0.00484406
0.00516043
-1000.02
0.00514113
-1000.02
-0.00158325
0.00981814
-1000.01
-0.00300636
0.00984224
-1000.01
-0.00414261
0.00982933
-1000.01
-0.00487586
0.00979177
-1000.01
0.0097477
-1000.02
-0.00158112
0.0135292
-1000.01
-0.00302121
0.0135531
-1000.01
-0.00417655
0.0135167
-1000.01
-0.00492012
0.0134373
-1000.01
0.0133438
-1000.01
-0.0015884
0.0159137
-1000
-0.00306382
0.0159287
-1000
-0.00425578
0.0158752
-1000
-0.00502885
0.0157689
-1000.01
0.0155597
-1000.01
-0.00160863
-999.997
-0.00311783
-999.997
-0.00433063
-999.999
-0.00514893
-1000
-1000
-0.00217033
0.00703246
-1000.02
-0.0041323
0.00705086
-1000.02
-0.00570196
0.00704104
-1000.02
-0.00673595
0.00701822
-1000.02
0.00699813
-1000.03
-0.00217466
0.0133824
-1000.02
-0.00415416
0.0134102
-1000.02
-0.0057376
0.0133864
-1000.02
-0.00677144
0.0133424
-1000.02
0.0132979
-1000.02
-0.00217669
0.0184242
-1000.01
-0.00417997
0.0184483
-1000.01
-0.00578136
0.0183977
-1000.01
-0.00681595
0.0183133
-1000.02
0.0182209
-1000.02
-0.00219304
0.0216575
-1000
-0.00423459
0.0216655
-1000
-0.00586865
0.0215993
-1000.01
-0.0069131
0.0214899
-1000.01
0.0213423
-1000.01
-0.00223359
-999.996
-0.00430359
-999.997
-0.00596641
-999.998
-0.00701148
-1000
-1000
-0.00297007
0.00956399
-1000.02
-0.00566421
0.00958411
-1000.03
-0.00781644
0.00957223
-1000.03
-0.00923439
0.00955282
-1000.03
0.00954922
-1000.03
-0.00297945
0.0181844
-1000.02
-0.00569112
0.0182195
-1000.02
-0.00785412
0.018196
-1000.02
-0.00925997
0.0181611
-1000.03
0.0181311
-1000.03
-0.00298484
0.0250156
-1000.01
-0.00571786
0.0250484
-1000.02
-0.00789147
0.0250031
-1000.02
-0.00929114
0.0249404
-1000.02
0.0248742
-1000.02
-0.00300696
0.0293856
-1000.01
-0.00576718
0.0294063
-1000.01
-0.00795823
0.0293547
-1000.01
-0.00935544
0.0292804
-1000.01
0.0291691
-1000.01
-0.00305084
-999.994
-0.00582085
-999.996
-0.00802638
-999.998
-0.0094341
-1000
-1000
-0.00404673
0.0129857
-1000.03
-0.00770904
0.013014
-1000.04
-0.0106211
0.0130082
-1000.04
-0.0125068
0.0129999
-1000.04
0.0130072
-1000.05
-0.00405755
0.0246771
-1000.03
-0.0077343
0.024725
-1000.03
-0.0106539
0.0247068
-1000.03
-0.0125299
0.0246817
-1000.04
0.02466
-1000.04
-0.00406492
0.0339352
-1000.02
-0.00775748
0.033987
-1000.02
-0.0106818
0.0339566
-1000.02
-0.0125549
0.0339218
-1000.03
0.0338836
-1000.03
-0.00408842
0.0398583
-1000.01
-0.00779335
0.0399117
-1000.01
-0.0107204
0.0398891
-1000.01
-0.0125922
0.0398634
-1000.02
0.0397757
-1000.02
-0.00412117
-999.992
-0.00781632
-999.994
-0.0107395
-999.997
-0.0126474
-1000
-1000.01
-0.0054958
0.0176269
-1000.05
-0.0104579
0.017668
-1000.05
-0.0143881
0.0176677
-1000.05
-0.0168915
0.0176659
-1000.06
0.0176626
-1000.06
-0.00550632
0.0334868
-1000.04
-0.0104837
0.0335523
-1000.04
-0.0144225
0.0335375
-1000.04
-0.0169356
0.0335158
-1000.05
0.0334907
-1000.06
-0.00551648
0.0460549
-1000.03
-0.010505
0.0461358
-1000.03
-0.0144464
0.0461182
-1000.03
-0.0169646
0.0461017
-1000.04
0.0460833
-1000.04
-0.00553839
0.0541182
-1000.01
-0.0105293
0.0542143
-1000.01
-0.0144662
0.0542125
-1000.02
-0.0169849
0.0542194
-1000.02
0.0541585
-1000.03
-0.00556041
-999.99
-0.010533
-999.992
-0.0144534
-999.996
-0.0170062
-1000
-1000.01
-0.00746334
0.0239303
-1000.06
-0.0142003
0.0239844
-1000.07
-0.0195267
0.0239838
-1000.07
-0.0229029
0.0239816
-1000.08
0.0239626
-1000.09
-0.00747814
0.0454585
-1000.05
-0.0142351
0.0455477
-1000.06
-0.0195729
0.0455368
-1000.06
-0.0229748
0.0455202
-1000.07
0.0454974
-1000.08
-0.00749162
0.0625437
-1000.04
-0.014254
0.0626635
-1000.04
-0.019592
0.0626545
-1000.04
-0.0229994
0.0626482
-1000.05
0.062644
-1000.06
-0.00751061
0.0735406
-1000.01
-0.0142707
0.0736808
-1000.02
-0.0196009
0.0736825
-1000.02
-0.0230023
0.073694
-1000.03
0.0736464
-1000.04
-0.00753266
-999.986
-0.0142771
-999.989
-0.0195876
-999.994
-0.0230115
-1000
-1000.01
-0.0101537
0.0324902
-1000.08
-0.0193213
0.0325593
-1000.09
-0.0265643
0.0325581
-1000.1
-0.0311652
0.0325578
-1000.11
0.0325441
-1000.12
-0.0101778
0.0617287
-1000.07
-0.0193691
0.061853
-1000.08
-0.0266244
0.0618525
-1000.08
-0.0312488
0.061851
-1000.09
0.0618504
-1000.1
-0.0101914
0.0849651
-1000.05
-0.0193799
0.0851348
-1000.05
-0.0266295
0.0851345
-1000.06
-0.0312503
0.0851398
-1000.07
0.0851525
-1000.08
-0.0102082
0.0999536
-1000.02
-0.01939
0.100143
-1000.02
-0.0266257
0.10014
-1000.03
-0.0312328
0.100145
-1000.04
0.100088
-1000.05
-0.010239
-999.981
-0.0194072
-999.985
-0.0266238
-999.992
-0.031258
-1000
-1000.01
-0.0138307
0.0441135
-1000.11
-0.0263119
0.0442069
-1000.12
-0.0361629
0.0442135
-1000.13
-0.0424313
0.0442249
-1000.14
0.0442386
-1000.16
-0.0138634
0.0838325
-1000.1
-0.0263692
0.0840081
-1000.1
-0.0362327
0.0840262
-1000.11
-0.0425121
0.0840504
-1000.13
0.0840883
-1000.14
-0.0138731
0.115429
-1000.07
-0.0263648
0.115666
-1000.07
-0.0362135
0.115681
-1000.08
-0.0424771
0.115707
-1000.1
0.115749
-1000.11
-0.0138894
0.13584
-1000.02
-0.0263624
0.136102
-1000.03
-0.0361868
0.136103
-1000.04
-0.0424297
0.136112
-1000.05
0.136059
-1000.07
-0.0139265
-999.974
-0.0263787
-999.98
-0.0361793
-999.989
-0.0424583
-1000
-1000.02
-0.0188438
0.0598926
-1000.16
-0.0358327
0.0600251
-1000.16
-0.0492201
0.0600511
-1000.18
-0.0577249
0.0600869
-1000.19
0.0601386
-1000.22
-0.0188818
0.113841
-1000.13
-0.0358936
0.114088
-1000.14
-0.0492947
0.114136
-1000.15
-0.0578008
0.114197
-1000.17
0.114281
-1000.19
-0.0188854
0.156799
-1000.09
-0.0358644
0.157129
-1000.1
-0.0492392
0.157174
-1000.11
-0.0577201
0.157233
-1000.13
0.15731
-1000.15
-0.018897
0.184592
-1000.03
-0.0358363
0.184967
-1000.04
-0.0491775
0.184988
-1000.05
-0.057636
0.185011
-1000.07
0.184984
-1000.09
-0.0189274
-999.965
-0.0358373
-999.972
-0.0491517
-999.986
-0.0576386
-1000
-1000.03
-0.0256861
0.0812919
-1000.21
-0.0488205
0.0814822
-1000.22
-0.0670123
0.0815434
-1000.24
-0.0785133
0.0816233
-1000.26
0.0817236
-1000.29
-0.025727
0.154543
-1000.18
-0.0488767
0.154894
-1000.19
-0.0670814
0.154991
-1000.21
-0.0785847
0.155113
-1000.23
0.155254
-1000.26
-0.0257156
0.212945
-1000.12
-0.0488018
0.213415
-1000.13
-0.0669657
0.213508
-1000.15
-0.0784428
0.213612
-1000.18
0.213725
-1000.21
-0.0257088
0.25082
-1000.05
-0.0487297
0.251353
-1000.06
-0.0668553
0.251394
-1000.07
-0.0783154
0.251418
-1000.1
0.25141
-1000.13
-0.0257246
-999.953
-0.0487197
-999.963
-0.0668289
-999.981
-0.0782974
-1000.01
-1000.03
-0.0350648
0.110269
-1000.29
-0.066606
0.110547
-1000.3
-0.0913407
0.110674
-1000.33
-0.106874
0.110837
-1000.36
0.111023
-1000.4
-0.0350989
0.209689
-1000.24
-0.0666368
0.2102
-1000.26
-0.0913759
0.210394
-1000.28
-0.106919
0.21063
-1000.32
0.210888
-1000.36
-0.0350464
0.289091
-1000.17
-0.0664706
0.289765
-1000.18
-0.0911413
0.289939
-1000.21
-0.106656
0.290127
-1000.24
0.290319
-1000.28
-0.0349991
0.340748
-1000.06
-0.0663219
0.341482
-1000.08
-0.090939
0.341541
-1000.1
-0.106437
0.34156
-1000.13
0.341556
-1000.17
-0.0350062
-999.936
-0.0663031
-999.95
-0.090916
-999.975
-0.106413
-1000.01
-1000.05
-0.0479794
0.149438
-1000.39
-0.0910583
0.149862
-1000.41
-0.124716
0.150117
-1000.44
-0.145692
0.150449
-1000.49
0.15082
-1000.54
-0.0479775
0.284308
-1000.33
-0.0910124
0.285076
-1000.35
-0.124647
0.28546
-1000.39
-0.145627
0.285938
-1000.43
0.28647
-1000.49
-0.0478279
0.392253
-1000.23
-0.0906582
0.393226
-1000.25
-0.124159
0.393559
-1000.28
-0.145078
0.393947
-1000.33
0.394373
-1000.38
-0.0477008
0.462767
-1000.08
-0.0903519
0.463775
-1000.1
-0.123743
0.463889
-1000.14
-0.144611
0.46396
-1000.18
0.464015
-1000.24
-0.047695
-999.914
-0.090287
-999.933
-0.123658
-999.967
-0.144522
-1000.01
-1000.07
-0.0658392
0.202278
-1000.52
-0.124812
0.202948
-1000.55
-0.170652
0.203461
-1000.6
-0.198973
0.20413
-1000.67
0.204889
-1000.74
-0.0657357
0.385088
-1000.45
-0.124573
0.386271
-1000.48
-0.170325
0.387034
-1000.52
-0.198613
0.388012
-1000.59
0.389138
-1000.66
-0.0653826
0.531796
-1000.31
-0.123835
0.533228
-1000.34
-0.169314
0.53389
-1000.38
-0.197443
0.534721
-1000.45
0.5357
-1000.52
-0.0650901
0.628193
-1000.12
-0.123197
0.629599
-1000.14
-0.168428
0.629851
-1000.19
-0.19639
0.630116
-1000.25
0.630434
-1000.32
-0.0650372
-999.886
-0.123006
-999.911
-0.168134
-999.957
-0.196024
-1000.02
-1000.09
-0.090658
0.273355
-1000.71
-0.171647
0.274448
-1000.74
-0.234135
0.275471
-1000.81
-0.272377
0.276804
-1000.9
0.278345
-1001.01
-0.0903226
0.520821
-1000.61
-0.170975
0.522692
-1000.64
-0.233237
0.524214
-1000.71
-0.271343
0.526197
-1000.8
0.528536
-1000.9
-0.0895614
0.720125
-1000.42
-0.16946
0.722288
-1000.46
-0.231169
0.72362
-1000.52
-0.268902
0.725363
-1000.61
0.727476
-1000.71
-0.088927
0.852167
-1000.16
-0.168139
0.854147
-1000.19
-0.229315
0.854683
-1000.26
-0.266649
0.855381
-1000.34
0.856302
-1000.44
-0.0887699
-999.848
-0.167672
-999.883
-0.228563
-999.946
-0.265656
-1000.03
-1000.13
-0.125357
0.368575
-1000.95
-0.237138
0.370399
-1001
-0.322322
0.372442
-1001.1
-0.374076
0.375076
-1001.23
0.378211
-1001.38
-0.124537
0.702924
-1000.82
-0.235534
0.70597
-1000.87
-0.320213
0.709029
-1000.96
-0.371565
0.713021
-1001.09
0.717805
-1001.23
-0.122963
0.973492
-1000.57
-0.232434
0.976865
-1000.62
-0.316022
0.979569
-1000.71
-0.366568
0.983129
-1000.83
0.987489
-1000.97
-0.121631
1.1548
-1000.22
-0.229704
1.15763
-1000.27
-0.312236
1.15878
-1000.35
-0.361961
1.16031
-1000.47
1.16238
-1000.6
-0.121248
-999.799
-0.228636
-999.847
-0.310598
-999.934
-0.359781
-1000.05
-1000.18
-0.174181
0.49544
-1001.27
-0.329821
0.49854
-1001.35
-0.445432
0.502672
-1001.49
-0.516402
0.507803
-1001.66
0.514249
-1001.88
-0.17239
0.945969
-1001.09
-0.326224
0.951092
-1001.17
-0.440856
0.957324
-1001.3
-0.510714
0.965228
-1001.47
0.975028
-1001.68
-0.169188
1.31288
-1000.76
-0.319852
1.31831
-1000.83
-0.432488
1.32383
-1000.96
-0.500521
1.33091
-1001.13
1.33987
-1001.32
-0.16645
1.56275
-1000.3
-0.314233
1.56687
-1000.37
-0.424938
1.56931
-1000.49
-0.491154
1.57234
-1000.65
1.57681
-1000.83
-0.165597
-999.739
-0.311884
-999.804
-0.421685
-999.923
-0.486565
-1000.08
-1000.25
-0.243005
0.663251
-1001.69
-0.463636
0.668531
-1001.79
-0.617207
0.677154
-1002.01
-0.719736
0.686739
-1002.25
0.700498
-1002.58
-0.239373
1.26807
-1001.46
-0.455725
1.2769
-1001.56
-0.60799
1.28987
-1001.76
-0.70707
1.30502
-1001.99
1.32569
-1002.3
-0.232962
1.76463
-1001.03
-0.442473
1.77358
-1001.12
-0.591734
1.78494
-1001.31
-0.685929
1.79849
-1001.52
1.81744
-1001.8
-0.227497
2.11123
-1000.42
-0.43093
2.11716
-1000.51
-0.577139
2.12239
-1000.68
-0.666525
2.12769
-1000.89
2.13763
-1001.14
-0.225899
-999.665
-0.425934
-999.752
-0.571349
-999.917
-0.656736
-1000.12
-1000.36
-0.33832
0.883213
-1002.24
-0.663985
0.891685
-1002.36
-0.851651
0.910937
-1002.73
-1.02259
0.926678
-1003
0.958922
-1003.59
-0.331592
1.69084
-1001.94
-0.646463
1.706
-1002.06
-0.83468
1.73439
-1002.4
-0.993948
1.76113
-1002.67
1.80817
-1003.19
-0.319138
2.35982
-1001.38
-0.618187
2.37457
-1001.49
-0.804738
2.39878
-1001.79
-0.948527
2.42279
-1002.04
2.46582
-1002.48
-0.308671
2.84709
-1000.6
-0.594184
2.85467
-1000.7
-0.778044
2.86662
-1000.97
-0.906768
2.87309
-1001.21
2.89709
-1001.58
-0.306779
-999.578
-0.583464
-999.688
-0.770478
-999.928
-0.885028
-1000.19
-1000.51
-0.465641
1.16863
-1002.94
-0.981286
1.17874
-1003.02
-1.16073
1.227
-1003.78
-1.4998
1.24257
-1003.91
1.32845
-1005.14
-0.453669
2.23906
-1002.55
-0.942609
2.2631
-1002.65
-1.12936
2.33133
-1003.32
-1.43632
2.36786
-1003.49
2.4884
-1004.54
-0.429461
3.12912
-1001.84
-0.880366
3.15239
-1001.93
-1.0746
3.20788
-1002.47
-1.33746
3.24234
-1002.65
3.35288
-1003.48
-0.409603
3.83588
-1000.9
-0.829457
3.84029
-1000.97
-1.02672
3.87282
-1001.43
-1.24441
3.86595
-1001.61
3.93365
-1002.24
-0.410649
-999.472
-0.805268
-999.587
-1.02643
-999.969
-1.19355
-1000.26
-1000.73
-0.640202
1.53496
-1003.83
-1.49858
1.53247
-1003.7
-1.5878
1.66365
-1005.36
-2.26153
1.64077
-1004.87
1.88057
-1007.59
-0.618322
2.94153
-1003.34
-1.41936
2.97185
-1003.29
-1.52425
3.14866
-1004.7
-2.13057
3.16334
-1004.4
3.48834
-1006.65
-0.567048
4.081
-1002.41
-1.28398
4.11388
-1002.35
-1.41252
4.24704
-1003.44
-1.92906
4.27383
-1003.25
4.58081
-1004.98
-0.526241
5.18226
-1001.47
-1.1794
5.1583
-1001.36
-1.31179
5.26407
-1002.32
-1.72979
5.16869
-1002.09
5.38698
-1003.32
-0.536892
-999.29
-1.12796
-999.344
-1.33861
-1000.03
-1.6199
-1000.24
-1001.03
-0.896931
1.99683
-1004.93
-2.32792
1.92902
-1004.2
-2.22926
2.28051
-1007.74
-3.46062
2.10327
-1005.75
2.74304
-1011.56
-0.863228
3.83883
-1004.32
-2.17596
3.86065
-1003.91
-2.10494
4.30501
-1006.79
-3.19168
4.2113
-1005.42
5.02594
-1010
-0.746718
5.1699
-1003
-1.88322
5.20703
-1002.56
-1.87219
5.51272
-1004.66
-2.80699
5.47731
-1003.58
6.26234
-1007.08
-0.656797
7.06941
-1002.71
-1.68505
6.9436
-1002.07
-1.62364
7.2711
-1004.14
-2.38894
6.85452
-1002.7
7.52494
-1005.2
-0.692803
-998.799
-1.60296
-998.656
-1.72862
-999.95
-2.2208
-999.855
-1001.32
-1.28032
2.55207
-1006.21
-3.66512
2.2995
-1004.11
-3.23559
3.1667
-1011.33
-5.38577
2.59211
-1006.19
4.16586
-1018.1
-1.25668
4.9441
-1005.45
-3.38576
4.93537
-1004.42
-3.00469
5.96625
-1009.97
-4.80714
5.62229
-1006.65
7.50074
-1015.34
-0.974557
6.32627
-1003.4
-2.72825
6.36501
-1002.24
-2.52896
7.01085
-1005.9
-4.11476
6.80019
-1003.17
8.55158
-1009.77
-0.788701
9.74223
-1005.34
-2.37847
9.38291
-1003.5
-1.89759
10.2114
-1007.82
-3.18523
9.01733
-1003.63
10.784
-1008.54
-0.887602
-997.522
-2.2887
-996.934
-2.26001
-999.299
-3.08573
-998.473
-1001.4
-1.8502
3.24598
-1007.6
-5.85837
2.56054
-1002.66
-4.89592
4.5912
-1016.89
-8.58217
3.05358
-1005.56
6.69344
-1029.33
-1.93114
6.02155
-1006.3
-5.39676
5.9698
-1004.36
-4.46205
8.24512
-1014.56
-7.30843
7.4664
-1008.22
11.5952
-1023.83
-1.22681
7.43431
-1003.59
-3.83426
7.55796
-1001.22
-3.45334
8.71512
-1006.75
-6.10958
8.30862
-1001.36
11.771
-1012.92
-0.889535
13.4421
-1010.46
-3.30581
12.6442
-1006.17
-1.96699
14.3778
-1014.82
-4.01251
11.636
-1004.91
15.7168
-1014.3
-1.10969
-994.696
-3.25725
-993.268
-3.01493
-997.353
-4.4255
-994.998
-1001.05
-2.71149
4.36017
-1009.25
-9.55454
2.46295
-998.283
-7.77872
7.29535
-1025.96
-14.0842
3.27505
-1002.53
11.7324
-1049.85
-3.18048
6.42433
-1005.18
-8.93442
6.23094
-1002.38
-7.01505
11.2339
-1020.42
-11.3231
9.78302
-1010.42
18.5446
-1036.96
-1.38195
8.20095
-1003.98
-4.9606
8.69358
-1000.1
-4.70023
10.37
-1006.15
-9.20312
10.2161
-997.288
16.2914
-1015.96
-0.888118
18.5634
-1019.93
-4.51742
17.0574
-1010.9
-1.4783
20.082
-1027.57
-4.608
14.5756
-1006.14
23.0147
-1023.76
-1.32464
-988.866
-4.54546
-986.204
-4.15594
-992.6
-6.73873
-987.347
-1000.48
-3.93902
6.35777
-1011.67
-16.0317
1.30296
-987.493
-13.1743
13.0482
-1041.86
-23.8483
2.65222
-994.504
22.8676
-1090.25
-5.73151
4.34662
-997.44
-15.6961
4.00305
-995.111
-12.1448
15.2309
-1026.15
-18.0497
12.7194
-1014.58
30.8449
-1056.14
-1.15161
8.02423
-1006.51
-5.36919
9.7589
-1001.64
-6.28541
11.3421
-1001.34
-14.1945
13.12
-989.779
22.3838
-1016.9
-0.724196
25.9304
-1037.12
-6.21946
23.5261
-1019.18
0.309428
27.4345
-1050.19
-4.45489
17.8973
-1006.16
33.5512
-1039.08
-1.55562
-976.501
-6.20604
-972.899
-6.2203
-981.499
-11.4678
-970.804
-1001.8
-8.11935
8.60952
-1012.16
-30.0849
-3.08375
-962.444
-23.9238
24.6334
-1072.66
-39.398
-0.265215
-978.764
44.4334
-1170.56
-12.159
-2.92085
-973.751
-30.7101
-3.0412
-976.602
-22.9769
20.0826
-1029.33
-28.6012
16.3868
-1025.61
51.152
-1083.56
-0.795794
5.63699
-1014.27
-6.1645
9.79064
-1009.11
-9.43882
9.88162
-987.867
-23.318
18.3067
-977.82
28.738
-1012.03
-1.43311
36.7697
-1066.82
-10.7892
33.0269
-1033.06
5.08385
34.9278
-1091.11
-3.1344
21.6687
-1001.3
47.8387
-1067.65
-3.19685
-949.946
-10.621
-947.962
-11.3353
-959.544
-22.3887
-937.301
-1014.48
5.459
25.8636
-1043.48
-26.2871
-20.4538
-910.244
-40.0473
53.9243
-1112.82
-90.148
-15.8171
-912.847
131.911
-1379.61
-16.8021
-23.8988
-907.187
-39.7812
-35.103
-938.974
-32.8486
28.3108
-1010.65
-49.1239
21.8996
-1047.05
113.234
-1082.26
13.0864
-0.000549278
-1051.26
35.9127
14.2489
-1081.28
11.9843
7.38389
-943.012
-24.8569
36.5202
-955.6
47.5633
-965.983
14.1379
61.2395
-1142.19
10.3115
63.3459
-1078.33
44.8975
49.3524
-1167.67
21.4857
27.6634
-969.032
85.6989
-1128.49
8.25929
-891.216
20.6889
-914.968
4.60472
-883.191
-18.3159
-834.662
-1017.02
-30.5328
20.9076
-1033.86
-118.245
-34.7818
-787.75
-85.6912
100.894
-1246.27
-100.108
-21.6443
-876.785
155.749
-1698.18
-50.6497
-56.5894
-779.04
-122.624
-53.8024
-847.98
-98.1766
32.5787
-966.786
-73.8014
37.9077
-1130.98
122.759
-1130.43
9.88104
-11.4697
-1106.26
-5.90147
7.58617
-1126.89
-33.1443
-24.3881
-858.803
-83.6878
44.9675
-912.116
-12.78
-886.596
-10.0243
85.4641
-1229.1
-42.0963
70.6221
-1109.29
3.85921
17.2582
-1255.27
-40.7831
37.899
-917.322
31.3231
-1218.84
-26.9076
-751.103
-61.4829
-820.363
-84.8865
-784.964
-138.156
-718.099
-1238.92
112.045
155.368
-1301.27
-9.17574
-183.882
-482.647
-199.98
280.41
-1335.87
-437.121
-204.809
-434.836
832.515
-3058.77
-105.119
-240.729
-277.824
-168.984
-336.527
-631.47
-135.231
38.1505
-758.28
-104.246
44.6871
-1411.46
418.574
-594.919
72.1992
-86.1376
-1333.05
330.195
56.4756
-1777.89
133.743
-89.6815
-534.519
-61.9355
215.708
-887.458
7.31129
-487.073
80.1139
229.373
-1624.73
104.365
288.59
-1365.66
259.724
37.3075
-1537.62
157.896
37.3991
-637.185
293.827
-1744.29
26.6323
-266.7
203.255
-761.039
79.2922
-248.35
-63.5557
-116.165
-1401.2
-260.893
-105.892
-934.484
-463.341
61.796
-341.995
32.3823
363.114
-2194.71
257.216
89.6194
-749.289
-266.974
-2640.79
-56.9421
-91.1466
-235.628
-271.129
70.4593
-425.946
-310.078
133.591
-489.809
-130.116
133.488
-1635.29
128.737
-1546.49
99.5337
41.5325
-1565.26
-221.003
-57.4497
-1329.44
-206.575
-53.8738
-361.483
-187.095
10.598
-784.048
-173.362
-294.473
-60.849
124.234
-1646.58
-182.161
-71.0276
-1230.77
-120.208
-74.3636
-1579.08
-274.294
111.961
-584.461
-334.259
-1487.89
-110.921
-223.892
-325.312
-592.887
-520.557
-114.52
-590.002
-214.559
-2628.7
-0.0113497
-0.11271
-934.36
36.6905
0.425723
-379.123
-19.1769
-7.90133
-2130.94
-124.285
-73.2654
-570.916
372.934
-3254.93
0.811724
-5.86637
-230.686
0.743207
-2.89453
-422.557
22.2118
-2.67015
-516.509
72.4525
-13.8143
-1744.98
131.048
-1215.61
-36.5957
-38.7592
-1495.77
12.2282
15.7806
-1396.94
1.62304
-20.4091
-333.139
-6.79771
14.6809
-804.122
-17.963
-153.893
19.7315
0.521485
-1705.59
9.38532
-11.0152
-1193.62
33.9727
8.83446
-1632.91
-21.8506
-14.8926
-499.064
301.641
-1969.55
0.756152
-212.239
0.737314
-629.673
-1.16469
-6.77257
15.3004
-239.057
-2434.32
-28.5589
-189.616
-716.185
306.928
72.6805
-787.289
17.5909
-419.016
-1422.59
213.982
142.069
-909.376
-246.828
-2883.34
57.7327
107.997
-586.032
-0.19645
258.226
-550.173
337.819
91.7116
-1365.25
108.811
231.257
-1605.16
-1.36878
-1336.17
246.393
166.99
-1801.16
184.904
309.13
-1386.36
113.025
117.296
-286.844
23.5408
-48.7565
-434.625
393.618
-690.575
190.506
-54.7637
-1674.35
201.643
21.0762
-916.707
-9.76002
-101.509
-1202.7
-153.643
43.4399
-447.377
131.646
-1524.48
108.441
-233.149
59.4631
-591.859
2.20755
-526.579
-6.22088
-17.1857
-2114.27
-149.162
-216.366
-350.657
15.7882
179.34
-1131.58
477.343
-145.363
-1738.78
491.656
64.0683
-987.758
-771.371
-1270.2
118.153
-153.806
-766.746
-24.3482
16.7594
-245.091
512.181
7.15728
-2054.3
-170.325
152.659
-1011.24
-518.063
-1314.76
86.5746
-127.859
-1913.68
26.3745
117.557
-1426.95
54.6354
205.887
-513.835
-91.5899
-79.9366
-55.8046
232.667
-1595.07
469.539
52.3382
-2324.08
158.791
64.2916
-552.693
-50.3586
-15.5421
-772.123
92.0111
-109.814
-559.87
-361.212
-14.7781
1.43318
-14.4894
-23.7432
-501.198
-83.9256
-454.457
-192.432
-20.9312
-2363.87
-93.8156
45.7422
-302.584
-465.792
12.9707
-772.573
-79.8612
-386.047
-1738.67
-46.7541
-34.7589
-986.106
100.357
-1332.03
-36.9541
-213.686
-470.363
-19.6066
-195.831
-53.6368
375.455
199.32
-3034.73
64.8885
-178.439
-556.998
-137.235
-119.856
-221.337
-994.571
-911.458
-414.577
-154.987
-1274.56
-193.847
286.426
-821.672
-60.2132
32.81
-400.687
-256.37
-1075.28
-32.4844
-984.256
-2301.91
59.9484
-22.6355
-777.478
-62.2732
31.4245
-394.9
-13.5047
-60.4964
-515.332
-341.589
-16.1598
195.64
-1823.1
118.945
-310.83
-2.94834
-20.6129
638.866
-913.424
-1529.54
21.8139
-20.298
-304.1
-321.397
-118.452
-310.91
-891.238
-82.5164
-1086.31
-398.576
51.321
-1530.09
7.43997
-1778.01
-8.24131
63.0918
-545.511
-123.96
19.8196
-76.1903
-366.891
-81.5114
-2792.81
0.194671
7.68321
-880.445
2.06816
-545.867
14.1832
-24.7924
-837.757
-282.458
-123.355
-834.743
-586.895
-48.8837
-549.862
51.9853
217.532
-1249.42
0.187438
-785.507
-610.837
-507.096
-1208.77
-337.435
-123.183
-1051.05
-31.7642
-10.4233
-739.031
31.1962
67.5397
-428.299
0.828749
-19.2046
-100.078
-2085.25
-16.4933
-118.012
605.095
-1291.75
544.851
-770.124
-24.2268
-29.5938
62.4488
-336.955
154.563
4.86347
-499.931
-400.097
83.7288
-615.377
-211.893
194.352
-1912.65
-250.134
-1818.43
-163.685
167.944
-487.322
167.729
301.543
-704.283
-683.517
-32.1891
-1825.64
-428.524
233.22
-1174.31
398.601
-1949.06
-109.999
2.36974
-562.183
-86.1459
208.062
-765.115
-518.053
9.70296
-159.847
-421.163
-42.7356
-1070.35
169.844
-1215.72
-253.129
-67.8133
-885.459
-271.826
-60.1647
-764.129
-345.191
166.963
-822.925
0.87443
4.74738
-821.848
-1.22633
-26.9684
-20.689
-1992.87
194.693
-375.19
219.537
-1548.74
-2.82224
-327.31
-713.923
245.14
96.5957
-678.69
336.545
162.78
-754.115
-213.511
-38.4986
-26.8227
-83.7283
44.5175
-2086.95
-88.555
-1680.02
-24.8419
20.3483
-386.233
550.099
91.9314
-1208.38
141.562
87.1485
-1542.75
-77.9353
2.75469
-913.047
68.4146
-2040.89
-13.7209
88.4161
-616.53
1.1546
66.1964
-754.255
-33.8236
-5.96929
-31.7511
7.18865
-211.207
-897.402
-65.4003
-1410.72
-64.8437
-121.008
-611.192
19.7958
-1.8763
-780.696
-288.718
33.1307
-553.511
-234.883
-188.393
-898.498
171.235
-912.446
-275.779
-1553.13
71.7609
-1089.01
-188.65
-1035.02
361.404
-1243.81
-859.244
-66.5438
80.8309
-692.977
25.245
83.5994
-929.504
71.8228
11.8244
-85.2248
165.691
115.882
-2296.7
-67.1379
-1422.41
67.6371
-44.9004
-328.139
371.947
-11.6841
-1417.4
-222.104
-210.105
-726.771
-186.809
2.65918
-835.119
96.7062
-2314.7
17.9856
155.14
-834.557
-113.991
20.637
-654.6
375.574
151.694
-883.115
361.34
59.2939
-939.802
-69.8558
-877.665
19.8426
251.944
-727.838
53.8961
304.45
-1098.56
81.6255
143.877
-573.423
118.216
-319.367
-556.428
-203.751
-791.57
-204.477
-75.5849
-346.125
-788.891
81.139
-1429.42
400.835
-1731.68
-571.922
51.3903
0.984473
-745.352
-169.731
56.6063
-764.989
383.786
31.5238
-670.266
641.026
430.242
-2984.18
-185.102
-498.826
433.55
-92.8979
-667.806
334.467
-247.344
-1014.37
-21.7572
-290.542
-48.4817
510.456
-1.00766
-936.084
-333.175
-2097.05
173.975
-109.591
-991.839
109.835
-38.7734
-799.031
97.0127
-273.03
-887.806
63.6687
9.79679
-917.263