FoamFile
{version 2.0; format ascii;class Cloud<passiveParticle>; location 0;object  positions;}
353
(
( -0.690864 -1.05999 0.499859 ) 0 
( -0.976513 -3.62445 0.499475 ) 0 
( -0.321939 -2.84213 0.499756 ) 0 
( -2.36945 -3.19337 0.499728 ) 0 
( -3.07574 -0.650888 0.499907 ) 0 
( -2.00745 -0.96352 0.499827 ) 0 
( -4.74435 -1.75228 0.499901 ) 0 
( -4.07033 -0.753944 0.499557 ) 0 
( -1.96916 -1.97446 0.499682 ) 0 
( -4.94233 -4.19904 0.499786 ) 0 
( -3.98309 -2.40069 0.499857 ) 0 
( -3.40036 -3.24658 0.49972 ) 0 
( -1.42554 -1.44784 1.15296 ) 0 
( -2.84078 -4.07521 0.499976 ) 0 
( -1.8443 -4.15896 0.499978 ) 0 
( -0.18993 -4.32102 1.21594 ) 0 
( -2.93019 -2.36409 0.499662 ) 0 
( -0.0744028 -1.75569 1.38018 ) 0 
( -3.48546 -1.54856 0.660851 ) 0 
( -4.81599 -2.55582 1.09073 ) 0 
( -0.912272 -2.03497 0.499663 ) 0 
( -0.751379 -0.0654125 0.582056 ) 0 
( -2.35655 -0.33928 1.19843 ) 0 
( -4.38477 -3.37715 0.615202 ) 0 
( -0.823127 -4.61403 0.499597 ) 0 
( -3.74401 -3.83867 1.2284 ) 0 
( -1.48686 -2.80794 0.768554 ) 0 
( -0.838983 -2.39834 1.42794 ) 0 
( -4.46022 -0.369065 1.33553 ) 0 
( -0.0640286 -3.47435 1.94423 ) 0 
( -0.656355 -0.927911 1.52394 ) 0 
( -2.18713 -4.73578 1.25252 ) 0 
( -2.61188 -1.76846 1.23704 ) 0 
( -4.38924 -4.6024 1.23113 ) 0 
( -4.2511 -1.3582 1.27521 ) 0 
( -3.35352 -4.7591 1.23561 ) 0 
( -4.61784 -3.4945 1.61713 ) 0 
( -1.37837 -0.250185 1.38558 ) 0 
( -2.90508 -2.9437 1.31361 ) 0 
( -1.8251 -2.2956 1.55786 ) 0 
( -1.51014 -0.994445 2.0402 ) 0 
( -0.331056 -0.0488297 2.68195 ) 0 
( -3.83776 -4.43571 2.04831 ) 0 
( -2.62161 -1.01115 1.88959 ) 0 
( -3.90492 -2.82772 1.40051 ) 0 
( -0.585036 -4.62705 2.13353 ) 0 
( -0.803442 -1.69983 2.1421 ) 0 
( -1.92554 -3.50107 1.34092 ) 0 
( -4.44968 -2.10156 1.9207 ) 0 
( -1.27379 -4.3258 1.34407 ) 0 
( -3.50458 -1.89357 1.66954 ) 0 
( -0.940315 -3.39188 1.47072 ) 0 
( -4.38083 -0.898742 2.17967 ) 0 
( -2.69045 -2.30945 2.07412 ) 0 
( -4.76681 -1.62228 2.75151 ) 0 
( -1.94896 -4.20935 2.07209 ) 0 
( -1.2772 -2.82094 2.22102 ) 0 
( -0.178337 -2.49175 2.22027 ) 0 
( -0.224489 -1.80977 2.94969 ) 0 
( -0.728192 -0.957752 2.80768 ) 0 
( -3.51243 -0.695671 1.39827 ) 0 
( -4.91055 -4.50861 2.09581 ) 0 
( -4.83671 -2.89413 2.3914 ) 0 
( -2.7791 -4.88738 2.04377 ) 0 
( -2.37478 -0.658105 2.79179 ) 0 
( -2.47254 -3.28228 2.1486 ) 0 
( -3.74844 -2.52072 2.49719 ) 0 
( -3.45516 -1.19956 2.40832 ) 0 
( -3.5663 -3.43 2.12325 ) 0 
( -1.06119 -3.78382 2.38221 ) 0 
( -2.11092 -1.6304 2.52435 ) 0 
( -2.79128 -3.97546 1.49921 ) 0 
( -4.54074 -2.46268 3.24345 ) 0 
( -4.45548 -4.77274 2.94583 ) 0 
( -0.572286 -3.09322 2.9148 ) 0 
( -0.791683 -4.43385 3.09225 ) 0 
( -2.07444 -2.63013 2.79342 ) 0 
( -1.46113 -0.301739 2.98614 ) 0 
( -2.75303 -4.09699 2.65527 ) 0 
( -3.01223 -1.22723 3.31085 ) 0 
( -1.22422 -2.1255 2.94307 ) 0 
( -4.40015 -3.77923 2.55056 ) 0 
( -3.85181 -1.74481 3.1464 ) 0 
( -0.141163 -0.581589 3.52437 ) 0 
( -1.9043 -3.6263 2.89552 ) 0 
( -3.65488 -4.18847 3.07672 ) 0 
( -3.15887 -3.2151 3.01046 ) 0 
( -3.20013 -0.248219 2.23607 ) 0 
( -1.60781 -1.24111 3.29574 ) 0 
( -4.00948 -0.724374 3.09158 ) 0 
( -4.38151 -1.98992 4.11 ) 0 
( -0.486938 -3.70297 3.70253 ) 0 
( -2.96653 -2.19434 3.02818 ) 0 
( -1.71191 -4.75837 2.87348 ) 0 
( -2.15571 -2.03157 3.59016 ) 0 
( -3.6049 -2.52261 3.72431 ) 0 
( -2.83572 -4.08581 3.65126 ) 0 
( -3.45825 -0.260839 3.82012 ) 0 
( -0.710036 -1.38311 3.71237 ) 0 
( -1.40388 -2.96559 3.45477 ) 0 
( -4.07716 -3.33678 3.38673 ) 0 
( -0.973675 -4.50921 4.07229 ) 0 
( -4.85745 -4.83377 3.85918 ) 0 
( -4.42265 -0.25608 4.1263 ) 0 
( -2.25891 -1.14919 4.04898 ) 0 
( -3.75428 -1.20225 3.98055 ) 0 
( -0.839203 -0.360826 4.20543 ) 0 
( -2.37507 -3.13095 3.62519 ) 0 
( -1.86074 -3.96188 3.83608 ) 0 
( -3.44538 -3.47019 4.15 ) 0 
( -4.47628 -1.0712 4.70358 ) 0 
( -0.696503 -2.6491 4.08636 ) 0 
( -1.41321 -1.86164 4.23787 ) 0 
( -3.63383 -4.57909 3.99676 ) 0 
( -0.162959 -1.04507 4.4778 ) 0 
( -1.73252 -0.0175334 3.90528 ) 0 
( -4.94811 -4.78557 4.85368 ) 0 
( -2.27421 -4.86849 3.91946 ) 0 
( -4.56264 -2.38087 5.05359 ) 0 
( -2.98773 -1.8314 4.1073 ) 0 
( -0.185504 -3.34648 4.58846 ) 0 
( -1.10455 -1.10641 4.8161 ) 0 
( -1.15281 -3.59713 4.44066 ) 0 
( -4.41758 -3.9649 4.0861 ) 0 
( -4.72058 -1.12705 3.73583 ) 0 
( -3.67968 -0.236695 4.79493 ) 0 
( -2.81007 -2.75605 4.44335 ) 0 
( -1.73717 -4.41452 4.71865 ) 0 
( -4.29966 -2.97007 4.28979 ) 0 
( -0.209072 -0.147791 4.95186 ) 0 
( -2.25212 -1.99173 4.76615 ) 0 
( -1.03458 -2.83368 5.07518 ) 0 
( -1.74882 -0.342598 4.85053 ) 0 
( -0.793989 -4.32868 5.03889 ) 0 
( -4.11701 -1.37426 5.58601 ) 0 
( -2.86157 -4.39053 4.60298 ) 0 
( -1.79169 -2.77941 4.35716 ) 0 
( -3.09227 -1.04209 4.7124 ) 0 
( -2.60231 -0.255442 4.33706 ) 0 
( -2.28576 -3.5788 4.69856 ) 0 
( -0.537519 -1.92802 4.76045 ) 0 
( -3.81867 -4.1537 4.88244 ) 0 
( -0.0942224 -2.61523 5.33584 ) 0 
( -0.342567 -1.0079 5.46055 ) 0 
( -3.1844 -3.41611 5.11352 ) 0 
( -1.52947 -3.67893 5.36314 ) 0 
( -4.74181 -2.8728 5.90657 ) 0 
( -2.24873 -1.11374 5.24434 ) 0 
( -2.05601 -2.82991 5.31996 ) 0 
( -4.49424 -3.46235 5.13798 ) 0 
( -3.08611 -0.502653 5.55418 ) 0 
( -3.67771 -1.96038 4.81949 ) 0 
( -1.35648 -1.92337 5.33418 ) 0 
( -1.45448 -4.90836 5.54073 ) 0 
( -2.40182 -4.59739 5.46609 ) 0 
( -0.523995 -1.88989 5.89504 ) 0 
( -3.28963 -4.18341 5.74579 ) 0 
( -4.6342 -3.84467 6.1521 ) 0 
( -1.88631 -4.43222 6.30654 ) 0 
( -0.728879 -4.42071 6.03209 ) 0 
( -0.310691 -0.242914 6.10347 ) 0 
( -1.20218 -0.539883 5.664 ) 0 
( -0.469585 -3.52118 5.53111 ) 0 
( -3.90995 -2.32672 5.80909 ) 0 
( -3.0193 -2.46588 5.37678 ) 0 
( -2.17242 -0.138375 5.73285 ) 0 
( -2.25331 -1.96151 5.77457 ) 0 
( -3.1254 -1.49998 5.61182 ) 0 
( -4.31371 -4.62355 5.61307 ) 0 
( -4.33034 -0.352551 5.54531 ) 0 
( -1.43682 -1.76971 6.31871 ) 0 
( -4.52331 -2.12254 6.57183 ) 0 
( -2.80539 -2.86213 6.26938 ) 0 
( -3.63889 -0.867348 6.30305 ) 0 
( -3.82952 -3.32148 5.87161 ) 0 
( -2.86742 -0.0204273 6.44201 ) 0 
( -0.170714 -0.42451 7.07675 ) 0 
( -0.0655476 -1.16752 6.41606 ) 0 
( -2.073 -1.00447 6.22253 ) 0 
( -2.44945 -3.64076 5.7529 ) 0 
( -0.720666 -2.82156 6.19996 ) 0 
( -1.32728 -3.60405 6.33933 ) 0 
( -2.81074 -4.86861 6.33718 ) 0 
( -4.61604 -3.14036 6.86173 ) 0 
( -3.26045 -3.68408 6.61162 ) 0 
( -3.41072 -1.81733 6.5161 ) 0 
( -1.12541 -4.67043 6.91517 ) 0 
( -0.515584 -3.87271 6.85745 ) 0 
( -1.00683 -0.875596 6.58524 ) 0 
( -2.25999 -3.56137 6.73136 ) 0 
( -0.114375 -2.67923 7.01844 ) 0 
( -4.5657 -0.546421 6.4976 ) 0 
( -1.7711 -2.71081 6.27079 ) 0 
( -2.84491 -0.903877 6.9098 ) 0 
( -2.43289 -1.79989 6.74482 ) 0 
( -3.707 -2.75662 6.68875 ) 0 
( -2.87717 -2.55953 7.21953 ) 0 
( -0.772108 -1.07258 7.54384 ) 0 
( -2.04036 -0.29877 6.92991 ) 0 
( -0.630768 -1.83034 6.90691 ) 0 
( -3.73675 -4.56155 6.55629 ) 0 
( -1.55962 -3.88994 7.36466 ) 0 
( -1.03296 -3.05978 7.12472 ) 0 
( -3.29452 -1.59479 7.48403 ) 0 
( -3.69179 -0.14666 6.99415 ) 0 
( -0.0481661 -1.95916 7.70908 ) 0 
( -4.14531 -1.32153 7.03561 ) 0 
( -2.06927 -4.81122 7.21332 ) 0 
( -0.289064 -3.39205 7.7043 ) 0 
( -1.11478 -0.169555 7.28503 ) 0 
( -3.82511 -3.37401 7.46639 ) 0 
( -1.6699 -1.3252 7.18342 ) 0 
( -2.9983 -4.43683 7.21936 ) 0 
( -2.83705 -3.5056 7.54608 ) 0 
( -4.02314 -0.669204 7.78345 ) 0 
( -3.28518 -2.37211 8.11287 ) 0 
( -2.40836 -4.44357 8.07892 ) 0 
( -4.94378 -0.924075 7.48728 ) 0 
( -0.00856068 -1.08303 8.18928 ) 0 
( -1.70835 -2.32541 7.19109 ) 0 
( -1.34843 -3.2056 8.06236 ) 0 
( -1.9107 -0.0251594 7.88287 ) 0 
( -0.551373 -4.35967 7.72994 ) 0 
( -0.570152 -2.6099 8.26006 ) 0 
( -4.93244 -2.3843 7.44591 ) 0 
( -3.77816 -4.32896 7.83588 ) 0 
( -2.83358 -0.099846 7.50512 ) 0 
( -0.721 -0.260287 8.19963 ) 0 
( -2.25999 -2.80558 7.96668 ) 0 
( -4.42375 -4.09136 7.11016 ) 0 
( -2.12436 -3.6076 8.54829 ) 0 
( -2.35043 -1.79563 7.74483 ) 0 
( -0.674516 -3.78517 8.539 ) 0 
( -2.63202 -0.895327 8.07636 ) 0 
( -1.41903 -4.3767 8.22659 ) 0 
( -4.24068 -2.66654 8.1105 ) 0 
( -0.494834 -0.753242 9.03967 ) 0 
( -1.47983 -2.20771 8.1573 ) 0 
( -3.14588 -3.92339 8.5091 ) 0 
( -4.38905 -1.69412 7.93093 ) 0 
( -3.50458 -1.25916 8.40226 ) 0 
( -4.77113 -3.45445 7.79825 ) 0 
( -4.8246 -0.523867 8.39574 ) 0 
( -2.68206 -1.81938 8.68771 ) 0 
( -4.97772 -2.21331 8.7156 ) 0 
( -3.0917 -0.0951351 8.93539 ) 0 
( -3.8802 -2.14462 8.88357 ) 0 
( -4.08513 -3.58067 8.51456 ) 0 
( -0.830695 -1.54232 8.52556 ) 0 
( -4.47226 -1.33593 8.86079 ) 0 
( -4.69712 -4.34446 8.30979 ) 0 
( -1.60952 -0.951563 8.10883 ) 0 
( -3.92126 -4.86239 8.66958 ) 0 
( -3.34434 -3.01487 8.8765 ) 0 
( -1.31766 -4.17157 9.19995 ) 0 
( -0.831673 -2.31568 9.1791 ) 0 
( -4.56257 -2.00266 9.60055 ) 0 
( -1.56578 -0.650287 9.06119 ) 0 
( -1.10525 -1.41393 9.51342 ) 0 
( -2.26205 -4.47224 9.06759 ) 0 
( -2.04075 -2.55391 8.90919 ) 0 
( -1.33876 -3.17372 9.25956 ) 0 
( -0.682385 -4.93619 9.30744 ) 0 
( -4.74571 -3.10775 9.0975 ) 0 
( -4.44575 -0.352075 9.32258 ) 0 
( -0.489132 -0.0206743 9.7202 ) 0 
( -2.53103 -0.910841 9.07702 ) 0 
( -3.32688 -1.46462 9.36463 ) 0 
( -1.39034 -2.237 10.0046 ) 0 
( -2.90657 -2.36343 9.49598 ) 0 
( -0.614128 -4.01754 9.89365 ) 0 
( -4.84993 -1.14769 10.0322 ) 0 
( -3.54259 -0.549034 9.70385 ) 0 
( -2.07638 -1.73271 9.47855 ) 0 
( -3.13847 -4.8988 9.29068 ) 0 
( -3.96025 -2.80014 9.63445 ) 0 
( -2.71145 -3.62145 9.35758 ) 0 
( -1.28278 -0.572514 10.0237 ) 0 
( -1.69762 -4.89457 9.77675 ) 0 
( -3.74253 -4.10205 9.29595 ) 0 
( -0.0527915 -3.18583 9.65277 ) 0 
( -2.13631 -2.89835 9.84307 ) 0 
( -4.01699 -3.10211 10.5875 ) 0 
( -0.516137 -1.54457 10.3107 ) 0 
( -3.13945 -3.1187 10.1085 ) 0 
( -3.22093 -1.84347 10.29 ) 0 
( -2.14285 -1.04916 10.2053 ) 0 
( -4.99852 -0.164205 10.1344 ) 0 
( -0.91027 -3.10031 10.16 ) 0 
( -1.67422 -3.76297 10.04 ) 0 
( -2.66347 -0.199787 10.2912 ) 0 
( -0.0282715 -2.4172 10.2919 ) 0 
( -3.92469 -1.14362 10.4112 ) 0 
( -3.86226 -4.38796 10.2512 ) 0 
( -4.15818 -2.11537 10.5081 ) 0 
( -0.843651 -4.94782 10.2942 ) 0 
( -2.26191 -2.06667 10.4641 ) 0 
( -4.43234 -3.66053 9.86951 ) 0 
( -4.87476 -2.79927 10.1193 ) 0 
( -2.57464 -4.36555 10.0114 ) 0 
( -0.825276 -4.20219 10.9602 ) 0 
( -1.92177 -0.427575 10.9567 ) 0 
( -2.96732 -1.01346 10.7866 ) 0 
( -1.43728 -1.53806 10.7181 ) 0 
( -2.98598 -2.57307 10.9322 ) 0 
( -4.67132 -0.703716 10.9102 ) 0 
( -0.545691 -0.62292 10.6975 ) 0 
( -2.36688 -3.39371 10.6806 ) 0 
( -3.15025 -4.81679 10.8071 ) 0 
( -1.49174 -2.78274 10.9089 ) 0 
( -3.28432 -3.80444 10.8216 ) 0 
( -0.272447 -3.37275 10.8803 ) 0 
( -4.95948 -3.73868 10.7156 ) 0 
( -4.76456 -2.89704 11.2192 ) 0 
( -1.74504 -4.5116 10.6992 ) 0 
( -0.673468 -2.22091 11.0302 ) 0 
( -2.83598 -3.32392 11.5753 ) 0 
( -3.67547 -0.319333 10.9194 ) 0 
( -2.20729 -2.52369 11.5576 ) 0 
( -1.63212 -3.70699 11.2821 ) 0 
( -2.78448 -0.0300896 11.2692 ) 0 
( -0.803604 -1.24713 11.4349 ) 0 
( -2.25643 -1.50394 11.2906 ) 0 
( -2.50157 -4.22032 11.2846 ) 0 
( -0.104837 -0.598114 11.7357 ) 0 
( -1.42103 -4.69734 11.6268 ) 0 
( -3.85095 -2.55163 11.4334 ) 0 
( -3.56569 -0.1734 11.9026 ) 0 
( -2.53827 -4.50517 12.2424 ) 0 
( -1.40127 -2.98403 11.9332 ) 0 
( -1.65609 -0.940456 11.8581 ) 0 
( -4.54783 -1.83612 11.3857 ) 0 
( -0.682866 -3.67536 11.7981 ) 0 
( -2.0277 -1.79578 12.2193 ) 0 
( -4.16225 -3.76887 11.3184 ) 0 
( -3.42245 -4.35388 11.6507 ) 0 
( -4.89737 -4.99108 11.4885 ) 0 
( -4.78346 -0.29379 11.8153 ) 0 
( -2.01027 -0.00632668 11.9016 ) 0 
( -1.08687 -2.03594 11.9803 ) 0 
( -3.7293 -1.26169 11.3847 ) 0 
( -3.70203 -3.30416 12.0749 ) 0 
( -1.45026 -4.2104 12.4997 ) 0 
( -0.452859 -2.78194 12.1839 ) 0 
( -4.8266 -1.24639 12.1436 ) 0 
( -4.57475 -2.51192 12.1223 ) 0 
( -0.506231 -1.24441 12.3896 ) 0 
( -2.87791 -0.887947 11.7747 ) 0 
( -4.13359 -0.661606 12.5652 ) 0 
( -3.0607 -1.93561 11.699 ) 0 
( -2.15792 -3.53955 12.278 ) 0 
( -2.30853 -0.685906 12.5719 ) 0 
( -0.525458 -3.95973 12.7859 ) 0 
)
