# vtk DataFile Version 4.0
Generated by LIGGGHTS
ASCII
DATASET POLYDATA
POINTS 167 float
-0.00046688 -0.000422032 9.99686e-05 -0.000342014 -0.000459125 0.000262315 -0.000275475 -0.000362991 9.99676e-05 
-0.000140131 -0.000320715 0.000241008 -9.5729e-05 -0.000455107 9.98341e-05 4.80388e-05 -0.000417047 0.00023349 
0.000196948 -0.0003906 9.99274e-05 0.000384712 -0.000387215 0.000248229 -0.000443187 -0.000286699 0.000264653 
-0.000380591 -0.000192583 9.98174e-05 -0.000180713 -0.000185099 9.98377e-05 -0.000281871 -0.00015671 0.000269835 
-3.54272e-06 -0.000277678 9.98252e-05 6.34338e-05 -0.000192955 0.000267957 0.000177047 -0.000191664 9.9864e-05 
0.000299023 -0.000200795 0.00025788 0.000474186 -0.000110147 0.000220235 0.000408402 -0.000255459 9.97959e-05 
-0.000477731 4.20237e-05 9.9863e-05 -0.000380743 1.69711e-05 0.000272834 -0.000285644 -1.4891e-05 9.99055e-05 
-0.000104333 -5.6188e-05 0.000232231 -0.000102327 9.36878e-05 9.98782e-05 4.48875e-05 -4.1628e-05 9.99086e-05 
3.90795e-05 9.9199e-05 0.000241677 0.000185644 -3.67743e-05 0.000242458 0.000324138 -5.61913e-05 9.97878e-05 
0.000363495 5.44207e-05 0.000261619 -0.000332562 0.000179475 9.98457e-05 -0.000485721 0.000184607 0.000244347 
-0.000218699 0.000133101 0.000257517 -0.000170187 0.000296632 9.9899e-05 -6.89585e-05 0.000265061 0.000269342 
3.39293e-05 0.000240074 9.98311e-05 0.000181604 0.000104535 9.997e-05 0.000129642 0.000288021 0.000268606 
0.000343759 0.000287217 0.000263173 0.000370216 0.000171898 9.99498e-05 -0.000324807 0.000302585 0.00025705 
-0.000323904 0.000425883 9.98206e-05 -0.000494889 0.000322232 9.97854e-05 -0.000174136 0.000433475 0.000246036 
7.21699e-05 0.000436314 9.98672e-05 0.000232596 0.000316987 9.97945e-05 0.000219021 0.000463667 0.000234964 
0.000366552 0.000466609 9.9968e-05 0.000485123 0.000440264 0.000259798 -0.000483295 -0.00042461 0.000403663 
-0.000276027 -0.000318 0.0003876 -0.000166027 -0.000480416 0.000426224 -1.80832e-05 -0.000327021 0.000399255 
0.000108906 -0.000457917 0.000481223 0.000208337 -0.000359752 0.000338302 -0.000435309 -0.000136521 0.000396402 
-9.5896e-05 -0.000152416 0.000457766 0.000150946 -0.000202289 0.00044738 0.000407075 -0.000257855 0.000415991 
-0.000233096 -1.62227e-05 0.000403369 5.05368e-05 -3.46838e-05 0.000389682 0.000294203 -6.82565e-05 0.000407389 
-0.000353011 0.000167434 0.000401539 -0.000202038 0.000297851 0.000414754 -8.19106e-05 0.000114587 0.000402126 
4.58999e-05 0.000261262 0.000448081 0.000203386 0.000125248 0.000358216 0.000452581 0.000127101 0.000425527 
-0.000363365 0.000415947 0.000417041 -7.36148e-07 0.000432144 0.000355311 0.000241013 0.000306569 0.000433604 
0.000337512 0.000484986 0.00039456 0.000457458 0.000327486 0.000422554 -0.000335766 -0.000430309 0.000541712 
-0.000155908 -0.000320809 0.000547367 -5.55908e-05 -0.00048769 0.000592731 4.60305e-05 -0.000300137 0.000586707 
0.000284493 -0.000372577 0.000524478 0.000165509 -0.000436658 0.000671804 0.000494011 -0.000332608 0.000579736 
0.000364192 -0.000425564 0.000700106 -0.000333337 -0.000284633 0.000678557 -0.000415393 -0.000102347 0.000680741 
-0.000284106 -0.00016935 0.000522823 -2.63937e-05 -0.000122448 0.000642824 0.000266709 -0.0001927 0.000610052 
0.000434469 -0.000105623 0.000544908 -0.000409948 1.76824e-05 0.000520975 -0.000148867 2.26449e-05 0.000580353 
0.000141037 -4.29954e-05 0.000567784 0.000289868 8.62103e-05 0.000534154 0.000451556 7.88845e-05 0.000651506 
-0.000403551 0.000280453 0.000558477 -0.000305835 0.000118712 0.000658498 -0.000145464 0.000222314 0.000591009 
2.59505e-05 0.000119359 0.000587452 0.000190246 0.000213495 0.000651702 0.000379301 0.0002555 0.000591848 
-0.000225874 0.000407178 0.00058033 9.55435e-05 0.000381672 0.000599693 0.000287904 0.00043304 0.000581158 
0.000491495 0.000462122 0.00056645 -0.000466639 -0.000377407 0.000795164 -0.00026188 -0.000386431 0.0008351 
-9.22111e-05 -0.000351432 0.000734386 0.000220577 -0.000462089 0.000882135 -0.000323047 -0.000195029 0.000856987 
-0.000216748 -0.000120322 0.000704533 -0.000133792 -0.000244693 0.000898253 5.34136e-05 -0.000227553 0.000792971 
0.000243152 -0.000289835 0.000783192 0.000200669 -0.000110565 0.000860881 0.000426818 -0.00021595 0.000727548 
-0.000321097 3.88468e-06 0.000821479 -7.02711e-05 -6.77967e-05 0.000830048 8.96373e-05 2.16549e-05 0.000749879 
0.000284316 -1.75532e-05 0.000704923 0.000284303 6.94336e-05 0.000884978 0.000450624 -3.73248e-05 0.000814161 
-0.000441787 0.000162929 0.000798277 -0.00026969 0.000297037 0.000741279 -0.000112719 0.000112723 0.000755111 
-2.1438e-05 0.000289218 0.000732869 0.000148387 0.00021295 0.000847165 0.000347332 0.000232419 0.000787846 
-0.000351633 0.000478032 0.000718629 -0.000496751 0.000340582 0.000724768 -0.000422941 0.000441132 0.000901711 
-0.000139718 0.000312079 0.000892485 -0.000156696 0.000461003 0.000759942 3.98879e-05 0.000469065 0.0007955 
0.000215274 0.000379893 0.000759752 0.000382185 0.000422072 0.000861391 -0.000447615 -0.000383195 0.000994115 
-0.000256711 -0.000334272 0.00102808 -8.79165e-05 -0.000438774 0.00091867 8.13425e-05 -0.000339331 0.000956365 
-9.76934e-05 -0.000487152 0.00111245 0.00036147 -0.000463462 0.00102404 -0.000468218 -0.00022275 0.00111169 
-6.77183e-05 -0.00029195 0.00108097 4.14957e-05 -0.000144493 0.000977036 0.00024118 -0.000244582 0.0010302 
0.000396699 -0.000288901 0.00091128 -0.000437738 -8.0695e-05 0.000974277 -0.000352902 8.46137e-05 0.00104819 
-0.000212285 -7.28014e-05 0.000970716 6.6322e-06 9.28107e-05 0.000920911 -5.66347e-05 -6.07212e-06 0.00108282 
0.000357267 -8.86695e-05 0.000983336 0.000466656 9.54866e-05 0.000962754 -0.00033084 0.000265741 0.000929087 
-0.000190018 0.00012411 0.000939152 -1.38902e-05 0.000207663 0.00108332 0.000166897 0.00013787 0.00103168 
0.000280986 0.000291777 0.000974342 0.000479993 0.000292567 0.000993807 -0.000407702 0.000452437 0.00110078 
-0.000242756 0.000454945 0.000987217 4.70236e-05 0.000347897 0.000954393 9.77166e-05 -0.000446358 0.0011245 
0.000366657 -0.000322 0.00116531 -0.000320134 -9.09794e-05 0.00113812 0.000463644 -9.42639e-06 0.00113299 
-0.000358516 0.000262486 0.00113939 -0.000187108 0.000129441 0.00115063 0.000349189 0.000161962 0.00111032 
-0.000169886 0.000326619 0.00112215 0.000161601 0.000364253 0.00111748 
VERTICES 167 334
1 0 
1 1 
1 2 
1 3 
1 4 
1 5 
1 6 
1 7 
1 8 
1 9 
1 10 
1 11 
1 12 
1 13 
1 14 
1 15 
1 16 
1 17 
1 18 
1 19 
1 20 
1 21 
1 22 
1 23 
1 24 
1 25 
1 26 
1 27 
1 28 
1 29 
1 30 
1 31 
1 32 
1 33 
1 34 
1 35 
1 36 
1 37 
1 38 
1 39 
1 40 
1 41 
1 42 
1 43 
1 44 
1 45 
1 46 
1 47 
1 48 
1 49 
1 50 
1 51 
1 52 
1 53 
1 54 
1 55 
1 56 
1 57 
1 58 
1 59 
1 60 
1 61 
1 62 
1 63 
1 64 
1 65 
1 66 
1 67 
1 68 
1 69 
1 70 
1 71 
1 72 
1 73 
1 74 
1 75 
1 76 
1 77 
1 78 
1 79 
1 80 
1 81 
1 82 
1 83 
1 84 
1 85 
1 86 
1 87 
1 88 
1 89 
1 90 
1 91 
1 92 
1 93 
1 94 
1 95 
1 96 
1 97 
1 98 
1 99 
1 100 
1 101 
1 102 
1 103 
1 104 
1 105 
1 106 
1 107 
1 108 
1 109 
1 110 
1 111 
1 112 
1 113 
1 114 
1 115 
1 116 
1 117 
1 118 
1 119 
1 120 
1 121 
1 122 
1 123 
1 124 
1 125 
1 126 
1 127 
1 128 
1 129 
1 130 
1 131 
1 132 
1 133 
1 134 
1 135 
1 136 
1 137 
1 138 
1 139 
1 140 
1 141 
1 142 
1 143 
1 144 
1 145 
1 146 
1 147 
1 148 
1 149 
1 150 
1 151 
1 152 
1 153 
1 154 
1 155 
1 156 
1 157 
1 158 
1 159 
1 160 
1 161 
1 162 
1 163 
1 164 
1 165 
1 166 

POINT_DATA 167
FIELD FieldData 7
id 1 167 int
4 46 28 51 7 18 9 20 44 
19 27 47 1 29 11 34 40 15 
3 42 14 30 24 10 23 38 26 
49 12 32 35 25 37 13 16 31 
45 2 33 17 21 36 8 5 22 
6 39 63 62 58 54 77 41 52 
67 73 56 53 55 61 60 75 64 
68 43 57 71 48 69 50 59 90 
65 94 89 72 96 86 106 97 88 
76 99 81 87 66 79 85 74 101 
84 102 80 92 93 78 91 83 82 
70 131 126 105 124 118 104 125 112 
110 114 98 109 116 119 100 130 111 
120 115 123 95 122 107 113 103 138 
129 108 132 117 133 146 151 144 139 
161 142 162 158 147 150 134 121 149 
135 127 152 137 140 128 136 155 143 
141 145 159 153 148 156 165 160 154 
166 157 163 164 167 
type 1 167 int
1 1 1 1 1 1 1 1 1 
1 1 1 1 1 1 1 1 1 
1 1 1 1 1 1 1 1 1 
1 1 1 1 1 1 1 1 1 
1 1 1 1 1 1 1 1 1 
1 1 1 1 1 1 1 1 1 
1 1 1 1 1 1 1 1 1 
1 1 1 1 1 1 1 1 1 
1 1 1 1 1 1 1 1 1 
1 1 1 1 1 1 1 1 1 
1 1 1 1 1 1 1 1 1 
1 1 1 1 1 1 1 1 1 
1 1 1 1 1 1 1 1 1 
1 1 1 1 1 1 1 1 1 
1 1 1 1 1 1 1 1 1 
1 1 1 1 1 1 1 1 1 
1 1 1 1 1 1 1 1 1 
1 1 1 1 1 1 1 1 1 
1 1 1 1 1 
i 3 167 int
1 1 0 0 1 0 0 1 0 
0 0 0 0 1 0 0 0 0 
-1 0 0 0 0 0 0 1 0 
0 0 0 0 0 0 0 0 0 
0 0 0 0 0 0 -1 0 0 
0 0 0 0 0 0 -1 0 0 
0 0 0 0 0 0 0 0 0 
0 0 0 1 0 0 0 0 0 
0 0 0 0 0 0 -1 0 0 
0 0 0 0 0 0 0 0 0 
0 0 0 1 0 0 0 0 0 
0 0 0 0 0 0 0 0 0 
0 0 0 0 0 0 0 0 0 
0 -1 0 1 -1 0 0 -1 0 
0 -1 0 0 0 0 0 0 0 
0 -1 0 0 0 0 0 1 0 
1 0 0 0 0 0 0 0 0 
0 0 0 0 0 0 0 0 0 
0 0 0 0 0 0 0 0 0 
0 0 0 0 0 0 0 0 0 
0 0 0 0 0 0 0 0 0 
0 0 0 0 0 0 0 0 0 
0 0 0 0 0 0 0 0 0 
0 -1 0 0 0 0 0 0 0 
0 0 0 0 0 0 0 0 0 
0 0 0 0 0 0 0 0 0 
-1 0 0 0 0 0 0 0 0 
0 0 0 0 0 0 0 0 0 
0 0 0 0 0 0 0 0 0 
0 0 0 0 0 0 0 0 0 
0 0 0 0 0 0 0 0 0 
0 0 0 0 0 0 0 0 0 
0 0 0 0 0 0 0 -1 0 
-1 -1 0 0 0 0 0 0 0 
0 0 0 0 0 0 0 0 0 
0 0 0 0 0 0 0 0 0 
0 0 0 0 0 0 -1 0 0 
0 0 0 0 0 0 0 0 0 
0 0 0 0 0 0 0 0 0 
0 0 0 0 0 0 0 0 0 
0 0 0 0 0 0 0 0 0 
0 -1 0 1 0 0 0 0 0 
0 0 0 0 0 0 0 -1 0 
0 0 0 0 0 0 0 0 0 
0 0 0 0 1 0 0 0 0 
0 0 0 0 0 0 1 0 0 
0 0 0 0 0 0 0 0 0 
0 0 0 1 0 0 0 0 0 
0 0 0 0 0 0 0 0 0 
0 0 0 -1 0 0 0 0 0 
0 0 0 0 0 0 0 0 0 
0 0 0 0 -1 0 0 -1 0 
0 0 0 0 0 0 0 0 0 
0 0 0 0 0 0 0 0 0 
0 0 0 0 0 0 0 0 0 
0 0 0 0 0 0 
v 3 167 double
8.19622e-05 8.06588e-06 9.44543e-06 2.38044e-05 1.55657e-05 -1.77294e-05 1.25844e-05 4.74436e-05 2.55002e-07 
1.80391e-05 7.68739e-05 -5.19547e-05 1.76231e-05 1.80147e-05 -4.27443e-06 -1.35441e-05 -2.31374e-06 -2.21016e-07 
-5.85932e-05 -1.78726e-06 2.50189e-05 -2.47164e-05 -3.13929e-06 1.17391e-05 1.67184e-05 -4.80932e-06 -2.74056e-05 
7.37571e-06 -4.72166e-06 -1.46024e-05 -1.94459e-06 1.05056e-05 -2.0349e-05 -8.48406e-06 2.58349e-05 -4.78592e-05 
3.08635e-05 2.27823e-06 -3.41031e-05 1.39403e-05 -1.6071e-05 -7.49988e-05 -4.28176e-05 -2.10104e-05 6.47509e-06 
-8.23166e-05 1.79276e-05 2.08702e-05 -2.2096e-08 -2.21771e-05 -5.47301e-06 -3.85657e-05 2.57815e-05 9.87765e-06 
-3.66942e-05 1.69996e-05 1.73216e-05 -2.64653e-05 2.73843e-05 2.50381e-06 -4.08003e-05 1.56935e-05 -3.78848e-06 
-6.01731e-05 4.42384e-05 -9.17254e-07 -6.89779e-06 1.04074e-05 -4.93771e-06 -1.89296e-05 4.82185e-07 1.72524e-05 
-2.10813e-07 7.47335e-05 -2.00388e-05 -5.73285e-05 4.70439e-05 1.05509e-05 -4.89134e-07 -1.207e-06 3.68685e-05 
-2.16707e-05 0.000104583 6.33469e-05 1.0843e-06 1.57547e-05 -1.22516e-05 1.55191e-05 8.06623e-05 1.56229e-05 
-4.46538e-06 8.71877e-06 -1.87335e-05 -3.33246e-05 2.45991e-06 -5.35719e-06 -1.11224e-05 1.47674e-05 -3.27467e-05 
-1.93879e-05 1.88579e-05 -2.75076e-05 3.35051e-06 -0.000156616 1.41987e-05 -4.77403e-05 -1.08325e-06 -2.40108e-05 
6.23456e-06 9.03616e-05 -6.71833e-06 8.74329e-06 3.85228e-05 3.61789e-06 6.06679e-06 6.52404e-06 -4.41801e-05 
-1.54664e-07 8.41557e-06 -1.21227e-05 2.25992e-05 -5.05565e-06 -6.27553e-06 -1.09943e-05 1.97757e-05 -2.68776e-05 
-2.74974e-05 -2.61881e-05 3.94629e-06 3.15942e-07 8.90539e-06 -2.34971e-06 1.63275e-05 -3.50223e-05 1.36801e-05 
3.5969e-05 -7.27455e-05 1.77632e-05 9.72344e-06 4.65518e-06 -2.32689e-05 -2.32021e-05 -7.20393e-06 -8.20128e-05 
7.51673e-05 3.18891e-05 -7.58966e-05 2.40962e-05 -3.5722e-06 -9.80452e-05 -1.64277e-06 0.000105573 -3.58054e-05 
-0.000103179 4.34539e-05 -2.44245e-06 -1.29819e-05 -4.78088e-05 2.4551e-05 -1.26083e-05 3.59596e-05 -7.16713e-05 
-8.9823e-06 0.000107051 -6.70648e-05 -6.43708e-06 1.29116e-05 -0.00010885 -2.55501e-05 7.6909e-06 -4.44071e-05 
1.80617e-05 -2.49388e-05 -7.57064e-05 -3.24139e-05 0.000117085 -2.2348e-05 -7.02071e-05 3.64168e-05 -3.3312e-05 
-1.68297e-05 4.26237e-05 -5.53972e-05 8.85103e-06 4.22421e-05 -6.47796e-05 -4.24296e-05 6.97211e-05 1.8351e-05 
-2.03982e-05 5.54767e-05 -6.64882e-05 -7.02422e-05 2.0002e-05 3.64279e-05 -1.59693e-05 0.000165348 -6.26113e-06 
3.25731e-05 9.86775e-06 -0.000105245 -7.14522e-05 3.04168e-05 -6.10673e-06 -7.28195e-05 3.27277e-05 -2.4018e-05 
5.97339e-05 -6.0622e-07 -1.58483e-05 1.0688e-05 -4.25782e-07 -3.36151e-06 3.96047e-05 -2.72277e-05 -0.00017169 
0.000106463 -4.64657e-05 -0.000240504 1.49627e-05 -0.000113529 -0.000139926 -5.12864e-05 0.000132565 -6.59354e-05 
-3.79381e-05 -2.78311e-05 -7.26665e-05 -9.00222e-05 3.67377e-05 -0.000101961 1.71781e-06 -5.88303e-05 -0.000169847 
4.66039e-05 -8.6972e-06 -0.00015976 -2.02602e-05 -5.23329e-05 -0.000281787 -1.6577e-05 -4.86804e-05 -0.000326569 
1.51498e-05 -4.95722e-05 -0.000136699 1.77158e-05 0.000115675 -0.000149076 -3.07705e-05 -1.08297e-05 -0.00016938 
-4.62765e-05 3.89481e-05 -0.00013294 -4.87664e-05 4.12681e-05 -0.000157057 2.87518e-05 3.17872e-05 -0.000178521 
9.19934e-06 2.68909e-05 -0.000140721 2.59618e-06 3.23176e-05 -5.46881e-05 3.30705e-06 -2.52436e-06 -0.000144003 
5.66135e-06 5.14506e-05 -6.88725e-05 -1.67922e-05 1.43933e-06 -0.0002416 -5.29837e-07 -3.6953e-05 -8.90475e-05 
1.32973e-05 5.46407e-05 -0.000147036 -1.80255e-05 2.27956e-06 -9.21162e-05 -1.31577e-05 2.77848e-05 -7.12513e-05 
-4.26959e-05 -5.63945e-07 -0.000179792 1.89865e-05 -6.65098e-05 -0.000105099 -1.56381e-05 4.34884e-05 -7.4762e-05 
3.57194e-06 3.23835e-05 -3.26567e-05 7.97124e-06 7.2008e-05 -0.000344928 1.18923e-05 -5.39445e-05 -0.000288129 
6.96065e-05 -4.17151e-05 -0.000325863 9.00311e-05 7.42264e-05 -0.000338434 -7.38563e-05 -0.000144463 -0.000272553 
9.35452e-05 -9.96467e-05 -0.000225619 1.65246e-05 -9.59961e-05 -0.000422931 5.04223e-06 7.73114e-06 -0.000281188 
3.8411e-05 2.26615e-05 -0.000228318 -4.15581e-05 -7.47693e-05 -0.000261087 -2.19209e-05 -4.63002e-05 -0.00028638 
1.78315e-05 -0.000132142 -0.000298349 2.15967e-05 4.24395e-05 -0.000267172 -0.000101673 1.53574e-05 -0.000110676 
3.89126e-07 -6.61498e-05 -0.000198105 -3.8962e-05 -9.14768e-05 -0.000326625 1.69341e-05 -0.000114644 -0.000277967 
-1.92857e-05 -6.33651e-05 -0.000245667 -2.75051e-05 -6.63187e-05 -0.000261895 -0.000147634 -6.24489e-05 -0.000181006 
-2.14172e-06 -5.98885e-05 -8.52642e-05 -5.5931e-05 5.60847e-05 -0.000212325 -2.14326e-05 -5.71901e-05 -0.000202117 
-3.85957e-06 -6.03543e-06 -0.000212463 2.01637e-05 2.68491e-05 -9.74518e-05 7.53353e-05 -8.68002e-05 -0.000259333 
-1.48594e-05 0.000100316 -0.000284244 -7.66445e-05 -7.40443e-05 -0.000228644 -4.53057e-05 -2.32498e-05 -0.000197875 
2.5847e-05 2.90665e-05 -0.000193048 3.86481e-05 4.88546e-05 -0.000237689 -3.83199e-05 1.39531e-05 -0.000537549 
-1.28838e-05 -0.000176267 -0.000382408 4.97178e-05 -0.000161645 -0.00033148 3.37393e-05 -5.54611e-05 -0.00035168 
1.79108e-05 1.79179e-05 -0.000301008 -0.00013635 6.11763e-05 -0.000300048 7.98595e-05 -0.000203567 -0.000313091 
3.37037e-05 -6.23232e-05 -0.000534461 -6.40891e-05 -3.07907e-07 -0.000276617 9.8358e-06 3.96259e-05 -0.000206625 
9.29191e-05 0.000204146 -0.000332709 -2.51242e-05 -3.91033e-05 -0.000311299 -2.4453e-05 7.44037e-05 -0.000186304 
1.05247e-06 -6.49484e-05 -0.000392708 -7.4399e-05 6.67949e-05 -0.000278498 7.02731e-05 8.14809e-05 -9.48159e-05 
2.96586e-05 -4.56048e-05 -0.000305477 -2.82664e-05 3.62024e-06 -0.000378299 5.0335e-05 -2.36701e-05 -0.000342733 
-7.30804e-05 5.3311e-05 -0.000237676 7.39601e-05 7.03503e-05 -0.000285804 -5.5552e-05 0.000127179 -0.000335547 
-3.30636e-05 7.66223e-05 -0.000304332 1.48575e-05 -8.19277e-05 -0.000498584 8.09777e-06 7.77417e-05 -0.000352667 
7.23669e-05 -0.000189411 -0.000233072 -4.23603e-05 0.000127808 -0.000188116 3.25486e-05 3.93522e-06 -0.000363662 
-4.8268e-05 -0.000186459 -0.000141094 3.54032e-05 -7.37153e-05 -0.000411505 6.28027e-06 7.73698e-05 -0.000388744 
5.50515e-06 8.8447e-05 8.46573e-05 -3.62859e-05 -4.41583e-05 0.000147961 -2.5752e-05 -9.38228e-06 -0.000494381 
6.60223e-05 -1.12271e-05 6.66839e-05 7.0865e-05 -0.000135775 -0.000207366 
f 3 167 double
1.758e-10 4.51818e-10 -5.85407e-09 -7.25719e-09 -6.56696e-09 -1.02765e-08 3.6108e-09 2.55285e-11 -6.01527e-09 
-1.9936e-09 -8.1448e-09 -8.56281e-09 1.38324e-09 -3.54909e-09 -7.46462e-09 -1.10595e-10 -9.04939e-09 -5.81198e-09 
-8.20343e-09 7.21529e-09 1.55002e-09 -1.19953e-08 -6.98896e-10 -4.17814e-09 -1.22209e-08 -4.0984e-09 -1.29178e-08 
-2.50522e-09 -1.58283e-09 -6.13877e-09 -9.0879e-10 -4.13971e-09 -5.0259e-09 -2.674e-10 -8.38375e-09 -8.0534e-09 
-1.71644e-09 -4.84985e-09 -3.86659e-09 -1.97045e-08 -6.97808e-09 9.66067e-10 -1.41763e-08 4.09041e-09 -2.85954e-09 
-2.59714e-08 -1.34059e-08 2.80109e-09 -6.69393e-09 2.34151e-09 -5.99795e-09 -1.21354e-08 -2.92579e-09 -1.26339e-09 
-7.46637e-10 -5.78709e-09 -9.56536e-09 -3.29543e-09 -7.70178e-09 -1.44735e-08 2.03074e-09 -3.27949e-09 -5.47726e-09 
-3.91686e-09 -4.12899e-09 -6.78053e-09 -1.44816e-09 -5.58414e-09 -5.29765e-09 1.30103e-09 6.05362e-09 -6.16399e-09 
-5.21174e-09 4.7548e-09 -1.12549e-08 -7.43653e-09 3.04954e-09 -1.26471e-08 -8.82342e-09 3.37984e-10 -2.81983e-09 
-1.98352e-08 1.6976e-08 -4.50988e-09 8.43701e-10 -4.25704e-09 -6.01528e-09 -3.4531e-10 1.84553e-09 -8.58877e-09 
-6.85483e-10 -8.13918e-09 -9.57369e-09 -6.24333e-09 -9.70267e-10 -2.66979e-09 3.07328e-10 -8.0419e-10 -9.6546e-09 
-9.97356e-10 6.14761e-10 -7.98127e-09 2.48282e-10 5.33792e-10 -9.32075e-09 -8.58641e-09 1.30034e-08 -6.52813e-09 
2.31656e-09 2.03061e-08 -3.36956e-09 1.56841e-08 8.49105e-09 -5.06491e-09 5.55195e-09 -6.84214e-09 -9.75828e-09 
6.98506e-10 -4.29453e-09 -5.33705e-09 3.32107e-09 6.56529e-09 -4.40033e-09 3.06273e-09 -3.91344e-09 -9.1889e-09 
-2.05154e-09 -4.81898e-09 -5.47825e-09 9.11234e-09 1.22532e-08 -3.31002e-09 1.75142e-09 1.1659e-08 9.22517e-10 
-1.98411e-09 4.54314e-11 -7.61789e-09 -3.77138e-10 4.09346e-09 -4.80219e-09 2.1573e-09 2.34366e-09 -2.87242e-09 
-4.55284e-09 -1.04031e-08 -1.02101e-08 -5.69624e-10 -5.23282e-09 -4.63633e-09 -2.10034e-09 5.0094e-09 -1.08179e-08 
-1.65881e-08 -2.31296e-09 -5.33646e-10 -1.42068e-08 -5.97167e-09 6.24299e-10 1.72262e-09 -7.17941e-09 -1.245e-08 
6.30886e-09 6.31539e-09 -1.19581e-08 -1.48179e-08 -7.57868e-09 2.67339e-09 -1.11787e-09 2.93411e-09 1.32637e-09 
-1.33929e-08 -3.19121e-09 -4.60694e-09 -8.39981e-11 9.16022e-09 -2.60604e-09 -1.72716e-09 2.22313e-09 -1.25039e-08 
6.20081e-09 -1.23979e-08 -1.27695e-08 -4.02693e-11 -1.71725e-08 -3.16387e-09 -1.06628e-08 -4.6684e-10 -5.20023e-09 
-1.67716e-08 3.71893e-09 -5.27483e-09 -9.27608e-09 1.41637e-08 -1.19351e-08 1.17703e-08 -4.07772e-09 -1.14658e-08 
7.74974e-10 -1.22249e-08 -8.73686e-09 -1.84141e-08 -2.03926e-09 -1.18955e-08 -7.05524e-09 1.52046e-08 -5.45187e-09 
6.26927e-09 6.86867e-09 3.67359e-09 -1.61099e-09 5.17048e-09 -3.96472e-09 4.51881e-09 -1.1099e-08 -4.75804e-09 
2.13687e-08 6.70624e-09 -2.37932e-08 1.23196e-08 1.07724e-08 -3.11818e-09 9.04325e-10 -2.67816e-09 3.87044e-09 
2.15991e-09 -2.88175e-09 5.19915e-09 9.35704e-09 2.29015e-08 3.20253e-09 3.70408e-09 -9.65566e-09 7.14505e-09 
-2.84742e-09 1.26726e-08 2.14708e-09 1.49038e-08 -8.30122e-09 -6.19181e-09 1.12486e-08 -8.8857e-09 -1.08982e-08 
2.98862e-09 -1.03643e-08 -9.38874e-09 3.64288e-09 -9.14993e-10 -7.6506e-09 1.04152e-08 2.47847e-09 -7.06411e-09 
8.62635e-09 -1.264e-08 -1.81739e-08 1.17725e-08 -1.06003e-08 -1.09878e-08 -6.69777e-10 -1.3984e-08 -4.21288e-09 
1.20246e-08 2.23876e-09 -5.02059e-09 7.24239e-09 3.31139e-09 -1.66892e-08 4.87136e-09 8.68309e-10 -1.50242e-08 
6.97951e-09 -2.38267e-08 -1.05089e-08 1.92793e-09 -6.71252e-09 1.24525e-09 1.59136e-08 -2.56135e-08 -2.94304e-09 
7.61739e-12 -1.17563e-08 -1.58324e-08 5.79051e-09 5.84339e-10 -8.91149e-09 -3.28881e-09 1.20789e-09 -2.56703e-09 
1.19342e-08 -1.39529e-08 -2.44233e-09 -5.3624e-09 -1.12075e-09 -6.86478e-10 -2.10538e-10 -2.68684e-09 7.98776e-09 
9.29191e-09 -1.08869e-08 -7.98097e-09 5.0251e-09 8.86283e-09 -1.57488e-08 1.97372e-08 1.72977e-09 -8.62396e-09 
4.00328e-09 3.06389e-08 -2.0278e-08 -4.3346e-09 6.17771e-09 -3.41377e-08 -8.50219e-10 2.13814e-08 -9.12161e-09 
5.20768e-10 1.17556e-08 -7.87249e-09 -8.25493e-09 2.45131e-08 -8.0696e-09 4.89258e-10 2.34577e-08 -5.09116e-09 
-1.68821e-09 1.31007e-08 -7.97768e-09 3.48436e-10 1.04404e-08 -2.02223e-08 -9.84683e-10 6.90477e-10 5.23007e-09 
-1.03295e-08 -8.12119e-09 -8.54848e-09 -1.2536e-08 1.55881e-08 -1.21467e-08 8.31511e-09 1.61037e-08 -4.71452e-10 
1.49893e-08 2.59118e-09 -1.53333e-08 1.1227e-09 -6.25332e-09 -1.6203e-09 7.97934e-09 6.96516e-10 -1.45925e-08 
-8.83501e-09 -6.67504e-09 -1.06982e-08 -8.31502e-09 -3.40632e-09 7.41383e-09 8.7742e-09 -1.76646e-09 1.69463e-09 
2.89961e-09 -2.27563e-09 -2.69155e-09 2.70537e-09 2.32593e-09 -8.55086e-09 -5.5398e-09 -7.88266e-09 3.7098e-09 
5.36972e-09 -7.84947e-09 -1.14721e-08 -1.4954e-09 -2.1115e-08 -1.27853e-08 1.29547e-09 1.86819e-09 -2.99376e-08 
-1.51584e-08 -7.12726e-09 1.73786e-08 2.68799e-08 1.02371e-08 -2.09612e-08 2.28262e-08 2.66233e-08 -1.05726e-08 
6.22699e-09 4.06409e-09 -1.27849e-08 2.05378e-09 9.96461e-09 -2.20321e-08 1.38125e-08 -5.11119e-09 -1.65831e-08 
7.93726e-09 3.85182e-09 -4.73564e-09 6.17428e-09 1.47255e-08 -2.23461e-08 1.56633e-09 1.55777e-08 -2.27657e-08 
2.08789e-08 -1.11882e-08 -5.24366e-08 1.8494e-08 2.4269e-08 -5.44611e-08 -1.25183e-09 1.73626e-09 -4.92512e-08 
-2.00327e-09 4.02692e-09 -8.61567e-09 2.66214e-08 2.20708e-08 -1.45977e-08 4.74803e-09 -1.70474e-09 -4.96455e-08 
-1.14633e-08 -2.37093e-08 1.26711e-08 -8.53383e-09 1.83733e-09 -3.21558e-08 -1.77308e-08 -4.61715e-09 -2.16135e-08 
-1.77764e-08 -1.42198e-09 -3.0324e-08 4.5592e-09 -2.99498e-10 -1.65334e-08 -9.53566e-10 8.85984e-09 -3.28899e-08 
-9.17202e-09 -9.00603e-09 -2.45071e-08 -7.0914e-09 -4.2153e-09 -1.97845e-08 -2.58045e-08 2.12687e-09 3.07601e-09 
-1.05978e-08 3.35829e-09 -7.06628e-09 -2.67682e-09 1.97929e-09 -3.44228e-08 -6.1073e-09 1.6112e-09 -9.50044e-09 
1.21455e-11 4.70338e-09 3.25646e-09 -9.3987e-10 7.72549e-10 -1.37806e-08 -4.07354e-10 -1.32851e-08 -4.3328e-08 
1.41013e-08 -1.12645e-08 -4.84676e-08 5.42983e-09 -1.09218e-08 -2.41606e-08 2.94243e-08 -3.74136e-09 -7.49398e-08 
2.23766e-08 4.83437e-09 -8.88592e-08 -1.79558e-08 -1.87398e-08 -4.25175e-08 4.55928e-09 1.29253e-08 -3.41311e-08 
-1.45909e-08 3.5319e-09 -5.65583e-08 -1.78863e-08 -1.53718e-08 -5.62279e-08 7.17424e-09 -1.97946e-08 -2.67773e-08 
3.32225e-10 -2.08333e-08 -5.20692e-08 1.40256e-09 1.21478e-08 -1.69441e-08 
radius 1 167 double
0.0001 0.0001 0.0001 0.0001 0.0001 0.0001 0.0001 0.0001 0.0001 
0.0001 0.0001 0.0001 0.0001 0.0001 0.0001 0.0001 0.0001 0.0001 
0.0001 0.0001 0.0001 0.0001 0.0001 0.0001 0.0001 0.0001 0.0001 
0.0001 0.0001 0.0001 0.0001 0.0001 0.0001 0.0001 0.0001 0.0001 
0.0001 0.0001 0.0001 0.0001 0.0001 0.0001 0.0001 0.0001 0.0001 
0.0001 0.0001 0.0001 0.0001 0.0001 0.0001 0.0001 0.0001 0.0001 
0.0001 0.0001 0.0001 0.0001 0.0001 0.0001 0.0001 0.0001 0.0001 
0.0001 0.0001 0.0001 0.0001 0.0001 0.0001 0.0001 0.0001 0.0001 
0.0001 0.0001 0.0001 0.0001 0.0001 0.0001 0.0001 0.0001 0.0001 
0.0001 0.0001 0.0001 0.0001 0.0001 0.0001 0.0001 0.0001 0.0001 
0.0001 0.0001 0.0001 0.0001 0.0001 0.0001 0.0001 0.0001 0.0001 
0.0001 0.0001 0.0001 0.0001 0.0001 0.0001 0.0001 0.0001 0.0001 
0.0001 0.0001 0.0001 0.0001 0.0001 0.0001 0.0001 0.0001 0.0001 
0.0001 0.0001 0.0001 0.0001 0.0001 0.0001 0.0001 0.0001 0.0001 
0.0001 0.0001 0.0001 0.0001 0.0001 0.0001 0.0001 0.0001 0.0001 
0.0001 0.0001 0.0001 0.0001 0.0001 0.0001 0.0001 0.0001 0.0001 
0.0001 0.0001 0.0001 0.0001 0.0001 0.0001 0.0001 0.0001 0.0001 
0.0001 0.0001 0.0001 0.0001 0.0001 0.0001 0.0001 0.0001 0.0001 
0.0001 0.0001 0.0001 0.0001 0.0001 
omega 3 167 double
-0.0811868 0.819987 -0.428176 -0.196262 0.389155 0.456294 -0.468225 0.194745 0.107424 
-0.415982 -0.324883 0.424173 -0.138902 0.172242 -0.221483 -0.42176 -0.445072 -0.765859 
-0.232513 -0.591922 -0.436494 0.593795 1.08124 0.741 0.0315574 -0.19331 -0.368262 
0.0370788 0.111606 0.591529 0.0309785 -0.0292013 0.315271 -0.237394 -0.0312632 -0.0781253 
-0.0178364 0.324015 -0.0382396 0.78166 0.657854 2.03449 0.294826 -0.369762 0.300225 
0.616779 -0.0707093 1.80187 0.492462 -0.0205272 0.676441 -0.358143 -0.275179 -1.71882 
-0.193183 -0.349258 0.0779523 0.210719 0.704538 0.235682 -0.0562405 -0.397554 -0.211945 
-0.197976 -0.595266 -0.110849 -0.0800822 -0.0981944 0.328377 -0.0078368 -0.0753322 -0.568188 
-0.562171 -0.00109682 0.122953 0.603279 -0.823594 -0.915751 0.0398199 0.138653 -0.515806 
-0.67687 -0.567736 0.919583 -0.200938 0.130796 -0.254299 -0.86179 0.065785 -1.26469 
0.0135792 -0.0170358 -0.432275 -0.00410413 -0.289377 0.223935 0.227538 0.409402 0.445069 
-0.229528 -0.0909278 0.0254097 1.56668 0.0332357 0.0391763 -0.0359178 -0.729063 -0.826858 
0.721644 -0.312214 1.44911 -0.273302 0.181377 -0.692353 0.0880379 0.100923 0.486186 
0.0288173 -0.0293052 -0.616732 0.142898 0.233247 0.944699 0.0868719 -0.290591 -0.343982 
0.385642 -0.342486 -0.282389 -0.0825173 0.049306 1.01172 0.581255 1.76943 0.172916 
0.721427 0.383406 -1.57758 -0.605307 0.115051 -0.165539 0.146023 -0.311093 -0.0126661 
0.333932 1.15765 0.224178 -0.198403 -0.0940283 -1.25643 -0.147422 -0.238259 -1.09007 
-0.0910966 0.127157 -0.527731 -0.717347 -0.644826 -0.460912 -0.700553 0.0601406 0.568104 
0.328548 -0.581304 1.10741 -0.258532 -0.625586 -0.222135 0.733666 0.247208 -0.387854 
0.558505 0.133703 -0.342879 0.303223 0.824806 -1.12664 -1.3013 1.32052 -0.833449 
-0.180344 -0.558963 -0.0563108 -0.988552 -0.32035 -0.469453 -0.03299 -0.576184 1.35879 
0.159166 1.55666 -1.14104 -0.301982 0.614651 0.792918 1.04854 0.378386 -1.00446 
-0.909944 1.32001 0.832236 0.104514 -0.27598 0.788519 -0.752207 0.0611571 -0.335224 
-0.601364 -1.2233 0.564587 0.927678 0.280097 -0.893809 0.833635 -1.13501 -0.730911 
1.12596 -0.715443 1.04991 -1.38266 -0.0761985 -2.10561 -0.974477 -0.189907 -0.150947 
0.290905 0.352588 0.0977149 -0.129931 -0.331491 -2.21979 0.217974 0.223462 0.682297 
-0.899512 0.457457 -0.714211 -1.26973 -0.816993 -0.0609624 0.874767 0.423113 0.000503055 
2.20593 0.151733 -0.299144 0.0605133 0.958788 -0.18329 0.112282 0.629228 -0.0600159 
0.108486 -0.409367 0.21801 0.429519 0.221033 -0.201677 -1.71169 0.0824731 -0.0707039 
-0.0222115 -0.168917 -0.777947 1.27294 -0.0154815 0.885778 0.641395 0.630109 0.0150212 
0.779459 -0.790431 -2.40167 -0.0371375 0.564035 0.745352 2.37101 0.363204 0.502031 
0.284804 -0.768657 0.601754 -0.922057 -1.31185 -1.48337 -0.607394 0.0567633 -0.303146 
0.627824 -0.444158 0.484407 1.29456 0.0455858 2.17723 0.373823 0.163276 -0.307403 
-0.894183 -0.145295 1.45323 -1.23508 0.0230074 0.675445 1.63714 0.197839 1.01123 
-0.490978 0.0542743 1.57631 0.190908 -0.379099 -0.366692 2.1684 0.0638331 -0.101126 
-1.60879 1.24464 1.89967 0.559925 0.868173 1.16942 0.774441 -0.248816 -0.783849 
-0.247655 -0.266755 1.01494 0.0723705 -0.279156 0.250503 -0.651459 -0.0947853 -0.278689 
0.796961 -0.284411 -0.192547 0.718757 -1.18216 -0.345947 0.494468 -1.06075 -0.0197508 
0.181248 -0.0908646 -0.0707163 -0.658797 -0.148404 -0.522144 0.827706 0.0332543 -0.516737 
0.347779 -0.438084 0.426486 0.640567 0.410401 -0.297495 2.8161 -1.99724 0.507756 
-2.98031 -0.957216 -1.34879 1.08217 0.821902 0.368682 1.74731 -0.138491 0.295657 
-1.09813 0.997536 -0.127106 0.967335 -0.218157 -0.514189 2.75391 0.284839 -1.45724 
-0.482037 0.0744806 2.82875 -1.13611 -0.665387 -2.80536 0.018987 0.267603 3.02622 
-1.25614 0.089312 -1.10804 -0.92594 -0.396027 0.0100678 1.71238 -0.47498 -1.09173 
-0.601211 -0.771668 -0.879853 0.156716 0.30982 -0.807453 0.561444 -0.0122384 1.78607 
-2.53686 -0.150342 0.66634 0.273079 -1.73927 0.174269 3.15731 2.4623 0.270709 
-0.962975 -0.749451 -1.64137 -0.529564 0.483714 -1.1188 -1.47895 -1.92933 -1.15324 
-1.71394 1.77766 -1.16747 -2.74165 -0.0087175 -0.72667 3.23801 -1.79496 0.347171 
-0.505193 0.0480544 1.55157 -1.93282 -1.58233 -0.0950257 0.357016 3.44323 1.96325 
-1.66477 0.0818937 1.38921 -2.31644 -0.340687 0.964288 -1.09893 0.793633 -1.60852 
-5.09023 2.77782 0.930083 2.17059 4.42025 1.02984 -0.600791 0.730811 -0.82183 
-0.0986152 -0.769086 0.325271 1.79285 2.88377 -1.61093 -4.06633 -0.702518 2.15808 
-1.83864 -0.504487 1.12831 -0.736709 -1.51226 -2.14774 -1.29685 -0.501478 -0.876355 
1.86421 1.57379 -2.37812 -1.03992 0.0973483 1.43952 1.42325 0.343087 0.380959 
-0.417657 -0.279087 -1.79666 0.454441 -0.971812 -0.219568 1.80027 0.537974 -0.109159 
-1.38384 -0.506266 -0.0411674 2.7559 2.73783 0.498011 
