# vtk DataFile Version 4.0
Generated by LIGGGHTS
ASCII
DATASET POLYDATA
POINTS 167 float
-0.000468784 -0.000419237 9.99794e-05 -0.00034201 -0.000459175 0.000262487 -0.000275571 -0.000363368 9.99794e-05 
-0.00014016 -0.000320708 0.000241193 -9.57204e-05 -0.00045506 9.99132e-05 4.79877e-05 -0.000417058 0.000233648 
0.00019705 -0.000390619 9.99627e-05 0.000384667 -0.000387216 0.000248425 -0.000443206 -0.000286765 0.00026487 
-0.000380649 -0.000192657 9.9911e-05 -0.000180735 -0.000185138 9.99123e-05 -0.000281894 -0.000156793 0.000269985 
-3.49119e-06 -0.000277636 9.99047e-05 6.35089e-05 -0.000193022 0.00026817 0.000177073 -0.000191672 9.99185e-05 
0.000299034 -0.000200854 0.000258047 0.000474222 -0.000110193 0.000220367 0.000408406 -0.000255527 9.98824e-05 
-0.000477721 4.19893e-05 9.99258e-05 -0.000380719 1.69528e-05 0.000272955 -0.000285618 -1.48894e-05 9.99577e-05 
-0.000104365 -5.61857e-05 0.000232305 -0.000102325 9.36914e-05 9.99305e-05 4.48625e-05 -4.16699e-05 9.99632e-05 
3.90627e-05 9.91058e-05 0.000241854 0.000185702 -3.68026e-05 0.000242661 0.000324168 -5.62168e-05 9.98592e-05 
0.000363496 5.44092e-05 0.000261721 -0.000332551 0.000179488 9.99206e-05 -0.00048573 0.000184642 0.00024454 
-0.000218691 0.000133106 0.000257642 -0.000170217 0.000296455 9.99555e-05 -6.89206e-05 0.00026505 0.000269471 
3.39679e-05 0.000240037 9.9905e-05 0.000181425 0.00010457 9.99794e-05 0.000129699 0.000287996 0.000268759 
0.000343734 0.000287262 0.000263369 0.000370236 0.000171893 9.99747e-05 -0.000324783 0.000302601 0.000257218 
-0.000323857 0.000425916 9.98964e-05 -0.000494921 0.000322284 9.98884e-05 -0.00017407 0.00043351 0.000246232 
7.21768e-05 0.000436309 9.99314e-05 0.000232638 0.000317011 9.98765e-05 0.000219083 0.000463677 0.0002351 
0.000366659 0.00046691 9.99794e-05 0.000485127 0.000440285 0.000260032 -0.000483257 -0.000424649 0.000404027 
-0.000276031 -0.000318083 0.000387884 -0.00016601 -0.00048049 0.000426539 -1.81232e-05 -0.000327087 0.000399511 
0.000108929 -0.000457948 0.000481538 0.00020828 -0.000359788 0.000338498 -0.000435302 -0.000136571 0.000396639 
-9.5846e-05 -0.000152454 0.000458166 0.000150962 -0.000202372 0.000447697 0.000407063 -0.00025792 0.000416268 
-0.00023311 -1.63027e-05 0.000403609 5.05843e-05 -3.47012e-05 0.000389967 0.000294218 -6.83148e-05 0.000407636 
-0.000352987 0.00016739 0.000401747 -0.000202018 0.000297809 0.000414976 -8.19209e-05 0.000114552 0.000402308 
4.59558e-05 0.000261205 0.000448305 0.000203444 0.000125221 0.000358477 0.000452628 0.000127095 0.000425799 
-0.000363359 0.000415889 0.000417334 -6.8894e-07 0.000432111 0.000355537 0.000240994 0.000306596 0.000433841 
0.000337436 0.000485045 0.000394842 0.000457376 0.000327526 0.000422848 -0.000335731 -0.000430387 0.000542109 
-0.000155906 -0.000320866 0.000547695 -5.55992e-05 -0.000487757 0.000593073 4.60787e-05 -0.00030019 0.000587063 
0.000284501 -0.000372602 0.000524895 0.000165461 -0.000436698 0.000672193 0.000494025 -0.000332632 0.000580102 
0.00036422 -0.000425599 0.000700484 -0.000333318 -0.000284661 0.000678977 -0.000415419 -0.000102352 0.000681132 
-0.000284118 -0.00016939 0.000523192 -2.63779e-05 -0.000122513 0.000643242 0.000266719 -0.000192733 0.00061043 
0.000434542 -0.00010573 0.00054527 -0.000409927 1.76418e-05 0.000521288 -0.00014888 2.25647e-05 0.00058068 
0.000141049 -4.30603e-05 0.000568122 0.000289913 8.61432e-05 0.000534485 0.000451597 7.88465e-05 0.000651889 
-0.000403431 0.000280362 0.000558815 -0.000305822 0.00011864 0.000658907 -0.000145445 0.000222238 0.000591259 
2.5971e-05 0.000119284 0.000587702 0.000190243 0.000213402 0.00065209 0.000379306 0.000255475 0.000592209 
-0.000225789 0.000407082 0.000580706 9.55426e-05 0.000381591 0.000600018 0.000287895 0.000433022 0.000581473 
0.000491612 0.000462015 0.000566838 -0.000466609 -0.000377475 0.000795607 -0.000261816 -0.000386457 0.000835528 
-9.22064e-05 -0.000351496 0.000734762 0.000220597 -0.000462156 0.000882561 -0.000323014 -0.000195091 0.000857457 
-0.000216828 -0.000120486 0.000705006 -0.00013377 -0.000244834 0.000898708 5.33895e-05 -0.000227608 0.000793454 
0.000243144 -0.000289888 0.000783593 0.000200668 -0.000110598 0.000861298 0.000426824 -0.000215986 0.000727955 
-0.000321101 3.82935e-06 0.00082192 -7.0308e-05 -6.79012e-05 0.000830493 8.95215e-05 2.15874e-05 0.000750214 
0.000284325 -1.7593e-05 0.000705312 0.000284317 6.94022e-05 0.000885404 0.000450609 -3.73464e-05 0.000814603 
-0.000441769 0.000162795 0.000798751 -0.000269603 0.000296971 0.000741768 -0.000112778 0.000112656 0.00075549 
-2.14922e-05 0.000289169 0.000733217 0.000148315 0.000212891 0.000847589 0.000347359 0.000232372 0.000788226 
-0.000351548 0.000477969 0.000719087 -0.000496633 0.00034047 0.000725191 -0.000422957 0.000441044 0.000902147 
-0.00013959 0.000312145 0.000892958 -0.000156647 0.000460936 0.000760414 3.99352e-05 0.000469073 0.000796058 
0.000215244 0.000379815 0.000760134 0.00038218 0.000421955 0.000861768 -0.000447619 -0.000383261 0.000994581 
-0.000256688 -0.000334414 0.00102855 -8.79193e-05 -0.000438844 0.000919211 8.137e-05 -0.000339392 0.000956856 
-9.76926e-05 -0.000487266 0.00111298 0.00036145 -0.000463719 0.00102452 -0.000468014 -0.000222798 0.00111217 
-6.7722e-05 -0.000292062 0.00108146 4.1519e-05 -0.000144537 0.000977499 0.000241186 -0.000244569 0.00103069 
0.000396706 -0.000288963 0.000911696 -0.000437737 -8.07398e-05 0.000974712 -0.000352904 8.45441e-05 0.00104871 
-0.000212259 -7.26228e-05 0.000971253 6.59825e-06 9.27026e-05 0.000921409 -5.66004e-05 -6.1518e-06 0.00108336 
0.000357286 -8.86417e-05 0.000983846 0.00046665 9.54152e-05 0.000963263 -0.000330857 0.000265663 0.000929551 
-0.000190071 0.00012399 0.000939557 -1.39111e-05 0.000207636 0.00108376 0.000166898 0.000137788 0.00103212 
0.000280927 0.00029174 0.000974793 0.000479944 0.000292514 0.000994328 -0.000407742 0.000452334 0.00110122 
-0.000242791 0.000454878 0.000987723 4.71552e-05 0.000347903 0.000954965 9.76665e-05 -0.000446214 0.00112512 
0.00036682 -0.000322085 0.00116559 -0.000319993 -9.09824e-05 0.00113872 0.000463748 -9.48965e-06 0.0011335 
-0.000358588 0.000262399 0.00113995 -0.000187112 0.000129335 0.00115116 0.000349172 0.00016196 0.00111079 
-0.000169951 0.000326519 0.00112266 0.000161791 0.000364495 0.00111799 
VERTICES 167 334
1 0 
1 1 
1 2 
1 3 
1 4 
1 5 
1 6 
1 7 
1 8 
1 9 
1 10 
1 11 
1 12 
1 13 
1 14 
1 15 
1 16 
1 17 
1 18 
1 19 
1 20 
1 21 
1 22 
1 23 
1 24 
1 25 
1 26 
1 27 
1 28 
1 29 
1 30 
1 31 
1 32 
1 33 
1 34 
1 35 
1 36 
1 37 
1 38 
1 39 
1 40 
1 41 
1 42 
1 43 
1 44 
1 45 
1 46 
1 47 
1 48 
1 49 
1 50 
1 51 
1 52 
1 53 
1 54 
1 55 
1 56 
1 57 
1 58 
1 59 
1 60 
1 61 
1 62 
1 63 
1 64 
1 65 
1 66 
1 67 
1 68 
1 69 
1 70 
1 71 
1 72 
1 73 
1 74 
1 75 
1 76 
1 77 
1 78 
1 79 
1 80 
1 81 
1 82 
1 83 
1 84 
1 85 
1 86 
1 87 
1 88 
1 89 
1 90 
1 91 
1 92 
1 93 
1 94 
1 95 
1 96 
1 97 
1 98 
1 99 
1 100 
1 101 
1 102 
1 103 
1 104 
1 105 
1 106 
1 107 
1 108 
1 109 
1 110 
1 111 
1 112 
1 113 
1 114 
1 115 
1 116 
1 117 
1 118 
1 119 
1 120 
1 121 
1 122 
1 123 
1 124 
1 125 
1 126 
1 127 
1 128 
1 129 
1 130 
1 131 
1 132 
1 133 
1 134 
1 135 
1 136 
1 137 
1 138 
1 139 
1 140 
1 141 
1 142 
1 143 
1 144 
1 145 
1 146 
1 147 
1 148 
1 149 
1 150 
1 151 
1 152 
1 153 
1 154 
1 155 
1 156 
1 157 
1 158 
1 159 
1 160 
1 161 
1 162 
1 163 
1 164 
1 165 
1 166 

POINT_DATA 167
FIELD FieldData 7
id 1 167 int
4 46 28 51 7 18 9 20 44 
19 27 47 1 29 11 34 40 15 
3 42 14 30 24 10 23 38 26 
49 12 32 35 25 37 13 16 31 
45 2 33 17 21 36 8 5 22 
6 39 63 62 58 54 77 41 52 
67 73 56 53 55 61 60 75 64 
68 43 57 71 48 69 50 59 90 
65 94 89 72 96 86 106 97 88 
76 99 81 87 66 79 85 74 101 
84 102 80 92 93 78 91 83 82 
70 131 126 105 124 118 104 125 112 
110 114 98 109 116 119 100 130 111 
120 115 123 95 122 107 113 103 138 
129 108 132 117 133 146 151 144 139 
161 142 162 158 147 150 134 121 149 
135 127 152 137 140 128 136 155 143 
141 145 159 153 148 156 165 160 154 
166 157 163 164 167 
type 1 167 int
1 1 1 1 1 1 1 1 1 
1 1 1 1 1 1 1 1 1 
1 1 1 1 1 1 1 1 1 
1 1 1 1 1 1 1 1 1 
1 1 1 1 1 1 1 1 1 
1 1 1 1 1 1 1 1 1 
1 1 1 1 1 1 1 1 1 
1 1 1 1 1 1 1 1 1 
1 1 1 1 1 1 1 1 1 
1 1 1 1 1 1 1 1 1 
1 1 1 1 1 1 1 1 1 
1 1 1 1 1 1 1 1 1 
1 1 1 1 1 1 1 1 1 
1 1 1 1 1 1 1 1 1 
1 1 1 1 1 1 1 1 1 
1 1 1 1 1 1 1 1 1 
1 1 1 1 1 1 1 1 1 
1 1 1 1 1 1 1 1 1 
1 1 1 1 1 
i 3 167 int
1 1 0 0 1 0 0 1 0 
0 0 0 0 1 0 0 0 0 
-1 0 0 0 0 0 0 1 0 
0 0 0 0 0 0 0 0 0 
0 0 0 0 0 0 -1 0 0 
0 0 0 0 0 0 -1 0 0 
0 0 0 0 0 0 0 0 0 
0 0 0 1 0 0 0 0 0 
0 0 0 0 0 0 -1 0 0 
0 0 0 0 0 0 0 0 0 
0 0 0 1 0 0 0 0 0 
0 0 0 0 0 0 0 0 0 
0 0 0 0 0 0 0 0 0 
0 -1 0 1 -1 0 0 -1 0 
0 -1 0 0 0 0 0 0 0 
0 -1 0 0 0 0 0 1 0 
1 0 0 0 0 0 0 0 0 
0 0 0 0 0 0 0 0 0 
0 0 0 0 0 0 0 0 0 
0 0 0 0 0 0 0 0 0 
0 0 0 0 0 0 0 0 0 
0 0 0 0 0 0 0 0 0 
0 0 0 0 0 0 0 0 0 
0 -1 0 0 0 0 0 0 0 
0 0 0 0 0 0 0 0 0 
0 0 0 0 0 0 0 0 0 
-1 0 0 0 0 0 0 0 0 
0 0 0 0 0 0 0 0 0 
0 0 0 0 0 0 0 0 0 
0 0 0 0 0 0 0 0 0 
0 0 0 0 0 0 0 0 0 
0 0 0 0 0 0 0 0 0 
0 0 0 0 0 0 0 -1 0 
-1 -1 0 0 0 0 0 0 0 
0 0 0 0 0 0 0 0 0 
0 0 0 0 0 0 0 0 0 
0 0 0 0 0 0 -1 0 0 
0 0 0 0 0 0 0 0 0 
0 0 0 0 0 0 0 0 0 
0 0 0 0 0 0 0 0 0 
0 0 0 0 0 0 0 0 0 
0 -1 0 1 0 0 0 0 0 
0 0 0 0 0 0 0 -1 0 
0 0 0 0 0 0 0 0 0 
0 0 0 0 1 0 0 0 0 
0 0 0 0 0 0 1 0 0 
0 0 0 0 0 0 0 0 0 
0 0 0 1 0 0 0 0 0 
0 0 0 0 0 0 0 0 0 
0 0 0 -1 0 0 0 0 0 
0 0 0 0 0 0 0 0 0 
0 0 0 0 -1 0 0 -1 0 
0 0 0 0 0 0 0 0 0 
0 0 0 0 0 0 0 0 0 
0 0 0 0 0 0 0 0 0 
0 0 0 0 0 0 
v 3 167 double
1.26478e-07 -0.000105564 5.53305e-15 2.46045e-07 2.04727e-06 -1.80605e-07 -1.32947e-05 1.23846e-05 -3.88961e-15 
5.68674e-07 1.79475e-06 1.46595e-07 3.00746e-07 8.93988e-07 2.36216e-07 4.94944e-07 1.48955e-06 -2.77177e-08 
4.90603e-07 6.73625e-07 7.99827e-08 1.89887e-07 2.01897e-06 5.1598e-07 3.604e-07 2.16992e-06 4.49397e-07 
3.09513e-07 1.37667e-06 7.36131e-08 3.76017e-07 1.07883e-06 5.15998e-08 3.84726e-07 2.03298e-06 1.66768e-07 
2.62799e-07 6.6774e-07 -1.32523e-07 4.99673e-08 1.57978e-06 -1.71408e-07 8.57079e-08 7.13252e-07 1.18544e-07 
2.7131e-07 2.00859e-06 1.00789e-07 1.59683e-07 1.81989e-06 2.43586e-07 1.56669e-07 1.09753e-06 2.27875e-07 
2.49641e-07 9.62509e-07 1.3163e-07 3.89322e-07 1.93434e-06 2.8178e-07 4.19797e-07 9.66746e-07 1.00061e-07 
3.93104e-07 9.32981e-07 9.40654e-08 1.57624e-07 1.01311e-06 2.04717e-07 2.85344e-07 9.73921e-07 9.36997e-08 
2.62078e-07 1.91708e-06 -3.6978e-07 2.06052e-07 2.00247e-06 -8.86651e-08 1.51615e-07 1.11249e-06 -8.11791e-08 
1.26527e-07 2.06119e-06 -2.71388e-07 5.59563e-08 9.82781e-07 -1.49811e-08 3.51146e-07 2.05755e-06 4.93592e-07 
2.85291e-07 2.01104e-06 3.13403e-07 1.29444e-06 5.57789e-06 7.14375e-08 2.14248e-07 1.9323e-06 1.53719e-07 
1.08425e-08 8.86154e-07 1.32122e-07 -2.50597e-05 -2.07444e-05 -6.10676e-15 8.50399e-08 1.71775e-06 1.98409e-07 
2.39832e-07 1.88039e-06 4.8898e-07 3.52042e-07 5.9591e-07 3.21479e-08 2.92704e-07 2.05445e-06 2.00565e-07 
-6.10153e-08 1.14666e-06 -1.05638e-07 2.44858e-07 1.44735e-06 1.33432e-07 1.27387e-07 1.84776e-06 3.12243e-07 
3.75367e-07 6.76238e-07 4.11071e-08 2.85178e-07 6.24197e-07 1.07744e-07 6.30256e-07 1.21997e-06 -2.78883e-08 
1.13086e-05 -2.33898e-06 6.08722e-15 3.59839e-07 2.25087e-06 3.498e-10 1.53709e-07 2.48555e-06 3.41981e-07 
1.46143e-07 2.17715e-06 -2.07169e-07 1.0748e-07 2.55561e-06 1.63666e-07 5.61659e-07 2.55537e-06 -2.59249e-07 
-1.92622e-07 2.80061e-06 2.77543e-07 2.86067e-07 2.16797e-06 3.66246e-07 2.20008e-07 2.47647e-06 3.75167e-07 
6.38023e-07 2.8674e-06 -1.80943e-07 6.31256e-07 2.88804e-06 -1.95902e-07 2.33158e-07 2.64041e-06 2.88064e-07 
2.98365e-07 2.47396e-06 3.02879e-07 6.30922e-07 2.72339e-06 1.0725e-08 5.45354e-07 2.48817e-06 -3.07502e-08 
3.81588e-07 2.54857e-06 4.18473e-07 5.04913e-07 2.56079e-06 4.7632e-07 3.47618e-07 2.42907e-06 3.15054e-07 
7.19374e-08 2.77721e-06 5.30339e-07 3.24811e-07 2.18789e-06 1.72713e-07 6.06076e-07 2.29287e-06 2.43108e-07 
3.67201e-07 2.47952e-06 3.41334e-07 1.98494e-07 2.07072e-06 2.25267e-07 5.5871e-08 2.29653e-06 3.80651e-07 
3.26738e-07 2.30418e-06 2.75499e-07 2.31062e-07 2.6921e-06 6.40023e-07 2.80811e-07 3.18011e-06 2.33303e-07 
4.45472e-07 2.99153e-06 -3.61839e-07 9.93452e-09 2.85405e-06 2.38214e-07 -9.41461e-08 3.12575e-06 3.45737e-08 
3.2865e-08 2.88374e-06 1.07256e-08 -1.42193e-07 4.15546e-06 2.58032e-07 9.37278e-08 2.90733e-06 6.95861e-07 
-7.4131e-07 3.22243e-06 1.79989e-07 -1.97998e-07 3.63928e-06 2.08843e-07 1.26178e-07 3.51538e-06 5.05346e-08 
6.35015e-07 3.13492e-06 -1.39784e-07 8.90119e-07 3.66508e-06 -3.58597e-07 5.50882e-07 3.59339e-06 6.7938e-08 
8.38346e-07 3.08948e-06 7.00042e-07 5.31879e-07 3.01402e-06 3.78032e-07 6.3653e-07 3.26221e-06 -1.3433e-10 
7.94838e-07 3.28525e-06 -6.10485e-07 6.25605e-07 3.009e-06 2.93178e-08 6.22063e-07 3.52339e-06 1.74176e-07 
-3.22419e-07 3.40739e-06 -4.26988e-08 8.14838e-07 3.30982e-06 9.36056e-07 1.64297e-07 2.93796e-06 6.30817e-07 
5.26353e-07 3.041e-06 2.83976e-07 8.4856e-07 3.37243e-06 1.03267e-07 1.63515e-07 3.0979e-06 7.11269e-07 
5.25892e-07 3.54458e-06 6.75274e-07 -2.18307e-08 2.96706e-06 4.25226e-07 -2.88793e-07 2.96272e-06 3.30733e-07 
-7.95514e-07 3.59305e-06 2.70573e-07 -6.39773e-07 3.77289e-06 -6.98112e-08 -5.09823e-07 4.36006e-06 1.11022e-06 
1.17596e-06 4.56356e-06 -9.11199e-07 -6.506e-08 4.67407e-06 -9.01602e-07 2.11686e-06 6.44365e-06 -1.3496e-06 
1.79626e-06 5.183e-06 -1.04875e-06 1.71186e-06 5.51829e-06 -2.10325e-06 6.31826e-07 4.52753e-06 -2.85238e-07 
-2.97194e-07 4.49734e-06 -2.50282e-07 -2.29059e-07 5.18677e-06 3.47719e-07 9.35256e-08 3.85381e-06 1.20356e-06 
-4.42503e-07 2.67213e-06 5.06961e-07 1.18123e-06 5.81928e-06 -8.95291e-07 2.20785e-06 3.22959e-06 -4.23949e-07 
2.97667e-07 4.0604e-06 2.20646e-07 4.68917e-07 4.65101e-06 1.92375e-06 8.31838e-07 4.48245e-06 3.61093e-07 
3.78028e-08 4.76127e-06 1.29006e-07 4.78871e-07 4.1282e-06 1.0385e-06 -2.26792e-07 2.58297e-06 5.98811e-07 
-1.72755e-07 3.10671e-06 9.11611e-07 1.19692e-06 4.8406e-06 5.94424e-07 8.68853e-07 4.50591e-06 1.45393e-06 
1.50623e-07 3.89769e-06 4.08596e-07 8.2974e-09 3.9884e-06 -8.85606e-09 -1.90707e-07 5.62039e-06 3.92571e-07 
4.93777e-07 4.77177e-06 1.05509e-06 2.06682e-07 4.74896e-06 8.91817e-07 1.83386e-08 4.82445e-06 3.75022e-07 
4.57593e-07 4.11463e-06 -2.19221e-07 2.25762e-07 5.01367e-06 1.7231e-07 1.3416e-06 7.95068e-06 -2.39554e-07 
-1.66206e-06 1.52397e-05 -2.90656e-07 8.15815e-08 5.11959e-06 1.37218e-06 8.90846e-07 4.95278e-06 2.05588e-07 
-7.62927e-07 9.65812e-06 3.46816e-06 1.99759e-06 1.41919e-05 -5.24282e-06 1.04093e-06 9.90895e-06 -1.47244e-06 
9.10334e-07 7.85382e-06 -1.52897e-06 -4.94884e-07 4.81204e-06 4.04483e-09 -9.43633e-07 7.14298e-06 4.08037e-06 
-2.6032e-06 -2.75649e-07 3.08609e-07 4.07828e-06 7.84065e-06 -1.64455e-06 4.15472e-07 7.33621e-06 1.50004e-06 
3.15275e-06 9.33479e-06 1.22067e-06 1.43619e-06 4.98424e-06 4.70732e-07 -4.53385e-07 6.00247e-06 -2.18509e-07 
2.5889e-06 4.41813e-06 1.16595e-06 9.03233e-07 6.10394e-06 1.98672e-07 4.39143e-07 5.00214e-06 9.69188e-07 
1.08233e-06 4.88371e-06 1.2741e-06 -5.77064e-06 7.47793e-06 -1.98224e-06 6.06046e-07 6.47937e-06 1.64657e-06 
2.59654e-07 6.05406e-06 6.13619e-07 -4.44335e-07 6.05908e-06 7.92566e-07 7.8002e-06 9.5142e-06 -4.60023e-08 
-2.4863e-06 1.04806e-05 3.25245e-06 9.01554e-07 4.85388e-06 -4.02885e-07 1.1185e-06 5.64369e-06 7.89713e-07 
3.55901e-06 7.34771e-06 1.31309e-06 3.18397e-06 7.58737e-06 1.24078e-06 4.1767e-06 5.29915e-06 2.35431e-07 
-2.04291e-06 7.49988e-06 2.4741e-06 1.52996e-06 9.06856e-06 -1.44521e-06 1.61062e-06 7.17494e-06 8.68691e-07 
-2.33743e-06 9.70896e-06 1.71508e-06 -1.67958e-06 4.29759e-06 4.11888e-07 
f 3 167 double
1.90028e-27 -9.07539e-23 0 -1.56535e-10 -1.22297e-10 3.2989e-11 5.33064e-24 5.24859e-24 0 
-1.44796e-10 -1.28013e-10 1.73061e-11 -7.00832e-11 -5.59928e-11 -7.77103e-12 -1.31241e-10 -9.81887e-11 2.85619e-11 
-8.12043e-11 -4.37532e-11 -1.15382e-12 -1.5478e-10 -1.05154e-10 2.18899e-11 -1.64922e-10 -1.38286e-10 -1.38634e-12 
-9.22678e-11 -9.32918e-11 2.72782e-12 -8.26812e-11 -7.69053e-11 8.31098e-12 -1.37349e-10 -1.39318e-10 9.23082e-12 
-5.03503e-11 -4.64041e-11 1.59061e-11 -1.30704e-10 -9.16145e-11 3.40686e-11 -5.6702e-11 -3.72644e-11 -9.66592e-12 
-1.38738e-10 -1.19236e-10 5.51847e-12 -1.2763e-10 -1.03909e-10 1.06201e-11 -8.42415e-11 -7.69603e-11 7.94459e-12 
-6.46005e-11 -6.36815e-11 -1.30969e-11 -1.32712e-10 -1.26736e-10 -1.02582e-11 -7.79229e-11 -6.67564e-11 4.05192e-12 
-7.86002e-11 -6.41975e-11 4.62747e-12 -6.82797e-11 -6.31085e-11 -9.07559e-12 -8.00149e-11 -7.20262e-11 -5.39416e-12 
-1.2411e-10 -1.31854e-10 4.61449e-11 -1.20824e-10 -1.17232e-10 1.91378e-11 -8.87648e-11 -5.06434e-11 1.53315e-11 
-1.35972e-10 -1.08269e-10 3.922e-11 -5.78962e-11 -6.05368e-11 1.70497e-11 -1.41452e-10 -1.20794e-10 -1.26712e-12 
-1.30514e-10 -1.20601e-10 2.15255e-12 -6.319e-11 -5.81025e-11 -6.43116e-12 -1.34727e-10 -1.15481e-10 1.48114e-11 
-6.42815e-11 -5.0654e-11 9.38344e-12 4.06239e-24 1.10448e-23 0 -1.16706e-10 -9.80407e-11 1.17691e-11 
-1.32347e-10 -1.30293e-10 3.36274e-11 -5.25568e-11 -5.39962e-11 -2.55594e-13 -1.47414e-10 -1.1537e-10 1.7369e-11 
-6.23444e-11 -6.05399e-11 1.87653e-11 -1.19169e-10 -7.36823e-11 1.10286e-11 -1.3009e-10 -1.04437e-10 1.37691e-11 
-6.95402e-11 -4.80008e-11 1.36269e-11 -7.28741e-11 -4.87241e-11 1.8245e-11 -1.51879e-10 -7.45701e-11 2.12143e-11 
7.09158e-25 1.3828e-24 0 -1.93245e-10 -1.38007e-10 4.54611e-11 -1.6507e-10 -1.47913e-10 3.93317e-11 
-1.63411e-10 -1.262e-10 5.54158e-11 -1.67466e-10 -1.36029e-10 5.1793e-11 -1.92984e-10 -1.92028e-10 5.81941e-11 
-1.7273e-10 -1.65866e-10 1.1338e-11 -1.70632e-10 -1.03362e-10 1.80648e-11 -1.69176e-10 -1.59457e-10 5.1398e-12 
-2.27976e-10 -2.10143e-10 4.35906e-11 -2.39671e-10 -1.50394e-10 6.31765e-11 -1.86892e-10 -1.66283e-10 1.28995e-11 
-1.52261e-10 -1.49746e-10 1.20189e-12 -1.98646e-10 -1.98586e-10 2.03972e-11 -1.75208e-10 -1.38105e-10 2.17991e-11 
-1.69036e-10 -1.54727e-10 1.18649e-11 -1.72035e-10 -1.47399e-10 1.99771e-11 -1.45708e-10 -1.69732e-10 -1.25204e-11 
-1.65649e-10 -1.6955e-10 -3.26836e-12 -1.65171e-10 -1.29256e-10 3.96798e-13 -1.89185e-10 -1.423e-10 8.97088e-13 
-1.6342e-10 -1.37486e-10 3.32554e-11 -1.60179e-10 -1.27445e-10 2.53044e-12 -1.55883e-10 -1.65098e-10 2.51333e-11 
-1.8236e-10 -1.17248e-10 4.09133e-11 -1.71349e-10 -1.407e-10 5.24337e-11 -1.97579e-10 -1.74325e-10 6.19746e-11 
-2.53349e-10 -1.92228e-10 1.28613e-10 -2.41983e-10 -1.80006e-10 7.59084e-11 -2.46137e-10 -1.93613e-10 -5.63018e-13 
-2.19779e-10 -1.62017e-10 6.11169e-11 -2.7521e-10 -1.93093e-10 2.78627e-11 -2.29937e-10 -1.8437e-10 3.46666e-11 
-2.61336e-10 -1.74101e-10 2.8097e-11 -2.45503e-10 -2.14766e-10 9.46911e-11 -2.82798e-10 -2.15743e-10 3.19071e-11 
-2.3415e-10 -1.93142e-10 7.81964e-11 -2.90905e-10 -2.26948e-10 6.45867e-11 -2.50376e-10 -1.90591e-10 4.4129e-11 
-2.2948e-10 -2.04173e-10 2.80332e-12 -2.24243e-10 -1.99579e-10 1.20196e-11 -2.27048e-10 -1.78849e-10 3.56626e-11 
-2.44186e-10 -1.85587e-10 8.74811e-11 -2.26182e-10 -1.61766e-10 1.06369e-11 -2.60285e-10 -2.17696e-10 4.55834e-12 
-3.00182e-10 -1.65986e-10 -5.21232e-12 -2.64044e-10 -2.27961e-10 -2.90432e-12 -1.99061e-10 -1.6561e-10 7.82186e-12 
-2.24103e-10 -1.81144e-10 4.23864e-11 -2.4238e-10 -1.77517e-10 1.96463e-11 -2.12731e-10 -1.73751e-10 5.0668e-11 
-2.25519e-10 -2.01042e-10 4.11375e-11 -2.26508e-10 -1.65101e-10 1.3143e-11 -2.25455e-10 -1.78219e-10 3.50228e-11 
-2.78469e-10 -1.47302e-10 5.04294e-11 -2.77977e-10 -2.51218e-10 4.93028e-11 -3.13248e-10 -3.06352e-10 1.21004e-10 
-3.34214e-10 -2.91401e-10 1.76353e-10 -2.83481e-10 -2.35734e-10 1.17321e-11 -3.30968e-10 -3.19345e-10 1.75375e-10 
-3.65196e-10 -2.647e-10 1.17446e-10 -3.6992e-10 -3.38885e-10 2.31495e-10 -3.32637e-10 -2.73274e-10 5.71376e-11 
-2.90474e-10 -2.03424e-10 4.57256e-11 -3.63666e-10 -1.96462e-10 -1.80983e-11 -2.7252e-10 -2.26246e-10 2.63567e-11 
-3.12515e-10 -1.72914e-10 1.84717e-11 -3.82091e-10 -3.12738e-10 1.14834e-10 -3.24441e-10 -2.46152e-10 1.03499e-10 
-2.69699e-10 -2.00416e-10 2.05874e-11 -3.38952e-10 -2.26208e-10 -2.28438e-12 -2.67132e-10 -2.34901e-10 6.01088e-12 
-2.77702e-10 -2.54434e-10 -6.14137e-12 -2.61928e-10 -2.7642e-10 1.53515e-11 -1.95452e-10 -1.46809e-10 2.3355e-12 
-2.01586e-10 -1.70801e-10 6.03508e-12 -2.74989e-10 -2.41941e-10 -4.99275e-12 -2.93558e-10 -2.01542e-10 5.74171e-11 
-2.82364e-10 -2.47888e-10 3.1227e-11 -3.13119e-10 -2.25697e-10 2.6217e-11 -2.33721e-10 -3.20496e-10 6.3817e-11 
-2.40459e-10 -3.01882e-10 7.88705e-12 -2.8764e-10 -2.86071e-10 9.08421e-11 -2.71402e-10 -2.24404e-10 5.11592e-11 
-2.40983e-10 -1.89279e-10 1.38504e-11 -2.6244e-10 -2.46458e-10 9.70319e-11 -4.48194e-10 -4.41499e-10 6.65752e-11 
-3.30554e-10 -6.76782e-10 1.8405e-10 -2.90701e-10 -3.17203e-10 1.29973e-10 -2.96136e-10 -2.60211e-10 4.79328e-11 
-1.60724e-10 -2.9983e-10 1.86326e-10 -5.33946e-10 -3.76395e-10 2.03108e-10 -4.81576e-10 -4.85257e-10 5.19162e-11 
-1.92904e-10 -3.2844e-10 1.78346e-10 -2.91994e-10 -2.44048e-10 7.08813e-11 -2.80963e-10 -2.85246e-10 -3.56022e-11 
-2.7086e-10 -2.029e-10 4.11764e-11 -5.11297e-10 -3.89119e-10 1.13453e-10 -2.89751e-10 -3.97053e-10 -5.65323e-11 
-4.70642e-10 -2.39998e-10 8.07194e-11 -2.66047e-10 -2.84434e-10 -4.95066e-12 -1.63058e-10 -1.56532e-10 9.95062e-11 
-3.82917e-10 -2.33361e-10 -4.29402e-11 -3.15935e-10 -2.97817e-10 -7.01277e-13 -3.17243e-10 -3.90589e-10 9.04224e-12 
-3.05715e-10 -4.81008e-10 -5.62703e-11 -5.9037e-10 -2.78141e-10 -6.64643e-11 -2.95455e-10 -2.2818e-10 1.5666e-11 
-2.93643e-10 -2.68411e-10 1.32464e-11 -2.8913e-10 -3.12916e-10 5.7653e-11 -9.23782e-10 -4.87004e-10 1.29539e-10 
-3.46991e-10 -1.96151e-10 1.93261e-10 -2.61458e-10 -2.5554e-10 6.34103e-11 -1.73619e-10 -2.78233e-10 2.26967e-11 
-5.45112e-10 -3.37651e-10 1.84947e-10 -5.66558e-10 -4.08075e-10 1.87304e-11 -5.32296e-10 -2.31229e-10 1.30769e-11 
-4.88132e-10 -4.06804e-10 -3.58341e-11 -3.54304e-10 -2.37486e-10 -7.29329e-11 -2.63504e-10 -2.4417e-10 -6.98628e-13 
-4.50142e-10 -1.97313e-10 2.05942e-10 -1.82819e-10 -2.58349e-10 4.63661e-11 
radius 1 167 double
0.0001 0.0001 0.0001 0.0001 0.0001 0.0001 0.0001 0.0001 0.0001 
0.0001 0.0001 0.0001 0.0001 0.0001 0.0001 0.0001 0.0001 0.0001 
0.0001 0.0001 0.0001 0.0001 0.0001 0.0001 0.0001 0.0001 0.0001 
0.0001 0.0001 0.0001 0.0001 0.0001 0.0001 0.0001 0.0001 0.0001 
0.0001 0.0001 0.0001 0.0001 0.0001 0.0001 0.0001 0.0001 0.0001 
0.0001 0.0001 0.0001 0.0001 0.0001 0.0001 0.0001 0.0001 0.0001 
0.0001 0.0001 0.0001 0.0001 0.0001 0.0001 0.0001 0.0001 0.0001 
0.0001 0.0001 0.0001 0.0001 0.0001 0.0001 0.0001 0.0001 0.0001 
0.0001 0.0001 0.0001 0.0001 0.0001 0.0001 0.0001 0.0001 0.0001 
0.0001 0.0001 0.0001 0.0001 0.0001 0.0001 0.0001 0.0001 0.0001 
0.0001 0.0001 0.0001 0.0001 0.0001 0.0001 0.0001 0.0001 0.0001 
0.0001 0.0001 0.0001 0.0001 0.0001 0.0001 0.0001 0.0001 0.0001 
0.0001 0.0001 0.0001 0.0001 0.0001 0.0001 0.0001 0.0001 0.0001 
0.0001 0.0001 0.0001 0.0001 0.0001 0.0001 0.0001 0.0001 0.0001 
0.0001 0.0001 0.0001 0.0001 0.0001 0.0001 0.0001 0.0001 0.0001 
0.0001 0.0001 0.0001 0.0001 0.0001 0.0001 0.0001 0.0001 0.0001 
0.0001 0.0001 0.0001 0.0001 0.0001 0.0001 0.0001 0.0001 0.0001 
0.0001 0.0001 0.0001 0.0001 0.0001 0.0001 0.0001 0.0001 0.0001 
0.0001 0.0001 0.0001 0.0001 0.0001 
omega 3 167 double
1.05575 0.00126492 -1.27009 0.00193011 0.00350104 -0.00612555 -0.123858 -0.132961 0.448035 
-0.00147742 0.00173713 0.00028438 -0.00628698 0.00211771 -0.00225166 -0.00434282 9.66849e-05 0.00167699 
-0.00262743 0.0053747 0.00196329 0.000683938 0.00287623 -0.00504105 0.00232966 -0.00225983 0.00475115 
-0.0133794 0.00254321 -0.00253812 -0.00893662 0.00532461 -0.00491914 0.00505639 -0.00361939 9.71052e-05 
-0.0031576 0.00168777 0.000643331 -0.0036169 -0.00400945 0.00351891 -0.00217454 -0.00132945 0.00207216 
-0.00623266 0.00314814 0.00276155 -0.00073271 -0.00254564 -0.000375036 -0.00855838 0.000676651 0.000881218 
-0.00694044 0.000752205 0.000698633 -0.00270393 -0.00120647 -0.000966738 -0.00435974 0.00567672 0.00321097 
0.009199 -0.00589192 0.00308012 -0.00769509 0.00195369 0.00335983 -0.00732698 0.00622652 -0.00334834 
-0.000108876 -0.00298332 0.00267543 -0.000439452 -0.00131815 -0.00162262 -0.0102164 0.00126149 0.000704905 
0.00101942 -0.0047064 -0.00429144 -0.00464668 -0.00094157 0.000867953 0.00563389 0.00264426 0.00127873 
-0.00479621 0.00104183 0.00159309 -0.0558182 0.0127814 -0.157476 0.00315801 0.00372026 -0.0022519 
-0.00608424 -0.00183973 -0.0057843 0.207465 -0.250623 -0.0238202 -0.00617402 -0.00318657 -0.00166273 
-0.00882756 -0.00318102 0.00158466 -0.00419674 0.00544918 0.00151289 -0.00242422 0.00274235 -0.00185672 
-0.00962094 -0.0005019 0.00451637 -0.0130912 0.00261946 -0.00516586 -0.00222439 -0.0070838 0.00289515 
-0.00223011 0.00370139 0.000701547 -0.00549255 0.00239749 -0.001363 -0.00103273 -0.00224668 -0.00235004 
0.0233923 0.113097 -0.0367321 0.00344101 0.000616171 0.00728523 -0.00242366 -0.000618061 -0.00496557 
-0.00369234 -0.006457 0.00364326 -0.0043485 0.00654248 -0.00318106 -0.0053854 0.00131493 -0.00372213 
-0.00653893 -0.00186507 -0.00213731 0.000123535 -0.00526469 0.00109992 -0.00588666 0.00267405 -0.00311024 
0.00681202 -0.00803632 -0.000197226 -0.0109057 0.0100133 -0.00194302 0.00267294 -0.00592109 0.00299103 
-0.00951782 0.000302547 -0.00201103 -0.00820668 0.00592236 0.000379019 0.000623184 0.00552753 0.00446114 
-0.00157644 -0.000796133 0.00119016 -0.00442908 -0.00120483 -0.0035714 0.00713223 -0.00155389 0.00328705 
-0.00432689 0.00298651 0.00243544 0.00109003 0.00712414 0.00390754 -0.00702571 -0.00127734 0.00224078 
0.00137542 0.00119701 0.00655938 -0.00342094 -0.0074709 0.000577301 0.0016509 0.00183479 0.00326866 
-0.00238381 -0.00163284 0.00990061 -0.00661761 -6.93657e-05 -0.00983233 -0.00738213 0.00600034 -0.000478177 
-0.00519086 0.0102488 -0.00299875 -0.00275044 -0.00659614 -0.0036529 0.00964822 -0.0114616 -0.00740204 
-0.00361597 0.00237284 -0.00464108 -0.0095311 -0.00327896 0.00340356 0.000963063 0.00122297 0.00539981 
-0.00376674 -0.0105508 -0.00867383 0.00303895 -0.0154243 -0.00132354 -0.00134583 0.000156646 -0.00266927 
-0.00983064 0.00736691 -0.00158843 -0.0144944 0.0103146 -0.00464025 -0.00136755 -0.0125266 -0.00486996 
-0.000756202 0.00482831 0.000685263 -0.000153463 -0.0016765 0.000614561 0.00285614 0.00432785 0.00147269 
0.0058121 -0.00480475 0.00453237 -0.00465819 -0.0023215 -0.00226187 -0.00647697 0.00216503 -0.0008968 
-0.00714756 -0.0119781 -0.00941945 0.00230032 0.00327154 -0.000935437 0.0026349 -0.0031239 0.004313 
0.00643665 0.000143397 -0.0013294 -0.00218216 0.00748208 0.00372767 0.00688621 0.00166817 0.00560657 
-0.00442987 0.000167865 0.00201526 0.00270802 0.00356303 0.00454615 -0.00781025 -0.00632606 -0.00160635 
-0.00695067 -0.014763 0.0101349 -0.0122915 0.00688826 0.0100424 -0.00567374 0.00421004 0.00816107 
-0.0165118 0.00266031 -0.0159342 0.00302904 0.00330214 0.00699467 -0.0383743 0.00925765 -0.0599921 
0.00678043 0.0197396 0.0505595 0.000265762 0.0109951 0.039247 0.00468754 -0.0120257 0.00683739 
0.0016004 0.0076814 -0.00643166 -0.00698617 -0.00502831 -0.000472634 -0.0108564 0.00514243 0.000291443 
0.00493263 -0.0128592 -0.00901257 0.00442064 -0.0190902 -0.0305718 -0.00701957 0.0203361 0.000961752 
-0.00521436 -0.00276609 0.00253653 0.0217402 0.00407614 -0.00963931 -0.00173295 0.00580692 -0.00446859 
-0.0138699 -0.015896 -0.00567006 -0.00660042 -0.00668037 0.00344018 0.00843342 -0.00848775 0.0108427 
-0.00719315 -0.00149142 -0.00682831 -0.0127041 -0.0045663 0.00151481 -0.0217762 0.00479734 -0.00172957 
0.00357851 -0.00686681 -0.000905926 0.00729207 0.0132287 0.00336282 -0.0245077 0.00164547 0.00756192 
-0.00314859 0.00670109 -0.00838908 -0.00123067 0.00112048 0.00683962 0.00435502 0.0042809 -0.00739585 
-0.00620725 0.00168577 0.005539 -0.0163034 -0.00808644 -0.00768124 -0.00952153 0.00729097 0.1469 
-0.102675 -0.0393186 -0.0872359 0.0034128 -0.00310438 0.000969915 -0.00827614 0.0156559 -0.00756442 
-0.0525341 -0.00162543 -0.00876061 -0.0957854 0.0439474 0.0360199 -0.0126105 0.00458543 -0.141681 
-0.0118948 -0.0277621 -0.00906285 -0.000707765 -0.00094736 0.018862 -0.122806 -0.137561 -0.030435 
0.0601468 -0.0314596 -0.00628654 0.00560988 0.021613 0.0637817 0.0272673 -0.0298086 -0.0226561 
-0.0681704 0.0454284 0.0449329 -0.00222689 -0.0110023 0.00784981 -0.00244582 -0.00460447 -0.0298841 
-0.0112759 0.00769729 0.0282883 -0.0106547 0.0157675 0.0332106 0.00668947 0.00727263 -0.00526592 
-0.0415972 0.0259401 0.00229244 -0.0244399 -0.0957603 -0.0371501 -0.0270074 -0.00903072 -0.00866151 
0.00566909 0.00289366 0.0113857 0.0178845 -0.00372982 -0.0122944 -0.0182796 0.0746624 -0.126198 
-0.112524 -0.0470582 -0.0203385 0.000348215 0.00698271 0.0107638 -0.00565411 0.015618 -0.0353577 
0.198298 0.141893 0.119426 -0.00717721 -0.0600855 0.102597 0.00957783 0.0100717 -0.0190905 
-0.0167729 -0.0415279 0.0171781 -0.0652385 0.0556584 0.0242832 -0.021777 0.0120293 -0.00647906 
0.108343 0.0830335 -0.00942069 0.0138871 -0.026828 0.00071327 
