# vtk DataFile Version 4.0
Generated by LIGGGHTS
ASCII
DATASET POLYDATA
POINTS 167 float
-0.000468788 -0.00041607 9.99794e-05 -0.000342012 -0.000459171 0.000262478 -0.000275361 -0.000363547 9.99732e-05 
-0.00014016 -0.000320704 0.000241189 -9.57227e-05 -0.000455062 9.99088e-05 4.79835e-05 -0.000417052 0.000233641 
0.000197044 -0.000390615 9.99615e-05 0.00038466 -0.000387205 0.000248421 -0.000443212 -0.000286763 0.000264863 
-0.000380658 -0.00019266 9.99058e-05 -0.000180743 -0.000185139 9.99067e-05 -0.000281903 -0.00015679 0.000269973 
-3.49456e-06 -0.000277631 9.9904e-05 6.35105e-05 -0.000193013 0.000268165 0.000177071 -0.00019167 9.99154e-05 
0.00029903 -0.000200845 0.000258039 0.000474213 -0.000110189 0.000220362 0.000408403 -0.000255521 9.98795e-05 
-0.000477726 4.19925e-05 9.99222e-05 -0.000380729 1.69565e-05 0.000272945 -0.000285629 -1.4891e-05 9.99529e-05 
-0.00010438 -5.61845e-05 0.000232301 -0.00010233 9.36918e-05 9.99268e-05 4.48533e-05 -4.16738e-05 9.99624e-05 
3.9057e-05 9.91086e-05 0.000241848 0.000185697 -3.67931e-05 0.000242652 0.000324161 -5.62108e-05 9.98555e-05 
0.000363485 5.44233e-05 0.000261711 -0.000332555 0.000179488 9.99171e-05 -0.000485738 0.000184652 0.000244533 
-0.000218699 0.000133108 0.000257634 -0.000170206 0.0002965 9.99525e-05 -6.89275e-05 0.00026505 0.000269465 
3.39647e-05 0.000240042 9.99047e-05 0.00018125 0.000104656 9.99794e-05 0.000129691 0.000288003 0.000268759 
0.000343726 0.000287264 0.000263365 0.000370238 0.000171899 9.99731e-05 -0.00032479 0.000302604 0.00025721 
-0.000323865 0.000425915 9.98921e-05 -0.000494922 0.000322291 9.98834e-05 -0.000174075 0.000433511 0.000246222 
7.2177e-05 0.000436316 9.9926e-05 0.000232635 0.000317015 9.9876e-05 0.00021907 0.000463684 0.000235098 
0.000367058 0.000469023 9.99794e-05 0.000485121 0.000440292 0.000260025 -0.000483267 -0.000424644 0.000404024 
-0.000276044 -0.000318074 0.000387868 -0.000166028 -0.000480485 0.000426531 -1.81261e-05 -0.000327088 0.000399508 
0.000108932 -0.00045794 0.000481523 0.00020827 -0.000359772 0.00033849 -0.000435311 -0.000136563 0.000396629 
-9.58655e-05 -0.000152458 0.00045815 0.000150946 -0.000202366 0.000447697 0.000407057 -0.000257912 0.000416262 
-0.000233118 -1.63064e-05 0.000403589 5.0571e-05 -3.47092e-05 0.000389955 0.000294212 -6.83095e-05 0.000407628 
-0.000353 0.000167394 0.000401736 -0.000202023 0.000297808 0.000414959 -8.19309e-05 0.000114549 0.0004023 
4.59362e-05 0.00026121 0.000448301 0.000203431 0.000125225 0.000358473 0.000452612 0.000127102 0.000425781 
-0.000363365 0.000415894 0.000417326 -6.93045e-07 0.000432118 0.000355527 0.000240998 0.000306598 0.000433838 
0.000337433 0.000485058 0.00039483 0.000457366 0.000327537 0.000422844 -0.000335741 -0.000430367 0.000542091 
-0.000155939 -0.000320859 0.000547697 -5.5602e-05 -0.000487736 0.000593064 4.60746e-05 -0.00030019 0.000587064 
0.000284498 -0.000372592 0.000524889 0.000165477 -0.000436711 0.000672191 0.000494015 -0.000332623 0.0005801 
0.00036421 -0.000425594 0.000700499 -0.000333346 -0.000284646 0.000678968 -0.000415451 -0.000102323 0.00068114 
-0.000284133 -0.000169364 0.000523192 -2.64155e-05 -0.000122516 0.000643242 0.000266709 -0.000192723 0.000610426 
0.000434515 -0.000105716 0.000545243 -0.000409956 1.76493e-05 0.000521274 -0.000148903 2.25612e-05 0.000580654 
0.000141026 -4.30616e-05 0.00056812 0.000289899 8.61451e-05 0.000534474 0.000451578 7.88506e-05 0.000651893 
-0.000403457 0.00028037 0.000558794 -0.000305851 0.000118606 0.000658913 -0.000145448 0.000222243 0.000591245 
2.59487e-05 0.000119278 0.000587687 0.00019022 0.000213407 0.000652071 0.000379277 0.000255477 0.000592194 
-0.000225728 0.000407047 0.000580693 9.55443e-05 0.000381612 0.000599996 0.000287901 0.000433043 0.000581453 
0.000491578 0.000462023 0.000566836 -0.000466596 -0.000377497 0.000795611 -0.000261884 -0.000386505 0.000835516 
-9.22574e-05 -0.000351494 0.000734766 0.000220582 -0.000462151 0.000882551 -0.000323245 -0.00019555 0.000857693 
-0.000216854 -0.00012051 0.000705026 -0.000133842 -0.000244848 0.000898723 5.33586e-05 -0.00022762 0.000793436 
0.000243119 -0.000289877 0.000783591 0.000200605 -0.000110596 0.000861281 0.000426805 -0.000215966 0.000727955 
-0.000321105 3.81739e-06 0.000821943 -7.03368e-05 -6.79321e-05 0.000830521 8.94769e-05 2.15887e-05 0.00075021 
0.000284286 -1.75796e-05 0.00070531 0.000284313 6.93691e-05 0.000885386 0.000450577 -3.73113e-05 0.00081462 
-0.000441792 0.000162798 0.000798762 -0.000269564 0.000296931 0.000741739 -0.000112523 0.000112563 0.000755444 
-2.14848e-05 0.00028919 0.000733179 0.000148298 0.000212883 0.000847555 0.000347292 0.000232357 0.000788206 
-0.00035154 0.000477902 0.000719014 -0.000496681 0.000340445 0.000725164 -0.000422955 0.000440968 0.000902048 
-0.000139574 0.000312121 0.000892937 -0.000156646 0.000460923 0.000760399 3.99248e-05 0.000469115 0.000796072 
0.000215223 0.00037983 0.000760117 0.000382165 0.000421959 0.000861746 -0.000447051 -0.000383386 0.000994544 
-0.000256381 -0.000334006 0.00102921 -8.79931e-05 -0.000438905 0.000919242 8.13032e-05 -0.000339429 0.000956822 
-9.80108e-05 -0.000487075 0.00111306 0.000361147 -0.000464192 0.00102479 -0.000467635 -0.000222983 0.00111217 
-6.36247e-05 -0.000282243 0.00108219 4.14903e-05 -0.000144567 0.000977532 0.000241286 -0.000244828 0.00103059 
0.000396703 -0.000288993 0.000911673 -0.000437808 -8.08097e-05 0.000974733 -0.000352838 8.45436e-05 0.00104844 
-0.000212356 -7.28578e-05 0.00097123 6.8042e-06 9.25267e-05 0.000921516 -5.6545e-05 -6.1902e-06 0.00108349 
0.00035719 -8.8756e-05 0.000983778 0.000466588 9.54868e-05 0.00096329 -0.000330736 0.000265553 0.000929527 
-0.00018988 0.000123896 0.000939468 -1.45555e-05 0.000207749 0.00108356 0.000167072 0.000137737 0.00103225 
0.000280769 0.000291885 0.000974787 0.00047979 0.000292606 0.000994329 -0.000406935 0.000437444 0.00110136 
-0.000242964 0.000455058 0.000987931 4.71643e-05 0.00034789 0.00095494 9.73865e-05 -0.000446143 0.00112518 
0.000367056 -0.000322178 0.00116546 -0.000320009 -9.07547e-05 0.00113891 0.000430075 1.11631e-05 0.00114091 
-0.000404765 0.000245033 0.00115587 -0.000187091 0.00012945 0.00115091 0.000366069 0.000200353 0.00113079 
-0.000170355 0.000326756 0.00112303 0.000161687 0.000364626 0.00111803 
VERTICES 167 334
1 0 
1 1 
1 2 
1 3 
1 4 
1 5 
1 6 
1 7 
1 8 
1 9 
1 10 
1 11 
1 12 
1 13 
1 14 
1 15 
1 16 
1 17 
1 18 
1 19 
1 20 
1 21 
1 22 
1 23 
1 24 
1 25 
1 26 
1 27 
1 28 
1 29 
1 30 
1 31 
1 32 
1 33 
1 34 
1 35 
1 36 
1 37 
1 38 
1 39 
1 40 
1 41 
1 42 
1 43 
1 44 
1 45 
1 46 
1 47 
1 48 
1 49 
1 50 
1 51 
1 52 
1 53 
1 54 
1 55 
1 56 
1 57 
1 58 
1 59 
1 60 
1 61 
1 62 
1 63 
1 64 
1 65 
1 66 
1 67 
1 68 
1 69 
1 70 
1 71 
1 72 
1 73 
1 74 
1 75 
1 76 
1 77 
1 78 
1 79 
1 80 
1 81 
1 82 
1 83 
1 84 
1 85 
1 86 
1 87 
1 88 
1 89 
1 90 
1 91 
1 92 
1 93 
1 94 
1 95 
1 96 
1 97 
1 98 
1 99 
1 100 
1 101 
1 102 
1 103 
1 104 
1 105 
1 106 
1 107 
1 108 
1 109 
1 110 
1 111 
1 112 
1 113 
1 114 
1 115 
1 116 
1 117 
1 118 
1 119 
1 120 
1 121 
1 122 
1 123 
1 124 
1 125 
1 126 
1 127 
1 128 
1 129 
1 130 
1 131 
1 132 
1 133 
1 134 
1 135 
1 136 
1 137 
1 138 
1 139 
1 140 
1 141 
1 142 
1 143 
1 144 
1 145 
1 146 
1 147 
1 148 
1 149 
1 150 
1 151 
1 152 
1 153 
1 154 
1 155 
1 156 
1 157 
1 158 
1 159 
1 160 
1 161 
1 162 
1 163 
1 164 
1 165 
1 166 

POINT_DATA 167
FIELD FieldData 7
id 1 167 int
4 46 28 51 7 18 9 20 44 
19 27 47 1 29 11 34 40 15 
3 42 14 30 24 10 23 38 26 
49 12 32 35 25 37 13 16 31 
45 2 33 17 21 36 8 5 22 
6 39 63 62 58 54 77 41 52 
67 73 56 53 55 61 60 75 64 
68 43 57 71 48 69 50 59 90 
65 94 89 72 96 86 106 97 88 
76 99 81 87 66 79 85 74 101 
84 102 80 92 93 78 91 83 82 
70 131 126 105 124 118 104 125 112 
110 114 98 109 116 119 100 130 111 
120 115 123 95 122 107 113 103 138 
129 108 132 117 133 146 151 144 139 
161 142 162 158 147 150 134 121 149 
135 127 152 137 140 128 136 155 143 
141 145 159 153 148 156 165 160 154 
166 157 163 164 167 
type 1 167 int
1 1 1 1 1 1 1 1 1 
1 1 1 1 1 1 1 1 1 
1 1 1 1 1 1 1 1 1 
1 1 1 1 1 1 1 1 1 
1 1 1 1 1 1 1 1 1 
1 1 1 1 1 1 1 1 1 
1 1 1 1 1 1 1 1 1 
1 1 1 1 1 1 1 1 1 
1 1 1 1 1 1 1 1 1 
1 1 1 1 1 1 1 1 1 
1 1 1 1 1 1 1 1 1 
1 1 1 1 1 1 1 1 1 
1 1 1 1 1 1 1 1 1 
1 1 1 1 1 1 1 1 1 
1 1 1 1 1 1 1 1 1 
1 1 1 1 1 1 1 1 1 
1 1 1 1 1 1 1 1 1 
1 1 1 1 1 1 1 1 1 
1 1 1 1 1 
i 3 167 int
1 1 0 0 1 0 0 1 0 
0 0 0 0 1 0 0 0 0 
-1 0 0 0 0 0 0 1 0 
0 0 0 0 0 0 0 0 0 
0 0 0 0 0 0 -1 0 0 
0 0 0 0 0 0 -1 0 0 
0 0 0 0 0 0 0 0 0 
0 0 0 1 0 0 0 0 0 
0 0 0 0 0 0 -1 0 0 
0 0 0 0 0 0 0 0 0 
0 0 0 1 0 0 0 0 0 
0 0 0 0 0 0 0 0 0 
0 0 0 0 0 0 0 0 0 
0 -1 0 1 -1 0 0 -1 0 
0 -1 0 0 0 0 0 0 0 
0 -1 0 0 0 0 0 1 0 
1 0 0 0 0 0 0 0 0 
0 0 0 0 0 0 0 0 0 
0 0 0 0 0 0 0 0 0 
0 0 0 0 0 0 0 0 0 
0 0 0 0 0 0 0 0 0 
0 0 0 0 0 0 0 0 0 
0 0 0 0 0 0 0 0 0 
0 -1 0 0 0 0 0 0 0 
0 0 0 0 0 0 0 0 0 
0 0 0 0 0 0 0 0 0 
-1 0 0 0 0 0 0 0 0 
0 0 0 0 0 0 0 0 0 
0 0 0 0 0 0 0 0 0 
0 0 0 0 0 0 0 0 0 
0 0 0 0 0 0 0 0 0 
0 0 0 0 0 0 0 0 0 
0 0 0 0 0 0 0 -1 0 
-1 -1 0 0 0 0 0 0 0 
0 0 0 0 0 0 0 0 0 
0 0 0 0 0 0 0 0 0 
0 0 0 0 0 0 -1 0 0 
0 0 0 0 0 0 0 0 0 
0 0 0 0 0 0 0 0 0 
0 0 0 0 0 0 0 0 0 
0 0 0 0 0 0 0 0 0 
0 -1 0 1 0 0 0 0 0 
0 0 0 0 0 0 0 -1 0 
0 0 0 0 0 0 0 0 0 
0 0 0 0 1 0 0 0 0 
0 0 0 0 0 0 1 0 0 
0 0 0 0 0 0 0 0 0 
0 0 0 1 0 0 0 0 0 
0 0 0 0 0 0 0 0 0 
0 0 0 -1 0 0 0 0 0 
0 0 0 0 0 0 0 0 0 
0 0 0 0 -1 0 0 -1 0 
0 0 0 0 0 0 0 0 0 
0 0 0 0 0 0 0 0 0 
0 0 0 0 0 0 0 0 0 
0 0 0 0 0 0 
v 3 167 double
1.26478e-07 -0.000105564 5.53305e-15 3.60761e-05 -5.52669e-05 4.02063e-05 -8.3858e-05 -6.40191e-05 -5.86215e-06 
6.15723e-05 1.09595e-05 2.96532e-06 2.18897e-06 -9.20484e-06 -4.85571e-06 1.21813e-07 -2.17736e-05 5.71367e-06 
1.74266e-05 -2.82861e-05 -2.22012e-05 8.09191e-06 -3.92589e-05 -2.62267e-05 3.29587e-05 -3.76354e-05 2.20294e-05 
4.18008e-05 -1.44308e-05 1.75085e-05 2.69337e-05 6.36169e-06 4.19661e-06 2.8517e-05 -9.4511e-06 2.61735e-05 
1.46011e-05 -9.76458e-06 3.26234e-08 2.68517e-05 -4.14783e-05 -2.14413e-06 5.27943e-06 -2.86738e-05 5.66735e-06 
9.17153e-06 -3.78346e-05 1.36153e-05 2.30021e-05 -2.21404e-05 1.41401e-06 -2.68291e-06 -1.49356e-05 -2.2622e-06 
2.09492e-05 -8.55392e-07 7.15042e-06 3.16618e-05 -7.79266e-06 1.26753e-05 2.25661e-05 -1.26916e-05 -1.12456e-06 
-2.81023e-05 -3.98373e-06 -2.69207e-05 1.16143e-05 -1.69581e-05 -1.55161e-05 -1.1589e-05 -4.55257e-05 2.05694e-06 
8.00787e-06 -5.79727e-05 -1.0665e-05 1.53822e-05 -4.89463e-05 1.61529e-05 1.08896e-05 -1.97614e-05 1.32731e-05 
4.21005e-05 -3.81972e-05 1.72321e-05 2.42875e-05 -2.03288e-05 9.4167e-07 3.22139e-05 -7.45768e-06 -1.16746e-05 
2.87924e-05 -2.89555e-05 -1.31826e-05 5.92255e-06 -4.69595e-05 -8.19313e-06 3.87437e-05 -3.77251e-05 -3.47319e-05 
1.00097e-05 -2.88851e-05 -3.48121e-05 -1.2958e-05 4.58299e-05 9.85539e-12 3.51846e-06 -4.39356e-05 -6.26096e-05 
-1.17403e-05 -4.1754e-05 -4.04324e-05 -1.70275e-06 -2.06138e-06 -1.23337e-06 6.21155e-05 -2.34878e-05 -1.80704e-05 
-2.36183e-06 -2.76641e-05 -4.87379e-07 5.63881e-05 -1.31527e-05 -1.24284e-05 3.60224e-05 -3.84546e-05 -3.59964e-05 
-1.09198e-05 -1.07028e-05 -8.75924e-06 -1.53743e-05 -3.42063e-05 -3.00823e-05 1.16059e-05 -4.73582e-05 -5.01605e-05 
2.05028e-05 -0.000187096 -6.10676e-15 4.26398e-05 -1.13483e-05 -3.13622e-05 -9.61446e-06 -3.03884e-05 6.73442e-07 
8.39557e-05 -2.41914e-05 4.85042e-06 6.99491e-05 1.67761e-05 -5.43305e-05 6.46807e-05 2.33518e-05 3.77556e-05 
-1.37887e-05 -5.68381e-05 2.17625e-05 2.08378e-07 -4.78913e-05 1.98663e-05 1.01664e-05 -3.51465e-05 5.01678e-06 
2.08751e-05 2.91652e-05 -5.95748e-06 -6.96311e-05 -6.95374e-05 3.31917e-05 -1.49047e-05 -3.96867e-05 1.86451e-05 
5.12514e-05 1.84032e-07 3.75264e-05 3.44202e-05 1.07907e-05 3.04961e-05 7.12034e-05 9.42085e-06 -2.72713e-05 
6.68692e-05 -1.72932e-05 9.89614e-06 6.42151e-05 1.85219e-05 -1.93595e-05 2.74241e-05 9.69689e-06 -4.29179e-05 
1.44424e-05 -3.64787e-05 -9.39734e-05 1.3835e-05 -2.65321e-05 -1.49278e-05 5.44624e-05 2.05972e-05 4.80717e-06 
1.25739e-06 -1.76535e-05 -2.49125e-05 -4.78795e-06 -3.35348e-05 -3.91627e-05 -2.1451e-05 -4.54969e-05 -3.74911e-05 
-1.95131e-06 -6.06156e-05 -3.81765e-05 9.79597e-06 -5.66569e-05 -8.84015e-05 2.74676e-05 -3.30243e-05 6.3778e-05 
0.000109722 1.44929e-05 -5.76429e-05 4.45868e-05 -4.97374e-05 -0.00013058 -4.67881e-05 -4.55554e-05 4.17509e-05 
-6.76331e-06 -9.80478e-05 -1.40651e-05 7.78357e-05 -8.18938e-05 4.91762e-05 6.87232e-05 -1.02029e-06 3.73326e-05 
2.97547e-05 -7.67954e-06 3.29334e-05 4.23624e-05 1.71871e-05 0.000105039 1.572e-05 -2.80147e-05 2.72544e-05 
8.28737e-06 -1.32276e-05 -2.75108e-05 -5.32039e-05 -3.40532e-05 2.24874e-05 -3.64337e-06 -5.64355e-05 -2.74953e-05 
-4.83926e-06 -4.57376e-05 -7.80666e-05 6.18596e-05 -3.082e-05 1.73923e-05 3.97531e-05 3.014e-05 7.83989e-05 
-6.59114e-07 -2.51331e-05 2.98966e-05 5.5846e-05 -1.28272e-05 -2.4127e-05 0.000109868 -1.16561e-05 -1.57834e-05 
0.000115986 7.69311e-06 -6.47508e-06 5.47909e-05 -5.25016e-05 4.97952e-05 -1.80872e-05 -4.39139e-05 2.49555e-06 
5.64696e-05 1.98572e-05 8.04836e-06 -4.62734e-06 -6.17829e-05 -3.37651e-05 0.000110212 -6.52514e-05 -4.01222e-05 
-4.81711e-05 5.87759e-06 -2.19887e-05 -4.15302e-05 -0.000111226 -6.30643e-05 5.16993e-06 -3.06181e-05 -1.68427e-05 
9.95058e-06 -7.84172e-05 -1.93108e-05 2.72722e-05 -5.04197e-05 0.000201025 0.00012629 -8.66079e-06 -1.29477e-05 
0.000133924 -0.000114191 -8.44954e-05 4.67703e-05 -0.000131082 -0.00018287 0.000141626 -1.75199e-05 0.000178489 
1.81457e-05 -2.9855e-05 -3.38145e-05 0.000144506 -0.000161254 -3.92807e-05 2.20279e-05 -0.000119965 -7.05093e-05 
2.82083e-05 -2.14667e-05 -3.88456e-05 -3.1596e-05 -4.80031e-05 -6.81822e-05 -3.14921e-05 1.95161e-05 -5.91656e-05 
-1.4958e-05 -4.60944e-05 6.37167e-05 -9.05044e-05 -0.000141489 6.22904e-05 5.26844e-05 3.07803e-05 2.54795e-05 
5.89925e-05 -4.21998e-05 -7.10436e-05 -5.01572e-05 -5.10553e-05 -9.38356e-05 9.69434e-05 1.70746e-05 -4.69888e-05 
0.000183141 -5.5094e-05 8.40755e-05 1.22255e-05 -3.04931e-05 -7.03416e-06 2.46769e-05 -5.37253e-05 0.000244534 
2.82161e-05 -5.81619e-05 3.11605e-05 -0.000149763 -0.000145013 -8.01868e-05 1.45248e-05 -2.71633e-05 -3.33461e-05 
1.28729e-05 7.08511e-05 0.000161232 0.000206588 -2.96389e-05 3.91073e-05 -1.78869e-05 2.3259e-05 0.00027488 
-4.86838e-05 7.41633e-05 8.8279e-06 2.02321e-05 -8.64936e-05 -9.10203e-05 6.32713e-05 -9.52042e-05 -9.22404e-06 
2.48312e-05 -9.56278e-05 -0.000104624 6.10738e-05 -0.00012327 -8.4635e-05 -0.000471768 -0.000127891 0.000375614 
-6.05869e-05 -0.000767017 -0.000719625 8.04201e-06 -0.000109369 -0.000205523 1.35587e-05 -0.000240342 -0.000142773 
-0.00014142 -5.44827e-06 -0.000225794 0.000136999 8.12386e-05 -0.00030805 -0.000164383 -2.50368e-05 0.000138894 
-0.000430134 -0.00166204 -0.00013622 -6.20409e-05 -0.000162144 -6.96679e-05 -6.52888e-05 -8.81321e-05 -0.00047835 
-9.00551e-05 0.000136433 4.21464e-05 -0.000146189 -0.000105173 0.000207755 -0.000157585 4.11855e-05 0.00025922 
-0.000224932 -0.000567436 -1.47147e-05 -7.95258e-05 -0.000149447 2.32828e-05 -0.00022647 -0.000267628 -5.61704e-05 
-2.30236e-05 -0.000202999 -0.000385192 -4.86194e-05 -1.79432e-05 -2.39025e-05 0.000382695 9.74276e-05 3.49802e-05 
-2.9294e-05 -0.000194207 0.000308441 -0.000132639 7.74289e-05 -6.46139e-05 -3.87005e-05 -0.000175219 2.08155e-06 
7.369e-07 -0.000235057 -6.27447e-05 -4.29231e-05 -0.000240342 -0.000193679 4.80235e-05 0.00238282 0.00033312 
2.12928e-05 4.66656e-05 8.02387e-05 2.1094e-05 -9.2452e-05 -7.54458e-06 4.68672e-05 -0.000392815 -0.000306497 
-0.000434116 -0.000137806 -0.00012293 -4.36705e-05 -0.000488579 -0.000877614 0.00377233 -0.00273206 -0.000494573 
0.00727781 0.00244041 0.000612137 1.43255e-05 -1.88863e-06 -7.22533e-05 -0.0004779 -0.00393376 -0.00197473 
0.000129461 -0.000101761 -0.000293518 8.45423e-06 -0.00029525 -7.54297e-05 
f 3 167 double
7.57655e-26 -9.07539e-23 0 -9.79691e-09 -3.07077e-09 1.38832e-08 4.46737e-09 1.20802e-09 1.0031e-08 
-1.41761e-09 1.00189e-08 2.12646e-09 5.3854e-10 7.44368e-09 6.98295e-09 -4.654e-09 6.30797e-11 7.86727e-09 
-1.783e-09 -4.99297e-09 -8.02839e-10 -1.54529e-09 -7.02658e-09 3.83709e-09 -1.57868e-09 -1.61358e-09 9.96699e-09 
6.46938e-09 1.13256e-09 4.47403e-09 6.10163e-09 2.17298e-09 6.71103e-09 -2.86471e-09 -3.11423e-10 1.14117e-08 
4.81663e-09 -5.71897e-09 -5.8205e-11 5.01742e-09 -6.1211e-09 2.5187e-09 -1.87667e-09 -2.10042e-09 9.51376e-10 
-3.48866e-09 -5.34033e-09 7.93387e-10 -7.78378e-11 -4.32474e-09 1.85591e-09 -1.11743e-09 -5.92336e-09 8.5624e-11 
-4.01875e-10 -8.90394e-10 7.51765e-10 -3.80492e-10 7.78332e-10 6.01494e-09 5.17604e-09 4.49937e-09 4.27955e-09 
9.41185e-09 1.13207e-09 2.71429e-09 2.12607e-09 9.8158e-10 2.58071e-09 5.72385e-09 5.46046e-09 9.89828e-10 
4.54519e-09 3.29323e-09 5.78701e-09 1.02348e-09 -3.41097e-09 3.27411e-09 3.36128e-09 -4.57555e-09 1.20093e-09 
5.16904e-09 -5.35203e-09 4.28787e-09 -1.46701e-09 1.2022e-09 2.28126e-09 1.38789e-09 -2.50753e-10 6.6786e-09 
7.48812e-10 2.99184e-09 5.83936e-09 2.48813e-09 -3.67847e-09 7.27343e-10 1.66524e-09 2.90785e-09 5.34243e-09 
1.11207e-09 -3.35818e-09 2.01676e-09 -2.81119e-21 9.93953e-21 -6.42911e-15 8.77759e-09 -6.54599e-09 3.90351e-09 
6.19915e-09 1.3147e-09 1.06591e-08 8.80603e-10 3.13723e-10 -6.0488e-10 -1.39545e-09 1.96787e-09 4.70429e-09 
-1.80329e-09 2.26831e-09 3.7281e-09 2.30118e-09 -1.72966e-09 5.22238e-09 -7.02008e-09 3.19227e-09 1.19995e-08 
-2.40342e-09 -8.17516e-09 7.86155e-09 3.82598e-09 -2.33348e-09 1.38175e-09 6.94819e-09 -8.54914e-09 -9.87045e-10 
1.00211e-23 8.8458e-23 0 5.86189e-09 -6.60732e-09 1.57289e-08 -6.60912e-09 5.0847e-10 1.68882e-08 
7.40946e-09 -5.98083e-09 1.38494e-08 -7.68562e-09 -8.55814e-09 1.64138e-08 -3.15948e-09 1.21606e-08 9.56511e-09 
-1.69483e-09 1.87641e-09 9.99769e-09 -8.00143e-10 -2.10913e-09 8.7375e-09 -4.11165e-09 -5.40417e-09 4.97344e-09 
-5.66831e-10 6.51295e-09 1.74714e-08 -9.77167e-11 3.58673e-10 6.6703e-09 -1.22477e-08 -5.92959e-10 5.00072e-09 
-9.01805e-10 3.71793e-09 1.00781e-08 -4.10298e-10 5.82985e-09 3.71802e-09 -3.79321e-09 -1.50396e-08 6.52072e-09 
4.25899e-09 -9.17965e-10 8.61243e-09 -4.31554e-09 8.35161e-09 7.72044e-09 8.74122e-09 1.6863e-09 5.8887e-09 
2.02117e-08 2.76649e-09 7.38234e-09 1.22351e-08 -8.09324e-09 2.50072e-09 1.15381e-08 -1.6835e-08 7.15502e-09 
1.47256e-09 1.7986e-09 1.68472e-08 3.00601e-09 1.56778e-10 1.09239e-08 5.10549e-09 -8.38535e-09 1.02598e-08 
-4.89379e-10 -2.81537e-09 5.57252e-09 7.96938e-10 6.23672e-09 2.2993e-08 5.60816e-09 -4.45993e-09 2.33225e-08 
5.91114e-09 -7.60479e-09 6.05605e-09 -3.23758e-09 -1.05172e-08 1.58128e-08 -2.29194e-08 -7.11745e-10 -3.73903e-09 
-1.0987e-08 -1.36111e-09 6.03711e-09 4.79749e-09 -3.13361e-08 -4.11039e-10 -5.86576e-09 6.29692e-09 7.13159e-09 
-1.3115e-09 4.20357e-09 4.64234e-09 -1.44874e-11 -9.78567e-09 1.14649e-08 6.65435e-09 -5.28764e-09 -2.25724e-09 
-3.60903e-09 -1.59944e-08 8.9334e-09 2.08026e-09 3.52771e-09 3.46989e-09 -9.03774e-09 -1.63463e-09 1.0081e-08 
-2.92968e-09 -6.06556e-09 2.5433e-09 5.17945e-09 -8.48794e-09 4.37521e-09 9.22865e-09 1.41497e-08 5.33955e-09 
-8.39674e-09 4.2483e-09 5.23109e-09 8.84315e-09 -4.76768e-09 1.06153e-09 5.82544e-09 4.55667e-09 -3.43548e-09 
1.16031e-08 -2.31179e-09 1.80105e-08 9.78528e-10 3.73956e-09 8.52806e-09 -1.3181e-08 1.68844e-08 4.10783e-09 
9.70706e-09 1.69492e-08 1.1321e-08 2.33752e-08 9.23794e-09 5.52008e-09 2.09336e-09 -4.94982e-09 1.71941e-08 
-2.63097e-08 1.25613e-08 1.94189e-08 6.81597e-09 4.02051e-10 1.35544e-08 -2.34197e-09 1.10789e-09 1.40692e-08 
1.1661e-08 8.1563e-09 1.85253e-08 -8.4542e-10 -3.25758e-08 8.94868e-09 -8.05498e-09 4.16878e-09 1.90111e-08 
-7.91134e-09 1.31746e-10 4.99122e-09 -3.56049e-10 -1.54227e-08 2.28911e-08 -2.86085e-09 1.90042e-09 -3.21983e-09 
-9.10721e-09 -1.30971e-08 1.25477e-08 -1.18346e-09 -7.22096e-09 -2.36161e-09 -9.02097e-10 -1.04738e-08 4.4839e-09 
8.05042e-09 -1.44351e-08 7.85812e-09 7.74276e-09 -8.35685e-09 3.98516e-09 1.28138e-08 -1.15874e-08 1.51299e-08 
3.18587e-09 -7.4795e-09 4.59472e-09 5.49973e-09 -3.07819e-10 7.91065e-09 2.94019e-09 -7.70312e-09 -2.47886e-09 
3.31939e-09 3.19072e-09 2.54398e-09 9.61949e-09 -2.25442e-09 1.96907e-08 1.1346e-09 1.28024e-09 -1.21329e-08 
-4.7482e-10 -1.31437e-08 4.78358e-09 -1.26589e-08 7.09795e-09 2.28745e-08 -1.55104e-08 -3.13708e-09 -2.78237e-10 
-1.40373e-08 3.76373e-10 1.08313e-08 -1.41693e-09 1.29687e-08 1.3334e-08 2.0655e-08 -7.87924e-10 2.60325e-08 
-1.86576e-08 1.54069e-08 2.58267e-08 9.87998e-09 9.96948e-09 2.08621e-08 7.1569e-09 -1.05909e-08 2.14783e-08 
1.60296e-08 2.01921e-08 1.60092e-08 -1.22157e-08 3.02667e-09 1.39995e-08 6.68492e-09 -2.33494e-08 9.65356e-09 
8.50291e-09 -3.61427e-09 1.92446e-08 2.30603e-09 -1.5301e-08 3.11627e-08 -3.1432e-08 -2.18148e-08 -1.02833e-08 
-6.45771e-09 -1.85862e-08 -2.51873e-08 -9.59607e-09 -3.78024e-09 2.09708e-08 -6.91816e-09 -1.16478e-08 5.61603e-09 
3.21238e-08 1.18774e-09 5.27997e-08 5.01075e-09 -7.16832e-09 2.76786e-08 -2.93786e-08 -4.39363e-09 -4.11586e-08 
-6.91059e-09 -3.65518e-09 -1.61521e-09 1.22048e-08 -2.12467e-09 4.6831e-09 -4.30851e-09 -1.37985e-08 -2.59374e-08 
-5.58557e-09 -1.27859e-08 1.97394e-08 -1.12713e-08 7.76566e-09 -3.0922e-08 2.21064e-09 -3.85997e-09 2.17488e-09 
-2.02522e-09 -1.99052e-08 1.77408e-09 -1.46161e-08 1.41435e-08 -2.27142e-09 -6.3251e-10 -6.31595e-09 6.18701e-09 
1.28347e-10 5.83064e-09 -1.80568e-08 9.25538e-09 1.05246e-09 -4.5269e-09 1.88551e-10 -9.36596e-10 2.09664e-08 
6.4286e-09 2.05357e-09 8.07716e-09 4.73437e-08 -2.28824e-08 3.14657e-09 -1.87373e-08 -2.95721e-08 -3.17054e-10 
-1.2617e-08 -2.44225e-09 1.82158e-08 -1.2756e-08 -2.03357e-08 2.54734e-08 2.26042e-09 -1.16463e-08 -5.85638e-08 
1.76676e-08 2.43085e-08 8.66256e-09 1.73715e-08 5.92216e-09 6.23374e-09 -3.99677e-09 1.68263e-09 8.83096e-09 
1.96287e-08 1.92268e-08 -3.16528e-08 5.36886e-08 2.28399e-08 2.15121e-08 3.48939e-08 2.61167e-08 2.72731e-08 
-1.1695e-08 1.5078e-08 -7.77033e-08 -2.61842e-08 -1.76219e-08 2.39329e-08 2.70789e-09 1.79994e-08 -1.96623e-08 
-1.06693e-09 -5.95791e-10 1.57694e-08 -1.429e-08 1.18995e-08 2.31727e-08 
radius 1 167 double
0.0001 0.0001 0.0001 0.0001 0.0001 0.0001 0.0001 0.0001 0.0001 
0.0001 0.0001 0.0001 0.0001 0.0001 0.0001 0.0001 0.0001 0.0001 
0.0001 0.0001 0.0001 0.0001 0.0001 0.0001 0.0001 0.0001 0.0001 
0.0001 0.0001 0.0001 0.0001 0.0001 0.0001 0.0001 0.0001 0.0001 
0.0001 0.0001 0.0001 0.0001 0.0001 0.0001 0.0001 0.0001 0.0001 
0.0001 0.0001 0.0001 0.0001 0.0001 0.0001 0.0001 0.0001 0.0001 
0.0001 0.0001 0.0001 0.0001 0.0001 0.0001 0.0001 0.0001 0.0001 
0.0001 0.0001 0.0001 0.0001 0.0001 0.0001 0.0001 0.0001 0.0001 
0.0001 0.0001 0.0001 0.0001 0.0001 0.0001 0.0001 0.0001 0.0001 
0.0001 0.0001 0.0001 0.0001 0.0001 0.0001 0.0001 0.0001 0.0001 
0.0001 0.0001 0.0001 0.0001 0.0001 0.0001 0.0001 0.0001 0.0001 
0.0001 0.0001 0.0001 0.0001 0.0001 0.0001 0.0001 0.0001 0.0001 
0.0001 0.0001 0.0001 0.0001 0.0001 0.0001 0.0001 0.0001 0.0001 
0.0001 0.0001 0.0001 0.0001 0.0001 0.0001 0.0001 0.0001 0.0001 
0.0001 0.0001 0.0001 0.0001 0.0001 0.0001 0.0001 0.0001 0.0001 
0.0001 0.0001 0.0001 0.0001 0.0001 0.0001 0.0001 0.0001 0.0001 
0.0001 0.0001 0.0001 0.0001 0.0001 0.0001 0.0001 0.0001 0.0001 
0.0001 0.0001 0.0001 0.0001 0.0001 0.0001 0.0001 0.0001 0.0001 
0.0001 0.0001 0.0001 0.0001 0.0001 
omega 3 167 double
1.05575 0.00126492 -1.27009 -0.320048 1.67922 -0.117648 0.545282 -0.752715 0.41602 
-0.125752 0.335963 -0.670295 0.124413 0.0137709 0.254014 0.0868027 0.104731 -0.206134 
0.266812 0.189515 -0.202745 0.380604 0.628188 -0.149636 -0.15412 -1.03381 0.0140484 
0.128401 0.412409 0.969639 -0.167397 0.253133 0.292488 0.282555 -0.284567 0.0493354 
0.0054669 0.0765803 -0.415199 0.0303786 -0.0415742 0.0865042 0.138225 -0.0643162 0.295787 
0.0956249 0.114551 -0.082118 0.124186 0.0499355 0.183537 0.131213 -0.00492599 -0.246431 
0.0345149 0.197555 -0.375558 -0.175406 -0.0994392 -0.11674 0.0246087 0.202427 -0.0964469 
-0.0641291 -0.35422 -0.23602 0.0305451 0.0692342 -0.153147 0.328094 -0.250065 -0.202824 
-0.503759 0.393788 0.129215 0.171567 -0.18951 -0.0480707 0.187698 0.138813 -0.0454344 
0.0578814 0.245434 0.162843 0.146219 0.162269 0.131353 -0.153025 0.0334396 0.175536 
0.148529 0.101107 -0.0258064 0.474235 0.0746508 0.794235 -0.245655 0.251666 -0.342023 
0.247407 0.147217 0.343069 -0.458347 -0.129593 0.702469 0.0340804 -0.0207084 0.192806 
-0.300667 0.125557 0.331313 -0.129055 -0.156478 0.654103 -0.324849 0.0159218 -0.427952 
0.401369 -0.0775842 1.70392 0.0768395 0.560121 -1.25724 -0.00432756 -0.320425 0.478013 
0.110947 -0.117426 -0.0992324 0.276673 -0.087002 -0.261943 -0.0703698 0.125063 -0.21349 
1.87115 0.205049 1.59656 -0.0351699 -1.23403 0.533165 0.257079 0.607941 -0.181536 
0.222014 0.100112 0.962237 -0.609213 0.706234 -0.924766 -0.234636 0.0669058 -0.803819 
0.416444 0.605511 -0.600218 0.0277985 -0.251289 0.04154 -0.0537232 -0.00564614 -0.511423 
0.033019 -1.21418 0.779172 0.401934 -0.977346 -0.104966 -0.0311605 -0.338573 0.234518 
-0.328234 0.285544 -0.205946 -0.432413 0.379378 -0.577596 -0.67368 1.03768 0.66981 
0.173333 0.3146 -0.156845 -0.352333 0.147862 0.390455 -0.672853 -0.0122987 0.414109 
0.142719 0.204835 -0.62021 -0.632686 -0.079525 0.093687 -0.073195 -0.0442968 -0.27552 
0.507169 -0.863686 0.277167 0.231539 -0.758032 0.768708 0.332837 -0.324895 -0.175211 
-0.0458089 -0.462418 -0.180725 0.666997 0.528963 0.0816857 -0.182045 -0.401979 -1.69145 
0.462927 0.551435 0.612853 0.353685 -0.633263 -1.34942 -1.0191 0.517982 1.72898 
0.404501 0.229884 0.442561 -2.86866 -0.512918 2.2263 -0.303359 0.712524 1.04959 
0.253562 -1.34484 -0.91718 -0.21061 -0.35229 1.27338 -0.085798 -0.290163 -0.589704 
-1.19538 0.527858 -0.00302691 0.319343 0.655959 -1.28649 -0.666797 1.63199 -0.0330818 
1.02106 -0.785986 -0.220014 0.0126001 -0.00205619 -0.122217 0.0388419 -0.800597 -0.014685 
-0.677731 0.971562 -0.791414 0.718824 0.049159 0.276062 -0.320731 0.0570563 0.199263 
-1.02486 1.08079 1.48001 0.499869 0.593281 0.609998 1.44852 -1.91538 0.956031 
-0.994315 1.19059 -0.0482739 -0.0269101 -0.761935 0.194256 -0.352498 0.989592 -0.2956 
0.610615 -0.945573 0.0829709 0.653934 -1.21923 0.471862 -0.311294 0.773218 0.486693 
0.0250521 -0.449959 0.232565 -0.880172 -0.178298 -0.52483 1.74511 1.1255 -0.112574 
0.785253 0.0446003 -0.674107 0.853942 -0.179028 0.75057 0.94009 1.31723 -2.32885 
1.85413 -0.0195654 0.469586 -0.652283 0.368646 1.2617 0.590206 0.282599 1.18958 
0.664663 -1.04346 -0.0705238 -0.37735 -0.462636 -0.0440788 -0.732912 -1.35842 0.123678 
-0.642293 -1.06781 -0.80336 1.4355 -0.684864 1.22395 0.698781 -1.07034 -1.18125 
-0.0332237 -0.263057 0.233642 0.04782 -0.535273 0.319679 -0.128879 -0.0827387 -0.160067 
0.536156 -0.771433 -2.22475 -0.130048 1.63956 0.631712 1.2246 0.353521 -0.70641 
-2.36487 1.87066 0.520731 0.804569 -0.999125 1.07971 -0.342582 -2.17081 0.621438 
-0.573364 2.06371 -1.40744 -0.684411 1.06995 2.08806 0.969475 -2.11532 2.11543 
-0.0125793 -2.39571 0.819384 0.0629913 1.12109 -0.505939 0.512956 -1.64403 0.43611 
-0.693526 2.16316 -0.0930077 0.247653 -2.05088 -0.513449 1.1283 -5.09737 -0.303386 
11.2013 -3.12226 -2.56623 -1.18678 -1.13884 -1.14273 0.94061 -0.545037 -0.287466 
-0.332486 0.677413 0.443853 -3.35198 1.89715 -0.77109 -3.50764 6.08017 -3.67115 
18.7177 -6.74074 1.34576 -0.0367451 0.163146 0.967534 -3.78497 2.89081 1.73949 
-1.53332 -0.243612 1.48011 2.92587 -5.12972 1.86603 -5.00725 -1.75148 -2.22702 
5.45022 -0.453768 -2.3146 -1.32084 2.02616 -0.801023 2.54267 -2.7521 -0.584105 
6.11363 -0.318339 -3.84344 -0.637317 -0.859991 0.141461 -2.00757 2.18039 1.91131 
-0.742736 -0.519866 3.31212 -0.516126 -3.71004 -0.940712 2.15126 1.29829 -1.67878 
1.5577 3.13631 -0.113839 3.0803 -1.15672 -0.48581 -23.3854 2.75736 13.6621 
1.49676 4.59602 -1.02119 -0.194261 2.68173 -2.53371 1.18081 1.08469 -0.229673 
6.19794 -10.0884 0.288989 0.475614 -18.1696 5.77923 26.091 46.5462 -2.12759 
-43.8979 165.671 19.0722 -3.30728 3.20149 -2.95447 54.308 -18.5507 15.4304 
1.10832 -0.694576 0.495316 -1.97841 -3.85602 -0.0346176 
