# vtk DataFile Version 4.0
Generated by LIGGGHTS
ASCII
DATASET POLYDATA
POINTS 126 float
-0.000472795 -0.00041545 9.99794e-05 -0.000346875 -0.000461416 0.000265298 -0.000275928 -0.000374171 9.9954e-05 
-0.000145704 -0.000328299 0.000244635 -9.23043e-05 -0.000455564 9.9932e-05 5.05748e-05 -0.000415903 0.000234339 
0.000196353 -0.000390025 9.99387e-05 0.000381951 -0.000386259 0.000249492 -0.000445557 -0.000287509 0.000271862 
-0.000385331 -0.000205069 9.99477e-05 -0.000185166 -0.000195965 9.99264e-05 -0.00028673 -0.000166018 0.00026951 
-2.35984e-06 -0.000277036 9.99233e-05 6.71076e-05 -0.000190628 0.000266298 0.000178049 -0.000190805 9.99294e-05 
0.000298596 -0.00019545 0.000259355 0.000475535 -0.000111635 0.000218677 0.000403341 -0.000255307 9.991e-05 
-0.000475006 4.14166e-05 9.99216e-05 -0.000376959 1.2422e-05 0.000271787 -0.000273887 -1.57966e-05 9.99794e-05 
-0.000108768 -6.11823e-05 0.000226356 -0.00010249 9.36256e-05 9.99318e-05 4.49785e-05 -4.15083e-05 9.99718e-05 
0.000185802 -3.13147e-05 0.000241588 0.000324916 -5.50607e-05 9.99423e-05 0.000367524 5.21744e-05 0.000263258 
-0.000331595 0.00018114 9.9972e-05 -0.000480744 0.000180891 0.000243031 -0.00021836 0.00013337 0.000257961 
-0.000170666 0.00029987 9.99789e-05 3.80487e-05 0.000103369 0.000241838 -7.13055e-05 0.000268195 0.000270935 
2.93995e-05 0.000243918 9.99065e-05 0.000178919 0.000110709 9.99794e-05 0.00012884 0.000291381 0.000266737 
0.000350008 0.000285693 0.00026143 0.000370684 0.000168947 9.99799e-05 -0.000323534 0.000303467 0.00025796 
-0.000326744 0.000427842 9.998e-05 -0.000497147 0.000319477 9.99008e-05 -0.000175378 0.000437178 0.000246708 
7.72705e-05 0.000438375 9.99743e-05 0.00023644 0.00031731 9.99454e-05 0.000216887 0.000468919 0.000240156 
0.000359594 0.000475394 9.99794e-05 0.000479438 0.000439373 0.000258202 -0.000486067 -0.000430117 0.000406021 
-0.000280928 -0.000322804 0.000393473 -0.00016463 -0.000481817 0.000429206 -1.54285e-05 -0.000318488 0.000396042 
0.000107488 -0.000451469 0.000484096 0.000207442 -0.000353314 0.00034146 -0.000436806 -0.000131938 0.000397214 
-8.91755e-05 -0.000149359 0.000473242 0.000147987 -0.000195571 0.000449104 0.000409485 -0.000259677 0.000412842 
-0.000222214 -2.29903e-05 0.000393453 4.90438e-05 -3.28412e-05 0.000387787 0.000291568 -6.24196e-05 0.000408493 
-0.000356702 0.000165752 0.0003991 -0.000203267 0.000292407 0.000419209 -8.10978e-05 0.000118364 0.000402978 
5.84701e-05 0.000253553 0.000450152 0.000208605 0.000131144 0.000355907 0.000446509 0.000138832 0.000425256 
-0.000362535 0.000413305 0.000420439 1.28834e-05 0.000428974 0.000354758 0.000246957 0.000317127 0.000429838 
0.000327157 0.000498531 0.000404283 0.000448014 0.000338793 0.000428152 -0.000336496 -0.000435096 0.00054932 
-0.000155172 -0.000322149 0.000549247 -5.41476e-05 -0.000488294 0.000595942 0.000276353 -0.000354864 0.000530444 
0.000165218 -0.000444821 0.000675418 0.000495395 -0.000330864 0.00057878 0.000362393 -0.000419485 0.000699001 
-0.000337311 -0.000280292 0.000675968 -0.000282824 -0.000167703 0.000519671 4.12682e-05 -0.00029335 0.000587244 
-2.52842e-05 -0.000117474 0.000660781 0.000255792 -0.000176545 0.000618615 0.000429865 -0.000110557 0.000544689 
-0.000422557 2.30786e-05 0.000522711 -0.000303353 -3.67735e-05 0.000671682 -0.000137936 2.03146e-05 0.000569511 
0.000129749 -2.88718e-05 0.000570697 0.000286271 9.18234e-05 0.000536267 0.000463071 3.32635e-05 0.000686418 
-0.000413468 0.000279193 0.000559798 -0.000325324 0.00016424 0.000697715 -0.000151349 0.000217914 0.00059756 
1.87197e-05 0.000121855 0.000641033 0.00019515 0.000219996 0.000661203 0.000391085 0.00025069 0.000598432 
-0.00022244 0.000404333 0.000583913 9.94295e-05 0.000383424 0.000596634 0.000294462 0.000427383 0.000589758 
0.000489683 0.000469196 0.00057706 -0.000235321 -0.00035925 0.000874181 -8.45891e-05 -0.000347178 0.000734688 
-0.000188521 -0.000176495 0.000760132 7.91842e-05 -0.000132514 0.000830941 0.000210879 -0.000282244 0.00078258 
0.00043335 -0.000176238 0.000733542 -0.000303025 4.48373e-05 0.000856657 0.000267713 -4.60677e-07 0.000712706 
0.000387627 -4.3282e-06 0.000884096 0.000345672 0.000167781 0.000787656 -3.84274e-05 0.000320648 0.000727183 
-8.4689e-05 0.00045429 0.000869321 0.000433232 0.000377259 0.000747657 -0.000377679 0.000385939 0.00120525 
0.000158155 0.000308549 0.00125126 -0.000159971 -0.000183404 0.00166113 0.000270757 -0.000163567 0.00158076 
0.000208912 8.68461e-05 0.0015815 -0.000199528 -0.000393961 0.00184928 -0.000355099 -3.8615e-05 0.00176906 
-8.06322e-05 7.87906e-05 0.00182096 2.72609e-05 -0.000237534 0.00197532 0.000289036 -0.000263637 0.00204941 
-0.000277454 -6.77666e-05 0.00209801 -0.000341928 0.000226357 0.00207886 1.71626e-05 0.000218003 0.00204547 

VERTICES 126 252
1 0 
1 1 
1 2 
1 3 
1 4 
1 5 
1 6 
1 7 
1 8 
1 9 
1 10 
1 11 
1 12 
1 13 
1 14 
1 15 
1 16 
1 17 
1 18 
1 19 
1 20 
1 21 
1 22 
1 23 
1 24 
1 25 
1 26 
1 27 
1 28 
1 29 
1 30 
1 31 
1 32 
1 33 
1 34 
1 35 
1 36 
1 37 
1 38 
1 39 
1 40 
1 41 
1 42 
1 43 
1 44 
1 45 
1 46 
1 47 
1 48 
1 49 
1 50 
1 51 
1 52 
1 53 
1 54 
1 55 
1 56 
1 57 
1 58 
1 59 
1 60 
1 61 
1 62 
1 63 
1 64 
1 65 
1 66 
1 67 
1 68 
1 69 
1 70 
1 71 
1 72 
1 73 
1 74 
1 75 
1 76 
1 77 
1 78 
1 79 
1 80 
1 81 
1 82 
1 83 
1 84 
1 85 
1 86 
1 87 
1 88 
1 89 
1 90 
1 91 
1 92 
1 93 
1 94 
1 95 
1 96 
1 97 
1 98 
1 99 
1 100 
1 101 
1 102 
1 103 
1 104 
1 105 
1 106 
1 107 
1 108 
1 109 
1 110 
1 111 
1 112 
1 113 
1 114 
1 115 
1 116 
1 117 
1 118 
1 119 
1 120 
1 121 
1 122 
1 123 
1 124 
1 125 

POINT_DATA 126
FIELD FieldData 7
id 1 126 int
4 46 28 51 7 18 9 20 44 
19 27 47 1 29 11 34 40 15 
3 42 14 30 24 10 38 26 49 
12 32 35 25 23 37 13 16 31 
45 2 33 17 21 36 8 5 22 
6 39 63 62 58 54 77 41 52 
67 73 56 53 55 61 60 75 64 
68 43 57 71 48 69 50 59 90 
65 94 72 96 86 106 97 76 89 
99 81 87 66 88 79 85 74 101 
84 102 80 92 93 78 91 83 82 
70 113 105 104 112 110 98 109 100 
111 107 95 108 103 115 117 116 114 
119 126 118 123 124 121 125 120 122 

type 1 126 int
1 1 1 1 1 1 1 1 1 
1 1 1 1 1 1 1 1 1 
1 1 1 1 1 1 1 1 1 
1 1 1 1 1 1 1 1 1 
1 1 1 1 1 1 1 1 1 
1 1 1 1 1 1 1 1 1 
1 1 1 1 1 1 1 1 1 
1 1 1 1 1 1 1 1 1 
1 1 1 1 1 1 1 1 1 
1 1 1 1 1 1 1 1 1 
1 1 1 1 1 1 1 1 1 
1 1 1 1 1 1 1 1 1 
1 1 1 1 1 1 1 1 1 
1 1 1 1 1 1 1 1 1 

i 3 126 int
1 1 0 0 1 0 0 1 0 
0 0 0 0 1 0 0 0 0 
-1 0 0 0 0 0 0 1 0 
0 0 0 0 0 0 0 0 0 
0 0 0 0 0 0 -1 0 0 
0 0 0 0 0 0 -1 0 0 
0 0 0 0 0 0 0 0 0 
0 0 0 1 0 0 0 0 0 
0 0 0 -1 0 0 0 0 0 
0 0 0 0 0 0 0 0 0 
1 0 0 0 0 0 0 0 0 
0 0 0 0 0 0 0 0 0 
0 0 0 0 0 0 0 0 0 
0 -1 0 1 -1 0 0 -1 0 
0 -1 0 0 0 0 0 0 0 
0 -1 0 0 0 0 0 1 0 
1 0 0 0 0 0 0 0 0 
0 0 0 0 0 0 0 0 0 
0 0 0 0 0 0 0 0 0 
0 0 0 0 0 0 0 0 0 
0 0 0 0 0 0 0 0 0 
0 0 0 0 0 0 0 0 0 
0 0 0 0 0 0 0 0 0 
0 -1 0 0 0 0 0 0 0 
0 0 0 0 0 0 0 0 0 
0 0 0 0 0 0 -1 0 0 
0 0 0 0 0 0 0 0 0 
0 0 0 0 0 0 0 0 0 
0 0 0 0 0 0 0 0 0 
0 0 0 0 0 0 0 0 0 
0 0 0 0 0 0 0 0 0 
0 0 0 0 0 0 0 0 0 
0 0 0 0 0 0 0 -1 0 
-1 -1 0 0 0 0 0 0 0 
0 0 0 0 0 0 0 0 0 
-1 0 0 0 0 0 0 0 0 
0 0 0 0 0 0 0 0 0 
0 0 0 0 0 0 0 0 0 
0 0 0 0 0 0 0 0 0 
0 0 0 0 0 0 0 0 0 
0 0 0 0 0 0 0 0 0 
0 0 0 0 0 0 0 0 0 

v 3 126 double
6.17572e-05 3.96817e-05 -3.99947e-13 -3.74722e-05 7.5704e-05 0.000265218 6.63369e-05 0.000137691 0.00015162 
0.000278074 0.00117086 -0.000532755 -0.000241682 7.38297e-05 1.62426e-05 -3.33676e-05 0.00129022 -0.00088029 
0.000733083 0.000160667 6.32537e-05 -3.60995e-05 -0.000123551 -0.000129619 0.000578189 2.59701e-05 0.000114559 
-0.000224871 0.000377656 2.05084e-05 -9.78407e-05 0.000204771 -1.52984e-06 -0.000197098 0.000862256 -0.000284216 
-0.000182744 0.00012328 8.93958e-05 0.000253782 5.0945e-05 0.000207263 -9.97204e-05 0.000276995 -0.000133762 
-0.000254823 -4.70494e-05 -0.000241056 -0.000189239 -0.000267089 -0.00014293 -0.000245833 -0.000270617 -0.000118418 
-0.000599342 -0.000185374 -2.4583e-05 -0.000555607 0.000181566 -0.000248809 -0.000216008 -0.00046246 3.3159e-15 
5.86335e-05 -6.96648e-05 3.45026e-05 -0.000270642 7.64291e-05 3.33036e-05 -0.000224554 0.000253069 2.17911e-05 
-4.78622e-06 0.000116322 -0.000194929 -0.000176728 -0.000123735 -0.000108007 7.70612e-05 -3.31408e-06 -1.79298e-05 
-0.000387201 -0.000380893 -0.000267128 -0.00123508 -0.000226909 0.000261711 -0.000261151 0.000160574 0.000143408 
-6.42466e-05 0.000369058 3.36539e-05 6.31078e-05 0.000120212 -5.63569e-05 -8.3659e-05 9.49194e-05 -0.000411628 
-0.000134781 -7.62119e-05 -8.63132e-05 -0.000832909 0.000931642 7.524e-11 -0.000119916 -0.000186715 -3.04379e-05 
-0.00108371 0.000290446 0.000396633 0.000398395 -0.000202159 3.6564e-05 -0.00102775 -0.000154774 -0.00064261 
0.000531052 -2.61295e-05 0.000145561 -0.000649567 -0.000127114 0.000119184 -0.00086421 -0.000202251 -0.000650374 
3.3982e-05 0.0006026 -3.51755e-05 -0.00061655 -0.000322351 -2.3503e-05 0.000734016 -0.000744749 -0.000605513 
0.000465523 -0.000489419 2.84857e-10 0.000124048 9.89921e-05 0.0001255 0.000859816 5.98509e-05 0.000258204 
-0.000964061 0.00098072 -0.000245036 -0.00177934 -0.000163472 -0.000743405 -0.000125238 -0.000209661 -0.000140949 
0.000465453 -0.00026495 -0.00122067 0.000116537 0.000285042 -0.000559997 -0.000154531 0.000517315 -0.00036096 
-0.00129038 -0.000346474 -0.000627411 -0.000208226 -0.000121098 0.000673796 -0.000159628 -0.000262656 -0.000262971 
-0.000561713 0.00100887 -0.00138043 -0.00081286 -4.67223e-05 0.000231419 -0.000695257 0.000265369 -0.000182641 
0.00022443 -0.000285626 -0.000878496 0.000376001 -0.000337211 -0.00130975 -0.000195258 0.000308972 -0.0003961 
-0.000673911 -0.000390931 0.000369484 0.0001017 -0.000275634 -3.9841e-05 -0.00086723 0.000478834 0.000473391 
0.000309524 -0.000215925 -0.000116062 -0.00048097 0.000803057 -0.00179256 -0.00071154 -0.000868856 0.000842232 
0.00110969 -0.00134807 -0.00068818 -0.000972145 0.000428657 6.80185e-06 -0.00133096 -0.000434917 -0.00136066 
-3.51502e-05 -0.000707808 -0.000473833 8.50906e-05 -0.00133465 -0.00215867 0.000620584 -0.000544364 -0.00118421 
0.00209959 -0.00495233 -0.000582388 -0.000857934 -0.000633974 7.73326e-05 -0.00126292 -0.000465599 8.26271e-06 
-0.000552753 -0.000878217 -0.000128064 -0.00119487 0.000291787 0.000608652 0.000886887 -0.000702925 -0.000319502 
-0.00320741 -0.00240576 0.000515746 0.000195881 -0.000818759 0.000129237 0.00013327 0.000470775 -0.000828441 
0.0013125 0.000106937 -0.000258353 0.0025826 0.00145459 -0.000542008 0.00022089 -0.00122518 -0.00204635 
-0.00239782 -0.00229304 0.00116291 -0.00325865 -0.000713583 -0.00390711 -0.000868096 0.00781649 -0.00231069 
-0.00172014 0.00359066 0.00318843 0.00596828 0.00560854 0.000315108 -0.00152076 -0.000312017 -0.000773596 
0.00254154 0.001096 -0.00637993 -0.000936457 0.000283321 0.00173303 -0.00380146 0.000467787 -0.00251824 
-0.00105981 -0.000126755 -0.00216384 0.00125335 -0.000491827 -0.00147196 2.16393e-05 -0.000714805 -0.000444936 
0.000399018 -0.000298712 0.000434024 -0.03815 -0.0445679 -0.024789 -0.00162585 -0.00210141 -0.000174177 
-0.00275646 -0.000101532 0.00261917 -0.0148165 -0.0172719 0.00614218 -0.000998491 -0.00353778 -0.000358411 
0.00161403 -0.000989071 -0.00265442 0.00549568 0.00884971 0.00340026 0.00037146 0.00056363 -0.00156127 
0.00995926 -0.0177765 -0.00320614 0.00459562 -0.00534591 0.00860245 0.00448692 -0.00562058 -0.000493811 
-0.00431515 0.017962 -0.0231315 0.00878326 -0.00712311 -0.000632956 0 0 -0.126463 
0 0 -0.122843 0 0 -0.0839563 0 0 -0.0928736 
0 0 -0.0927951 0 0 -0.0579402 0 0 -0.0702223 
0 0 -0.0625509 0 0 -0.0297364 -0 -0 -0.02 
-0 -0 -0.02 -0 -0 -0.02 -0 -0 -0.02 

f 3 126 double
-5.48167e-22 -3.4378e-22 1.09846e-16 -6.5602e-08 -7.16292e-08 -1.41581e-08 -1.93304e-08 -1.63992e-08 5.45414e-09 
-7.76481e-09 3.40377e-08 -2.58256e-08 5.92172e-09 4.75169e-08 -3.56558e-09 -1.84308e-09 9.79435e-08 -1.65377e-08 
6.46687e-09 4.54062e-08 -2.47481e-08 -4.96581e-08 -2.53835e-08 -1.27155e-08 8.18617e-09 -5.8157e-08 -3.17423e-08 
2.88366e-08 -3.72455e-09 -1.7958e-08 -1.41136e-08 -2.71142e-08 -9.70365e-09 -2.08766e-09 -9.67164e-08 -7.05619e-08 
1.00575e-08 3.50476e-08 4.86758e-09 5.94113e-09 4.91888e-08 4.06802e-08 2.07381e-08 7.15499e-09 2.11089e-08 
7.33383e-08 1.46529e-08 -3.07168e-08 6.43247e-08 -7.07025e-08 -1.68012e-08 -1.3844e-08 -3.72465e-08 -4.39228e-08 
4.48474e-08 -7.71493e-09 3.64717e-08 -2.21339e-08 -7.75852e-08 2.28793e-08 -7.49647e-23 3.446e-22 0 
1.47184e-08 1.72901e-08 3.46806e-09 -7.17425e-08 -4.4816e-08 -3.77945e-08 2.4864e-08 -1.81266e-08 -5.92523e-08 
3.5504e-08 -5.91762e-08 2.55173e-08 -1.49894e-08 -8.09264e-08 2.11396e-09 -8.7015e-08 3.62173e-10 -2.45081e-08 
-5.24068e-08 5.7816e-09 -2.1291e-08 5.13548e-08 -4.26374e-08 1.25414e-07 -8.72839e-08 -1.63734e-09 -4.5972e-08 
-2.72813e-08 -1.252e-08 7.83209e-09 -6.71309e-08 -5.05235e-08 5.07401e-09 -1.31563e-08 5.0303e-09 -4.1781e-08 
-2.78579e-08 -3.68926e-08 2.55828e-08 -1.03431e-18 1.15631e-18 1.11964e-12 1.19754e-08 -2.41232e-08 4.09473e-08 
-4.75282e-08 1.491e-08 7.6111e-08 -2.74565e-11 3.40186e-11 -1.05457e-08 -5.45288e-08 -1.20447e-10 5.04623e-08 
-1.72268e-09 -1.75444e-09 -1.98015e-08 -3.52865e-08 -1.95575e-08 5.50296e-08 2.37697e-08 4.1882e-08 -2.0695e-09 
-1.75012e-08 1.01553e-08 1.34998e-08 4.75027e-09 -2.28416e-09 8.70351e-09 -3.04564e-08 3.13722e-08 -4.11502e-08 
2.99053e-18 -3.14403e-18 -6.27661e-13 2.24798e-08 -1.52453e-08 2.3025e-08 1.27663e-08 1.89893e-08 1.77681e-08 
-6.63315e-09 -9.91862e-08 -1.02703e-08 3.43068e-08 3.73249e-08 5.2632e-08 1.45591e-08 4.09329e-08 -5.13691e-10 
-2.01565e-08 -2.52709e-08 8.37633e-08 5.06909e-09 3.01788e-08 -9.4085e-09 3.01469e-08 -6.23933e-08 5.44483e-08 
-4.33274e-09 -7.33304e-09 -7.39123e-09 3.80701e-08 1.3953e-08 4.32932e-08 4.83727e-08 1.95132e-08 -3.79103e-08 
-2.05937e-07 -1.98983e-07 -1.83474e-07 9.11171e-09 -1.75381e-08 -1.37992e-08 1.6657e-08 3.39916e-08 -1.43633e-08 
9.59926e-08 -2.41805e-08 1.17233e-07 -1.97079e-08 -5.0376e-08 2.12797e-07 -1.38477e-07 -1.09189e-07 -9.49794e-08 
2.54765e-08 4.77154e-08 2.17818e-07 9.77622e-08 1.39405e-07 1.31693e-07 2.50887e-09 -4.00018e-09 -8.62379e-08 
1.872e-08 6.85964e-08 -2.2308e-08 -7.18388e-09 5.76302e-08 7.07752e-08 -6.94869e-08 1.87969e-07 -2.07449e-08 
2.94625e-08 3.31826e-08 6.65191e-08 7.45687e-08 -4.89253e-08 -6.47724e-08 2.89426e-08 -7.22203e-08 -1.28574e-08 
-5.29504e-08 1.60708e-08 -1.73967e-08 -3.51393e-08 -4.7592e-08 -6.49642e-08 -3.5858e-08 4.57396e-08 -1.02634e-07 
-3.77041e-08 2.36819e-08 -1.27624e-08 -2.84127e-09 -2.42711e-08 -3.71375e-08 5.80078e-08 -1.14521e-08 -5.0109e-08 
2.79171e-08 6.40302e-09 -6.4055e-08 6.81215e-08 3.79686e-08 1.7319e-08 0 0 -1.0273e-07 
0 0 -1.0273e-07 1.93784e-08 -4.50716e-08 -5.68951e-08 -1.35397e-07 7.42196e-08 -1.30462e-08 
1.49707e-08 -4.99938e-08 7.36362e-08 5.22994e-08 -9.81643e-08 4.72224e-08 -4.42595e-08 5.65765e-08 1.14941e-07 
2.47867e-07 -8.2282e-08 -2.41067e-07 1.82789e-09 -1.56527e-08 -5.53719e-08 -6.5026e-08 -9.4739e-09 3.64935e-08 
0 0 -1.0273e-07 0 0 -1.0273e-07 3.44311e-08 -4.60884e-08 -1.01307e-07 
4.73161e-08 2.79413e-07 3.41065e-07 0 0 -1.0273e-07 -5.05982e-08 -6.21928e-10 6.38324e-09 
2.89791e-08 -8.74072e-08 -5.08797e-08 5.10232e-09 4.11388e-08 -8.30468e-08 1.66097e-08 3.18527e-08 1.41613e-07 
-2.07945e-08 -7.07908e-08 1.05443e-07 0 0 -1.0273e-07 -7.66453e-10 3.84472e-09 -7.28459e-08 
3.01519e-08 1.53528e-08 -9.10819e-08 0 0 -1.0273e-07 6.08297e-08 -6.41553e-08 -6.60514e-08 
4.96178e-09 -5.65301e-08 9.85471e-08 0 0 -1.0273e-07 -4.76618e-08 2.60758e-08 -1.30291e-07 
0 0 -1.0273e-07 0 0 -1.0273e-07 -4.20465e-08 -7.40312e-08 -1.33147e-09 
0 0 -1.0273e-07 0 0 -1.0273e-07 0 0 -1.0273e-07 
0 0 -1.0273e-07 0 0 -1.0273e-07 0 0 -1.0273e-07 
0 0 -1.0273e-07 0 0 -1.0273e-07 0 0 -1.0273e-07 
0 0 -1.0273e-07 0 0 -1.0273e-07 0 0 0 
0 0 0 0 0 0 0 0 0 

radius 1 126 double
0.0001 0.0001 0.0001 0.0001 0.0001 0.0001 0.0001 0.0001 0.0001 
0.0001 0.0001 0.0001 0.0001 0.0001 0.0001 0.0001 0.0001 0.0001 
0.0001 0.0001 0.0001 0.0001 0.0001 0.0001 0.0001 0.0001 0.0001 
0.0001 0.0001 0.0001 0.0001 0.0001 0.0001 0.0001 0.0001 0.0001 
0.0001 0.0001 0.0001 0.0001 0.0001 0.0001 0.0001 0.0001 0.0001 
0.0001 0.0001 0.0001 0.0001 0.0001 0.0001 0.0001 0.0001 0.0001 
0.0001 0.0001 0.0001 0.0001 0.0001 0.0001 0.0001 0.0001 0.0001 
0.0001 0.0001 0.0001 0.0001 0.0001 0.0001 0.0001 0.0001 0.0001 
0.0001 0.0001 0.0001 0.0001 0.0001 0.0001 0.0001 0.0001 0.0001 
0.0001 0.0001 0.0001 0.0001 0.0001 0.0001 0.0001 0.0001 0.0001 
0.0001 0.0001 0.0001 0.0001 0.0001 0.0001 0.0001 0.0001 0.0001 
0.0001 0.0001 0.0001 0.0001 0.0001 0.0001 0.0001 0.0001 0.0001 
0.0001 0.0001 0.0001 0.0001 0.0001 0.0001 0.0001 0.0001 0.0001 
0.0001 0.0001 0.0001 0.0001 0.0001 0.0001 0.0001 0.0001 0.0001 

omega 3 126 double
-0.396858 0.617636 13.274 -3.18305 -7.77716 5.35001 -1.59796 1.06659 5.8134 
-8.73481 -2.12327 -17.5671 -0.233834 -2.92202 2.01566 12.0962 -15.4696 -22.5021 
-1.92602 6.76592 -0.750953 -5.15611 1.78387 5.61213 0.0829916 -0.505295 5.35603 
-3.88346 -1.98685 17.4124 -2.05933 -1.01288 -3.83393 -8.10509 0.0161492 7.03191 
-1.21785 -1.61667 -1.7205 -0.0895203 2.63953 -4.17136 -3.64678 0.692758 2.40207 
7.59589 -4.12332 -4.2691 -3.24415 4.04105 2.30182 2.88676 -2.9794 -2.3509 
2.47727 -5.89108 5.48758 5.63724 -0.0650015 3.01495 4.62508 -2.1603 -4.96423 
5.24508 3.72498 3.82223 -1.70312 -2.56819 -1.25055 -2.51329 -2.02941 -5.55459 
-4.4461 3.57658 0.15922 2.18697 -2.38613 -3.34921 -2.73432 -4.02933 -8.63942 
4.80774 -5.71242 8.22165 -0.768747 4.78397 3.01605 5.1668 3.20969 -5.44388 
-4.93422 0.960344 -1.68664 -2.66183 5.72696 -0.898657 -5.07754 2.55367 3.96648 
0.510132 -1.35997 -0.785497 -9.31738 -8.32995 -0.807887 -2.98842 0.129497 -3.2911 
-2.79963 -2.09474 -8.19116 2.0218 3.9828 -9.67006 -7.23016 1.65802 -3.01162 
0.262341 5.28873 0.0645756 1.03946 -6.51106 -9.66915 1.80907 -8.45488 3.01457 
-6.13288 0.139867 -30.4561 3.22924 -6.08429 19.7904 11.1926 6.1431 -12.1572 
4.89469 4.65571 -7.66752 -1.89989 6.30036 -3.32835 -5.05178 -8.78333 8.20025 
4.92277 -12.4835 -10.6302 -0.343264 9.60627 17.162 5.10455 -5.6306 2.73326 
21.3269 2.02263 -3.36698 -15.2373 -6.98606 11.9461 -3.1047 -3.8064 2.25041 
10.9136 20.5175 -5.75197 1.71526 -9.47669 3.58397 -13.5543 10.0202 -5.70777 
-0.687747 -3.6153 -11.8025 2.97283 -21.0502 1.84373 5.7082 6.21956 -7.40996 
-0.009831 14.3565 -5.74646 -0.0648096 -5.35879 6.56963 2.62672 -9.68527 3.61016 
20.9675 1.79197 -10.5893 5.72942 -0.463504 4.82436 -2.50718 -9.17793 7.84611 
12.145 5.24192 -13.5436 0.483666 18.909 11.504 20.4534 6.55813 2.82659 
-7.65587 -3.93768 6.3958 2.66231 -10.6736 -10.4084 12.5388 6.07432 14.2258 
8.27362 35.2877 -4.80585 -6.37555 -5.30323 -2.43857 1.40591 2.72956 -2.48315 
11.5485 9.721 -59.2903 3.98792 -7.28013 -21.8641 -3.18369 1.82167 15.5882 
0.984252 12.0503 22.3955 5.34816 -8.48594 -5.4721 -3.84526 30.3583 -8.74927 
-82.1112 13.5421 -68.758 13.4543 -53.4166 -12.2347 -8.89415 3.50084 11.2168 
5.42399 18.6805 -8.85444 -45.6676 7.94784 -19.1097 33.2441 21.4262 35.2441 
45.4847 0.255064 60.2882 26.4423 18.9707 -49.6723 -134.347 -41.7696 58.5521 
-92.9522 -19.7924 3.43104 27.3269 170.197 -68.9869 -14.8909 16.7087 4.77846 
-18.8639 48.9217 -12.0289 10.4202 -15.1457 -18.4893 -58.2536 -70.2176 45.5645 
-5.37295 -2.09415 -10.0225 -23.3728 -19.1695 24.0899 -8.54343 -1.27254 1.18734 
9.52385 2.42448 -11.9585 562.143 -270.62 159.619 -20.7222 -59.2379 -42.5032 
87.4734 12.067 38.5426 224.024 -179.56 -41.5624 13.1993 22.0679 96.5535 
29.8346 -21.7707 81.4501 -88.6498 -85.4902 -51.2808 -41.2507 49.0295 0.11295 
-497.007 58.1215 136.11 242.586 58.2889 12.0273 97.7387 76.8229 -3.84066 
-415.13 -187.008 -5.61336 183.28 105.178 -194.439 0 0 0 
0 0 0 0 0 0 0 0 0 
0 0 0 0 0 0 0 0 0 
0 0 0 0 0 0 0 0 0 
0 0 0 0 0 0 0 0 0 

