# vtk DataFile Version 4.0
Generated by LIGGGHTS
ASCII
DATASET POLYDATA
POINTS 72 float
-0.000496862 -0.000438031 9.99739e-05 -0.000375214 -0.000475368 0.000265528 -0.000302897 -0.000389321 9.998e-05 
-0.000117046 -0.00046603 9.99794e-05 -0.00018309 -0.000363259 0.000260982 1.22869e-05 -0.000398555 0.000237295 
0.000156174 -0.000378279 9.99456e-05 0.000337834 -0.000377799 0.000260571 -0.000424239 -0.000229704 9.97886e-05 
-0.000348769 -0.000253592 0.000283369 -0.000199674 -0.000219205 0.000120315 -3.4608e-06 -0.000253478 9.99731e-05 
5.46405e-05 -0.000156268 0.000264797 0.000182457 -0.000179743 9.98515e-05 0.000263983 -0.000156676 0.000280811 
0.000457208 -0.00014001 0.000233206 0.000368939 -0.000261836 0.000100233 -0.000475705 -7.37563e-06 9.98232e-05 
-0.000278012 -3.63257e-05 9.99459e-05 -0.000119867 -6.65456e-05 0.000222323 -0.000244316 8.87748e-05 0.00025644 
-0.000119725 9.19155e-05 9.99972e-05 3.65133e-05 -4.31271e-05 9.99293e-05 0.000222037 3.9069e-05 0.00026685 
0.000327278 -4.20317e-05 0.000113242 -0.00035301 0.000152235 0.000100021 -0.000317063 0.000278938 0.000259999 
-0.00049077 0.000178681 0.000242639 -0.00019716 0.000277804 9.99596e-05 -0.000117935 0.000249171 0.000281326 
1.7701e-05 0.000105893 0.000244578 1.56187e-06 0.000253607 9.9971e-05 0.000158348 0.000129429 0.000100095 
0.000292144 0.000238322 0.000268654 0.00036162 0.000156397 9.99723e-05 -0.00034331 0.000414749 9.9976e-05 
-0.000188729 0.000436071 0.000259078 6.23054e-05 0.000444808 9.99826e-05 0.000104494 0.000311978 0.000261187 
0.000222454 0.000320039 9.99448e-05 0.000182567 0.000495925 0.000253112 0.000313374 0.000498182 9.99665e-05 
0.000476973 0.000326487 9.99872e-05 0.000439173 0.000449922 0.000252765 0.000164038 -0.000320745 0.000341725 
0.000312103 -0.000406655 0.000457569 0.000485808 -0.00031313 0.000379065 0.000216953 -0.000176206 0.000474083 
0.000410141 -0.00013549 0.000431933 -0.000407628 -6.87467e-06 0.000321569 -0.00012462 -7.18845e-05 0.000425567 
1.61671e-05 7.59912e-05 0.000443485 0.00040273 4.82462e-05 0.000352815 0.000165366 0.000207136 0.000420219 
4.95883e-05 0.000496827 0.000403611 0.000329928 0.00039885 0.000413792 2.39452e-05 -0.000376337 0.000594953 
1.28541e-05 -0.000173386 0.000528283 0.00036844 0.000101306 0.000543309 -0.000310742 -0.00023356 0.00104352 
-0.000362558 0.000349951 0.00105651 0.00039089 -0.000381967 0.00126543 -0.000365887 7.91138e-05 0.00126836 
-0.000120714 0.000165796 0.00147526 0.000208551 -0.000200636 0.0018459 0.000239064 0.000134563 0.00174711 
-9.25678e-05 0.000350367 0.00179049 -0.000295395 -0.000290802 0.00208826 0.000331829 -0.000157673 0.00207977 
-0.000387717 -3.18466e-05 0.00201619 -6.5372e-05 9.83357e-05 0.00205826 0.000185595 0.000321531 0.00202696 

VERTICES 72 144
1 0 
1 1 
1 2 
1 3 
1 4 
1 5 
1 6 
1 7 
1 8 
1 9 
1 10 
1 11 
1 12 
1 13 
1 14 
1 15 
1 16 
1 17 
1 18 
1 19 
1 20 
1 21 
1 22 
1 23 
1 24 
1 25 
1 26 
1 27 
1 28 
1 29 
1 30 
1 31 
1 32 
1 33 
1 34 
1 35 
1 36 
1 37 
1 38 
1 39 
1 40 
1 41 
1 42 
1 43 
1 44 
1 45 
1 46 
1 47 
1 48 
1 49 
1 50 
1 51 
1 52 
1 53 
1 54 
1 55 
1 56 
1 57 
1 58 
1 59 
1 60 
1 61 
1 62 
1 63 
1 64 
1 65 
1 66 
1 67 
1 68 
1 69 
1 70 
1 71 

POINT_DATA 72
FIELD FieldData 7
id 1 72 int
4 46 28 7 51 18 9 20 19 
47 27 1 29 11 34 40 15 3 
14 30 35 24 10 38 26 12 33 
32 25 37 23 13 16 45 2 17 
36 8 31 5 22 6 21 39 41 
50 44 56 52 42 53 55 49 43 
48 59 58 54 57 65 63 62 60 
64 67 61 71 70 72 66 68 69 

type 1 72 int
1 1 1 1 1 1 1 1 1 
1 1 1 1 1 1 1 1 1 
1 1 1 1 1 1 1 1 1 
1 1 1 1 1 1 1 1 1 
1 1 1 1 1 1 1 1 1 
1 1 1 1 1 1 1 1 1 
1 1 1 1 1 1 1 1 1 
1 1 1 1 1 1 1 1 1 

i 3 72 int
1 1 0 0 1 0 0 1 0 
0 1 0 0 0 0 0 0 0 
-1 0 0 0 0 0 0 0 0 
0 0 0 0 0 0 0 0 0 
0 0 0 -1 0 0 0 0 0 
0 0 0 -1 0 0 0 0 0 
0 0 0 0 0 0 0 0 0 
1 0 0 0 0 0 0 0 0 
-1 0 0 0 0 0 0 0 0 
0 0 0 1 0 0 0 0 0 
0 0 0 0 0 0 0 0 0 
0 0 0 0 0 0 0 -1 0 
0 -1 0 0 -1 0 0 0 0 
0 0 0 0 0 0 0 -1 0 
0 -1 0 0 0 0 0 0 0 
0 0 0 -1 1 0 0 0 0 
-1 0 0 0 0 0 0 0 0 
0 0 0 0 0 0 0 0 0 
0 0 0 0 0 0 0 0 0 
0 0 0 0 0 0 0 0 0 
0 0 0 0 0 0 0 0 0 
0 0 0 0 0 0 0 0 0 
0 0 0 0 0 0 0 0 0 
0 0 0 0 0 0 0 0 0 

v 3 72 double
-0.000245418 0.00135802 3.47328e-05 0.00430893 -0.00169304 -0.000141526 -0.00016218 0.00219589 2.81364e-06 
0.000333325 0.00365291 1.41776e-06 0.00283998 0.00674537 -0.0027889 0.00192217 0.000766694 -0.00145845 
0.0032183 0.00127224 0.000109778 0.00208789 0.000455616 -0.00109851 0.0131114 0.00233464 -0.00291751 
0.00380937 0.00745457 0.000230917 -0.000856592 0.00167534 -0.00872338 -0.000303291 0.000988504 -3.65123e-05 
0.00137412 0.00196012 -0.00125389 -0.00520009 -0.000392416 -0.00083695 0.00164041 -0.000316409 -0.0038068 
0.00975035 0.00568233 -0.00163789 0.000528826 0.00449052 2.84827e-05 0.00874206 0.00975715 -0.00216837 
0.00704089 0.0051265 -0.00148548 -0.00190495 0.00016574 -0.00449187 -0.000233011 0.000941333 -0.000912489 
0.00141876 0.0019723 -2.76103e-06 0.00138151 0.00380408 1.45845e-06 0.00478797 -0.0217214 -0.0134863 
0.000430772 0.0014462 -0.00929984 -0.00131619 0.00675436 -0.00207724 0.0032797 0.00132587 0.00199972 
0.0028656 -0.00164517 0.00557526 -0.000323167 0.00471981 0.00016957 0.000485983 0.00631567 0.000709646 
-0.000225099 0.00285947 -0.00246238 -0.000193413 0.000831338 0.000177691 -0.00322053 -0.00225628 -0.000760676 
0.00128434 0.00188547 -0.00019985 0.0025143 0.00271215 -4.69951e-05 -0.00343209 0.00185212 -1.5895e-05 
0.00675575 0.00681862 0.00107135 -0.00097723 0.00593926 -9.66092e-05 0.000323954 0.000817925 0.000315226 
-0.00010181 0.000481092 -4.69929e-05 0.00423054 -0.000454297 -0.00137385 0.00134024 0.000569947 -0.000237516 
-0.000270318 -0.00132834 -0.000123219 0.00171074 -6.64114e-05 -0.000207309 0.00117278 0.00100119 -0.000840711 
0.0173779 0.000500097 0.00483701 0.0110231 -0.0151365 -0.00105574 0.00282369 -0.0366799 -0.00268538 
-0.0121072 -0.022229 -0.00571323 0.00310609 -0.00382998 -0.00672835 0.0220784 -0.022409 -0.015343 
0.0156226 -0.00596509 -0.00107561 0.00758669 -0.0241 -0.0156751 0.00523762 0.00684119 0.00260356 
-0.00143836 -0.0051766 -0.00380933 0.0190008 -0.00128508 0.00823445 0 0 -0.167233 
-0.0320523 -0.0141808 -0.115306 -0.0128776 0.00541668 -0.0246412 0 0 -0.138441 
0 0 -0.137519 0 0 -0.121705 0 0 -0.12147 
0 0 -0.103419 0 0 -0.0585092 0 0 -0.0732242 
0 0 -0.0671616 -0 -0 -0.02 -0 -0 -0.02 
-0 -0 -0.02 -0 -0 -0.02 -0 -0 -0.02 

f 3 72 double
4.06834e-08 -4.52639e-09 -2.54974e-08 0 0 -1.0273e-07 2.80491e-09 8.14225e-10 -6.62297e-09 
1.02962e-14 1.13111e-13 -3.8548e-10 4.76307e-08 -1.32968e-07 1.65537e-07 -6.80202e-08 2.22327e-08 -1.59107e-07 
-1.27702e-07 -2.35106e-08 2.5541e-09 0 0 -1.0273e-07 -8.3109e-07 -5.38331e-08 1.80841e-06 
2.59787e-07 -5.07665e-08 2.73225e-07 2.29412e-08 -6.7857e-08 -5.7841e-08 -2.45878e-09 -4.12528e-09 -7.33276e-09 
1.21026e-08 2.02575e-08 -3.76956e-08 -7.0805e-07 -5.3859e-07 1.04349e-06 -5.72081e-07 -5.74459e-07 1.55739e-06 
-4.26826e-07 -2.33655e-07 3.56665e-06 0 0 -1.0273e-07 -6.85535e-07 5.42322e-07 1.70585e-06 
2.09684e-06 6.21116e-07 -1.09225e-07 -1.75719e-07 7.47545e-08 -2.47247e-08 0 0 -1.0273e-07 
-6.65431e-07 -2.7258e-07 -2.43921e-07 -2.72665e-07 7.26394e-08 4.17764e-08 0 0 -1.0273e-07 
0 0 -1.0273e-07 0 0 -1.0273e-07 -3.63927e-08 -2.20428e-08 8.17159e-08 
0 0 -1.0273e-07 -3.1201e-08 3.13304e-08 -7.25614e-08 -2.1664e-10 1.72789e-09 -7.25195e-08 
6.24244e-07 2.52026e-07 4.2542e-08 1.60508e-08 2.71218e-08 1.15546e-08 0 0 -1.0273e-07 
-1.69306e-08 -2.45591e-09 -1.54583e-09 2.70663e-09 -8.13347e-09 -4.76854e-09 5.06344e-08 -4.2464e-08 2.94371e-08 
0 0 -1.0273e-07 -8.60985e-09 -4.76273e-08 -5.93155e-09 -8.04002e-08 3.18883e-08 8.44953e-08 
7.62555e-09 -2.07587e-09 3.91387e-08 -6.23004e-08 -1.07837e-07 1.58473e-07 4.7744e-07 -1.37535e-07 5.26019e-08 
-3.29456e-11 1.24972e-10 -3.26583e-08 -5.94549e-08 -2.31505e-08 -3.91631e-08 6.96757e-08 5.21667e-08 3.22866e-08 
0 0 -1.0273e-07 0 0 -1.0273e-07 -2.90456e-07 -4.58206e-09 2.45784e-07 
0 0 -1.0273e-07 1.04797e-06 -2.05808e-06 -2.16825e-06 -1.93918e-05 1.16872e-05 -3.35748e-05 
0 0 -1.0273e-07 -1.04797e-06 2.05808e-06 1.96279e-06 -4.74677e-09 -3.18539e-08 1.06782e-08 
6.61563e-09 9.80369e-09 -1.32617e-07 0 0 -1.0273e-07 0 0 -1.0273e-07 
1.93918e-05 -1.16872e-05 3.33693e-05 0 0 -1.0273e-07 0 0 -1.0273e-07 
0 0 -1.0273e-07 0 0 -1.0273e-07 0 0 -1.0273e-07 
0 0 -1.0273e-07 0 0 -1.0273e-07 0 0 -1.0273e-07 
0 0 -1.0273e-07 0 0 0 0 0 0 
0 0 0 0 0 0 0 0 0 

radius 1 72 double
0.0001 0.0001 0.0001 0.0001 0.0001 0.0001 0.0001 0.0001 0.0001 
0.0001 0.0001 0.0001 0.0001 0.0001 0.0001 0.0001 0.0001 0.0001 
0.0001 0.0001 0.0001 0.0001 0.0001 0.0001 0.0001 0.0001 0.0001 
0.0001 0.0001 0.0001 0.0001 0.0001 0.0001 0.0001 0.0001 0.0001 
0.0001 0.0001 0.0001 0.0001 0.0001 0.0001 0.0001 0.0001 0.0001 
0.0001 0.0001 0.0001 0.0001 0.0001 0.0001 0.0001 0.0001 0.0001 
0.0001 0.0001 0.0001 0.0001 0.0001 0.0001 0.0001 0.0001 0.0001 
0.0001 0.0001 0.0001 0.0001 0.0001 0.0001 0.0001 0.0001 0.0001 

omega 3 72 double
-12.6671 -3.74649 -4.68007 21.814 57.7799 30.3527 -22.3933 -0.508018 13.1555 
-36.5329 3.3336 -39.296 7.13778 36.5941 -78.4775 32.5753 -55.8046 13.6226 
-11.6233 36.3435 -30.8782 74.5712 -26.1401 -43.9683 -17.2752 126.727 -156.608 
12.6326 -16.1751 66.4423 10.3581 36.5342 -12.713 -9.94785 -2.99635 10.4154 
-3.25187 21.4183 -13.8813 5.56292 -59.6009 -4.66757 -10.1916 133.71 -11.5267 
76.7266 -186.272 52.4999 -47.9577 6.19574 13.1807 -108.67 86.7173 95.5527 
-43.1818 -33.7321 -91.0196 113.714 -75.9901 16.267 61.4475 -43.8104 -35.9587 
-17.7974 10.3408 3.95452 -32.839 23.6839 -37.1221 223.829 185.35 46.4292 
-7.54657 -13.9321 11.2805 -77.3662 23.0178 -78.427 80.0617 58.3745 -23.6447 
219.547 44.4365 58.0394 -47.781 -5.66886 33.0999 31.337 11.942 -27.8746 
-19.3758 3.88432 -17.037 -10.3616 -3.58135 -28.7381 9.37938 -32.5696 -94.2263 
-8.57402 13.562 26.6926 -27.2049 25.079 82.9683 -0.762137 -13.1463 -37.7206 
-76.7341 27.9907 30.2649 -36.7666 -13.8643 39.2104 13.0612 7.26257 27.5945 
-4.27456 -0.748506 -45.9409 25.9654 33.6921 -50.1501 -12.297 -1.32837 27.7786 
13.1644 -2.71278 -129.207 -6.19791 -31.4103 47.4782 1.45674 6.94492 10.629 
-116.732 164.577 180.989 148.975 138.735 49.4174 431.422 -93.8051 -195.595 
-139.347 -243.859 153.238 87.254 145.645 30.9608 283.318 464.447 54.5864 
201.355 47.5778 207.615 10.3892 -150.095 47.3681 -87.3703 48.4425 -20.045 
53.8532 -20.9595 53.4921 19.832 296.074 -5.04383 0 0 0 
60.2287 -286.69 -212.525 -323.786 -51.9668 -11.7922 0 0 0 
0 0 0 0 0 0 0 0 0 
0 0 0 0 0 0 0 0 0 
0 0 0 0 0 0 0 0 0 
0 0 0 0 0 0 0 0 0 

