# vtk DataFile Version 4.0
Generated by LIGGGHTS
ASCII
DATASET POLYDATA
POINTS 7 float
-0.000126131 -0.000354452 0.0019652 -8.55993e-05 -9.49301e-05 0.00199624 0.000309254 4.03266e-05 0.00202629 
-0.00034893 0.000195614 0.00207251 0.000138855 0.000227547 0.00194342 -0.000278063 0.000383223 0.00209007 
0.000294782 0.000367894 0.00199035 
VERTICES 7 14
1 0 
1 1 
1 2 
1 3 
1 4 
1 5 
1 6 

POINT_DATA 7
FIELD FieldData 7
id 1 7 int
6 1 2 3 5 7 4 
type 1 7 int
1 1 1 1 1 1 1 
i 3 7 int
0 0 0 0 0 0 0 0 0 
0 0 0 0 0 0 0 0 0 
0 0 0 
v 3 7 double
0 0 -0.0329051 0 0 -0.0217707 -0 -0 -0.02 
-0 -0 -0.02 0 0 -0.0388597 -0 -0 -0.02 
0 0 -0.0242723 
f 3 7 double
0 0 -1.0273e-07 0 0 -1.0273e-07 0 0 0 
0 0 0 0 0 -1.0273e-07 0 0 0 
0 0 -1.0273e-07 
radius 1 7 double
0.0001 0.0001 0.0001 0.0001 0.0001 0.0001 0.0001 
omega 3 7 double
0 0 0 0 0 0 0 0 0 
0 0 0 0 0 0 0 0 0 
0 0 0 
