# vtk DataFile Version 4.0
Generated by LIGGGHTS
ASCII
DATASET POLYDATA
POINTS 112 float
-0.000473522 -0.000413285 9.99777e-05 -0.000349624 -0.000463417 0.000265067 -0.000276807 -0.000377017 9.99796e-05 
-0.000141146 -0.00032684 0.000244967 -9.24866e-05 -0.000455543 9.98893e-05 4.90903e-05 -0.000416145 0.000235567 
0.000194094 -0.000392633 9.99208e-05 0.000372802 -0.000384409 0.000251613 -0.000451262 -0.000291392 0.000271083 
-0.000387583 -0.000209526 9.99794e-05 -0.000187903 -0.000197268 9.99863e-05 -0.000289059 -0.000169021 0.000270183 
-4.12921e-06 -0.000276234 9.9953e-05 6.33326e-05 -0.000184587 0.000264357 0.000177775 -0.000193297 9.99529e-05 
0.000296277 -0.000194215 0.000260968 0.00047412 -0.0001138 0.000217616 0.00039735 -0.000256369 9.99703e-05 
-0.000473018 3.89268e-05 9.99231e-05 -0.000379141 9.62906e-06 0.000274295 -0.000276045 -1.34671e-05 9.99794e-05 
-0.000108494 -6.23087e-05 0.000224421 -0.000103113 9.43199e-05 9.99729e-05 4.67143e-05 -4.10906e-05 0.000100032 
0.000186071 -2.81874e-05 0.000243069 0.000323062 -5.54404e-05 9.99668e-05 0.000369202 5.04269e-05 0.000263229 
-0.000333783 0.000182795 9.99803e-05 -0.000479242 0.000179727 0.000241712 -0.000221069 0.000130917 0.000257253 
-0.000167115 0.000298355 9.99794e-05 3.69001e-05 0.000104956 0.000242461 -6.8527e-05 0.000272102 0.000272815 
2.85281e-05 0.000245161 9.99331e-05 0.000177162 0.000111346 0.000100019 0.000131007 0.000290957 0.000265375 
0.000350553 0.000282963 0.000262086 0.0003712 0.000166015 9.99954e-05 -0.000322972 0.000303063 0.000259919 
-0.000329673 0.000424371 9.99774e-05 -0.000176423 0.0004384 0.000247029 7.79286e-05 0.000439767 9.99643e-05 
0.000239168 0.000321474 9.99681e-05 0.000216151 0.000470619 0.000244083 0.000499866 0.00031922 9.99474e-05 
0.000354298 0.000484983 9.99694e-05 0.000473931 0.000443101 0.000254733 -0.000485046 -0.000431029 0.000410208 
-0.000276639 -0.000327097 0.000392024 -1.15426e-05 -0.000314456 0.000396701 0.000104754 -0.000446713 0.000491367 
0.000200703 -0.000347648 0.000346529 0.000322745 -0.000495944 0.000409877 -0.000440202 -0.000136232 0.000396972 
-8.6732e-05 -0.000147029 0.000476051 0.000142766 -0.000194404 0.000461154 0.000405808 -0.000262654 0.00041362 
-0.000219893 -2.48718e-05 0.000390236 5.02577e-05 -2.94758e-05 0.000389903 0.000290541 -6.0852e-05 0.000410554 
-0.000358032 0.00016397 0.000400102 -0.000203245 0.000289095 0.000419616 -8.53293e-05 0.000122428 0.000404324 
5.8639e-05 0.000254235 0.000448125 0.000213536 0.000133664 0.000357201 0.000437393 0.000152114 0.000421359 
-0.000359891 0.000413315 0.000422596 -0.000175116 0.000489951 0.000440219 1.96215e-05 0.000429325 0.000359508 
0.000248377 0.000318903 0.000430365 0.000450169 0.000351442 0.000430897 -0.000330975 -0.000435947 0.000550714 
-0.000145741 -0.000340775 0.000542584 -9.32835e-05 -0.000460176 0.000694547 0.000273437 -0.000348959 0.000536128 
0.000142551 -0.000388835 0.000681958 0.000486229 -0.000500624 0.000599963 -0.000281743 -0.000169025 0.000514415 
-0.000284042 -0.000294073 0.000683574 2.54578e-05 -0.000240247 0.000616654 0.000227169 -0.000189153 0.000647704 
0.000489013 -0.00026159 0.000595579 -0.000441587 2.4433e-05 0.000516481 -0.000312585 -3.49524e-05 0.000659536 
-0.000141692 2.17422e-05 0.000568784 0.000131108 -2.75732e-05 0.000572773 0.000288492 9.1392e-05 0.000540226 
0.000398799 -8.34583e-05 0.000577258 -0.000400948 0.000274916 0.00056105 -0.000120233 0.000233312 0.000592762 
2.23633e-05 0.000114158 0.000666643 0.000200847 0.000211524 0.000673853 0.000376737 0.000269038 0.000597783 
-0.000227039 0.000404447 0.000613484 0.000297597 0.000469629 0.000660155 0.000134984 0.000378944 0.000584531 
-0.000507489 -0.000113145 0.000751455 2.93334e-05 -7.71276e-05 0.000737596 7.76533e-06 0.000338596 0.00073367 
0.000343863 0.00011214 0.000998312 -0.000370272 -0.000343371 0.00117062 -0.000246641 0.000262031 0.00118079 
0.000163987 3.50823e-05 0.00140497 -1.73693e-05 -0.000387406 0.00166864 -0.000171239 -0.000173469 0.00159431 
4.96403e-05 0.000347882 0.00172493 0.000177123 -0.000390488 0.00199429 0.000394365 -0.000138869 0.00202279 
-0.000302996 -2.39937e-05 0.00204076 0.000171171 -5.3387e-05 0.00207854 0.000368687 0.000232263 0.00208173 
-7.53111e-05 0.00038845 0.00205118 
VERTICES 112 224
1 0 
1 1 
1 2 
1 3 
1 4 
1 5 
1 6 
1 7 
1 8 
1 9 
1 10 
1 11 
1 12 
1 13 
1 14 
1 15 
1 16 
1 17 
1 18 
1 19 
1 20 
1 21 
1 22 
1 23 
1 24 
1 25 
1 26 
1 27 
1 28 
1 29 
1 30 
1 31 
1 32 
1 33 
1 34 
1 35 
1 36 
1 37 
1 38 
1 39 
1 40 
1 41 
1 42 
1 43 
1 44 
1 45 
1 46 
1 47 
1 48 
1 49 
1 50 
1 51 
1 52 
1 53 
1 54 
1 55 
1 56 
1 57 
1 58 
1 59 
1 60 
1 61 
1 62 
1 63 
1 64 
1 65 
1 66 
1 67 
1 68 
1 69 
1 70 
1 71 
1 72 
1 73 
1 74 
1 75 
1 76 
1 77 
1 78 
1 79 
1 80 
1 81 
1 82 
1 83 
1 84 
1 85 
1 86 
1 87 
1 88 
1 89 
1 90 
1 91 
1 92 
1 93 
1 94 
1 95 
1 96 
1 97 
1 98 
1 99 
1 100 
1 101 
1 102 
1 103 
1 104 
1 105 
1 106 
1 107 
1 108 
1 109 
1 110 
1 111 

POINT_DATA 112
FIELD FieldData 7
id 1 112 int
4 46 28 51 7 18 9 20 44 
19 27 47 1 29 11 34 40 15 
3 42 14 30 24 10 38 26 49 
12 32 35 25 23 37 13 16 31 
45 2 33 17 36 8 5 22 21 
6 39 63 62 54 77 41 50 52 
67 73 56 53 55 61 60 75 64 
68 43 57 71 58 48 69 59 90 
65 94 72 96 70 76 97 89 81 
86 66 88 79 85 74 87 84 80 
92 93 78 91 82 83 98 99 95 
101 106 102 100 105 104 103 110 111 
109 112 107 108 
type 1 112 int
1 1 1 1 1 1 1 1 1 
1 1 1 1 1 1 1 1 1 
1 1 1 1 1 1 1 1 1 
1 1 1 1 1 1 1 1 1 
1 1 1 1 1 1 1 1 1 
1 1 1 1 1 1 1 1 1 
1 1 1 1 1 1 1 1 1 
1 1 1 1 1 1 1 1 1 
1 1 1 1 1 1 1 1 1 
1 1 1 1 1 1 1 1 1 
1 1 1 1 1 1 1 1 1 
1 1 1 1 1 1 1 1 1 
1 1 1 1 
i 3 112 int
1 1 0 0 1 0 0 1 0 
0 0 0 0 1 0 0 0 0 
-1 0 0 0 0 0 0 1 0 
0 0 0 0 0 0 0 0 0 
0 0 0 0 0 0 -1 0 0 
0 0 0 0 0 0 -1 0 0 
0 0 0 0 0 0 0 0 0 
0 0 0 1 0 0 0 0 0 
0 0 0 -1 0 0 0 0 0 
0 0 0 0 0 0 0 0 0 
1 0 0 0 0 0 0 0 0 
0 0 0 0 0 0 0 0 0 
0 0 0 0 0 0 0 0 0 
0 -1 0 0 -1 0 0 -1 0 
0 0 0 0 0 0 0 -1 0 
0 -1 0 0 0 0 0 1 0 
1 0 0 0 0 0 0 0 0 
0 0 0 0 0 0 0 0 0 
0 0 0 0 0 0 0 0 0 
0 0 0 0 0 0 0 0 0 
0 0 0 0 0 0 0 0 0 
0 0 0 0 0 0 0 0 0 
0 0 0 0 -1 0 0 0 0 
0 0 0 0 0 0 0 0 0 
0 0 0 0 0 0 0 0 0 
0 0 0 -1 0 0 0 0 0 
0 0 0 0 0 0 0 0 0 
0 0 0 0 0 0 0 0 0 
0 0 0 0 0 0 0 0 0 
0 0 0 0 0 0 0 0 0 
0 0 0 0 0 0 0 0 0 
0 0 0 0 -1 0 0 0 0 
0 0 0 0 0 0 0 0 0 
0 0 0 0 0 0 0 0 0 
0 0 0 0 0 0 0 0 0 
0 0 0 0 0 0 0 0 0 
0 0 0 0 0 0 0 0 0 
0 0 0 
v 3 112 double
-2.02596e-05 0.00118915 -2.66186e-05 -0.000266232 0.000386327 0.000406467 7.06368e-05 0.000842545 1.79413e-05 
0.00236427 0.000945217 -0.000221643 -1.92878e-05 -5.41182e-05 0.000235511 0.00057306 -0.000419642 0.000340559 
-0.000239773 0.000829316 -0.000700011 -0.00160951 0.000303878 0.000493888 -0.00109853 5.17542e-05 -0.000991858 
0.00153954 0.000178679 -9.87178e-07 0.000689402 0.000481162 6.69803e-05 0.000611831 -0.00100728 0.000193273 
0.000758329 0.00119183 0.000413534 0.00309542 -0.000465564 0.00137195 0.0013525 0.00145622 -7.52855e-05 
-6.61511e-05 0.000676499 0.00103676 -0.000504328 0.00063606 0.00124011 -0.000390784 0.000783245 0.000440826 
-0.000175041 8.04998e-05 0.000514107 0.000105912 0.000723608 0.00136643 0.000468645 0.000268975 -5.63972e-16 
-0.00254356 9.71463e-06 0.000805743 -0.000207341 0.000915291 0.000462717 -0.000539523 0.00158087 0.00139327 
0.00294957 -0.000130818 0.00117152 0.000862067 -0.000407686 -2.14958e-06 0.000252767 -0.000173538 0.000788113 
0.000917122 0.00253086 -8.31011e-05 -0.00115513 0.000223631 0.00075172 0.000196838 0.00142585 0.00195136 
0.000203118 -0.00051652 -5.639e-16 0.00162218 -0.00156049 0.000203667 0.000465578 -0.00111801 0.000434472 
-0.000886851 0.000141531 0.000282962 0.000912754 0.00149441 0.000834469 -0.000217946 0.000741628 0.000504672 
0.000360556 0.0027428 0.00265048 0.00132327 0.00100026 0.000203381 -0.000727163 0.00032697 0.0028622 
0.00121561 0.00235914 8.9661e-06 0.000416857 0.000214524 0.00223592 3.56872e-06 0.000121508 -0.000263546 
0.000118549 5.56732e-05 0.000268504 0.000320196 0.000995886 -0.000942441 0.000772635 0.000103244 5.7013e-05 
0.000590669 0.000150153 6.40216e-05 0.000158561 0.000238489 8.6856e-05 -0.000988454 0.00074296 9.47506e-05 
0.00290849 -0.000634517 0.00036624 0.000992497 -0.00166144 0.00022349 0.00095771 -6.63673e-06 0.00234541 
-0.00147772 0.00155943 0.00066212 -0.000253784 0.000119107 0.000176535 0.000959489 -0.000701862 0.000999255 
0.000705177 -0.00211681 0.00154116 -0.000490353 0.00733808 -0.00642501 0.00138752 -0.0014916 -0.000266598 
0.00153629 -0.00354498 -0.00059154 0.0014962 -0.000615321 0.00181586 0.00128361 -0.000351669 0.0060837 
0.000556267 0.000666569 4.46448e-05 0.000144204 0.000250322 0.000595712 -0.000279205 -0.00241661 -0.00199438 
-0.00418153 0.00253068 -0.000431906 0.000344948 0.000737623 0.00104037 0.000349826 0.000393534 0.00177618 
0.000807309 0.00145421 0.00204998 0.00154121 0.0018831 0.0014399 0.00141216 -0.00021254 0.000431893 
-1.12966e-05 -0.00116251 0.00439239 0.0006385 0.000958332 0.000853041 0.00296537 0.00154821 0.00244848 
0.00149332 0.00149479 0.0017182 0.00435411 -0.0163883 -0.0130806 -0.000121501 0.000894185 -0.000243815 
0.00466684 -0.00915677 0.00108172 0.00874204 -0.0182782 -3.92978e-05 0.000145284 -0.00212981 0.00206864 
-0.00371913 0.00506174 0.00201849 0.00470452 -0.0142922 -0.0095649 0.0115608 0.00992117 -0.00867875 
0.00441093 -0.00664629 -0.0036112 0.00158807 -0.000595487 0.0003186 -0.000727843 -0.00684938 0.00561426 
0.00185352 -0.000383858 -0.000120239 0.0043586 -0.00194809 0.00147108 0.00112638 0.00263399 0.00271546 
0.00933096 -0.00876186 0.00170223 -0.00825665 0.00176803 -0.00149292 0.00266686 0.00675471 0.00184394 
0.00209399 0.00436394 -0.00212754 0.000863431 0.00101477 -0.00672698 0.00635134 -0.00226771 0.000564417 
-0.00350105 -0.00775867 -0.00827391 0.00590911 -0.0155832 -0.00455454 -0.00710147 -0.000666737 0.00427046 
-0.00645343 -0.030073 0.00756381 -0.00252259 -0.00975326 -0.00451881 -0.0342613 0.0359474 -0.00773147 
0 0 -0.14161 0 0 -0.129122 0 0 -0.128347 
0 0 -0.109884 0 0 -0.0830734 0 0 -0.0914315 
0 0 -0.0761377 0 0 -0.0226242 -0 -0 -0.02 
-0 -0 -0.02 -0 -0 -0.02 -0 -0 -0.02 
-0 -0 -0.02 
f 3 112 double
6.74986e-09 9.68886e-10 2.70462e-09 1.18703e-07 -2.13164e-08 1.4257e-08 -4.22223e-12 1.97241e-12 -4.83208e-09 
-2.14012e-07 3.27055e-08 -1.36487e-07 5.0437e-08 5.92631e-08 4.4433e-08 -3.42791e-08 -6.14452e-08 7.66958e-08 
-4.5843e-08 -4.00676e-08 8.50329e-08 1.54936e-07 -5.37896e-08 -1.94443e-07 1.04675e-07 1.74157e-07 5.46388e-08 
-3.30702e-14 -3.9821e-15 -1.48997e-11 -1.38469e-08 -1.20925e-08 -1.2534e-07 -2.57512e-07 -3.28371e-07 -4.52702e-07 
-1.52912e-07 3.32916e-08 -3.62333e-08 -2.16669e-08 -1.14713e-07 -4.63513e-08 -1.4858e-07 -1.43378e-08 -1.46796e-08 
-1.72305e-07 -1.44502e-09 -2.53734e-08 -1.33377e-08 9.0998e-08 2.05111e-08 8.63835e-09 4.98789e-09 -1.18167e-08 
-1.14826e-07 2.06332e-08 -4.16463e-08 1.28398e-07 8.76223e-08 -1.51406e-07 7.61825e-23 -8.37117e-23 0 
0 0 -1.0273e-07 -5.60978e-09 -1.92503e-08 -1.59444e-08 0 0 -1.0273e-07 
-1.69156e-07 -8.54844e-08 -2.93592e-07 1.80068e-07 -9.99127e-08 1.38029e-08 3.75444e-08 2.57535e-08 -2.32883e-08 
4.03396e-09 5.47466e-09 8.0397e-09 -1.88318e-07 -3.78942e-08 1.1224e-08 7.157e-08 6.7733e-08 -9.31773e-08 
-1.42795e-22 -3.0556e-22 0 1.93698e-08 9.5856e-08 -1.81202e-07 3.32723e-08 -2.86577e-08 -2.11515e-07 
-2.93288e-08 -2.85552e-08 5.26984e-08 -2.69842e-08 7.61268e-09 -1.00642e-07 -3.18617e-08 -1.52477e-08 8.91123e-09 
0 0 -1.0273e-07 4.40068e-10 7.67813e-09 -1.18112e-07 4.27177e-08 -1.10098e-07 -9.06851e-08 
1.23476e-08 8.69875e-09 1.35873e-08 1.88134e-07 -1.47865e-08 -2.47162e-08 -1.13275e-07 -1.1847e-08 -9.85488e-10 
-3.90539e-08 -3.21526e-08 -4.28125e-08 -7.07992e-08 -3.10659e-08 9.76782e-08 -1.45574e-07 -1.19995e-07 3.84879e-08 
-4.82435e-08 -3.95077e-08 6.08496e-08 -2.02761e-07 -8.81334e-08 7.24827e-08 -1.86534e-11 -1.41964e-09 -9.88631e-08 
-1.87482e-07 -7.16493e-08 -1.4949e-07 7.38327e-08 1.8702e-07 8.15781e-08 1.8813e-07 -2.47119e-08 5.18062e-08 
6.46888e-08 -8.80141e-08 -1.49906e-07 -1.25581e-07 -9.41043e-08 9.91332e-08 8.22133e-08 1.38815e-07 -1.94558e-07 
9.48019e-08 1.55116e-07 2.9246e-08 -1.535e-07 1.28073e-07 1.44414e-07 -1.34469e-07 7.97916e-08 -1.24751e-07 
2.25748e-07 5.1401e-07 2.50193e-07 -2.59252e-08 1.21046e-08 -1.43066e-07 9.62122e-10 -1.28967e-09 -1.04369e-07 
-4.99682e-08 -7.58119e-08 -4.9968e-08 1.16409e-07 -5.1964e-08 -1.20291e-07 1.39341e-07 -2.41382e-07 2.08719e-07 
-1.59693e-09 -5.79128e-08 -2.22096e-08 1.89239e-07 1.14641e-07 2.33496e-07 4.16875e-08 -1.73636e-08 -1.32781e-07 
-8.94311e-09 -8.56261e-08 -9.70413e-08 -1.11174e-08 -4.74386e-08 1.81531e-07 0 0 -1.0273e-07 
0 0 -1.0273e-07 7.06605e-08 -2.33614e-07 -9.42637e-10 -3.83842e-08 7.02976e-08 6.12092e-08 
-1.51871e-08 5.08377e-09 1.75384e-08 0 0 -1.0273e-07 -1.37888e-07 7.22177e-09 2.18946e-08 
-7.80559e-08 3.18428e-08 5.15836e-08 0 0 -1.0273e-07 2.76826e-07 1.04659e-07 -1.83556e-07 
2.82198e-08 9.93345e-08 -7.37388e-09 0 0 -1.0273e-07 0 0 -1.0273e-07 
0 0 -1.0273e-07 -9.6795e-09 2.26386e-08 -1.89187e-07 -8.1262e-08 6.59924e-08 9.75183e-08 
0 0 -1.0273e-07 -1.00875e-07 4.17458e-08 -3.65314e-08 1.12799e-06 -1.18415e-06 -8.09758e-07 
0 0 -1.0273e-07 0 0 -1.0273e-07 2.6243e-08 -1.45e-08 -7.36319e-08 
9.59205e-08 -7.78038e-08 -4.31639e-09 -1.00355e-06 1.12647e-06 6.44293e-07 0 0 -1.0273e-07 
0 0 -1.0273e-07 0 0 -1.0273e-07 1.28148e-08 -2.24026e-08 1.67437e-08 
0 0 -1.0273e-07 -1.08276e-07 -9.41541e-08 4.1336e-08 0 0 -1.0273e-07 
0 0 -1.0273e-07 0 0 -1.0273e-07 0 0 -1.0273e-07 
0 0 -1.0273e-07 0 0 -1.0273e-07 0 0 -1.0273e-07 
0 0 -1.0273e-07 0 0 -1.0273e-07 0 0 0 
0 0 0 0 0 0 0 0 0 
0 0 0 
radius 1 112 double
0.0001 0.0001 0.0001 0.0001 0.0001 0.0001 0.0001 0.0001 0.0001 
0.0001 0.0001 0.0001 0.0001 0.0001 0.0001 0.0001 0.0001 0.0001 
0.0001 0.0001 0.0001 0.0001 0.0001 0.0001 0.0001 0.0001 0.0001 
0.0001 0.0001 0.0001 0.0001 0.0001 0.0001 0.0001 0.0001 0.0001 
0.0001 0.0001 0.0001 0.0001 0.0001 0.0001 0.0001 0.0001 0.0001 
0.0001 0.0001 0.0001 0.0001 0.0001 0.0001 0.0001 0.0001 0.0001 
0.0001 0.0001 0.0001 0.0001 0.0001 0.0001 0.0001 0.0001 0.0001 
0.0001 0.0001 0.0001 0.0001 0.0001 0.0001 0.0001 0.0001 0.0001 
0.0001 0.0001 0.0001 0.0001 0.0001 0.0001 0.0001 0.0001 0.0001 
0.0001 0.0001 0.0001 0.0001 0.0001 0.0001 0.0001 0.0001 0.0001 
0.0001 0.0001 0.0001 0.0001 0.0001 0.0001 0.0001 0.0001 0.0001 
0.0001 0.0001 0.0001 0.0001 0.0001 0.0001 0.0001 0.0001 0.0001 
0.0001 0.0001 0.0001 0.0001 
omega 3 112 double
-11.7486 -0.453037 22.2274 -24.6945 -19.876 5.87659 -8.4263 0.706097 -19.3845 
-8.70972 17.0595 -18.2761 1.4973 -1.64256 -5.49856 8.36056 15.1689 9.27964 
-7.07399 -1.41939 9.88987 8.53616 8.15983 0.637501 7.65501 22.9994 0.0550145 
-1.78697 15.397 -14.0944 -4.25663 7.02248 22.1426 6.31106 -1.24037 -4.75366 
6.63713 12.349 5.75741 19.9959 16.4765 -0.420178 -0.622095 -4.46895 -7.48131 
11.2988 -12.562 8.88345 -0.176766 13.8584 -13.5645 -8.80191 -3.0535 -24.0719 
-1.10623 -1.43102 -0.868672 15.9092 4.08882 17.6909 -2.69002 4.68693 4.15777 
2.37679 -17.3124 26.9326 -8.44962 -0.267016 -3.37998 -15.9411 -4.83201 2.47274 
-1.88471 15.4127 4.56694 6.12473 7.25653 -22.0304 -7.9896 -25.7863 -2.19504 
-25.5888 9.37649 22.0473 0.342239 -4.51751 9.03066 15.9875 8.85217 -14.4074 
5.16573 2.03139 14.3429 -11.1096 -17.5862 9.0141 31.7113 -10.1374 -7.14815 
-1.3367 -10.1063 -21.2654 -13.632 9.08165 14.0147 -14.0266 9.71993 4.97816 
3.75762 32.772 -25.2956 -10.0187 13.1853 8.2202 18.5409 -6.76405 -9.99871 
-24.2564 13.0974 -5.41293 -13.4158 17.9498 0.415938 -1.82205 -1.10271 -7.41931 
-1.80456 1.47244 8.91776 4.14897 3.14689 -7.32189 -1.28253 7.11462 -14.1727 
-2.04489 5.51855 -13.2631 1.18218 -7.31584 19.0828 -27.7332 4.83662 -19.2431 
-3.09429 -21.4457 49.2108 6.59925 -30.2363 -19.792 -7.51907 -12.7604 47.9614 
-27.3801 -3.10879 -0.548635 4.56239 -13.7225 -1.36371 7.37183 -10.1539 -0.835632 
24.163 -2.8608 1.41105 -39.8551 -60.4019 -54.3607 25.1368 21.2642 8.27857 
-3.71821 -2.34867 -19.6566 -10.0977 -4.88365 9.75984 -35.0671 -59.0847 -3.0087 
1.83313 -10.7664 14.4901 -14.3235 20.6271 -0.877827 -11.7378 -11.7434 36.3425 
-6.83933 -52.8253 -2.47454 12.7988 -12.2534 0.214429 -0.367534 23.1599 -14.7217 
24.3842 -13.3717 -12.8516 -3.37347 -1.03099 11.2539 -10.4247 8.55939 -26.3621 
42.3009 -45.1681 14.8104 -8.8772 8.027 14.0031 -24.1652 -0.625045 -24.4301 
-8.00301 32.8168 -19.7253 183.145 37.1927 -23.5459 -1.52889 -22.2381 -30.4773 
-69.6299 60.4174 202.847 93.088 32.9778 203.325 -12.5401 6.69527 -8.39798 
-14.5037 -78.4972 45.7815 178.812 134.861 -28.6521 -98.9029 8.5672 -52.0184 
-0.829549 -13.7975 -145.291 -0.102042 10.5096 3.20551 88.9806 -42.0159 -10.0546 
8.35694 -7.95443 9.69752 46.3308 36.2599 41.0802 1.24826 -1.32152 -16.129 
188.319 144.468 75.8401 -2.84674 -91.251 -13.6755 -50.5869 2.50292 22.9754 
105.267 4.36781 -33.1006 -1.60395 -128.147 -55.5967 -12.286 37.9597 31.8055 
105.062 -48.4938 -9.75858 -133.683 -92.1286 -220.508 4.57377 -82.5521 -89.4316 
44.3364 -327.379 -95.4292 -70.8656 -180.554 150.202 -426.728 -168.178 -75.5876 
0 0 0 0 0 0 0 0 0 
0 0 0 0 0 0 0 0 0 
0 0 0 0 0 0 0 0 0 
0 0 0 0 0 0 0 0 0 
0 0 0 
