# vtk DataFile Version 4.0
Generated by LIGGGHTS
ASCII
DATASET POLYDATA
POINTS 167 float
-0.000468786 -0.000418181 9.99794e-05 -0.000342008 -0.000459179 0.000262488 -0.000275421 -0.000363406 9.99794e-05 
-0.00014016 -0.000320712 0.000241193 -9.57202e-05 -0.000455062 9.99132e-05 4.79879e-05 -0.00041706 0.000233649 
0.00019705 -0.00039062 9.99631e-05 0.000384669 -0.000387219 0.000248425 -0.000443205 -0.000286769 0.00026487 
-0.000380649 -0.00019266 9.99113e-05 -0.000180736 -0.00018514 9.99125e-05 -0.000281893 -0.000156797 0.000269986 
-3.49107e-06 -0.000277637 9.99053e-05 6.35098e-05 -0.000193026 0.000268171 0.000177073 -0.000191673 9.99186e-05 
0.000299035 -0.000200858 0.000258048 0.000474223 -0.000110197 0.000220367 0.000408406 -0.000255529 9.98823e-05 
-0.00047772 4.19874e-05 9.99259e-05 -0.000380718 1.69493e-05 0.000272955 -0.000285618 -1.48911e-05 9.99577e-05 
-0.000104365 -5.61876e-05 0.000232305 -0.000102324 9.36894e-05 9.99304e-05 4.48626e-05 -4.16718e-05 9.99633e-05 
3.90633e-05 9.91015e-05 0.000241855 0.000185703 -3.68067e-05 0.000242662 0.000324168 -5.62189e-05 9.98596e-05 
0.000363498 5.44048e-05 0.000261723 -0.000332551 0.000179486 9.9921e-05 -0.00048573 0.000184638 0.00024454 
-0.00021869 0.000133103 0.000257642 -0.00017023 0.000296407 9.99557e-05 -6.89192e-05 0.000265046 0.000269471 
3.39689e-05 0.000240035 9.9905e-05 0.000181675 0.000104777 9.99794e-05 0.000129701 0.000287993 0.000268759 
0.000343736 0.000287259 0.000263369 0.000370236 0.000171892 9.9975e-05 -0.000324782 0.000302597 0.000257218 
-0.000323856 0.000425914 9.98969e-05 -0.000494921 0.000322282 9.98885e-05 -0.000174069 0.000433507 0.000246232 
7.21766e-05 0.000436308 9.99316e-05 0.000232639 0.000317011 9.98766e-05 0.000219084 0.000463675 0.000235101 
0.000366546 0.000466933 9.99794e-05 0.000485128 0.000440281 0.000260033 -0.000483255 -0.000424654 0.000404027 
-0.000276029 -0.000318087 0.000387885 -0.000166008 -0.000480495 0.000426539 -1.81222e-05 -0.000327091 0.000399512 
0.000108931 -0.000457953 0.000481539 0.000208281 -0.000359792 0.000338498 -0.000435301 -0.000136575 0.000396639 
-9.58445e-05 -0.000152459 0.000458168 0.000150963 -0.000202378 0.000447698 0.000407064 -0.000257925 0.000416269 
-0.000233109 -1.63071e-05 0.000403609 5.05854e-05 -3.47062e-05 0.000389969 0.00029422 -6.83192e-05 0.000407636 
-0.000352986 0.000167386 0.000401747 -0.000202016 0.000297804 0.000414975 -8.19199e-05 0.000114548 0.000402308 
4.59582e-05 0.0002612 0.000448305 0.000203445 0.000125216 0.000358478 0.000452628 0.000127091 0.000425799 
-0.000363357 0.000415885 0.000417335 -6.87087e-07 0.000432106 0.000355537 0.000240996 0.000306591 0.000433842 
0.000337437 0.000485041 0.000394843 0.000457377 0.000327522 0.000422849 -0.000335729 -0.000430393 0.00054211 
-0.000155905 -0.000320873 0.000547696 -5.5597e-05 -0.000487763 0.000593074 4.60806e-05 -0.000300195 0.000587064 
0.000284503 -0.000372608 0.000524897 0.000165465 -0.000436707 0.000672196 0.000494027 -0.000332637 0.000580102 
0.000364224 -0.000425605 0.000700484 -0.000333313 -0.000284667 0.000678978 -0.000415417 -0.000102359 0.000681133 
-0.000284117 -0.000169396 0.000523193 -2.63758e-05 -0.000122519 0.000643244 0.00026672 -0.00019274 0.000610432 
0.000434543 -0.000105736 0.000545272 -0.000409925 1.76364e-05 0.000521288 -0.000148879 2.25587e-05 0.000580682 
0.000141051 -4.30662e-05 0.000568124 0.000289915 8.61373e-05 0.000534486 0.000451598 7.88399e-05 0.00065189 
-0.000403429 0.000280357 0.000558816 -0.000305822 0.000118634 0.000658907 -0.000145442 0.000222233 0.000591259 
2.59728e-05 0.000119278 0.000587702 0.000190244 0.000213395 0.000652093 0.000379307 0.000255469 0.00059221 
-0.000225787 0.000407075 0.000580706 9.55462e-05 0.000381585 0.000600019 0.000287898 0.000433016 0.000581474 
0.000491616 0.00046201 0.000566839 -0.000466604 -0.000377483 0.000795609 -0.00026181 -0.000386466 0.000835529 
-9.22045e-05 -0.000351505 0.000734763 0.000220599 -0.000462165 0.000882566 -0.000323009 -0.000195099 0.000857458 
-0.000216828 -0.000120496 0.000705008 -0.000133766 -0.000244842 0.00089871 5.3391e-05 -0.000227616 0.000793456 
0.000243148 -0.000289896 0.000783596 0.00020067 -0.000110608 0.000861302 0.000426827 -0.000215993 0.000727956 
-0.000321097 3.82464e-06 0.00082192 -7.03066e-05 -6.79096e-05 0.000830495 8.95214e-05 2.15807e-05 0.000750215 
0.000284327 -1.76005e-05 0.000705314 0.00028432 6.9393e-05 0.000885407 0.000450611 -3.73542e-05 0.000814604 
-0.000441768 0.000162787 0.000798751 -0.000269601 0.000296963 0.000741768 -0.000112776 0.000112651 0.000755491 
-2.14887e-05 0.000289162 0.000733216 0.000148321 0.00021288 0.000847593 0.000347361 0.000232363 0.000788228 
-0.000351544 0.000477962 0.000719089 -0.00049663 0.000340464 0.000725193 -0.000422954 0.000441035 0.000902148 
-0.000139587 0.000312134 0.000892957 -0.000156644 0.000460926 0.000760415 3.99387e-05 0.000469061 0.00079606 
0.000215247 0.000379806 0.000760138 0.000382183 0.000421947 0.000861772 -0.000447614 -0.000383271 0.000994582 
-0.000256684 -0.000334423 0.00102855 -8.79155e-05 -0.000438858 0.000919213 8.13709e-05 -0.000339402 0.000956858 
-9.76909e-05 -0.000487282 0.00111298 0.000361448 -0.000463735 0.00102453 -0.000468016 -0.000222809 0.00111217 
-6.77229e-05 -0.000292076 0.00108146 4.15205e-05 -0.000144547 0.000977501 0.000241187 -0.000244579 0.00103069 
0.000396712 -0.000288968 0.000911697 -0.000437735 -8.07496e-05 0.000974712 -0.0003529 8.45347e-05 0.00104871 
-0.00021226 -7.26385e-05 0.000971251 6.59978e-06 9.26924e-05 0.000921412 -5.6598e-05 -6.16416e-06 0.00108337 
0.00035729 -8.86526e-05 0.000983848 0.000466653 9.54054e-05 0.000963264 -0.000330857 0.000265654 0.000929551 
-0.000190068 0.000123986 0.000939558 -1.38973e-05 0.000207622 0.00108377 0.000166896 0.000137785 0.00103212 
0.000280928 0.000291736 0.000974802 0.000479949 0.000292505 0.000994331 -0.000407731 0.000452325 0.00110122 
-0.000242785 0.000454858 0.000987724 4.71559e-05 0.000347891 0.000954969 9.76642e-05 -0.000446216 0.00112513 
0.000366818 -0.000322093 0.00116559 -0.000319994 -9.09944e-05 0.00113872 0.000463752 -9.49988e-06 0.0011335 
-0.000358581 0.000262389 0.00113995 -0.000187111 0.000129318 0.00115117 0.000349145 0.00016144 0.00111099 
-0.000169942 0.000326501 0.00112266 0.00016179 0.000364495 0.00111799 
VERTICES 167 334
1 0 
1 1 
1 2 
1 3 
1 4 
1 5 
1 6 
1 7 
1 8 
1 9 
1 10 
1 11 
1 12 
1 13 
1 14 
1 15 
1 16 
1 17 
1 18 
1 19 
1 20 
1 21 
1 22 
1 23 
1 24 
1 25 
1 26 
1 27 
1 28 
1 29 
1 30 
1 31 
1 32 
1 33 
1 34 
1 35 
1 36 
1 37 
1 38 
1 39 
1 40 
1 41 
1 42 
1 43 
1 44 
1 45 
1 46 
1 47 
1 48 
1 49 
1 50 
1 51 
1 52 
1 53 
1 54 
1 55 
1 56 
1 57 
1 58 
1 59 
1 60 
1 61 
1 62 
1 63 
1 64 
1 65 
1 66 
1 67 
1 68 
1 69 
1 70 
1 71 
1 72 
1 73 
1 74 
1 75 
1 76 
1 77 
1 78 
1 79 
1 80 
1 81 
1 82 
1 83 
1 84 
1 85 
1 86 
1 87 
1 88 
1 89 
1 90 
1 91 
1 92 
1 93 
1 94 
1 95 
1 96 
1 97 
1 98 
1 99 
1 100 
1 101 
1 102 
1 103 
1 104 
1 105 
1 106 
1 107 
1 108 
1 109 
1 110 
1 111 
1 112 
1 113 
1 114 
1 115 
1 116 
1 117 
1 118 
1 119 
1 120 
1 121 
1 122 
1 123 
1 124 
1 125 
1 126 
1 127 
1 128 
1 129 
1 130 
1 131 
1 132 
1 133 
1 134 
1 135 
1 136 
1 137 
1 138 
1 139 
1 140 
1 141 
1 142 
1 143 
1 144 
1 145 
1 146 
1 147 
1 148 
1 149 
1 150 
1 151 
1 152 
1 153 
1 154 
1 155 
1 156 
1 157 
1 158 
1 159 
1 160 
1 161 
1 162 
1 163 
1 164 
1 165 
1 166 

POINT_DATA 167
FIELD FieldData 7
id 1 167 int
4 46 28 51 7 18 9 20 44 
19 27 47 1 29 11 34 40 15 
3 42 14 30 24 10 23 38 26 
49 12 32 35 25 37 13 16 31 
45 2 33 17 21 36 8 5 22 
6 39 63 62 58 54 77 41 52 
67 73 56 53 55 61 60 75 64 
68 43 57 71 48 69 50 59 90 
65 94 89 72 96 86 106 97 88 
76 99 81 87 66 79 85 74 101 
84 102 80 92 93 78 91 83 82 
70 131 126 105 124 118 104 125 112 
110 114 98 109 116 119 100 130 111 
120 115 123 95 122 107 113 103 138 
129 108 132 117 133 146 151 144 139 
161 142 162 158 147 150 134 121 149 
135 127 152 137 140 128 136 155 143 
141 145 159 153 148 156 165 160 154 
166 157 163 164 167 
type 1 167 int
1 1 1 1 1 1 1 1 1 
1 1 1 1 1 1 1 1 1 
1 1 1 1 1 1 1 1 1 
1 1 1 1 1 1 1 1 1 
1 1 1 1 1 1 1 1 1 
1 1 1 1 1 1 1 1 1 
1 1 1 1 1 1 1 1 1 
1 1 1 1 1 1 1 1 1 
1 1 1 1 1 1 1 1 1 
1 1 1 1 1 1 1 1 1 
1 1 1 1 1 1 1 1 1 
1 1 1 1 1 1 1 1 1 
1 1 1 1 1 1 1 1 1 
1 1 1 1 1 1 1 1 1 
1 1 1 1 1 1 1 1 1 
1 1 1 1 1 1 1 1 1 
1 1 1 1 1 1 1 1 1 
1 1 1 1 1 1 1 1 1 
1 1 1 1 1 
i 3 167 int
1 1 0 0 1 0 0 1 0 
0 0 0 0 1 0 0 0 0 
-1 0 0 0 0 0 0 1 0 
0 0 0 0 0 0 0 0 0 
0 0 0 0 0 0 -1 0 0 
0 0 0 0 0 0 -1 0 0 
0 0 0 0 0 0 0 0 0 
0 0 0 1 0 0 0 0 0 
0 0 0 0 0 0 -1 0 0 
0 0 0 0 0 0 0 0 0 
0 0 0 1 0 0 0 0 0 
0 0 0 0 0 0 0 0 0 
0 0 0 0 0 0 0 0 0 
0 -1 0 1 -1 0 0 -1 0 
0 -1 0 0 0 0 0 0 0 
0 -1 0 0 0 0 0 1 0 
1 0 0 0 0 0 0 0 0 
0 0 0 0 0 0 0 0 0 
0 0 0 0 0 0 0 0 0 
0 0 0 0 0 0 0 0 0 
0 0 0 0 0 0 0 0 0 
0 0 0 0 0 0 0 0 0 
0 0 0 0 0 0 0 0 0 
0 -1 0 0 0 0 0 0 0 
0 0 0 0 0 0 0 0 0 
0 0 0 0 0 0 0 0 0 
-1 0 0 0 0 0 0 0 0 
0 0 0 0 0 0 0 0 0 
0 0 0 0 0 0 0 0 0 
0 0 0 0 0 0 0 0 0 
0 0 0 0 0 0 0 0 0 
0 0 0 0 0 0 0 0 0 
0 0 0 0 0 0 0 -1 0 
-1 -1 0 0 0 0 0 0 0 
0 0 0 0 0 0 0 0 0 
0 0 0 0 0 0 0 0 0 
0 0 0 0 0 0 -1 0 0 
0 0 0 0 0 0 0 0 0 
0 0 0 0 0 0 0 0 0 
0 0 0 0 0 0 0 0 0 
0 0 0 0 0 0 0 0 0 
0 -1 0 1 0 0 0 0 0 
0 0 0 0 0 0 0 -1 0 
0 0 0 0 0 0 0 0 0 
0 0 0 0 1 0 0 0 0 
0 0 0 0 0 0 1 0 0 
0 0 0 0 0 0 0 0 0 
0 0 0 1 0 0 0 0 0 
0 0 0 0 0 0 0 0 0 
0 0 0 -1 0 0 0 0 0 
0 0 0 0 0 0 0 0 0 
0 0 0 0 -1 0 0 -1 0 
0 0 0 0 0 0 0 0 0 
0 0 0 0 0 0 0 0 0 
0 0 0 0 0 0 0 0 0 
0 0 0 0 0 0 
v 3 167 double
1.26478e-07 -0.000105564 5.53305e-15 1.59515e-05 1.86064e-06 2.69677e-07 -1.66585e-05 -2.37323e-06 2.76159e-15 
1.43334e-05 7.93066e-06 -8.57189e-07 7.81635e-06 2.20728e-06 1.58904e-06 1.40691e-05 2.49523e-06 -2.24256e-06 
3.87584e-06 7.57498e-07 4.20414e-07 1.78533e-05 1.57889e-07 -6.61919e-06 1.64312e-05 3.03112e-06 -2.04672e-06 
8.50959e-06 9.35672e-07 -5.45375e-07 6.13406e-06 2.13972e-06 -1.74905e-06 1.34485e-05 4.96866e-06 -2.9549e-06 
4.20153e-06 1.52713e-06 -5.9439e-07 1.49472e-05 -1.20837e-10 -1.9495e-06 6.20846e-06 2.07422e-07 4.38405e-07 
1.35627e-05 1.10117e-06 -5.7592e-07 1.51627e-05 1.82879e-06 -3.66623e-06 8.9554e-06 3.62689e-06 -2.28795e-06 
6.49385e-06 2.90563e-06 1.05431e-06 1.31242e-05 4.58211e-06 6.02361e-07 7.21254e-06 2.51099e-06 -8.54997e-07 
8.00317e-06 -6.45198e-07 -6.07158e-07 7.1424e-06 9.81462e-07 1.23834e-06 7.48267e-06 2.69959e-06 2.80809e-09 
1.20604e-05 3.75985e-06 -2.24048e-06 1.20527e-05 2.38549e-07 -1.68038e-06 9.37069e-06 -1.58716e-06 -1.25046e-06 
1.42827e-05 7.0273e-07 -2.79987e-06 6.80067e-06 1.21437e-06 -4.31811e-07 1.42833e-05 3.69775e-06 -1.03109e-06 
1.38041e-05 3.46928e-06 1.58234e-06 8.60304e-06 5.29204e-06 1.095e-06 1.36142e-05 3.087e-06 -4.77945e-07 
6.91066e-06 6.53615e-07 -9.05084e-07 -2.50597e-05 -2.07444e-05 -6.10676e-15 1.24139e-05 7.70815e-07 -1.05428e-06 
1.28331e-05 4.40918e-06 -4.68519e-06 6.26868e-06 5.07162e-06 9.31411e-09 1.60537e-05 3.32981e-06 -1.63515e-06 
6.95506e-06 -2.03421e-07 -8.0366e-07 1.56576e-05 1.33812e-06 -9.65447e-07 1.45736e-05 2.49933e-06 -9.08838e-07 
5.5943e-06 9.75204e-07 -1.2823e-06 6.66191e-06 1.83339e-06 -2.25154e-06 1.36114e-05 5.06626e-08 -1.68538e-06 
1.13086e-05 -2.33898e-06 6.08722e-15 2.32892e-05 5.10015e-06 -4.21229e-06 1.51749e-05 6.09861e-06 -3.59477e-06 
1.74199e-05 4.50071e-06 -3.91065e-06 1.78075e-05 6.29758e-06 -2.74974e-06 2.15116e-05 2.96961e-06 8.87239e-07 
2.29501e-05 2.29386e-07 -3.06887e-06 1.90885e-05 -3.44711e-06 -4.89525e-06 1.71203e-05 3.11687e-06 -3.85417e-06 
2.04361e-05 4.76879e-06 -3.58523e-06 2.71939e-05 -1.59929e-06 -6.696e-06 1.75694e-05 5.99206e-06 -1.17731e-06 
1.70987e-05 -1.87001e-06 -2.18065e-06 1.78139e-05 4.36477e-06 -3.21305e-06 9.86223e-06 -3.37576e-06 1.54155e-06 
1.63939e-05 4.51561e-06 -1.38482e-07 1.73947e-05 8.43525e-06 -1.39305e-06 1.72214e-05 1.69437e-06 3.09417e-06 
1.96684e-05 2.60017e-06 1.16887e-06 1.57785e-05 2.57869e-07 -1.38671e-06 1.72104e-05 -6.48154e-07 -2.24231e-06 
1.67601e-05 6.08064e-06 -5.1663e-06 1.74249e-05 1.87011e-06 -6.08776e-07 1.55858e-05 5.60341e-06 -5.25154e-06 
1.90361e-05 8.71792e-07 -5.78943e-06 2.1673e-05 1.25574e-06 -8.29798e-06 1.85145e-05 6.75144e-06 -4.3466e-06 
1.90232e-05 6.44315e-06 -1.84128e-06 2.32928e-05 7.73649e-06 -3.47499e-06 1.90953e-05 1.67653e-06 -7.0633e-06 
2.34251e-05 1.80437e-06 -5.18617e-06 2.39351e-05 1.59815e-06 -5.13878e-06 2.19868e-05 4.70512e-06 -1.0991e-06 
2.74483e-05 1.14494e-06 -2.50493e-06 2.95549e-05 7.45191e-06 -6.10475e-06 2.80944e-05 4.77569e-06 5.40772e-07 
2.03847e-05 6.46862e-06 -8.03061e-06 2.40472e-05 2.37839e-06 -4.34444e-06 2.45514e-05 1.35025e-06 -1.97679e-06 
2.14698e-05 1.13197e-06 -3.52282e-06 1.8694e-05 2.74371e-06 -4.86146e-06 2.34547e-05 4.94061e-06 -7.46618e-06 
2.21657e-05 7.27087e-07 -6.39177e-06 1.95736e-05 7.49987e-07 -2.3723e-06 2.2259e-05 -1.32235e-06 -5.48371e-06 
4.42033e-06 1.12539e-05 -8.07908e-06 2.17611e-05 9.52299e-06 -1.11226e-05 2.23819e-05 2.72259e-06 -5.72471e-06 
2.25995e-05 4.14214e-07 -5.45543e-06 2.39291e-05 1.32609e-06 -3.72063e-07 2.39803e-05 1.0357e-06 -1.0558e-05 
2.02055e-05 1.19609e-05 -1.3977e-06 2.38154e-05 4.5464e-06 -9.32625e-07 2.69343e-05 4.22102e-07 -4.96087e-06 
7.21321e-06 1.16039e-05 -3.80037e-06 2.87219e-05 8.42598e-06 6.27624e-07 2.2962e-05 1.40445e-05 -5.13149e-06 
2.03785e-05 8.94586e-06 1.23485e-06 1.78546e-05 4.65609e-06 -3.05348e-06 2.036e-05 -3.52235e-06 1.79921e-06 
3.08164e-05 8.46135e-06 -1.04103e-05 2.99217e-05 8.09548e-06 3.06555e-06 2.72853e-05 7.71708e-06 -4.32668e-06 
2.40207e-05 -1.72048e-06 -5.5587e-06 3.32563e-05 -1.63022e-06 -7.392e-06 2.72327e-05 2.55716e-06 5.44578e-06 
2.70021e-05 1.43819e-05 -8.98011e-06 2.55695e-05 7.42544e-06 -2.22159e-06 2.78069e-05 4.15032e-06 -6.72793e-06 
2.95657e-05 -2.01306e-06 -3.68693e-06 3.15539e-05 1.70505e-06 -1.51928e-05 2.32941e-05 6.11502e-06 -1.65874e-06 
1.7382e-05 6.36464e-06 -1.48124e-05 1.98032e-05 9.02182e-06 -6.65081e-06 1.88647e-05 9.1516e-06 -1.42911e-05 
2.14378e-05 9.44419e-06 1.69181e-06 2.77732e-05 2.09813e-06 2.404e-06 2.17271e-05 -1.02928e-06 -1.33218e-05 
2.03913e-05 8.03089e-06 -7.31355e-07 7.96586e-06 8.81162e-06 -7.46607e-06 2.09022e-05 1.13046e-05 1.34142e-07 
1.51912e-05 1.5013e-05 1.40374e-06 1.99018e-05 9.69147e-06 2.06897e-06 2.03064e-05 9.85515e-06 -1.32118e-06 
1.74262e-05 -6.31614e-08 3.96323e-06 1.89712e-05 4.95094e-06 6.97105e-06 3.6694e-05 1.28998e-05 2.68798e-06 
4.1776e-05 -1.07796e-05 4.49641e-07 2.15903e-05 1.32953e-05 6.78314e-06 2.70907e-05 1.44628e-05 1.96064e-06 
2.18467e-05 2.73232e-05 1.55304e-05 1.65721e-05 2.56476e-05 -5.1272e-06 2.14799e-05 1.10522e-05 5.49508e-06 
3.3908e-05 2.12434e-05 9.10328e-07 4.12789e-05 2.48006e-05 6.24544e-06 2.09816e-05 2.32963e-05 1.52388e-05 
1.7383e-05 -1.42675e-05 5.29996e-07 2.20095e-05 2.99725e-06 3.69395e-06 4.09193e-05 4.71571e-06 -1.47706e-05 
2.09131e-05 1.44809e-05 -8.80503e-06 2.01068e-05 8.47003e-06 -4.43251e-06 5.37223e-05 2.40116e-05 2.54698e-05 
2.19393e-05 2.19505e-05 1.01343e-05 3.51837e-05 8.96777e-06 -8.20156e-06 9.58038e-06 -3.08332e-06 -9.93016e-06 
2.28421e-05 5.6554e-06 -2.23146e-05 3.01203e-05 1.87276e-05 -1.0487e-05 3.17026e-05 -1.56979e-05 -1.004e-05 
2.64381e-05 -1.15574e-06 5.33617e-06 2.8628e-05 4.68709e-06 -1.80768e-06 8.94879e-05 2.25997e-05 -8.3991e-06 
1.9635e-05 1.32727e-05 1.17085e-05 2.95288e-05 5.17856e-06 -9.34974e-06 3.80697e-05 -3.20253e-06 -9.22527e-06 
2.13142e-05 1.01466e-05 1.01715e-05 3.26947e-05 3.77882e-06 -2.97674e-06 3.36335e-05 3.64291e-05 -2.29439e-06 
3.87269e-05 1.12524e-05 -2.89426e-05 3.04906e-05 1.30165e-05 1.63222e-05 8.96194e-05 0.0013157 -0.00055276 
3.74041e-05 1.62746e-05 1.64132e-05 1.13397e-05 -1.1076e-05 8.12517e-07 
f 3 167 double
3.35667e-26 -9.07539e-23 0 -5.01306e-10 2.35815e-10 -5.15844e-11 1.0472e-23 1.38152e-24 0 
-3.17709e-10 4.96349e-11 1.21489e-10 -1.96461e-10 1.10586e-10 2.35827e-11 -2.44813e-10 1.56717e-10 4.02303e-11 
1.96961e-10 -7.79817e-11 -1.56514e-10 -2.8033e-10 1.73606e-10 -2.09863e-10 -3.8296e-10 2.6374e-10 -1.1693e-12 
-1.06566e-10 1.19949e-10 -1.07315e-10 -2.05438e-11 1.91541e-10 4.21824e-11 -3.55127e-10 1.91117e-10 -8.73595e-11 
-4.45736e-11 1.71129e-10 1.8193e-12 3.07968e-10 1.69767e-10 -1.6891e-10 -5.30545e-11 8.45526e-12 -7.18948e-11 
-3.41368e-10 1.62789e-10 -5.95119e-11 -2.65767e-10 3.12844e-10 -9.99851e-11 -9.40865e-11 2.21245e-10 -2.6106e-12 
-1.06393e-10 1.60193e-10 -6.51405e-11 -2.19917e-10 2.38302e-10 -9.47661e-11 -1.31153e-10 1.05525e-10 -1.85495e-11 
9.61023e-11 3.13047e-10 6.7059e-11 -1.08537e-10 2.74418e-10 2.17561e-11 5.50682e-11 2.61285e-10 -2.37073e-11 
-1.25431e-10 5.46205e-10 -2.22431e-10 -1.28189e-10 4.61689e-10 -2.97857e-10 -1.85319e-10 1.1445e-10 -1.61332e-10 
-3.25877e-10 4.30534e-10 -3.79244e-10 -1.49967e-10 1.51608e-10 -3.69589e-11 -1.97993e-10 1.28709e-10 -1.04029e-10 
-2.63722e-10 3.44026e-10 2.98191e-11 -3.84998e-10 3.02499e-10 1.36726e-11 -4.71652e-10 4.22559e-10 1.20735e-10 
-3.3714e-10 2.4112e-10 7.18299e-11 -1.25292e-23 1.10448e-23 0 -5.23645e-10 2.92524e-10 2.4164e-11 
-4.40667e-10 -4.05434e-10 -5.30791e-11 -4.9523e-10 -4.64341e-10 -8.74416e-11 -4.14926e-10 3.01791e-10 -2.89595e-12 
-2.99448e-10 2.11397e-10 -4.95386e-11 -1.35344e-10 1.06572e-10 -3.54123e-11 -5.07977e-10 3.65112e-10 1.23084e-10 
-1.31417e-11 2.08547e-10 -3.71594e-12 -3.02745e-10 -2.6427e-10 1.50112e-11 -1.5342e-10 -5.34677e-12 -1.05377e-10 
2.73581e-24 1.3828e-24 0 -3.66599e-10 2.49847e-10 -1.54007e-10 -6.06742e-10 3.024e-10 -1.74499e-11 
-8.25872e-10 3.53707e-10 6.34098e-12 -9.26657e-10 5.04016e-10 2.35059e-10 -6.66533e-10 9.49723e-11 -4.36327e-11 
-1.43103e-10 1.21921e-10 -4.76642e-11 -1.70208e-10 -4.57758e-11 -1.69734e-10 -2.42432e-10 2.2607e-10 -2.66398e-10 
-6.29514e-10 3.31523e-10 -5.2218e-10 -2.61651e-11 1.3485e-10 -2.71558e-10 -4.53437e-10 4.19545e-10 5.0419e-11 
-5.22733e-10 2.73468e-10 -4.53172e-11 -3.61823e-10 1.29619e-10 -5.37588e-10 -7.99812e-10 -1.47018e-10 8.49416e-11 
-3.0253e-10 2.75017e-10 -4.91045e-11 -5.57439e-10 3.55607e-10 2.44059e-10 -1.69488e-10 -4.9059e-11 -5.49267e-11 
-4.5782e-10 2.96474e-10 2.13314e-10 -1.36659e-10 2.45599e-10 -3.52407e-10 -1.44811e-10 -2.55592e-10 -2.44682e-10 
-5.35855e-10 3.39715e-10 -7.82961e-11 -6.85553e-10 3.65412e-10 3.4829e-11 -4.02156e-10 2.31601e-10 -6.2804e-11 
-3.56659e-10 2.04134e-10 -7.50348e-11 -4.52542e-10 2.18615e-10 -1.99929e-10 -9.47667e-10 2.98991e-10 5.66216e-12 
-6.58263e-10 8.7016e-10 2.88893e-11 -6.63511e-10 8.17941e-10 -6.73652e-11 3.79555e-10 2.72916e-10 8.73684e-11 
-2.4328e-10 1.15737e-10 -8.58735e-11 -1.74767e-10 1.31486e-10 -4.21596e-10 -6.96003e-10 3.29049e-11 1.09192e-10 
-1.02092e-09 4.47491e-10 1.25866e-10 -1.37212e-09 5.61368e-10 -1.79415e-10 -6.48354e-10 3.93226e-10 -3.05206e-10 
-6.96719e-10 4.96926e-10 -1.19489e-10 -5.35344e-10 1.57376e-10 -5.64724e-10 -2.73526e-10 4.15094e-10 -3.87459e-10 
-2.812e-10 -5.87156e-11 -7.18976e-10 -2.80779e-10 2.91283e-10 -8.95848e-11 -2.36031e-10 3.60097e-10 -3.57597e-10 
-4.19991e-10 2.50948e-10 -2.31756e-10 -3.25821e-10 3.43562e-10 -5.18873e-10 -5.87328e-11 3.7042e-10 -2.84086e-10 
1.11133e-10 4.3097e-10 1.1483e-11 1.84691e-10 3.06781e-10 3.46441e-10 -8.99548e-10 1.80712e-10 3.735e-10 
-3.90963e-10 9.73707e-11 1.62665e-11 1.26021e-10 6.44927e-10 -6.48852e-10 -2.98238e-10 8.50056e-11 -4.17364e-10 
-9.14018e-10 5.11122e-10 2.40835e-10 -1.06267e-09 3.55411e-10 1.12351e-11 -6.2292e-10 9.46072e-11 1.21009e-10 
-2.83858e-10 1.77356e-10 -6.46969e-11 -1.33992e-09 8.09346e-10 -8.54924e-11 -1.32583e-09 1.25547e-09 -1.96924e-10 
-5.72599e-10 7.8559e-10 -9.92971e-11 -4.23133e-10 9.63892e-10 -8.64764e-10 -1.12759e-09 2.86165e-10 -5.32652e-11 
-1.30839e-09 5.51201e-10 -2.1805e-10 -1.35277e-09 6.0385e-10 -1.30053e-10 -6.06847e-10 8.05685e-10 -5.33715e-10 
-9.19478e-10 8.30264e-10 -5.45208e-10 -7.00661e-10 1.13187e-09 -1.3674e-09 -6.95487e-10 3.90609e-10 -2.25339e-10 
-1.57098e-09 -8.79979e-11 2.71246e-10 -1.54272e-09 4.78638e-10 -7.73554e-10 -1.21982e-09 3.18694e-10 -6.19648e-11 
-1.14707e-10 5.95534e-10 -6.16896e-10 -2.0191e-10 6.99352e-10 -7.61616e-10 -2.44718e-10 3.63767e-10 -2.68086e-10 
5.42082e-11 5.81374e-10 -3.78776e-11 1.19709e-10 5.51402e-10 5.08707e-10 -8.72563e-10 4.62617e-11 1.86276e-10 
-6.24481e-10 3.47714e-10 8.64029e-10 -1.11798e-09 6.62239e-10 -1.30817e-09 5.8767e-14 8.91317e-10 -4.47159e-10 
-1.04543e-09 6.79708e-10 8.00471e-11 -1.45063e-10 8.64908e-11 -1.00775e-10 -7.78744e-10 5.55535e-10 1.26145e-10 
-7.4111e-10 3.13401e-09 9.56446e-10 -8.13081e-10 1.50166e-09 -2.10701e-10 -7.22799e-10 1.23181e-09 -3.60269e-10 
-5.58817e-10 8.68033e-10 -6.96602e-10 -9.01903e-10 -4.1389e-11 -7.058e-10 -1.93491e-09 5.43101e-10 6.09839e-11 
-1.13598e-09 2.88161e-10 2.81738e-10 -6.30056e-10 2.52269e-09 -8.59927e-10 7.3362e-11 1.57774e-09 -5.65323e-10 
4.823e-10 1.34162e-09 -1.17931e-09 3.23649e-10 1.21688e-09 -1.55635e-09 5.78023e-10 1.94747e-10 6.56137e-10 
5.3061e-10 1.73282e-09 -1.9804e-10 -5.74998e-10 1.68501e-09 -1.11303e-09 1.89604e-10 1.10782e-09 9.37463e-12 
-1.52914e-09 3.54727e-10 -5.46518e-11 -4.30263e-10 2.56125e-10 2.6599e-10 -5.18594e-10 1.48548e-11 8.24612e-10 
-4.50565e-10 1.85056e-09 6.7399e-10 -1.08367e-09 8.54715e-10 -2.38648e-09 -8.24693e-11 2.41682e-09 -1.2812e-09 
-5.18841e-10 1.21961e-09 -2.96888e-10 -1.58129e-11 4.19245e-10 -3.47842e-10 5.29748e-11 6.48648e-10 7.50832e-10 
-7.50558e-10 -3.13862e-10 4.62761e-10 -2.74355e-09 6.24485e-10 -2.58692e-09 -9.08785e-10 -6.41757e-10 -1.88276e-09 
-2.45512e-10 -8.54451e-10 -9.19575e-10 -7.37852e-10 -1.2446e-10 -1.18848e-09 -5.36551e-09 -1.91374e-10 6.08615e-10 
-8.65556e-10 3.32042e-09 -1.01241e-09 6.03498e-10 9.87852e-10 -1.0981e-09 4.49151e-10 -3.1077e-10 -2.18126e-09 
1.70716e-10 -1.40609e-10 -3.77058e-10 1.17456e-10 5.85676e-10 1.0894e-09 -7.0588e-10 1.47986e-09 -2.21777e-10 
-1.40186e-09 3.17829e-10 4.89085e-10 2.86175e-10 2.88155e-09 -1.54427e-09 -2.63844e-10 1.69778e-08 -7.81559e-09 
-1.91198e-09 2.32373e-09 -3.26541e-09 -3.05168e-10 -4.859e-10 -7.85026e-10 
radius 1 167 double
0.0001 0.0001 0.0001 0.0001 0.0001 0.0001 0.0001 0.0001 0.0001 
0.0001 0.0001 0.0001 0.0001 0.0001 0.0001 0.0001 0.0001 0.0001 
0.0001 0.0001 0.0001 0.0001 0.0001 0.0001 0.0001 0.0001 0.0001 
0.0001 0.0001 0.0001 0.0001 0.0001 0.0001 0.0001 0.0001 0.0001 
0.0001 0.0001 0.0001 0.0001 0.0001 0.0001 0.0001 0.0001 0.0001 
0.0001 0.0001 0.0001 0.0001 0.0001 0.0001 0.0001 0.0001 0.0001 
0.0001 0.0001 0.0001 0.0001 0.0001 0.0001 0.0001 0.0001 0.0001 
0.0001 0.0001 0.0001 0.0001 0.0001 0.0001 0.0001 0.0001 0.0001 
0.0001 0.0001 0.0001 0.0001 0.0001 0.0001 0.0001 0.0001 0.0001 
0.0001 0.0001 0.0001 0.0001 0.0001 0.0001 0.0001 0.0001 0.0001 
0.0001 0.0001 0.0001 0.0001 0.0001 0.0001 0.0001 0.0001 0.0001 
0.0001 0.0001 0.0001 0.0001 0.0001 0.0001 0.0001 0.0001 0.0001 
0.0001 0.0001 0.0001 0.0001 0.0001 0.0001 0.0001 0.0001 0.0001 
0.0001 0.0001 0.0001 0.0001 0.0001 0.0001 0.0001 0.0001 0.0001 
0.0001 0.0001 0.0001 0.0001 0.0001 0.0001 0.0001 0.0001 0.0001 
0.0001 0.0001 0.0001 0.0001 0.0001 0.0001 0.0001 0.0001 0.0001 
0.0001 0.0001 0.0001 0.0001 0.0001 0.0001 0.0001 0.0001 0.0001 
0.0001 0.0001 0.0001 0.0001 0.0001 0.0001 0.0001 0.0001 0.0001 
0.0001 0.0001 0.0001 0.0001 0.0001 
omega 3 167 double
1.05575 0.00126492 -1.27009 -0.0496078 0.0940064 -0.00412006 0.0237347 -0.166602 0.51168 
-0.0610644 0.0561656 0.0460709 -0.0111421 0.0564042 -0.00353199 0.00833857 0.0582765 0.0144997 
-0.0142598 0.0383166 0.0291167 0.0957546 0.0331567 0.0777957 -0.0145925 -0.0375905 -0.0224041 
-0.00266964 0.0770834 0.0808568 -0.0256913 0.0445548 -0.0480228 0.00331973 0.0103543 0.0207333 
-0.00720628 0.00806215 0.0355665 0.0712118 0.164266 0.0718947 0.00840486 0.0366861 -0.0513218 
0.0404342 -0.00243038 0.133038 0.0298389 -0.0278587 0.0632102 -0.0334466 0.0825713 -0.0958233 
-0.00972298 0.044002 0.0239325 0.000168581 0.00090779 -0.0204334 -0.0301645 0.0680805 0.0355603 
0.0433233 -0.0479394 0.0206983 -0.00862017 0.0528589 -0.0153509 -0.0517787 0.05174 0.0228606 
0.0231814 0.023454 0.0131679 -0.00229171 -0.0573897 -0.0563671 0.0179185 0.0745232 0.0162166 
-0.0305032 -0.0198652 0.00206909 0.00652331 0.0497618 -0.0291659 -0.00935392 -0.0261481 0.0209601 
-0.0242926 0.00117646 0.0104128 -0.0538057 0.0832355 -0.138499 -0.0190917 0.000659476 -0.0239841 
0.00939564 0.0574121 0.0204826 0.207465 -0.250623 -0.0238202 -0.00151796 -0.00529092 -0.00649313 
0.00576376 -0.0048654 -0.016014 -0.0721897 0.0419487 -0.035648 -0.0387418 0.0109213 -0.0373866 
0.0121005 0.0703028 0.0858373 -0.0114014 0.155955 -0.178191 0.0191199 -0.0265398 0.029187 
-0.0222201 0.0325763 -0.0283053 -0.0226998 0.0555714 0.051945 0.0315476 0.0899906 -0.0175801 
0.0233923 0.113097 -0.0367321 -0.0312537 -0.187008 -0.00155258 0.0102686 0.0403369 -0.00547352 
0.024539 -0.0398978 0.0458352 -0.0541257 0.0461229 -0.0448341 0.00690902 -0.00239349 -0.0642984 
0.0109423 0.0747864 0.0283062 0.00433752 -0.00888687 -0.078425 -0.00279924 0.0233485 -0.00731547 
-0.0213256 -0.106376 0.0386287 -0.0239112 -0.0373208 -0.0423772 -0.0151819 0.00292384 -0.00830687 
0.0843798 0.0544395 -0.0023814 -0.0143176 0.0815617 -0.00666518 -0.00189364 0.0372226 -0.0455736 
0.026234 0.00453138 0.00523418 -0.0490349 0.0256875 0.0200994 0.0551153 0.000612915 0.0127157 
-0.0113034 0.084163 0.0216025 0.00912887 0.0550624 0.010542 0.0367104 0.0163249 0.0492077 
0.039434 -0.0620867 -0.0100112 0.00125719 -0.00528915 -0.0293444 -0.0474167 0.0468413 0.041539 
-0.110628 -0.0362425 -0.066348 0.0900172 0.114422 0.0769311 -0.060929 0.0296626 -0.0130237 
-0.0401912 0.0330278 -0.0179885 0.0492587 0.00514422 0.0540651 -0.0596132 -0.0618892 0.0409192 
0.109741 0.0478793 0.0150385 -0.0781154 -0.0398989 -0.0308651 0.032285 0.0418233 0.0237676 
-0.0801455 -0.0621158 0.0768161 0.0613478 0.0970815 -0.0290132 -0.0431756 0.102079 0.0584839 
-0.0788667 0.0448347 -0.0131106 0.0511935 0.150289 -0.0710345 -0.0619682 -0.014493 -0.00182872 
-0.000485287 0.0169875 0.0320692 -0.00615221 -0.0146293 0.00255743 -0.198814 0.00931564 -0.0221839 
0.0425546 -0.0546359 0.0329575 -0.0564484 -0.0112254 -0.0461502 0.0481925 0.0678104 0.00985499 
-0.111136 -0.136954 0.0177655 -0.0154081 0.07824 0.0764053 0.16542 -0.0205666 0.0437274 
0.0745259 -0.0874381 -0.0307857 0.0367001 0.107253 0.0712876 -0.107026 -0.121064 -0.0347357 
0.00495856 0.0113431 0.0211486 -0.0467489 -0.0445966 -0.0699942 0.142045 0.139659 0.00350522 
-0.105822 -0.191815 0.114856 -0.00949268 0.0228785 -0.0547274 -0.18261 -0.0858044 -0.116364 
-0.0277085 -0.0346288 -0.0502541 -0.129748 -0.0119776 -0.0476602 0.0637236 -0.20244 0.0713661 
0.0519028 0.0514395 -0.0405722 0.0258947 0.177181 0.0920827 -0.196265 -0.00662039 -0.0711969 
0.087176 0.0316457 -0.032866 -0.0323775 -0.136024 -0.128074 0.0092243 -0.011975 -0.0604787 
-0.0582472 -0.0787213 -0.00203574 -0.0890712 -0.167285 0.00046928 -0.106919 0.142247 0.0454384 
0.0880039 0.139992 0.0322198 -0.275642 -0.337036 0.1314 -0.119383 -0.13287 0.0661493 
-0.110154 -0.0513717 0.131898 0.0449768 -0.0213187 -0.0253456 0.128488 -0.156915 -0.122407 
-0.0590056 0.0137563 0.105778 -0.17549 -0.111581 0.333192 0.160453 0.0966291 0.0961581 
0.0348367 -0.00728317 0.000948532 0.176466 0.136792 -0.0727622 -0.0662637 -0.00488703 -0.034814 
-0.101122 -0.0833316 0.0487123 0.0627086 0.000906751 0.042684 0.0127066 0.0359995 -0.0410543 
0.0359695 -0.0861208 -0.052658 -0.117965 0.057121 0.0686549 0.00393902 0.0294574 0.33987 
0.503451 0.158109 -0.433522 -0.0276449 0.0457445 0.0585309 0.119736 0.0887844 -0.0614561 
-0.114562 -0.0503003 -0.0576297 -0.136387 0.0178028 0.0867498 -0.0314995 0.164191 -0.020166 
-0.115138 -0.110843 -0.0456029 -0.194492 0.330157 -0.0650642 -0.037441 -0.181491 0.188239 
0.19959 -0.136423 0.153851 0.0405036 0.12046 -0.246811 -0.307689 -0.127988 0.0172639 
0.0338833 0.071764 -0.0566776 -0.167249 -0.323692 -0.24016 -0.221795 0.601209 0.629581 
-0.0281163 0.18151 -0.174164 0.0698549 0.243457 -0.162867 0.190105 -0.0284597 -0.15703 
-0.178785 0.185121 0.320315 0.0727776 0.136652 -0.23259 0.347407 0.439334 0.0565554 
0.362697 0.212205 -0.191783 -0.00236014 -0.149189 0.258111 -0.0600439 0.717191 -0.225346 
-0.122417 -0.1105 -0.0254448 0.0314553 0.260514 -0.221896 0.037036 0.289177 -0.302843 
0.354164 0.0800755 -0.0687727 0.194047 0.0879302 -0.0897544 -0.307751 -0.129887 -0.0403712 
0.194773 -0.501817 -0.299238 -0.161463 -0.360638 -0.24952 -21.8237 2.7262 5.27018 
0.129939 0.108603 0.251193 -0.0468349 -0.506265 -0.0023827 
