# vtk DataFile Version 4.0
Generated by LIGGGHTS
ASCII
DATASET POLYDATA
POINTS 133 float
-0.000470743 -0.000413869 9.99752e-05 -0.000346216 -0.000461665 0.000264209 -0.000275303 -0.000371626 0.000100031 
-0.000143697 -0.000326481 0.000243899 -9.304e-05 -0.000455722 9.99448e-05 5.05257e-05 -0.000416325 0.000233666 
0.000198599 -0.000389777 9.99805e-05 0.000383147 -0.000387454 0.000248938 -0.00044466 -0.000287531 0.000271039 
-0.000384024 -0.000203782 9.99288e-05 -0.000184073 -0.000193684 9.99249e-05 -0.000285307 -0.00016493 0.000269906 
-2.52088e-06 -0.000277425 9.99272e-05 6.72819e-05 -0.000191905 0.000266588 0.000177779 -0.00019094 9.99171e-05 
0.00029864 -0.000197047 0.000259084 0.00047503 -0.000111661 0.000219332 0.000405213 -0.000256025 9.9922e-05 
-0.000476078 4.11401e-05 9.99677e-05 -0.000377306 1.25839e-05 0.000271557 -0.00027593 -1.372e-05 9.99794e-05 
-0.000107534 -6.01991e-05 0.000227661 -0.000102749 9.35721e-05 9.99093e-05 4.52718e-05 -4.08643e-05 9.99591e-05 
0.000185872 -3.27885e-05 0.000241976 0.000324804 -5.52868e-05 9.99497e-05 0.000365434 5.30499e-05 0.000263041 
-0.000331634 0.000179455 9.99736e-05 -0.000481867 0.000180618 0.000243126 -0.000218293 0.000133031 0.000258168 
-0.000170757 0.000298282 9.99674e-05 3.79908e-05 0.000101825 0.000241871 -7.0688e-05 0.000267277 0.000270295 
3.08364e-05 0.000242422 9.98912e-05 0.000179351 0.00010805 9.99796e-05 0.000128816 0.000290345 0.00026745 
0.000348028 0.000284035 0.000261901 0.000369914 0.000168693 9.99567e-05 -0.000324237 0.000302923 0.00025716 
-0.000325202 0.00042634 9.99077e-05 -0.000495907 0.000319397 9.99018e-05 -0.000175344 0.000435978 0.000246468 
7.58855e-05 0.000437236 9.9934e-05 0.000235391 0.000316653 9.99542e-05 0.000218274 0.000466648 0.000237699 
0.000363507 0.000474283 9.99734e-05 0.000480735 0.000438293 0.00025889 -0.000485962 -0.000429754 0.000405374 
-0.000279084 -0.000323232 0.00039189 -0.000168581 -0.000485418 0.00043031 -1.45001e-05 -0.0003205 0.000396667 
0.000111746 -0.000456882 0.000483672 0.000208236 -0.000355697 0.000340627 -0.000436071 -0.000132671 0.000397252 
-9.04841e-05 -0.000150895 0.000470438 0.000149816 -0.000197724 0.000448594 0.000409889 -0.000259238 0.000413163 
-0.000223851 -2.16988e-05 0.000395194 4.93791e-05 -3.40915e-05 0.000388102 0.000293523 -6.42473e-05 0.000408502 
-0.000356665 0.000165503 0.000398713 -0.000203966 0.000293502 0.000417053 -8.04037e-05 0.000117431 0.000402311 
5.56006e-05 0.000255804 0.000450666 0.000206018 0.000129379 0.000357509 0.000447187 0.00013712 0.000425001 
-0.000365684 0.000411178 0.000420098 9.54981e-06 0.000429761 0.000354606 0.000244966 0.000316677 0.00043013 
0.000328184 0.000496357 0.000402081 0.000446207 0.000337043 0.000427849 -0.000337253 -0.000434957 0.000547284 
-0.000152879 -0.000324357 0.000548108 -5.39241e-05 -0.000493552 0.000593962 0.000278981 -0.00035704 0.000528904 
0.000164689 -0.000445505 0.000676109 0.000493724 -0.000333014 0.000579186 0.000361461 -0.000420104 0.000701307 
-0.000339128 -0.000282342 0.000676559 -0.000283055 -0.000170345 0.000520692 4.83884e-05 -0.000298669 0.000588377 
-2.21098e-05 -0.000124457 0.000656859 0.000257151 -0.000178493 0.000616258 0.000431565 -0.000110892 0.000545547 
-0.000420262 2.21619e-05 0.000522818 -0.000325828 -5.74848e-05 0.000680097 -0.000133753 1.73324e-05 0.000569455 
0.000131468 -2.99172e-05 0.000570416 0.000288017 8.97005e-05 0.000536297 0.000466911 8.47066e-05 0.000675635 
-0.000414685 0.000273461 0.000556633 -0.000328043 0.000142448 0.000680332 -0.000158271 0.000214142 0.000594938 
2.57526e-05 0.000136463 0.00060834 0.000200269 0.00021823 0.000661869 0.000387399 0.0002516 0.000598901 
-0.000229422 0.000400703 0.00058403 0.000101451 0.000380704 0.00059995 0.0002952 0.00042885 0.000588202 
0.000491347 0.000465629 0.000574442 -0.000228202 -0.000372317 0.000867806 -8.08704e-05 -0.000352257 0.00073289 
-0.000378727 -0.000151657 0.000893632 -0.000186516 -0.00018042 0.000756023 3.19224e-05 -0.000215351 0.000826618 
0.000214878 -0.000282615 0.000781787 0.000247204 -0.000106946 0.000879083 0.000425132 -0.000209168 0.000720394 
-0.000251618 5.05326e-05 0.000840624 0.000100998 2.4824e-05 0.000760304 -5.77541e-05 9.61644e-05 0.000889892 
0.000292587 -6.52415e-06 0.000712041 0.000456857 -4.39832e-05 0.000828519 -2.8055e-05 0.00029247 0.000724981 
0.000354979 0.000209669 0.000793483 -0.000369611 0.000491193 0.000730376 -0.000271961 0.000300331 0.000789461 
-0.000157821 0.000462602 0.000760352 0.000147691 0.000414081 0.000826006 0.000491194 0.000347888 0.000740172 
-0.000125309 -0.000188755 0.000947353 2.72609e-05 -0.000237534 0.00118745 0.000289036 -0.000263637 0.00157133 
-0.000341928 0.000226357 0.00169894 1.71626e-05 0.000218003 0.00155265 -0.000277454 -6.77666e-05 0.00177046 
-0.000338173 -0.000232077 0.00204663 7.81902e-06 -0.000209929 0.00202081 -3.59939e-05 -1.78191e-05 0.00198283 
-0.000151414 0.000156812 0.00205765 0.000278895 0.000124273 0.00200913 -0.000133371 0.00036793 0.00205414 
0.000371931 0.000365414 0.00200419 
VERTICES 133 266
1 0 
1 1 
1 2 
1 3 
1 4 
1 5 
1 6 
1 7 
1 8 
1 9 
1 10 
1 11 
1 12 
1 13 
1 14 
1 15 
1 16 
1 17 
1 18 
1 19 
1 20 
1 21 
1 22 
1 23 
1 24 
1 25 
1 26 
1 27 
1 28 
1 29 
1 30 
1 31 
1 32 
1 33 
1 34 
1 35 
1 36 
1 37 
1 38 
1 39 
1 40 
1 41 
1 42 
1 43 
1 44 
1 45 
1 46 
1 47 
1 48 
1 49 
1 50 
1 51 
1 52 
1 53 
1 54 
1 55 
1 56 
1 57 
1 58 
1 59 
1 60 
1 61 
1 62 
1 63 
1 64 
1 65 
1 66 
1 67 
1 68 
1 69 
1 70 
1 71 
1 72 
1 73 
1 74 
1 75 
1 76 
1 77 
1 78 
1 79 
1 80 
1 81 
1 82 
1 83 
1 84 
1 85 
1 86 
1 87 
1 88 
1 89 
1 90 
1 91 
1 92 
1 93 
1 94 
1 95 
1 96 
1 97 
1 98 
1 99 
1 100 
1 101 
1 102 
1 103 
1 104 
1 105 
1 106 
1 107 
1 108 
1 109 
1 110 
1 111 
1 112 
1 113 
1 114 
1 115 
1 116 
1 117 
1 118 
1 119 
1 120 
1 121 
1 122 
1 123 
1 124 
1 125 
1 126 
1 127 
1 128 
1 129 
1 130 
1 131 
1 132 

POINT_DATA 133
FIELD FieldData 7
id 1 133 int
4 46 28 51 7 18 9 20 44 
19 27 47 1 29 11 34 40 15 
3 42 14 30 24 10 38 26 49 
12 32 35 25 23 37 13 16 31 
45 2 33 17 21 36 8 5 22 
6 39 63 62 58 54 77 41 52 
67 73 56 53 55 61 60 75 64 
68 43 57 71 48 69 50 59 90 
65 94 72 96 86 106 97 76 89 
99 81 87 66 88 79 85 74 101 
84 102 80 92 93 78 91 83 82 
70 126 105 118 104 112 110 114 98 
109 119 123 100 111 95 107 113 115 
108 117 103 116 124 121 120 122 125 
131 132 127 128 130 129 133 
type 1 133 int
1 1 1 1 1 1 1 1 1 
1 1 1 1 1 1 1 1 1 
1 1 1 1 1 1 1 1 1 
1 1 1 1 1 1 1 1 1 
1 1 1 1 1 1 1 1 1 
1 1 1 1 1 1 1 1 1 
1 1 1 1 1 1 1 1 1 
1 1 1 1 1 1 1 1 1 
1 1 1 1 1 1 1 1 1 
1 1 1 1 1 1 1 1 1 
1 1 1 1 1 1 1 1 1 
1 1 1 1 1 1 1 1 1 
1 1 1 1 1 1 1 1 1 
1 1 1 1 1 1 1 1 1 
1 1 1 1 1 1 1 
i 3 133 int
1 1 0 0 1 0 0 1 0 
0 0 0 0 1 0 0 0 0 
-1 0 0 0 0 0 0 1 0 
0 0 0 0 0 0 0 0 0 
0 0 0 0 0 0 -1 0 0 
0 0 0 0 0 0 -1 0 0 
0 0 0 0 0 0 0 0 0 
0 0 0 1 0 0 0 0 0 
0 0 0 -1 0 0 0 0 0 
0 0 0 0 0 0 0 0 0 
1 0 0 0 0 0 0 0 0 
0 0 0 0 0 0 0 0 0 
0 0 0 0 0 0 0 0 0 
0 -1 0 1 -1 0 0 -1 0 
0 -1 0 0 0 0 0 0 0 
0 -1 0 0 0 0 0 1 0 
1 0 0 0 0 0 0 0 0 
0 0 0 0 0 0 0 0 0 
0 0 0 0 0 0 0 0 0 
0 0 0 0 0 0 0 0 0 
0 0 0 0 0 0 0 0 0 
0 0 0 0 0 0 0 0 0 
0 0 0 0 0 0 0 0 0 
0 -1 0 0 0 0 0 0 0 
0 0 0 0 0 0 0 0 0 
0 0 0 0 0 0 -1 0 0 
0 0 0 0 0 0 0 0 0 
0 0 0 0 0 0 0 0 0 
0 0 0 0 0 0 0 0 0 
0 0 0 0 0 0 0 0 0 
0 0 0 0 0 0 0 0 0 
0 0 0 0 0 0 0 0 0 
0 0 0 0 0 0 0 -1 0 
-1 -1 0 0 0 0 0 0 0 
0 0 0 0 0 0 0 0 0 
0 0 0 0 0 0 -1 0 0 
0 0 0 0 0 0 0 0 0 
0 0 0 0 0 0 0 0 0 
0 0 0 0 -1 0 0 0 0 
0 0 0 0 0 0 0 0 0 
0 0 0 0 0 0 0 0 0 
0 0 0 0 0 0 0 0 0 
0 0 0 0 0 0 0 0 0 
0 0 0 0 0 0 0 0 0 
0 0 0 
v 3 133 double
-0.00101955 -0.000231677 0.000321264 6.96249e-05 0.000274197 -0.000412077 -0.000968239 1.38044e-05 3.10306e-05 
-1.81587e-05 -0.000243673 -0.000298305 -0.000307669 -3.2606e-07 1.21068e-05 -0.000276508 0.000235204 6.90989e-05 
0.00032178 0.000299533 -0.000201645 0.000470069 -4.96559e-05 -0.000269619 0.000441954 -0.000308451 -0.000190491 
0.000133857 7.23184e-05 -8.35338e-05 0.000129875 -0.000263332 -0.000134271 0.000936225 -0.000496904 0.000159807 
0.000215786 -0.000100589 -0.000442221 0.000283908 -0.000330129 -0.000506898 0.000240188 0.000403905 -0.000102168 
0.000328399 3.04881e-05 -0.000209608 0.000335652 -8.84532e-05 0.000234744 4.24911e-05 0.000168438 -8.17174e-05 
0.000291576 -0.000218373 -0.000365243 0.000677269 -0.000873137 -0.000200214 -0.000201856 0.000368805 5.53298e-15 
0.000533966 -0.000403405 -0.000190272 0.000631366 -0.000471751 -3.51706e-05 0.000962684 -0.000640572 0.00015285 
0.000143129 -0.00014522 -0.000368765 0.000578624 -0.000341157 1.91441e-05 0.000638338 -0.000619402 -0.000142493 
0.000272816 0.000443833 0.000139513 0.000484261 -0.000581121 -0.000105477 0.000115808 -0.000735956 -0.000492475 
9.55633e-05 0.00019703 -0.000216247 -0.000787977 -0.000691955 -0.000940568 -0.000168385 -0.000452164 -0.000550433 
8.8897e-05 -0.000174759 -0.000390365 -0.000139128 -0.000241021 -3.16125e-05 0.00177024 -0.000294831 -0.00116058 
1.45984e-05 -0.00157481 -0.000255131 0.000173659 -0.000344911 0.000115837 -0.000326884 0.000357514 -0.000865369 
0.000648 0.00112187 -0.00020528 -0.000113512 -9.88026e-05 1.01155e-05 0.000289987 -0.00014933 0.000559317 
0.000285976 0.000353476 3.79525e-05 0.000150567 5.79533e-05 -8.29259e-05 0.00150596 -0.000368975 -0.00134373 
-0.000964305 -0.000322818 -0.000163418 -9.68613e-05 -0.00047765 0.000467072 0.000793606 -0.000116931 8.16516e-05 
0.000517114 -0.000460226 0.000306378 -0.000244608 -0.00125106 8.66904e-05 0.000262181 -0.000880692 0.000620261 
-0.000265014 0.000158015 -0.00195206 0.000559966 -0.000342548 -0.000536011 0.00156526 -0.000411676 0.00025777 
0.00110401 -0.00130479 0.000824092 -0.00105119 0.000247972 0.000603649 0.000947844 -0.000128025 -0.000828425 
-0.000252324 6.03038e-05 0.000125652 -0.000594021 -0.000413249 -0.00115809 0.000849564 -0.000286956 0.000261076 
5.01591e-05 -0.000212117 -0.000754644 0.000293767 0.000517763 -0.000598611 -0.000378541 4.81564e-06 -0.000392072 
-2.62636e-05 9.45522e-05 -0.00144413 -0.0007839 -0.000684356 -0.000527023 0.000293415 -0.00139008 0.00016099 
-9.61708e-06 -0.000922566 0.000185214 -0.00153407 0.000382681 -0.00121103 0.00086598 -0.0014753 0.000303874 
0.000858703 -0.00102848 -0.000672762 0.000593243 -0.00116058 -0.000533858 -0.000308415 -0.000125184 0.000107963 
0.000318754 -0.00060521 0.00123482 -0.00123416 -0.00199818 0.00131122 0.000948538 -0.000114597 -0.00106153 
0.000912344 -0.000433701 -0.00166335 0.0010474 -0.0002833 0.000438214 1.13199e-05 -0.00139696 -0.00174575 
0.00125862 -0.0028185 0.00166324 0.00146897 -0.00162994 0.00222565 0.0036551 -0.00140176 0.000942738 
0.000745483 -0.00136191 -0.00107258 0.000478812 0.000558285 -0.00175741 0.00131863 -0.000142562 -0.000380304 
0.00340772 -0.00106897 0.00117849 -0.00624982 -0.00744825 0.00477962 0.000132645 -0.000868699 -0.000739796 
0.000135208 -9.03725e-05 -0.00166849 -0.000213993 -0.00127491 -0.00133102 0.00570469 0.00165352 0.00221704 
0.000298207 -0.00102552 0.000289572 -0.00312511 -0.00720835 -0.00315045 -0.00201896 -0.00113788 -0.00128508 
-0.00127632 -0.00252187 -0.00386664 -0.00182587 -0.00268374 -0.00146949 0.000140604 -0.00121937 -0.000703407 
-0.00274787 -0.00126679 0.000311069 -0.000250396 -0.000854639 -0.000574982 -0.000506392 -0.0012397 -0.00165328 
-0.000699712 0.000420071 -0.00147034 -0.0423696 0.0255637 -0.0318366 -0.000702156 -0.0036553 0.00277662 
0.00355457 -0.0437059 -0.037457 0.000208683 0.000785035 -0.000491905 0.00354602 -0.0040675 -0.00316532 
0.00474752 -0.00238537 -0.00269398 -0.00990519 0.00335635 -0.00064136 -0.00310126 -0.00406118 0.0006086 
-0.0034697 0.00173195 0.00211789 -0.003486 -0.0213351 -0.0172267 0.00766873 0.010713 -0.035349 
0.00593607 -0.000850278 0.00158754 0.00387183 -0.00294789 -0.00152957 -0.00237882 -0.00261456 0.000675945 
-0.00179011 -0.000971459 -0.0116033 -3.31793e-05 -0.00046021 0.000999923 0.0029695 -0.00673241 -0.00609838 
-0.00361711 -0.00183519 0.00146452 0.000332142 0.00151528 -0.0167787 0.00581366 -0.00662536 -0.000967978 
0.00100046 -0.000757462 -0.0065617 0 0 -0.127836 0 0 -0.0938644 
0 0 -0.0794143 0 0 -0.095797 0 0 -0.0700261 
-0 -0 -0.02 -0 -0 -0.02 0 0 -0.0271466 
-0 -0 -0.02 -0 -0 -0.02 -0 -0 -0.02 
-0 -0 -0.02 
f 3 133 double
1.12751e-08 -2.36662e-08 1.35195e-08 -3.17346e-10 1.07841e-07 -1.95122e-08 1.13671e-07 -8.71982e-08 -6.74464e-08 
-2.86859e-08 3.6217e-08 -3.67582e-08 5.04994e-10 -1.925e-08 2.3415e-08 -1.46476e-08 -5.56293e-09 -5.48024e-08 
4.06325e-08 -3.39018e-08 -5.94086e-08 -9.65986e-08 3.05769e-08 1.69355e-07 3.41542e-08 2.0333e-08 9.14098e-08 
-1.32719e-08 9.72537e-08 5.46219e-08 4.19223e-08 -1.64593e-08 2.1989e-08 -3.06038e-08 -9.67172e-08 -6.31922e-08 
8.05423e-08 -2.43575e-08 1.0459e-07 1.44278e-07 2.1576e-08 2.68633e-07 -4.44286e-08 -2.34581e-08 4.0438e-08 
-5.52286e-08 3.55547e-08 -2.12064e-08 -1.38858e-07 -4.92218e-08 -5.5196e-08 -4.32072e-08 -6.81092e-08 6.4573e-09 
-2.61602e-08 -2.81766e-08 -7.44792e-09 5.99601e-09 -1.3293e-07 9.52749e-08 1.72075e-22 7.07822e-23 0 
6.14603e-08 -8.14681e-08 2.32712e-08 2.08154e-08 -1.03353e-07 -1.57989e-08 2.63024e-08 -2.16799e-08 7.13214e-08 
3.47389e-08 4.49355e-08 2.66628e-08 -3.04103e-08 -2.35391e-08 -4.82606e-08 -4.78115e-08 -1.02667e-07 -1.03615e-07 
-4.31836e-09 -2.28164e-09 1.49127e-08 4.88161e-08 -1.52651e-08 8.09865e-08 3.11682e-08 -1.46347e-07 9.5776e-09 
-5.98673e-08 -5.66106e-08 -3.41551e-08 -9.78105e-08 -5.56229e-08 2.2677e-09 -1.25301e-09 -1.13832e-07 1.06859e-08 
-3.72196e-08 -4.14818e-08 3.40166e-08 -2.76545e-08 -1.69111e-09 1.32004e-09 -5.09128e-08 -1.41953e-07 2.18336e-07 
6.75378e-08 7.50897e-08 7.79762e-08 -1.65869e-08 -3.09846e-08 4.0475e-08 3.10907e-08 -1.92865e-07 1.08838e-07 
-1.23299e-07 -1.3855e-07 6.70312e-08 4.91034e-08 3.19746e-08 2.78896e-08 -3.22715e-08 -3.95319e-08 1.26412e-08 
-3.76422e-08 -7.87814e-09 3.60214e-09 -4.84092e-09 -1.73661e-08 3.87117e-08 5.99226e-09 -1.02001e-07 1.26081e-08 
-1.10263e-07 -5.63411e-08 2.6177e-08 -5.30529e-08 4.30572e-08 7.91317e-08 4.32807e-08 -1.93604e-08 7.30481e-08 
2.97409e-08 -3.73549e-08 6.13478e-08 4.44233e-08 -3.75989e-08 -6.331e-08 2.47384e-08 -4.80825e-08 -5.7952e-08 
1.59176e-07 3.94865e-07 1.95808e-09 -2.46319e-09 3.35741e-08 -3.0763e-08 2.19261e-08 9.59524e-08 -5.80659e-09 
-8.51113e-08 -4.33567e-08 -4.51322e-08 1.32649e-07 2.24932e-08 2.70389e-07 -5.04732e-08 -1.98547e-09 -7.3871e-08 
-1.06533e-07 -5.37443e-08 -6.693e-08 -8.19518e-08 4.1504e-08 6.01605e-08 -8.29974e-09 8.40777e-08 -1.9878e-08 
3.80296e-08 -5.0736e-08 1.49512e-07 -1.23346e-07 -4.64114e-08 -1.02051e-08 8.9077e-09 -1.09616e-07 1.51965e-07 
6.01424e-08 -6.72555e-09 -3.56964e-08 6.54911e-08 -2.60838e-07 6.33686e-08 6.00983e-08 -1.2727e-07 2.15363e-09 
3.6781e-08 -1.07446e-07 9.22585e-08 1.55444e-07 2.02613e-07 -8.3868e-08 4.49632e-08 6.4263e-08 -5.44369e-08 
-1.43332e-07 9.74319e-08 1.57409e-07 -1.11369e-07 1.01287e-07 1.71293e-07 1.04143e-07 -2.57395e-07 -1.91151e-07 
0 0 -1.0273e-07 -8.03668e-09 3.49494e-08 -1.19734e-07 1.19893e-07 -1.11617e-07 -5.27919e-08 
1.73791e-07 1.64711e-07 4.20668e-07 -1.02027e-07 1.24895e-07 -6.69818e-08 3.73002e-08 -3.73744e-08 -2.87394e-08 
1.50477e-08 -1.08244e-07 3.30972e-08 2.04996e-08 3.51646e-09 -1.20375e-07 0 0 -1.0273e-07 
3.11028e-08 1.02346e-08 -1.09179e-07 1.64295e-08 -4.1709e-07 3.30249e-08 -7.07161e-08 4.27636e-08 -3.76224e-08 
9.12503e-09 5.88977e-08 -2.9808e-08 -1.10521e-07 9.82714e-09 -1.55226e-07 -3.75586e-08 1.18491e-07 4.10306e-08 
2.15337e-06 -9.33184e-07 -2.26145e-06 -1.25225e-07 1.37454e-07 -1.50371e-07 -3.00792e-10 7.71892e-11 -1.0258e-07 
-1.45046e-07 2.56554e-07 2.37106e-07 -2.38622e-08 1.0061e-07 1.10196e-07 -9.59427e-09 4.36214e-08 -6.30615e-08 
1.76776e-08 -4.65668e-08 -6.0679e-08 -9.85895e-08 7.44326e-08 4.48478e-08 0 0 -1.0273e-07 
1.62974e-07 1.20007e-08 -8.38677e-08 7.65996e-10 -8.0953e-09 -4.29767e-08 6.1565e-08 7.90294e-09 -1.41584e-07 
-7.76917e-09 -1.19163e-08 -1.00113e-07 0 0 -1.0273e-07 -6.40838e-08 6.43508e-08 -3.3878e-08 
0 0 -1.0273e-07 1.73397e-08 -9.2791e-09 -7.03613e-08 -7.33332e-09 6.04573e-09 -1.09385e-07 
0 0 -1.0273e-07 0 0 -1.0273e-07 -2.70227e-07 2.06775e-07 -5.19301e-08 
1.24149e-07 -7.59092e-08 6.9378e-08 -2.42536e-06 1.10685e-06 2.2249e-06 0 0 -1.0273e-07 
0 0 -1.0273e-07 3.51275e-08 5.04194e-08 -2.12285e-08 0 0 -1.0273e-07 
0 0 -1.0273e-07 0 0 -1.0273e-07 4.61535e-08 1.23824e-07 2.95446e-08 
0 0 -1.0273e-07 0 0 -1.0273e-07 0 0 -1.0273e-07 
0 0 -1.0273e-07 0 0 -1.0273e-07 0 0 -1.0273e-07 
0 0 -1.0273e-07 0 0 -1.0273e-07 0 0 -1.0273e-07 
0 0 0 0 0 0 0 0 -1.0273e-07 
0 0 0 0 0 0 0 0 0 
0 0 0 
radius 1 133 double
0.0001 0.0001 0.0001 0.0001 0.0001 0.0001 0.0001 0.0001 0.0001 
0.0001 0.0001 0.0001 0.0001 0.0001 0.0001 0.0001 0.0001 0.0001 
0.0001 0.0001 0.0001 0.0001 0.0001 0.0001 0.0001 0.0001 0.0001 
0.0001 0.0001 0.0001 0.0001 0.0001 0.0001 0.0001 0.0001 0.0001 
0.0001 0.0001 0.0001 0.0001 0.0001 0.0001 0.0001 0.0001 0.0001 
0.0001 0.0001 0.0001 0.0001 0.0001 0.0001 0.0001 0.0001 0.0001 
0.0001 0.0001 0.0001 0.0001 0.0001 0.0001 0.0001 0.0001 0.0001 
0.0001 0.0001 0.0001 0.0001 0.0001 0.0001 0.0001 0.0001 0.0001 
0.0001 0.0001 0.0001 0.0001 0.0001 0.0001 0.0001 0.0001 0.0001 
0.0001 0.0001 0.0001 0.0001 0.0001 0.0001 0.0001 0.0001 0.0001 
0.0001 0.0001 0.0001 0.0001 0.0001 0.0001 0.0001 0.0001 0.0001 
0.0001 0.0001 0.0001 0.0001 0.0001 0.0001 0.0001 0.0001 0.0001 
0.0001 0.0001 0.0001 0.0001 0.0001 0.0001 0.0001 0.0001 0.0001 
0.0001 0.0001 0.0001 0.0001 0.0001 0.0001 0.0001 0.0001 0.0001 
0.0001 0.0001 0.0001 0.0001 0.0001 0.0001 0.0001 
omega 3 133 double
-3.67478 -2.13369 30.5539 2.23969 2.80939 11.4179 -5.01574 4.64186 -28.0361 
-0.354647 -0.916767 -11.9952 -1.30959 -3.02256 6.65064 7.34614 -3.19515 4.01391 
4.87602 6.11791 -7.46358 0.605119 -11.1485 9.24769 9.76064 9.80124 -4.18081 
0.210042 1.45338 -11.6274 2.87943 1.31498 12.407 -10.3668 8.46483 2.53524 
-1.6616 2.95396 -12.1753 -0.381686 -6.40142 3.21038 -4.72216 2.59191 8.35495 
14.0403 -2.33076 2.97849 7.65029 7.14157 -7.26118 -0.818558 0.215087 9.53744 
2.0912 3.61773 0.978143 -0.11555 3.78268 0.761011 -3.68843 -2.01877 8.44735 
-2.86423 -0.223175 -16.5776 4.77834 5.77285 9.5618 -3.90789 -2.29134 -8.24487 
-6.98028 -11.534 -0.0274834 3.40389 5.71597 1.92292 -1.72284 -0.794292 1.41431 
-5.77234 3.97358 5.59777 2.63463 -2.40003 -0.733413 -14.8618 -7.70202 8.99983 
-1.52992 1.30026 -6.13277 2.8432 -4.3842 -2.4798 5.95894 -2.45145 -5.55799 
2.41816 0.273921 -7.04674 3.2517 -1.86773 -8.638 -16.2725 9.40635 -21.9087 
19.2753 -2.17805 6.06109 3.63003 2.13283 4.68101 21.4711 -11.2314 -10.2383 
-11.1669 6.17269 0.467034 0.43314 -0.891756 12.4841 1.17538 11.3296 -2.42881 
-5.61898 4.3906 6.29151 -1.52991 1.77246 -11.2702 9.78522 -10.8211 26.9868 
-0.733904 -4.73115 -28.0209 7.23159 4.7086 -5.79593 -12.1466 1.43998 -2.17357 
10.1979 0.0953591 -12.8228 2.70795 -31.8567 12.805 3.1317 8.73541 -4.19089 
14.9497 17.9138 -28.3538 -3.65212 13.6128 -8.10005 -1.72848 -0.98355 -2.73519 
-10.0049 17.3814 9.21197 1.36142 -10.1525 14.7464 -6.75121 8.66301 2.52099 
8.19232 -11.3316 11.5399 -2.80854 -0.171213 10.6588 -9.14586 16.5266 5.95378 
-17.8385 12.6332 13.7934 14.2099 -3.22892 -9.97869 -9.5129 17.3776 -11.0411 
14.0287 -30.5055 -9.05022 10.1743 -9.70762 -10.4024 11.3841 -3.68969 -2.00566 
1.31053 6.50109 -9.30384 -21.1746 -12.5754 13.7609 -19.2154 10.6061 -8.43732 
10.3265 14.5452 -5.25567 -18.5881 -3.4842 -0.102274 -5.34086 -4.9461 0.302559 
15.3944 84.4017 -34.5453 29.2952 13.6023 21.8251 5.78544 -18.0731 20.9719 
-24.0639 -5.9395 -7.32494 20.9008 -2.13488 -6.49372 13.7943 3.4325 -2.6465 
7.00424 -0.765384 8.29941 10.9493 -4.52653 -4.58337 -15.8081 33.2126 16.3742 
-18.1696 -9.61266 25.7024 -21.1241 23.9501 -3.63525 8.24092 -7.23116 -10.439 
14.9269 27.773 2.96717 38.236 -127.028 -40.2584 -4.39127 -27.055 -8.11263 
2.19917 16.2401 -9.49817 -6.43423 -9.7502 -2.31955 -52.3918 -13.0911 5.82211 
24.427 1.91451 3.12272 39.9947 -35.3253 -31.6952 5.33722 -21.1689 24.4285 
107.379 205.942 20.1062 33.0646 -30.134 -10.6385 12.985 11.8603 -1.91883 
36.0823 -44.2989 -13.5553 -16.3284 1.53555 -8.33985 -20.112 13.5149 7.33785 
-14.0989 -23.9902 10.6298 -412.502 -474.347 -44.345 2.36117 -77.5882 -10.1306 
392.116 -110.9 -150.876 -63.5155 -10.9281 -3.3699 40.2222 14.4968 -27.0148 
-8.9194 -32.0934 39.4052 -78.9616 -153.571 -16.5109 3.09264 -81.77 22.9538 
-166.439 51.5707 -6.80328 136.818 -214.866 40.5899 -321.01 92.0009 -272.973 
72.7296 36.3034 -1.46024 15.1188 121.758 -106.373 46.856 29.5321 6.93376 
-97.8539 -56.5063 40.4914 -24.7225 -61.9051 162.233 -2.37544 261.153 113.803 
-81.5607 -11.1141 -133.445 -372.622 -55.562 121.908 7.88561 15.559 -75.0225 
-13.0354 -12.3478 -3.47038 0 0 0 0 0 0 
0 0 0 0 0 0 0 0 0 
0 0 0 0 0 0 0 0 0 
0 0 0 0 0 0 0 0 0 
0 0 0 
