# vtk DataFile Version 4.0
Generated by LIGGGHTS
ASCII
DATASET POLYDATA
POINTS 167 float
-0.000468251 -0.000419984 9.99794e-05 -0.000342011 -0.000459176 0.000262487 -0.000275704 -0.000363244 9.99794e-05 
-0.000140161 -0.000320709 0.000241193 -9.57208e-05 -0.00045506 9.99131e-05 4.7987e-05 -0.000417058 0.000233648 
0.000197049 -0.000390619 9.99627e-05 0.000384667 -0.000387216 0.000248425 -0.000443207 -0.000286766 0.00026487 
-0.00038065 -0.000192658 9.9911e-05 -0.000180736 -0.000185138 9.99124e-05 -0.000281895 -0.000156794 0.000269985 
-3.49148e-06 -0.000277636 9.99048e-05 6.35083e-05 -0.000193023 0.00026817 0.000177072 -0.000191673 9.99184e-05 
0.000299033 -0.000200855 0.000258047 0.000474221 -0.000110194 0.000220367 0.000408405 -0.000255527 9.98825e-05 
-0.000477721 4.19889e-05 9.99257e-05 -0.000380719 1.6952e-05 0.000272955 -0.000285619 -1.48898e-05 9.99577e-05 
-0.000104366 -5.61861e-05 0.000232305 -0.000102325 9.3691e-05 9.99305e-05 4.48621e-05 -4.16703e-05 9.99632e-05 
3.9062e-05 9.9105e-05 0.000241854 0.000185701 -3.68034e-05 0.000242661 0.000324167 -5.62172e-05 9.98593e-05 
0.000363495 5.44084e-05 0.000261721 -0.000332552 0.000179487 9.99207e-05 -0.000485731 0.000184641 0.00024454 
-0.000218691 0.000133106 0.000257642 -0.000170203 0.0002965 9.99555e-05 -6.89213e-05 0.000265049 0.000269471 
3.39675e-05 0.000240037 9.9905e-05 0.000181391 0.000104576 9.99794e-05 0.000129699 0.000287995 0.000268759 
0.000343734 0.000287261 0.00026337 0.000370235 0.000171893 9.99747e-05 -0.000324784 0.0003026 0.000257218 
-0.000323858 0.000425916 9.98965e-05 -0.000494922 0.000322284 9.98884e-05 -0.000174071 0.00043351 0.000246232 
7.21763e-05 0.000436309 9.99314e-05 0.000232638 0.000317011 9.98766e-05 0.000219082 0.000463676 0.0002351 
0.000366601 0.000466828 9.99794e-05 0.000485126 0.000440284 0.000260032 -0.000483258 -0.00042465 0.000404027 
-0.000276032 -0.000318084 0.000387884 -0.000166011 -0.000480491 0.000426539 -1.81242e-05 -0.000327088 0.000399511 
0.000108928 -0.000457949 0.000481538 0.000208279 -0.000359789 0.000338498 -0.000435302 -0.000136572 0.000396639 
-9.58472e-05 -0.000152455 0.000458166 0.000150961 -0.000202373 0.000447697 0.000407062 -0.000257921 0.000416268 
-0.000233111 -1.63037e-05 0.000403609 5.05833e-05 -3.47024e-05 0.000389968 0.000294217 -6.83158e-05 0.000407636 
-0.000352988 0.000167389 0.000401747 -0.000202019 0.000297808 0.000414976 -8.19217e-05 0.000114551 0.000402308 
4.59549e-05 0.000261204 0.000448305 0.000203443 0.00012522 0.000358477 0.000452627 0.000127094 0.000425799 
-0.00036336 0.000415888 0.000417334 -6.8982e-07 0.00043211 0.000355537 0.000240993 0.000306595 0.000433841 
0.000337435 0.000485044 0.000394842 0.000457375 0.000327525 0.000422848 -0.000335732 -0.000430388 0.000542109 
-0.000155908 -0.000320867 0.000547696 -5.56005e-05 -0.000487758 0.000593073 4.60774e-05 -0.000300191 0.000587063 
0.0002845 -0.000372603 0.000524895 0.00016546 -0.0004367 0.000672193 0.000494024 -0.000332633 0.000580102 
0.000364218 -0.0004256 0.000700484 -0.000333319 -0.000284662 0.000678977 -0.000415421 -0.000102354 0.000681132 
-0.000284119 -0.000169391 0.000523192 -2.63794e-05 -0.000122514 0.000643242 0.000266717 -0.000192734 0.00061043 
0.00043454 -0.000105732 0.00054527 -0.000409928 1.76406e-05 0.000521288 -0.000148882 2.25635e-05 0.000580681 
0.000141048 -4.30615e-05 0.000568122 0.000289912 8.61421e-05 0.000534485 0.000451596 7.88451e-05 0.000651889 
-0.000403433 0.000280361 0.000558815 -0.000305824 0.000118639 0.000658907 -0.000145446 0.000222237 0.000591259 
2.59698e-05 0.000119282 0.000587702 0.000190242 0.000213401 0.00065209 0.000379304 0.000255474 0.000592209 
-0.000225791 0.000407081 0.000580706 9.55414e-05 0.00038159 0.000600018 0.000287894 0.000433021 0.000581473 
0.00049161 0.000462014 0.000566838 -0.00046661 -0.000377477 0.000795608 -0.000261818 -0.000386459 0.000835529 
-9.22082e-05 -0.000351498 0.000734763 0.000220595 -0.000462158 0.000882561 -0.000323016 -0.000195093 0.000857458 
-0.00021683 -0.000120488 0.000705007 -0.000133772 -0.000244835 0.000898709 5.33877e-05 -0.000227609 0.000793454 
0.000243143 -0.000289889 0.000783594 0.000200666 -0.0001106 0.000861298 0.000426823 -0.000215988 0.000727956 
-0.000321103 3.82806e-06 0.00082192 -7.031e-05 -6.7903e-05 0.000830494 8.95198e-05 2.15859e-05 0.000750215 
0.000284324 -1.75943e-05 0.000705312 0.000284315 6.94006e-05 0.000885404 0.000450608 -3.73479e-05 0.000814603 
-0.00044177 0.000162793 0.000798751 -0.000269604 0.000296969 0.000741768 -0.00011278 0.000112655 0.00075549 
-2.14934e-05 0.000289167 0.000733217 0.000148314 0.000212889 0.000847588 0.000347357 0.00023237 0.000788226 
-0.000351549 0.000477968 0.000719087 -0.000496634 0.000340469 0.000725191 -0.000422959 0.000441042 0.000902147 
-0.000139591 0.000312143 0.000892958 -0.000156649 0.000460934 0.000760414 3.99336e-05 0.000469071 0.000796058 
0.000215243 0.000379814 0.000760134 0.000382178 0.000421954 0.000861768 -0.000447622 -0.000383263 0.000994581 
-0.00025669 -0.000334417 0.00102855 -8.79209e-05 -0.000438847 0.000919212 8.13682e-05 -0.000339394 0.000956856 
-9.76941e-05 -0.000487268 0.00111298 0.000361448 -0.000463721 0.00102452 -0.000468017 -0.000222801 0.00111217 
-6.77235e-05 -0.000292064 0.00108146 4.15172e-05 -0.000144539 0.000977499 0.000241184 -0.000244571 0.00103069 
0.000396705 -0.000288964 0.000911696 -0.000437739 -8.0742e-05 0.000974712 -0.000352905 8.45417e-05 0.00104871 
-0.000212261 -7.26246e-05 0.000971254 6.59665e-06 9.27008e-05 0.000921408 -5.66014e-05 -6.15294e-06 0.00108336 
0.000357284 -8.86434e-05 0.000983846 0.000466648 9.54134e-05 0.000963263 -0.000330858 0.000265661 0.000929551 
-0.000190072 0.000123988 0.000939557 -1.39144e-05 0.000207634 0.00108376 0.000166896 0.000137786 0.00103212 
0.000280925 0.000291739 0.000974793 0.000479943 0.000292512 0.000994328 -0.000407746 0.000452331 0.00110122 
-0.000242793 0.000454876 0.000987724 4.71536e-05 0.000347902 0.000954965 9.76651e-05 -0.000446216 0.00112512 
0.000366818 -0.000322087 0.00116559 -0.000319996 -9.09848e-05 0.00113872 0.000463745 -9.49143e-06 0.0011335 
-0.000358591 0.000262397 0.00113995 -0.000187114 0.000129333 0.00115116 0.000349171 0.000161958 0.00111079 
-0.000169953 0.000326518 0.00112266 0.000161789 0.000364493 0.00111799 
VERTICES 167 334
1 0 
1 1 
1 2 
1 3 
1 4 
1 5 
1 6 
1 7 
1 8 
1 9 
1 10 
1 11 
1 12 
1 13 
1 14 
1 15 
1 16 
1 17 
1 18 
1 19 
1 20 
1 21 
1 22 
1 23 
1 24 
1 25 
1 26 
1 27 
1 28 
1 29 
1 30 
1 31 
1 32 
1 33 
1 34 
1 35 
1 36 
1 37 
1 38 
1 39 
1 40 
1 41 
1 42 
1 43 
1 44 
1 45 
1 46 
1 47 
1 48 
1 49 
1 50 
1 51 
1 52 
1 53 
1 54 
1 55 
1 56 
1 57 
1 58 
1 59 
1 60 
1 61 
1 62 
1 63 
1 64 
1 65 
1 66 
1 67 
1 68 
1 69 
1 70 
1 71 
1 72 
1 73 
1 74 
1 75 
1 76 
1 77 
1 78 
1 79 
1 80 
1 81 
1 82 
1 83 
1 84 
1 85 
1 86 
1 87 
1 88 
1 89 
1 90 
1 91 
1 92 
1 93 
1 94 
1 95 
1 96 
1 97 
1 98 
1 99 
1 100 
1 101 
1 102 
1 103 
1 104 
1 105 
1 106 
1 107 
1 108 
1 109 
1 110 
1 111 
1 112 
1 113 
1 114 
1 115 
1 116 
1 117 
1 118 
1 119 
1 120 
1 121 
1 122 
1 123 
1 124 
1 125 
1 126 
1 127 
1 128 
1 129 
1 130 
1 131 
1 132 
1 133 
1 134 
1 135 
1 136 
1 137 
1 138 
1 139 
1 140 
1 141 
1 142 
1 143 
1 144 
1 145 
1 146 
1 147 
1 148 
1 149 
1 150 
1 151 
1 152 
1 153 
1 154 
1 155 
1 156 
1 157 
1 158 
1 159 
1 160 
1 161 
1 162 
1 163 
1 164 
1 165 
1 166 

POINT_DATA 167
FIELD FieldData 7
id 1 167 int
4 46 28 51 7 18 9 20 44 
19 27 47 1 29 11 34 40 15 
3 42 14 30 24 10 23 38 26 
49 12 32 35 25 37 13 16 31 
45 2 33 17 21 36 8 5 22 
6 39 63 62 58 54 77 41 52 
67 73 56 53 55 61 60 75 64 
68 43 57 71 48 69 50 59 90 
65 94 89 72 96 86 106 97 88 
76 99 81 87 66 79 85 74 101 
84 102 80 92 93 78 91 83 82 
70 131 126 105 124 118 104 125 112 
110 114 98 109 116 119 100 130 111 
120 115 123 95 122 107 113 103 138 
129 108 132 117 133 146 151 144 139 
161 142 162 158 147 150 134 121 149 
135 127 152 137 140 128 136 155 143 
141 145 159 153 148 156 165 160 154 
166 157 163 164 167 
type 1 167 int
1 1 1 1 1 1 1 1 1 
1 1 1 1 1 1 1 1 1 
1 1 1 1 1 1 1 1 1 
1 1 1 1 1 1 1 1 1 
1 1 1 1 1 1 1 1 1 
1 1 1 1 1 1 1 1 1 
1 1 1 1 1 1 1 1 1 
1 1 1 1 1 1 1 1 1 
1 1 1 1 1 1 1 1 1 
1 1 1 1 1 1 1 1 1 
1 1 1 1 1 1 1 1 1 
1 1 1 1 1 1 1 1 1 
1 1 1 1 1 1 1 1 1 
1 1 1 1 1 1 1 1 1 
1 1 1 1 1 1 1 1 1 
1 1 1 1 1 1 1 1 1 
1 1 1 1 1 1 1 1 1 
1 1 1 1 1 1 1 1 1 
1 1 1 1 1 
i 3 167 int
1 1 0 0 1 0 0 1 0 
0 0 0 0 1 0 0 0 0 
-1 0 0 0 0 0 0 1 0 
0 0 0 0 0 0 0 0 0 
0 0 0 0 0 0 -1 0 0 
0 0 0 0 0 0 -1 0 0 
0 0 0 0 0 0 0 0 0 
0 0 0 1 0 0 0 0 0 
0 0 0 0 0 0 -1 0 0 
0 0 0 0 0 0 0 0 0 
0 0 0 1 0 0 0 0 0 
0 0 0 0 0 0 0 0 0 
0 0 0 0 0 0 0 0 0 
0 -1 0 1 -1 0 0 -1 0 
0 -1 0 0 0 0 0 0 0 
0 -1 0 0 0 0 0 1 0 
1 0 0 0 0 0 0 0 0 
0 0 0 0 0 0 0 0 0 
0 0 0 0 0 0 0 0 0 
0 0 0 0 0 0 0 0 0 
0 0 0 0 0 0 0 0 0 
0 0 0 0 0 0 0 0 0 
0 0 0 0 0 0 0 0 0 
0 -1 0 0 0 0 0 0 0 
0 0 0 0 0 0 0 0 0 
0 0 0 0 0 0 0 0 0 
-1 0 0 0 0 0 0 0 0 
0 0 0 0 0 0 0 0 0 
0 0 0 0 0 0 0 0 0 
0 0 0 0 0 0 0 0 0 
0 0 0 0 0 0 0 0 0 
0 0 0 0 0 0 0 0 0 
0 0 0 0 0 0 0 -1 0 
-1 -1 0 0 0 0 0 0 0 
0 0 0 0 0 0 0 0 0 
0 0 0 0 0 0 0 0 0 
0 0 0 0 0 0 -1 0 0 
0 0 0 0 0 0 0 0 0 
0 0 0 0 0 0 0 0 0 
0 0 0 0 0 0 0 0 0 
0 0 0 0 0 0 0 0 0 
0 -1 0 1 0 0 0 0 0 
0 0 0 0 0 0 0 -1 0 
0 0 0 0 0 0 0 0 0 
0 0 0 0 1 0 0 0 0 
0 0 0 0 0 0 1 0 0 
0 0 0 0 0 0 0 0 0 
0 0 0 1 0 0 0 0 0 
0 0 0 0 0 0 0 0 0 
0 0 0 -1 0 0 0 0 0 
0 0 0 0 0 0 0 0 0 
0 0 0 0 -1 0 0 -1 0 
0 0 0 0 0 0 0 0 0 
0 0 0 0 0 0 0 0 0 
0 0 0 0 0 0 0 0 0 
0 0 0 0 0 0 
v 3 167 double
6.34645e-05 -6.88161e-05 5.53305e-15 9.28851e-07 -8.01429e-07 1.69851e-07 -1.32947e-05 1.23846e-05 -3.88961e-15 
5.86962e-07 -5.57098e-07 -5.0135e-08 3.01541e-07 -3.01045e-07 -1.28269e-08 5.51513e-07 -5.37308e-07 -2.97635e-08 
2.59697e-07 -1.89329e-07 3.94662e-08 9.40473e-07 -8.8723e-07 -2.54935e-07 8.87942e-07 -7.94727e-07 -9.16335e-08 
3.87508e-07 -4.61148e-07 3.75315e-08 2.84941e-07 -3.29603e-07 -1.54808e-08 6.87515e-07 -6.95962e-07 -2.80899e-08 
1.93424e-07 -2.27626e-07 6.29835e-08 7.71627e-07 -6.97094e-07 1.3049e-07 3.77715e-07 -2.88368e-07 3.50433e-08 
8.11524e-07 -8.49769e-07 7.30534e-08 8.20287e-07 -7.62147e-07 -1.47481e-07 5.26703e-07 -4.6095e-07 -1.3708e-07 
3.10635e-07 -3.59049e-07 4.52578e-08 6.82106e-07 -6.75545e-07 1.53691e-08 2.80052e-07 -3.02127e-07 -2.83049e-08 
3.19945e-07 -3.50558e-07 -3.81927e-08 3.95656e-07 -3.83205e-07 -1.97329e-08 3.5855e-07 -3.09039e-07 7.31499e-09 
7.0367e-07 -7.71971e-07 1.569e-07 8.06631e-07 -8.79521e-07 1.4379e-07 5.57083e-07 -5.45543e-07 1.67152e-08 
9.63598e-07 -9.48175e-07 8.5519e-08 3.9072e-07 -3.48816e-07 2.01186e-08 7.93061e-07 -7.46745e-07 -1.6632e-07 
7.7348e-07 -7.44879e-07 -4.42447e-08 2.00634e-06 4.1554e-06 7.48769e-08 8.6204e-07 -7.88363e-07 -4.08549e-08 
5.11943e-07 -3.9009e-07 -7.73185e-08 5.40259e-06 9.24333e-06 5.44499e-16 8.77134e-07 -6.95838e-07 -2.80812e-08 
8.64632e-07 -4.71295e-07 -3.02156e-07 1.78888e-07 -5.82636e-08 4.42239e-08 8.91619e-07 -7.82886e-07 -2.83895e-08 
5.62886e-07 -4.53931e-07 6.98109e-08 5.62494e-07 -5.44305e-07 -4.75462e-08 8.8203e-07 -7.3615e-07 -7.47169e-08 
2.11743e-07 -2.44249e-07 -2.60664e-08 3.92712e-07 -8.46939e-08 -8.16741e-08 6.46746e-07 -3.90226e-07 7.43191e-08 
-8.98751e-06 -9.34751e-06 -6.10676e-15 1.05422e-06 -8.33502e-07 4.3236e-08 1.16998e-06 -8.95689e-07 -7.506e-08 
1.06305e-06 -8.75061e-07 9.18566e-08 1.1906e-06 -1.04567e-06 -8.85583e-08 9.28464e-07 -8.59308e-07 7.79328e-08 
1.23929e-06 -1.12608e-06 -5.56756e-08 9.07547e-07 -1.00884e-06 -2.12786e-07 1.01069e-06 -8.97717e-07 -8.551e-08 
1.13547e-06 -9.74118e-07 2.17422e-07 1.25073e-06 -1.20771e-06 -1.26039e-08 1.08868e-06 -9.80061e-07 2.46771e-08 
9.38594e-07 -9.57682e-07 -4.92031e-08 9.55874e-07 -9.41014e-07 8.79075e-08 8.91407e-07 -1.02169e-06 1.09789e-07 
9.34026e-07 -9.2388e-07 -1.04558e-07 9.44871e-07 -9.70588e-07 -1.74338e-07 8.98601e-07 -9.13857e-07 4.51761e-08 
1.20306e-06 -1.12641e-06 -4.80948e-08 1.00441e-06 -8.59085e-07 3.10146e-08 9.47708e-07 -8.80633e-07 1.73516e-08 
1.03294e-06 -9.62008e-07 -5.35087e-08 9.66967e-07 -8.81302e-07 1.23022e-09 1.15872e-06 -8.36057e-07 -1.28038e-07 
1.03937e-06 -9.60959e-07 -1.40999e-07 1.04927e-06 -1.01461e-06 -2.76211e-07 1.29593e-06 -1.21785e-06 -4.02463e-08 
1.31153e-06 -1.09063e-06 -5.18603e-08 1.46124e-06 -1.13953e-06 -1.69091e-07 1.42427e-06 -1.20375e-06 7.77491e-08 
1.35974e-06 -1.15637e-06 -4.10457e-08 1.69856e-06 -1.52188e-06 -1.41197e-08 1.40803e-06 -1.13739e-06 -1.60895e-07 
1.84848e-06 -1.26194e-06 -8.12323e-08 1.73856e-06 -1.34796e-06 -1.38498e-07 1.6765e-06 -1.29895e-06 -5.03923e-09 
1.11163e-06 -1.16908e-06 -2.2918e-08 1.38017e-06 -1.29225e-06 1.22627e-07 1.36867e-06 -1.36892e-06 3.91249e-08 
1.25455e-06 -1.19327e-06 2.56788e-08 1.25009e-06 -1.07375e-06 -1.11192e-07 1.26266e-06 -1.28884e-06 3.12063e-09 
1.27573e-06 -1.24761e-06 9.39983e-08 1.21636e-06 -1.19424e-06 1.45285e-07 1.41453e-06 -1.2815e-06 8.21214e-08 
1.67033e-06 -1.2952e-06 1.70042e-07 1.37133e-06 -1.18107e-06 -3.20408e-07 1.25562e-06 -1.18462e-06 -1.41442e-07 
1.28348e-06 -1.21546e-06 1.09626e-08 1.30762e-06 -1.34507e-06 1.23362e-07 1.38414e-06 -1.24809e-06 -1.8745e-07 
1.3491e-06 -1.29979e-06 -1.86925e-07 1.48442e-06 -1.25377e-06 -5.19818e-08 1.49299e-06 -1.16526e-06 -3.12119e-08 
1.95202e-06 -1.35005e-06 8.28701e-09 1.96031e-06 -1.48363e-06 6.74878e-08 2.25288e-06 -1.26736e-06 -5.75874e-07 
1.50468e-06 -1.52874e-06 4.3817e-08 1.80099e-06 -1.72702e-06 1.31821e-07 1.39484e-06 -2.44329e-06 3.53256e-07 
1.21191e-06 -1.54286e-06 1.75839e-07 1.69834e-06 -1.89256e-06 4.15519e-07 1.61851e-06 -1.52369e-06 1.22081e-07 
1.82891e-06 -1.65181e-06 5.78445e-08 1.95124e-06 -1.94729e-06 1.44316e-07 1.64849e-06 -1.42857e-06 -2.16386e-07 
1.84262e-06 -9.47148e-07 -1.57595e-07 1.61729e-06 -1.908e-06 2.27721e-07 1.28573e-06 -1.26961e-06 8.1639e-08 
1.5606e-06 -1.52346e-06 1.15632e-07 1.96152e-06 -1.85386e-06 -2.37574e-07 1.60741e-06 -1.66104e-06 2.10519e-10 
1.84412e-06 -1.71282e-06 8.00245e-08 1.67714e-06 -1.43118e-06 -2.4603e-07 1.63869e-06 -1.37924e-06 6.07983e-09 
1.58654e-06 -1.39376e-06 -1.12284e-07 1.50546e-06 -1.78587e-06 3.36971e-08 1.60568e-06 -1.67826e-06 -2.85357e-07 
1.75331e-06 -1.38551e-06 -3.3503e-09 1.89032e-06 -1.41703e-06 2.26185e-07 1.92848e-06 -1.92335e-06 1.88517e-08 
1.59856e-06 -1.59025e-06 -1.29394e-07 1.81441e-06 -1.5913e-06 -3.43674e-07 1.83695e-06 -1.76509e-06 -3.61003e-08 
1.54204e-06 -1.6052e-06 1.46329e-07 1.74603e-06 -1.71454e-06 1.37785e-08 2.00951e-06 -2.53902e-06 -3.39726e-10 
2.67011e-06 -4.35164e-06 -1.47648e-07 1.87501e-06 -1.62506e-06 -5.27986e-07 1.75922e-06 -1.86512e-06 -1.27922e-07 
2.03013e-06 -3.09567e-06 -1.2462e-06 7.09949e-07 -4.09718e-06 1.554e-06 1.4017e-06 -3.07411e-06 3.56815e-07 
1.91182e-06 -2.43067e-06 3.49044e-07 1.9241e-06 -1.94086e-06 6.23266e-08 2.10252e-06 -2.42267e-06 -6.77664e-07 
2.38393e-06 -7.43037e-07 1.03888e-08 1.23533e-06 -2.60508e-06 3.51143e-07 1.97421e-06 -2.5568e-06 1.50908e-07 
8.53463e-07 -3.58978e-06 -7.38736e-07 1.65632e-06 -1.92745e-06 2.82406e-07 1.71772e-06 -2.60518e-06 1.9643e-07 
1.75424e-06 -2.03131e-06 -5.48051e-08 1.90603e-06 -2.23558e-06 1.66456e-07 1.88121e-06 -1.68345e-06 -2.13844e-07 
1.85582e-06 -1.42222e-06 2.07096e-07 4.63974e-06 -2.49391e-06 1.0873e-06 1.97326e-06 -2.28173e-06 -1.67498e-07 
1.95017e-06 -2.13409e-06 -7.86739e-08 2.09321e-06 -2.09958e-06 -2.19704e-07 1.57428e-06 -2.85379e-06 -3.44669e-08 
2.96546e-06 -3.68696e-06 -1.38454e-06 1.69551e-06 -1.80094e-06 1.83514e-07 1.60067e-06 -2.09528e-06 -2.78252e-07 
1.00987e-06 -2.5002e-06 7.01722e-08 1.43111e-06 -3.10977e-06 -4.77868e-07 1.58981e-06 -2.18788e-06 6.23924e-08 
3.32676e-06 -2.53208e-06 -1.63092e-07 1.85279e-06 -3.10522e-06 9.39433e-07 1.78898e-06 -2.15703e-06 -1.02598e-07 
3.13706e-06 -3.44893e-06 -1.05192e-06 2.25482e-06 -1.83965e-06 1.91546e-08 
f 3 167 double
3.54643e-24 -4.4197e-23 0 -7.48654e-11 -2.03741e-11 1.29862e-13 -7.37689e-26 5.24859e-24 0 
-6.05792e-11 -2.70578e-11 1.94415e-12 -3.11866e-11 -1.22214e-11 -5.70373e-12 -5.59747e-11 -1.94594e-11 7.21975e-12 
-3.85437e-11 -1.14419e-11 -3.18458e-12 -7.26875e-11 -1.41177e-11 5.28577e-12 -7.59558e-11 -2.49655e-11 -2.5683e-12 
-3.81621e-11 -1.74353e-11 -2.03818e-12 -3.27743e-11 -1.59154e-11 1.55062e-12 -6.19708e-11 -2.62072e-11 6.55718e-13 
-2.20071e-11 -9.73703e-12 2.38654e-12 -5.45826e-11 -1.36338e-11 2.40166e-12 -2.82888e-11 -5.98013e-12 -4.43159e-12 
-6.53657e-11 -1.6574e-11 -2.87084e-12 -6.22176e-11 -1.5118e-11 5.08108e-12 -4.13198e-11 -1.15644e-11 3.90293e-12 
-2.97307e-11 -1.18238e-11 -6.17854e-12 -6.07609e-11 -2.46029e-11 -6.10769e-12 -3.32081e-11 -1.39719e-11 4.96892e-13 
-3.33851e-11 -1.05989e-11 8.62688e-13 -3.22969e-11 -1.07144e-11 -4.30819e-12 -3.4057e-11 -1.45886e-11 -2.81618e-12 
-5.80161e-11 -2.06506e-11 7.0046e-12 -6.03783e-11 -1.51413e-11 -8.18245e-13 -4.18656e-11 -3.63487e-12 3.78533e-12 
-6.91076e-11 -1.31082e-11 8.62166e-12 -2.96275e-11 -1.18996e-11 2.59459e-12 -6.85891e-11 -2.42756e-11 3.20717e-13 
-6.29757e-11 -2.17672e-11 -2.28866e-12 -3.59525e-11 -8.2346e-12 -5.41417e-12 -6.70745e-11 -1.75273e-11 2.57776e-12 
-3.51827e-11 -6.47377e-12 3.30209e-12 1.12996e-24 -5.53158e-24 0 -6.25586e-11 -1.68363e-11 1.68275e-12 
-6.81685e-11 -3.51881e-11 1.13957e-11 -2.32201e-11 -1.72183e-11 -2.49588e-12 -7.26997e-11 -2.10159e-11 1.01936e-12 
-3.85513e-11 -1.08123e-11 2.03772e-12 -4.8003e-11 -1.4262e-11 2.21771e-12 -6.64162e-11 -1.7109e-11 -1.46963e-12 
-2.84957e-11 -9.73216e-12 3.0926e-12 -3.56442e-11 -1.59095e-11 5.44432e-12 -7.04517e-11 -1.73068e-11 1.03484e-12 
5.52226e-24 5.24469e-24 0 -8.61395e-11 -2.60792e-11 6.15722e-12 -8.91149e-11 -2.8804e-11 5.0466e-12 
-8.19073e-11 -2.00222e-11 4.1781e-12 -8.73805e-11 -2.02489e-11 6.84289e-12 -8.40767e-11 -3.41528e-11 7.29949e-12 
-8.36323e-11 -2.63815e-11 1.96361e-12 -7.44271e-11 -1.25097e-11 7.67312e-12 -8.0794e-11 -2.83198e-11 5.06158e-13 
-9.99174e-11 -3.73768e-11 -1.75406e-12 -1.02945e-10 -2.11209e-11 1.37594e-11 -8.7826e-11 -2.88924e-11 -2.34753e-12 
-7.54219e-11 -2.25681e-11 -1.01316e-12 -8.4977e-11 -3.56254e-11 1.04125e-12 -7.98769e-11 -2.23903e-11 3.59332e-12 
-7.85281e-11 -2.87347e-11 6.22005e-13 -8.33689e-11 -2.59155e-11 3.80257e-12 -7.23802e-11 -2.86887e-11 -7.389e-12 
-8.68539e-11 -2.54629e-11 -3.5618e-12 -7.91497e-11 -2.32793e-11 -1.35941e-12 -8.53221e-11 -2.59162e-11 2.62057e-13 
-8.64808e-11 -2.42952e-11 2.34356e-12 -7.69464e-11 -1.77405e-11 -1.99756e-12 -8.31926e-11 -3.09133e-11 4.39899e-12 
-8.67414e-11 -1.74615e-11 7.67046e-12 -8.4292e-11 -2.82319e-11 9.52567e-12 -1.02753e-10 -2.85775e-11 1.33591e-12 
-1.07516e-10 -3.12834e-11 1.86107e-11 -1.07123e-10 -2.48534e-11 1.27613e-11 -1.02213e-10 -3.15012e-11 2.81819e-13 
-1.00573e-10 -2.62401e-11 1.24709e-11 -1.20755e-10 -3.5619e-11 2.99691e-12 -1.0704e-10 -3.02696e-11 1.56909e-12 
-1.18848e-10 -2.91956e-11 6.45082e-12 -1.23053e-10 -3.64255e-11 8.36934e-12 -1.27015e-10 -3.64282e-11 6.26412e-12 
-1.01231e-10 -3.1471e-11 1.15436e-11 -1.21945e-10 -3.72999e-11 7.68252e-12 -1.1485e-10 -3.33602e-11 8.45075e-12 
-1.10256e-10 -3.43092e-11 -6.839e-12 -1.05252e-10 -3.42003e-11 4.71153e-12 -1.07412e-10 -2.75011e-11 7.87078e-12 
-1.1222e-10 -3.16942e-11 1.85219e-11 -1.04718e-10 -2.6289e-11 2.05383e-12 -1.17289e-10 -3.52364e-11 5.85017e-12 
-1.21174e-10 -3.55865e-11 -1.55944e-12 -1.20798e-10 -3.78643e-11 1.86054e-12 -1.00774e-10 -2.4064e-11 2.18469e-12 
-1.07874e-10 -2.84489e-11 4.85611e-12 -1.16145e-10 -2.96034e-11 9.5174e-13 -1.04763e-10 -2.48083e-11 7.6755e-12 
-1.13131e-10 -3.44944e-11 1.98901e-13 -1.1012e-10 -2.47186e-11 1.76591e-12 -1.03923e-10 -2.90238e-11 1.29892e-12 
-1.26522e-10 -3.55882e-11 1.67881e-12 -1.27633e-10 -4.06982e-11 1.96347e-12 -1.46491e-10 -5.35107e-11 9.14872e-12 
-1.48927e-10 -4.45811e-11 2.67873e-11 -1.45912e-10 -4.31883e-11 1.57202e-11 -1.84721e-10 -8.52219e-11 3.90552e-11 
-1.36324e-10 -4.95746e-11 1.76931e-11 -1.7203e-10 -4.451e-11 2.94954e-11 -1.4322e-10 -4.4938e-11 1.30035e-11 
-1.30025e-10 -4.02411e-11 1.35369e-11 -1.41314e-10 -4.16496e-11 9.68001e-13 -1.23182e-10 -4.15478e-11 -4.43872e-12 
-1.30764e-10 -3.15137e-11 1.68809e-12 -1.50588e-10 -5.50722e-11 1.56694e-11 -1.40275e-10 -3.68079e-11 1.83816e-11 
-1.20193e-10 -3.40972e-11 3.85274e-12 -1.50278e-10 -3.75986e-11 -1.29612e-11 -1.37803e-10 -4.94685e-11 5.60119e-12 
-1.22989e-10 -4.9347e-11 6.81394e-12 -1.32603e-10 -4.35533e-11 -5.35699e-12 -1.1984e-10 -1.06869e-11 1.33897e-12 
-1.1573e-10 -1.81804e-11 -2.86282e-14 -1.44751e-10 -3.99055e-11 -4.20272e-12 -1.43334e-10 -4.05244e-11 -3.80384e-13 
-1.37441e-10 -4.06599e-11 -1.07546e-11 -1.45963e-10 -4.07424e-11 1.87097e-13 -1.41243e-10 -4.89234e-11 -1.2761e-11 
-1.37809e-10 -3.84918e-11 -6.04236e-12 -1.40955e-10 -4.48272e-11 3.86036e-12 -1.38513e-10 -3.6015e-11 -2.51345e-12 
-1.30828e-10 -3.45793e-11 7.28311e-12 -1.42476e-10 -4.20307e-11 1.59905e-11 -1.59133e-10 -8.6571e-11 1.14634e-11 
-1.32271e-10 -1.50954e-10 2.17296e-11 -1.47905e-10 -5.2811e-11 5.11403e-12 -1.5858e-10 -4.39433e-11 1.26868e-11 
-1.67519e-10 -4.92437e-11 1.38182e-11 -2.19182e-10 -1.49948e-10 9.09601e-11 -1.91985e-10 -1.26172e-10 3.86073e-11 
-1.68145e-10 -6.02759e-11 1.91532e-11 -1.41741e-10 -3.74594e-11 9.40007e-12 -1.47402e-10 -6.47338e-11 -2.78769e-11 
-1.02226e-10 2.12135e-12 4.94215e-12 -2.11593e-10 -9.5942e-11 3.96209e-11 -1.34878e-10 -1.06103e-10 -9.10446e-12 
-1.93707e-10 -1.35245e-10 -1.77452e-11 -1.5122e-10 -4.40011e-11 -1.16534e-11 -1.04071e-10 -1.71939e-11 2.02706e-11 
-1.79524e-10 -4.06833e-11 -1.03231e-11 -1.52629e-10 -5.92752e-11 9.76159e-12 -1.45467e-10 -4.20611e-11 -2.74234e-12 
-1.56132e-10 -5.5123e-11 -1.82941e-11 -2.06123e-10 -4.29512e-11 -2.3357e-11 -1.56115e-10 -4.51595e-11 -8.80359e-12 
-1.48191e-10 -4.48889e-11 9.63822e-12 -1.36024e-10 -5.37529e-11 2.72077e-12 -3.43025e-10 -1.38297e-10 8.92019e-13 
-1.6e-10 -3.8591e-11 8.24067e-13 -1.47413e-10 -4.0432e-11 -3.46255e-12 -1.67652e-10 -5.67195e-11 1.15308e-11 
-2.28831e-10 -7.28815e-11 2.58983e-11 -1.99199e-10 -1.19701e-10 -1.48223e-11 -2.14926e-10 -4.95481e-11 8.03467e-12 
-1.97322e-10 -1.05736e-10 -6.94185e-12 -1.54661e-10 -4.2822e-11 -2.04133e-11 -1.60207e-10 -5.72667e-11 -2.30223e-12 
-1.98649e-10 -4.02622e-11 2.3888e-13 -1.61057e-10 -5.41076e-11 5.54405e-12 
radius 1 167 double
0.0001 0.0001 0.0001 0.0001 0.0001 0.0001 0.0001 0.0001 0.0001 
0.0001 0.0001 0.0001 0.0001 0.0001 0.0001 0.0001 0.0001 0.0001 
0.0001 0.0001 0.0001 0.0001 0.0001 0.0001 0.0001 0.0001 0.0001 
0.0001 0.0001 0.0001 0.0001 0.0001 0.0001 0.0001 0.0001 0.0001 
0.0001 0.0001 0.0001 0.0001 0.0001 0.0001 0.0001 0.0001 0.0001 
0.0001 0.0001 0.0001 0.0001 0.0001 0.0001 0.0001 0.0001 0.0001 
0.0001 0.0001 0.0001 0.0001 0.0001 0.0001 0.0001 0.0001 0.0001 
0.0001 0.0001 0.0001 0.0001 0.0001 0.0001 0.0001 0.0001 0.0001 
0.0001 0.0001 0.0001 0.0001 0.0001 0.0001 0.0001 0.0001 0.0001 
0.0001 0.0001 0.0001 0.0001 0.0001 0.0001 0.0001 0.0001 0.0001 
0.0001 0.0001 0.0001 0.0001 0.0001 0.0001 0.0001 0.0001 0.0001 
0.0001 0.0001 0.0001 0.0001 0.0001 0.0001 0.0001 0.0001 0.0001 
0.0001 0.0001 0.0001 0.0001 0.0001 0.0001 0.0001 0.0001 0.0001 
0.0001 0.0001 0.0001 0.0001 0.0001 0.0001 0.0001 0.0001 0.0001 
0.0001 0.0001 0.0001 0.0001 0.0001 0.0001 0.0001 0.0001 0.0001 
0.0001 0.0001 0.0001 0.0001 0.0001 0.0001 0.0001 0.0001 0.0001 
0.0001 0.0001 0.0001 0.0001 0.0001 0.0001 0.0001 0.0001 0.0001 
0.0001 0.0001 0.0001 0.0001 0.0001 0.0001 0.0001 0.0001 0.0001 
0.0001 0.0001 0.0001 0.0001 0.0001 
omega 3 167 double
0.688232 0.634711 -1.06808 -0.001177 -0.00101152 0.000355098 -0.123858 -0.132961 0.448035 
-0.000245882 0.00193567 0.000848828 0.00222102 0.00193512 0.000670262 0.00208312 0.00238009 -0.000288296 
-0.000248277 0.0023423 0.00145586 9.40532e-05 -0.00130387 0.00295856 -0.000438275 0.00022749 -0.00052397 
0.00475719 0.00363979 0.00254638 0.0019553 0.00106655 -0.000760713 -0.000333641 0.00111546 0.00115647 
0.00107758 0.000151147 0.00119437 0.00380024 0.00630691 -0.00191388 0.00151506 0.00266266 -0.0025535 
0.00252134 -0.000938704 0.00126182 -0.000137339 -0.00123135 0.00182662 0.00379933 0.00510794 -0.00218014 
0.00347981 0.00250321 0.00322998 0.000601054 8.54324e-05 -0.000855135 0.000232797 0.00203356 0.00186737 
-0.00244993 -0.00133181 0.000139711 0.00274827 0.00216445 -0.00184896 0.000431496 0.000611144 0.00168996 
0.00162502 0.00134743 -0.000622508 0.000356291 -0.00188517 -0.000256058 0.00519279 0.00445371 -0.000667229 
-0.000519323 0.00159792 0.00262529 0.00208991 0.00354254 -0.00329153 -0.00253378 -0.0013508 0.000498419 
0.000810668 0.000366694 0.00029348 -0.0416252 0.0198801 -0.168997 -0.00178455 -0.00214186 -0.00116463 
0.00379281 0.00511391 0.00302016 -0.0924429 0.0540314 0.0391763 0.00308901 0.000925264 0.0030561 
0.00330944 0.00114064 -0.00367253 -0.00165222 -0.000591333 -0.00469628 0.000803608 -0.00055281 -0.000855805 
0.00387487 0.0055912 -7.22989e-05 0.00487727 0.00555043 -0.00157162 0.00180857 0.00373341 0.00087411 
-0.000265185 0.000403763 -0.000688232 0.000383752 0.00309454 0.00324263 0.00184495 0.00302437 -0.00130107 
0.0934847 -0.0898843 0.165283 -0.00129182 -0.0016663 -0.00142271 0.000375646 0.00201399 0.00106613 
0.00144884 0.00275728 0.000528375 0.00123214 -0.000418242 -0.000504526 0.00100037 5.43427e-05 -0.00138235 
0.00125903 0.00254146 0.000634853 0.00184889 0.00232045 -0.00205161 0.00181023 0.00147427 -0.000203134 
0.00167034 0.000715175 -0.000388641 0.00100182 -0.00138773 -0.000801132 9.84113e-05 0.0023023 0.000972228 
0.0034283 0.00305707 -2.82834e-05 0.000229758 0.00256837 0.000337364 -0.000657422 0.00256062 -0.00116162 
0.00101092 0.00136707 -0.00093057 0.00203856 0.00197086 0.00188345 -0.000148133 -0.000995112 -0.000364209 
0.000694938 0.0028313 -0.00253853 -0.00196984 -0.000283157 -0.00309382 0.00248197 0.00139055 0.00037517 
-1.61826e-05 -0.000970809 -0.00320883 0.00180898 0.00311894 0.000705124 0.00145274 0.00239822 0.00205097 
-6.93864e-05 0.00147891 -0.00337651 0.0031272 0.000128823 0.00361023 0.00160439 -0.000478728 6.96284e-05 
0.00154039 -0.00042263 0.00171843 -0.00220046 0.00293495 -0.00155446 -0.00166344 0.00323997 0.00120619 
0.00217027 -0.000130646 0.0003797 0.00284738 0.00377157 -0.000739672 0.000878047 -0.000111154 -0.0012157 
-4.50795e-05 0.00391509 0.00256753 -0.000832641 0.00842001 0.000481943 0.000649575 -0.000574188 0.000333051 
0.00304224 -0.00215302 0.000925713 0.000680079 0.0015067 0.00102394 0.000647111 0.00221964 0.00105939 
0.00287858 0.000342598 -0.000598119 0.000154302 0.00332777 0.00114591 -0.000635875 -0.00101022 -0.00028061 
0.0004346 -0.000589594 -0.00094316 0.0020968 0.00177472 0.00048562 0.000572633 -0.000262879 0.000845423 
0.00212463 0.00966701 0.00479294 -0.000366136 -0.00169048 -0.00194804 -0.000338006 -0.000402147 -0.000122121 
-0.000561614 8.78982e-05 0.000523095 0.000171845 -0.00204003 -0.00166962 -0.00285337 0.00232213 -0.000921246 
0.00102831 0.00291028 -0.000771384 8.80284e-05 -0.00145965 0.000615061 0.00295329 0.00334492 -0.000612364 
0.00329097 0.010557 -0.0050729 0.00514804 -0.00316179 -0.00340694 -0.0013183 0.00153988 -0.00285107 
0.00576066 0.000924586 0.00557559 -0.00134453 -0.00323429 -0.00342147 0.0132354 -0.00506199 0.0159955 
-0.003221 -0.00130862 -0.0123989 -0.002082 0.00184941 -0.00726464 -8.91332e-05 0.00170179 -0.00315231 
8.23782e-05 -6.71417e-06 0.0027218 0.00379594 0.00225179 -0.00111429 0.00196641 0.00106257 -4.61618e-05 
-0.00221887 0.00517876 0.00526303 0.00323612 0.00297159 0.00652332 0.000328706 6.23851e-05 -0.000980176 
0.00130802 0.00240605 -0.000356318 -0.00767296 -0.0017837 0.0025916 0.00238005 -0.000290223 0.00141964 
0.00725052 0.00748005 0.00144283 0.00206496 0.00230453 -0.00108878 0.00141598 0.00567456 0.0005181 
0.00236226 0.00316834 -0.00118852 0.00320361 0.00306531 0.00263785 0.00632744 -0.000697471 0.00358996 
-0.00167915 0.00383633 0.00131839 -0.00411442 -0.00598658 -0.00157849 0.00862654 -0.00154505 -0.00444595 
1.22948e-06 -0.00342336 0.00142074 -0.000971358 -2.42374e-05 -0.00283382 0.000550609 -0.00210819 0.001723 
0.00107513 8.05295e-05 -0.00299133 0.00475194 0.00307457 0.00454179 0.000493278 0.00457265 -0.0298941 
0.0318859 0.00691295 0.0163867 -0.00203668 -0.00261749 -0.00439576 0.00388217 -0.000728337 0.00305845 
0.0180306 0.00312924 0.00499993 0.0248162 -0.0155062 -0.00609871 0.00612828 -0.00974256 0.0363696 
0.00280241 0.0035599 -0.00341596 -0.000453163 -0.0015463 -0.00351274 0.022008 0.0218976 0.0027547 
-0.011021 0.00554287 0.000854403 -0.00550709 -0.00107194 -0.0208497 0.0043872 0.00299667 0.0138567 
0.0298847 -0.0140502 -0.0159003 -0.00043388 0.00266611 -0.00316394 0.00690422 -0.00199276 0.00645109 
0.00537897 0.00355264 -0.00677178 0.00225214 -0.00315649 -0.010691 -0.0029908 -0.000912762 0.00550359 
0.000372213 -0.00310818 -0.00311082 0.00708785 0.0391943 0.0115783 0.00720511 0.00429077 0.00340891 
-7.46462e-05 0.00115254 -0.00494509 -0.00641004 0.000328532 0.00673347 0.00108392 -0.00114764 0.0219913 
0.0464771 0.0229042 0.0120399 -0.00176272 0.000774723 -0.00387316 -0.000132487 -0.00830825 0.00696292 
-0.0478322 -0.0189675 -0.0314112 -0.00195263 0.0255456 -0.0353608 0.000574 -0.000992156 0.0137047 
-0.00879896 0.0365799 -0.0107528 0.0131611 -0.00707322 -0.0120049 0.00163539 -0.00307492 0.00339474 
-0.0378736 -0.0433674 0.0083067 -0.000781574 0.00254427 0.000309114 
