/*--------------------------------*- C++ -*----------------------------------*\
  =========                 |
  \\      /  F ield         | OpenFOAM: The Open Source CFD Toolbox
   \\    /   O peration     | Website:  https://openfoam.org
    \\  /    A nd           | Version:  9
     \\/     M anipulation  |
\*---------------------------------------------------------------------------*/
FoamFile
{
    format      ascii;
    class       surfaceScalarField;
    location    "900";
    object      phi;
}
// * * * * * * * * * * * * * * * * * * * * * * * * * * * * * * * * * * * * * //

dimensions      [0 3 -1 0 0 0 0];

internalField   nonuniform List<scalar> 
716
(
8.40523e-09
-3.07887e-08
-0.0249996
-1.89722e-08
-0.0249994
2.01846e-08
-0.025001
-0.0250001
1.02045e-08
-5.61703e-08
-0.0249996
-3.0922e-08
-0.0249993
3.50832e-08
-0.025001
-0.0250001
1.35024e-08
-8.70015e-08
-0.0249995
-4.64351e-08
-0.0249993
5.34188e-08
-0.0250012
-0.0250002
1.74879e-08
-1.21751e-07
-0.0249994
-6.4327e-08
-0.0249992
7.41281e-08
-0.0250013
-0.0250002
2.20085e-08
-1.61611e-07
-0.0249993
-8.49789e-08
-0.024999
9.79224e-08
-0.0250016
-0.0250002
2.69362e-08
-2.08433e-07
-0.0249992
-1.08938e-07
-0.0249989
1.2601e-07
-0.0250019
-0.0250002
3.19964e-08
-2.64574e-07
-0.024999
-1.36718e-07
-0.0249987
1.5991e-07
-0.0250023
-0.0250002
3.67454e-08
-3.32999e-07
-0.0249987
-1.6877e-07
-0.0249984
2.01579e-07
-0.0250028
-0.0250002
4.05194e-08
-4.17438e-07
-0.0249983
-2.05481e-07
-0.0249982
2.53554e-07
-0.0250035
-0.0250002
4.24678e-08
-5.22587e-07
-0.0249979
-2.47143e-07
-0.0249979
3.19074e-07
-0.0250043
-0.0250001
4.13344e-08
-6.54353e-07
-0.0249972
-2.93913e-07
-0.0249975
4.02315e-07
-0.0250053
-0.025
3.54595e-08
-8.2017e-07
-0.0249965
-3.45745e-07
-0.0249971
5.08614e-07
-0.0250066
-0.0249998
2.29064e-08
-1.02942e-06
-0.0249954
-4.02264e-07
-0.0249967
6.4479e-07
-0.0250083
-0.0249996
2.2924e-09
-1.29396e-06
-0.0249941
-4.62614e-07
-0.0249962
8.19594e-07
-0.0250104
-0.0249992
-4.64934e-08
-1.62878e-06
-0.0249924
-5.25239e-07
-0.0249957
1.0443e-06
-0.0250131
-0.0249987
-1.20062e-07
-2.0534e-06
-0.0249903
-5.87022e-07
-0.0249953
1.33347e-06
-0.0250165
-0.0249979
-2.2952e-07
-2.59275e-06
-0.0249874
-6.43083e-07
-0.0249949
1.70606e-06
-0.0250208
-0.0249968
-3.8987e-07
-3.27885e-06
-0.0249837
-6.85805e-07
-0.0249946
2.18674e-06
-0.0250262
-0.0249953
-6.21196e-07
-4.15297e-06
-0.0249789
-7.03331e-07
-0.0249945
2.80773e-06
-0.0250332
-0.0249932
-9.50858e-07
-5.26846e-06
-0.0249727
-6.78812e-07
-0.0249948
3.6112e-06
-0.0250421
-0.0249903
-1.41612e-06
-6.69431e-06
-0.0249646
-5.96502e-07
-0.0249956
4.65244e-06
-0.0250535
-0.0249862
-2.06736e-06
-8.51989e-06
-0.024954
-4.40362e-07
-0.0249973
6.00366e-06
-0.025068
-0.0249806
-2.97195e-06
-1.08611e-05
-0.0249402
-1.5381e-07
-0.0250001
7.7587e-06
-0.0250867
-0.024973
-4.22101e-06
-1.38684e-05
-0.0249221
3.78462e-07
-0.0250047
1.00408e-05
-0.0251106
-0.0249626
-5.93832e-06
-1.77372e-05
-0.0248984
1.1908e-06
-0.0250119
1.30125e-05
-0.0251414
-0.0249484
-8.28971e-06
-2.27215e-05
-0.0248674
2.43442e-06
-0.0250227
1.68869e-05
-0.025181
-0.0249291
-1.1498e-05
-2.91524e-05
-0.0248268
4.269e-06
-0.0250384
2.19438e-05
-0.0252321
-0.0249029
-1.58621e-05
-3.74613e-05
-0.0247734
6.92856e-06
-0.0250612
2.85511e-05
-0.0252982
-0.0248674
-2.17823e-05
-4.82119e-05
-0.0247035
1.07342e-05
-0.0250938
3.71928e-05
-0.0253836
-0.0248195
-2.97962e-05
-6.21426e-05
-0.0246115
1.61232e-05
-0.0251397
4.85076e-05
-0.0254942
-0.0247549
-4.06247e-05
-8.02206e-05
-0.0244907
2.36918e-05
-0.025204
6.33394e-05
-0.0256377
-0.0246678
-5.52379e-05
-0.000103717
-0.0243318
3.42592e-05
-0.0252934
8.28114e-05
-0.0258242
-0.0245508
-7.50069e-05
-0.000134375
-0.0241224
4.89997e-05
-0.0254174
0.000108476
-0.0260671
-0.0243933
-0.000102089
-0.000174828
-0.0238455
6.97333e-05
-0.0255892
0.000142633
-0.0263845
-0.024181
-0.000138842
-0.000227764
-0.0234789
9.85095e-05
-0.0258265
0.00018765
-0.0267999
-0.0238949
-0.000174257
-0.000277767
-0.0230269
0.00012727
-0.026128
0.00023119
-0.0273088
-0.0235364
-0.000197556
-0.000305516
-0.0225238
0.000151003
-0.0264766
0.000259499
-0.0278738
-0.0231259
-0.000175782
-0.000266436
-0.0220816
0.000151203
-0.0268036
0.000244268
-0.0283845
-0.0227304
-0.000163201
-0.000225527
-0.0216928
0.00012331
-0.02709
0.00019044
-0.0288004
-0.0224166
0.00056985
0.000735498
-0.0229982
-0.000348306
-0.0261718
-0.000504841
-0.02756
-0.0232697
-1.87452e-05
-1.92989e-05
-0.0229602
1.01732e-05
-0.0262008
1.34797e-05
-0.0275928
-0.023246
-0.000191873
-0.000309319
-0.022459
7.26411e-05
-0.0264652
0.000204458
-0.0281065
-0.0229689
-9.92332e-05
-0.000188387
-0.0221714
0.000134356
-0.0266988
0.000232445
-0.0285273
-0.0226021
-0.000291678
-0.000221977
-0.0216577
9.46118e-05
-0.0270852
2.96339e-05
-0.028779
-0.0224778
-0.000273155
-0.000211927
-0.0211726
-0.000124877
-0.0272334
-0.000206819
-0.0287841
-0.0228095
-0.000225843
-6.97949e-05
-0.020877
3.46396e-06
-0.0274627
-0.000223449
-0.0286303
-0.0230295
-0.00018442
0.000201695
-0.0208942
0.000303967
-0.027951
-0.000167245
-0.0282613
-0.0228927
-5.41384e-05
0.000503554
-0.0213437
0.000458784
-0.0284638
-0.000179262
-0.0275784
-0.0226132
8.61413e-05
0.000365025
-0.0217949
0.000197164
-0.0285749
-8.66412e-05
-0.0271268
-0.0225028
-0.000173935
4.85828e-05
-0.0216696
6.78082e-06
-0.0287557
-0.000194468
-0.0268838
-0.0226904
-8.59044e-05
7.37661e-05
-0.0216575
-6.22678e-05
-0.0287792
-0.000211426
-0.0265985
-0.0229642
3.35584e-06
0.000125033
-0.021786
8.75197e-05
-0.0288634
-0.000111419
-0.026362
-0.0229881
2.23919e-05
0.000213155
-0.0220219
-8.1299e-05
-0.0287597
-0.000173592
-0.0259752
-0.0232432
0.000291501
0.000197997
-0.0225115
-0.000267479
-0.0282007
0.000143497
-0.0259206
-0.0233673
0.000342066
0.000209105
-0.0230627
-0.000297626
-0.027561
-0.000103677
-0.0256078
-0.0237686
0.000306569
0.000138714
-0.0235081
-0.000249668
-0.0270048
-7.83851e-05
-0.0253908
-0.0240967
0.000243197
9.53409e-05
-0.0238466
-0.000194524
-0.0265671
-4.86651e-05
-0.0252468
-0.0243399
0.000191255
6.94002e-05
-0.0241073
-0.000149942
-0.0262259
-2.97531e-05
-0.0251476
-0.0245196
0.000150276
5.08145e-05
-0.0243084
-0.000115439
-0.0259602
-1.73527e-05
-0.0250795
-0.0246524
0.000118167
3.70076e-05
-0.0244635
-8.88721e-05
-0.0257531
-8.95014e-06
-0.0250335
-0.0247502
9.30482e-05
2.67888e-05
-0.0245833
-6.84722e-05
-0.0255916
-3.70894e-06
-0.025003
-0.0248223
7.33779e-05
1.92752e-05
-0.0246759
-5.28181e-05
-0.0254654
7.38132e-07
-0.0249844
-0.0248743
5.79512e-05
1.37653e-05
-0.0247475
-4.07871e-05
-0.0253666
2.88972e-06
-0.0249735
-0.0249122
4.58341e-05
9.74047e-06
-0.0248031
-3.15308e-05
-0.0252893
4.13384e-06
-0.0249679
-0.0249396
3.63029e-05
6.81452e-06
-0.0248462
-2.44016e-05
-0.0252285
4.72118e-06
-0.0249658
-0.0249592
2.87954e-05
4.69974e-06
-0.0248797
-1.89055e-05
-0.0251808
4.87792e-06
-0.024966
-0.0249733
2.28738e-05
3.18205e-06
-0.0249058
-1.46647e-05
-0.0251433
4.76295e-06
-0.0249675
-0.0249832
1.81969e-05
2.10235e-06
-0.0249261
-1.13894e-05
-0.0251137
4.48752e-06
-0.0249699
-0.0249901
1.44981e-05
1.34255e-06
-0.024942
-8.8579e-06
-0.0250903
4.12602e-06
-0.0249727
-0.0249949
1.1569e-05
8.15207e-07
-0.0249543
-6.89965e-06
-0.0250718
3.7262e-06
-0.0249756
-0.024998
9.24618e-06
4.56068e-07
-0.024964
-5.38342e-06
-0.0250572
3.31825e-06
-0.0249785
-0.0250001
7.40157e-06
2.19512e-07
-0.0249716
-4.20798e-06
-0.0250456
2.92101e-06
-0.0249812
-0.0250013
5.93463e-06
6.58126e-08
-0.0249775
-3.29545e-06
-0.0250364
2.54519e-06
-0.0249837
-0.025002
4.76629e-06
-5.35827e-08
-0.0249822
-2.58585e-06
-0.0250291
2.19707e-06
-0.024986
-0.0250024
3.8338e-06
-1.35985e-07
-0.0249858
-2.03298e-06
-0.0250233
1.88262e-06
-0.0249881
-0.0250024
3.08756e-06
-1.65113e-07
-0.0249887
-1.60127e-06
-0.0250187
1.60453e-06
-0.0249899
-0.0250024
2.48898e-06
-1.66267e-07
-0.024991
-1.2633e-06
-0.025015
1.36222e-06
-0.0249915
-0.0250023
2.00797e-06
-1.50297e-07
-0.0249929
-9.97939e-07
-0.0250121
1.15337e-06
-0.0249929
-0.0250021
1.62117e-06
-1.4362e-07
-0.0249943
-7.88901e-07
-0.0250098
9.74651e-07
-0.0249941
-0.0250019
1.3097e-06
-1.37078e-07
-0.0249955
-6.2369e-07
-0.0250079
8.22956e-07
-0.0249952
-0.0250017
1.05854e-06
-1.29395e-07
-0.0249965
-4.92729e-07
-0.0250064
6.95213e-07
-0.0249961
-0.0250016
8.5585e-07
-1.21303e-07
-0.0249973
-3.88679e-07
-0.0250052
5.88425e-07
-0.0249968
-0.0250014
6.92277e-07
-1.13524e-07
-0.0249979
-3.05908e-07
-0.0250043
4.99762e-07
-0.0249975
-0.0250012
5.60428e-07
-1.06466e-07
-0.0249984
-2.40087e-07
-0.0250035
4.26611e-07
-0.024998
-0.0250011
4.54454e-07
-1.00262e-07
-0.0249988
-1.87883e-07
-0.0250028
3.66615e-07
-0.0249984
-0.025001
3.69686e-07
-9.48722e-08
-0.0249991
-1.46725e-07
-0.0250022
3.17652e-07
-0.0249988
-0.0250008
3.02199e-07
-9.02885e-08
-0.0249993
-1.14555e-07
-0.0250017
2.777e-07
-0.0249991
-0.0250007
2.48491e-07
-8.65152e-08
-0.0249995
-8.95963e-08
-0.0250013
2.44704e-07
-0.0249993
-0.0250005
2.06822e-07
-8.31856e-08
-0.0249996
-7.07926e-08
-0.0250009
2.17862e-07
-0.0249995
-0.0250004
1.88357e-07
-8.12838e-08
-6.25546e-08
2.05968e-07
)
;

boundaryField
{
    inlet
    {
        type            calculated;
        value           nonuniform List<scalar> 4(-0.0249997 -0.0249996 -0.0250005 -0.0250002);
    }
    outlet
    {
        type            calculated;
        value           nonuniform List<scalar> 4(0.0249996 0.0250009 0.0249994 0.0250001);
    }
    repeat_boundary
    {
        type            calculated;
        value           uniform 0;
    }
}


// ************************************************************************* //
