/*--------------------------------*- C++ -*----------------------------------*\
  =========                 |
  \\      /  F ield         | OpenFOAM: The Open Source CFD Toolbox
   \\    /   O peration     | Website:  https://openfoam.org
    \\  /    A nd           | Version:  9
     \\/     M anipulation  |
\*---------------------------------------------------------------------------*/
FoamFile
{
    format      ascii;
    class       volVectorField;
    location    "900";
    object      Us;
}
// * * * * * * * * * * * * * * * * * * * * * * * * * * * * * * * * * * * * * //

dimensions      [0 1 -1 0 0 0 0];

internalField   nonuniform List<vector> 
360
(
(0 0 0)
(0 0 0)
(0 0 0)
(0 0 0)
(0 0 0)
(0 0 0)
(0 0 0)
(0 0 0)
(0 0 0)
(0 0 0)
(0 0 0)
(0 0 0)
(0 0 0)
(0 0 0)
(0 0 0)
(0 0 0)
(0 0 0)
(0 0 0)
(0 0 0)
(0 0 0)
(0 0 0)
(0 0 0)
(0 0 0)
(0 0 0)
(0 0 0)
(0 0 0)
(0 0 0)
(0 0 0)
(0 0 0)
(0 0 0)
(0 0 0)
(0 0 0)
(0 0 0)
(0 0 0)
(0 0 0)
(0 0 0)
(0 0 0)
(0 0 0)
(0 0 0)
(0 0 0)
(0 0 0)
(0 0 0)
(0 0 0)
(0 0 0)
(0 0 0)
(0 0 0)
(0 0 0)
(0 0 0)
(0 0 0)
(0 0 0)
(0 0 0)
(0 0 0)
(0 0 0)
(0 0 0)
(0 0 0)
(0 0 0)
(0 0 0)
(0 0 0)
(0 0 0)
(0 0 0)
(0 0 0)
(0 0 0)
(0 0 0)
(0 0 0)
(0 0 0)
(0 0 0)
(0 0 0)
(0 0 0)
(0 0 0)
(0 0 0)
(0 0 0)
(0 0 0)
(0 0 0)
(0 0 0)
(0 0 0)
(0 0 0)
(0 0 0)
(0 0 0)
(0 0 0)
(0 0 0)
(0 0 0)
(0 0 0)
(0 0 0)
(0 0 0)
(0 0 0)
(0 0 0)
(0 0 0)
(0 0 0)
(0 0 0)
(0 0 0)
(0 0 0)
(0 0 0)
(0 0 0)
(0 0 0)
(0 0 0)
(0 0 0)
(0 0 0)
(0 0 0)
(0 0 0)
(0 0 0)
(0 0 0)
(0 0 0)
(0 0 0)
(0 0 0)
(0 0 0)
(0 0 0)
(0 0 0)
(0 0 0)
(0 0 0)
(0 0 0)
(0 0 0)
(0 0 0)
(0 0 0)
(0 0 0)
(0 0 0)
(0 0 0)
(0 0 0)
(0 0 0)
(0 0 0)
(0 0 0)
(0 0 0)
(0 0 0)
(0 0 0)
(0 0 0)
(0 0 0)
(0 0 0)
(0 0 0)
(0 0 0)
(0 0 0)
(0 0 0)
(0 0 0)
(0 0 0)
(0 0 0)
(0 0 0)
(0 0 0)
(0 0 0)
(0 0 0)
(0 0 0)
(0 0 0)
(0 0 0)
(0 0 0)
(0 0 0)
(0 0 0)
(0 0 0)
(0 0 0)
(0 0 0)
(0 0 0)
(0 0 0)
(0 0 0)
(0 0 0)
(0 0 0)
(0 0 0)
(0 0 0)
(0 0 0)
(0 0 0)
(0 0 0)
(0 0 0)
(0 0 0)
(0 0 0)
(0 0 0)
(9.77591e-07 7.82586e-06 -2.63196e-07)
(1.08824e-06 5.93528e-06 5.06127e-08)
(2.54924e-06 7.24064e-06 -1.04151e-07)
(2.06479e-06 7.06528e-06 1.52428e-08)
(2.49595e-06 1.42938e-05 -6.58425e-07)
(3.14957e-06 1.3496e-05 -2.91912e-09)
(2.77637e-06 1.48769e-05 -2.44555e-07)
(3.82564e-06 1.51848e-05 -5.02471e-07)
(4.64189e-06 2.08544e-05 -9.4728e-07)
(3.91617e-06 1.9596e-05 -3.89722e-07)
(5.18115e-06 2.04239e-05 -3.26892e-07)
(4.93461e-06 2.0039e-05 -8.63467e-07)
(6.20605e-06 2.71907e-05 -1.08376e-06)
(5.52605e-06 2.73773e-05 -9.40576e-07)
(7.14329e-06 2.60167e-05 -5.40995e-07)
(6.84119e-06 2.63047e-05 -4.70923e-07)
(8.16609e-06 3.33774e-05 -9.63047e-07)
(8.27104e-06 3.3936e-05 -1.41974e-06)
(9.0641e-06 3.32535e-05 -7.10074e-07)
(9.08956e-06 3.39728e-05 -5.58217e-07)
(1.10018e-05 3.93166e-05 -1.21834e-06)
(1.04722e-05 4.06248e-05 -1.6366e-06)
(1.09004e-05 3.91859e-05 -7.52701e-07)
(1.08241e-05 4.08314e-05 -9.88334e-07)
(1.27074e-05 4.54188e-05 -1.34136e-06)
(1.32574e-05 4.71837e-05 -8.2137e-07)
(1.33376e-05 4.44898e-05 -7.80645e-07)
(1.25226e-05 4.71983e-05 -1.44309e-06)
(1.43647e-05 5.17278e-05 -1.53425e-06)
(1.54984e-05 5.29219e-05 -1.77967e-06)
(1.49962e-05 5.18325e-05 -6.95314e-07)
(1.45425e-05 5.32223e-05 -6.81854e-07)
(1.60229e-05 5.79115e-05 -1.90245e-06)
(1.65772e-05 5.88643e-05 -2.99449e-06)
(1.64563e-05 5.78001e-05 -1.10447e-06)
(1.63966e-05 5.86317e-05 -1.06366e-06)
(1.81067e-05 6.36913e-05 -2.74405e-06)
(1.81172e-05 6.3453e-05 -3.25749e-06)
(1.75764e-05 6.32213e-05 -1.41888e-06)
(1.74629e-05 6.33209e-05 -8.86451e-07)
(2.03956e-05 6.90746e-05 -2.55826e-06)
(1.92365e-05 6.81315e-05 -3.3971e-06)
(1.90556e-05 6.85753e-05 -1.72995e-06)
(1.85677e-05 6.84285e-05 -6.53389e-07)
(2.02304e-05 7.33575e-05 -2.27719e-06)
(1.99676e-05 7.03601e-05 -3.58969e-06)
(-1.63526e-05 4.74032e-05 -3.33997e-05)
(2.02882e-05 7.19969e-05 -1.34816e-06)
(4.65368e-05 0.00011718 -1.59093e-05)
(2.05066e-05 7.23235e-05 -3.85648e-06)
(1.89852e-06 9.20022e-05 -4.86657e-05)
(-5.02104e-05 3.84893e-06 -5.13648e-05)
(0.000135232 0.000326217 7.85027e-06)
(0 0 0)
(0.000102842 0.000295214 -4.44384e-05)
(7.01447e-06 6.0755e-05 1.77903e-06)
(0 0 0)
(0 0 0)
(0 0 0)
(0 0 0)
(0 0 0)
(0 0 0)
(0 0 0)
(0 0 0)
(0 0 0)
(0 0 0)
(0 0 0)
(0 0 0)
(0 0 0)
(0 0 0)
(0 0 0)
(0 0 0)
(0 0 0)
(0 0 0)
(0 0 0)
(0 0 0)
(0 0 0)
(0 0 0)
(0 0 0)
(0 0 0)
(0 0 0)
(0 0 0)
(0 0 0)
(0 0 0)
(0 0 0)
(0 0 0)
(0 0 0)
(0 0 0)
(0 0 0)
(0 0 0)
(0 0 0)
(0 0 0)
(0 0 0)
(0 0 0)
(0 0 0)
(0 0 0)
(0 0 0)
(0 0 0)
(0 0 0)
(0 0 0)
(0 0 0)
(0 0 0)
(0 0 0)
(0 0 0)
(0 0 0)
(0 0 0)
(0 0 0)
(0 0 0)
(0 0 0)
(0 0 0)
(0 0 0)
(0 0 0)
(0 0 0)
(0 0 0)
(0 0 0)
(0 0 0)
(0 0 0)
(0 0 0)
(0 0 0)
(0 0 0)
(0 0 0)
(0 0 0)
(0 0 0)
(0 0 0)
(0 0 0)
(0 0 0)
(0 0 0)
(0 0 0)
(0 0 0)
(0 0 0)
(0 0 0)
(0 0 0)
(0 0 0)
(0 0 0)
(0 0 0)
(0 0 0)
(0 0 0)
(0 0 0)
(0 0 0)
(0 0 0)
(0 0 0)
(0 0 0)
(0 0 0)
(0 0 0)
(0 0 0)
(0 0 0)
(0 0 0)
(0 0 0)
(0 0 0)
(0 0 0)
(0 0 0)
(0 0 0)
(0 0 0)
(0 0 0)
(0 0 0)
(0 0 0)
(0 0 0)
(0 0 0)
(0 0 0)
(0 0 0)
(0 0 0)
(0 0 0)
(0 0 0)
(0 0 0)
(0 0 0)
(0 0 0)
(0 0 0)
(0 0 0)
(0 0 0)
(0 0 0)
(0 0 0)
(0 0 0)
(0 0 0)
(0 0 0)
(0 0 0)
(0 0 0)
(0 0 0)
(0 0 0)
(0 0 0)
(0 0 0)
(0 0 0)
(0 0 0)
(0 0 0)
(0 0 0)
(0 0 0)
(0 0 0)
(0 0 0)
(0 0 0)
(0 0 0)
(0 0 0)
(0 0 0)
(0 0 0)
(0 0 0)
(0 0 0)
(0 0 0)
(0 0 0)
(0 0 0)
(0 0 0)
(0 0 0)
(0 0 0)
)
;

boundaryField
{
    inlet
    {
        type            fixedValue;
        value           uniform (0 0 0);
    }
    outlet
    {
        type            fixedValue;
        value           uniform (0 0 0);
    }
    repeat_boundary
    {
        type            fixedValue;
        value           uniform (0 0 0);
    }
}


// ************************************************************************* //
