/*--------------------------------*- C++ -*----------------------------------*\
  =========                 |
  \\      /  F ield         | OpenFOAM: The Open Source CFD Toolbox
   \\    /   O peration     | Website:  https://openfoam.org
    \\  /    A nd           | Version:  9
     \\/     M anipulation  |
\*---------------------------------------------------------------------------*/
FoamFile
{
    format      ascii;
    class       volScalarField;
    location    "70000";
    object      p;
}
// * * * * * * * * * * * * * * * * * * * * * * * * * * * * * * * * * * * * * //

dimensions      [0 2 -2 0 0 0 0];

internalField   nonuniform List<scalar> 
9000
(
-3.07709e-10
-3.32415e-10
-3.12272e-10
-2.78565e-10
-2.5702e-10
-2.41662e-10
-2.33972e-10
-2.39623e-10
-2.39743e-10
-2.33911e-10
-3.27526e-10
-3.31875e-10
-2.97502e-10
-2.55761e-10
-2.35185e-10
-2.29632e-10
-2.31327e-10
-2.43096e-10
-2.38941e-10
-2.26072e-10
-2.79491e-10
-2.64536e-10
-2.2556e-10
-1.8671e-10
-1.71948e-10
-1.84973e-10
-1.94014e-10
-2.13273e-10
-2.06391e-10
-1.88184e-10
-1.87066e-10
-1.57347e-10
-1.22368e-10
-9.71099e-11
-9.99085e-11
-1.44727e-10
-1.55328e-10
-1.84652e-10
-1.73136e-10
-1.45984e-10
-4.87089e-11
-1.85801e-11
-3.53598e-13
-2.16958e-12
-4.82932e-11
-1.62118e-10
-1.63462e-10
-1.97406e-10
-1.69298e-10
-1.10469e-10
-1.09602e-11
1.6058e-11
1.7608e-11
-1.09289e-11
-8.92538e-11
-6.40587e-11
-1.29423e-10
-1.58726e-10
-1.29516e-10
-7.17877e-11
-1.84e-11
-4.7831e-12
-3.25677e-12
-8.57144e-12
-2.34104e-11
-4.62937e-11
-5.94916e-11
-5.38971e-11
-2.71739e-11
-2.01483e-13
-2.69794e-11
-2.68947e-11
-3.79907e-11
-5.12208e-11
-5.24605e-11
-5.00996e-11
-3.17767e-11
4.90843e-13
2.57129e-11
3.25168e-11
-4.15232e-11
-5.30411e-11
-7.5331e-11
-9.81422e-11
-1.01997e-10
-7.95333e-11
-3.11642e-11
1.86935e-11
3.92006e-11
3.07825e-11
-5.79392e-11
-7.60997e-11
-1.03366e-10
-1.2839e-10
-1.3166e-10
-1.00475e-10
-3.69065e-11
1.51527e-11
2.62677e-11
7.62246e-12
-8.67745e-10
-9.01912e-10
-8.35431e-10
-7.60504e-10
-7.58061e-10
-7.25634e-10
-6.79354e-10
-6.67025e-10
-6.43383e-10
-6.12598e-10
-8.9007e-10
-8.73796e-10
-7.81968e-10
-6.9859e-10
-6.94106e-10
-6.86793e-10
-6.5207e-10
-6.47063e-10
-6.12141e-10
-5.65485e-10
-7.58874e-10
-7.0821e-10
-6.12388e-10
-5.28738e-10
-5.0232e-10
-5.31371e-10
-5.1607e-10
-5.31473e-10
-4.97543e-10
-4.48612e-10
-5.48563e-10
-4.81713e-10
-3.9724e-10
-3.13572e-10
-2.57509e-10
-3.58234e-10
-3.52543e-10
-3.98473e-10
-3.66579e-10
-3.12921e-10
-2.69309e-10
-2.25265e-10
-1.64923e-10
-7.03146e-11
6.52406e-12
-2.74968e-10
-2.76071e-10
-3.26116e-10
-2.63752e-10
-1.67882e-10
-1.73025e-10
-1.38446e-10
-1.21499e-10
-1.18479e-10
-1.54884e-10
3.19823e-11
-1.53178e-10
-2.28403e-10
-1.73987e-10
-8.13227e-11
-1.84713e-10
-1.68046e-10
-1.49207e-10
-1.12564e-10
-8.95395e-11
-5.96381e-11
-8.40482e-11
-5.6252e-11
-1.42077e-11
3.81488e-12
-1.86048e-10
-1.97919e-10
-2.17497e-10
-2.27936e-10
-2.26721e-10
-1.74388e-10
-8.4597e-11
4.93009e-12
3.60037e-11
1.10559e-11
-2.0875e-10
-2.4713e-10
-2.99421e-10
-3.48549e-10
-3.72984e-10
-2.88758e-10
-1.20197e-10
-4.42749e-12
6.66204e-12
-4.63305e-11
-2.41578e-10
-2.92e-10
-3.55375e-10
-4.11235e-10
-4.35488e-10
-3.41965e-10
-1.49526e-10
-4.76362e-11
-6.17664e-11
-1.24771e-10
-1.24923e-09
-1.24594e-09
-1.14421e-09
-1.07315e-09
-1.13739e-09
-1.09961e-09
-9.86906e-10
-9.31986e-10
-8.7072e-10
-8.07794e-10
-1.23741e-09
-1.18681e-09
-1.07125e-09
-9.95976e-10
-1.02508e-09
-1.0112e-09
-9.14582e-10
-8.6437e-10
-7.95039e-10
-7.26541e-10
-1.08587e-09
-1.01758e-09
-9.02598e-10
-8.00722e-10
-7.47751e-10
-7.5258e-10
-6.84065e-10
-6.59829e-10
-6.07027e-10
-5.5758e-10
-9.04376e-10
-8.43648e-10
-7.276e-10
-5.67702e-10
-3.69104e-10
-4.45863e-10
-3.90199e-10
-4.09706e-10
-3.88074e-10
-3.64937e-10
-7.28005e-10
-6.99953e-10
-5.71951e-10
-2.78834e-10
1.32619e-10
-2.12057e-10
-1.75554e-10
-1.91626e-10
-1.7743e-10
-1.88169e-10
-6.03203e-10
-5.91341e-10
-5.11639e-10
-3.567e-10
-1.87772e-10
2.85454e-10
3.75097e-11
-5.70594e-11
-6.36533e-11
-8.40282e-11
-5.47241e-10
-5.38854e-10
-4.70593e-10
-3.35925e-10
-2.35311e-10
-5.2229e-11
-3.72525e-11
1.89632e-12
-1.44053e-11
-7.64756e-11
-4.90611e-10
-5.13056e-10
-5.10187e-10
-4.7456e-10
-4.46594e-10
-3.0288e-10
-1.18548e-10
-2.46916e-11
-5.57607e-11
-1.36003e-10
-4.84722e-10
-5.37327e-10
-5.81205e-10
-6.03669e-10
-6.09869e-10
-4.61773e-10
-2.02176e-10
-1.04085e-10
-1.55147e-10
-2.37699e-10
-5.05474e-10
-5.65962e-10
-6.18269e-10
-6.43604e-10
-6.41895e-10
-5.05012e-10
-2.50321e-10
-1.85889e-10
-2.48321e-10
-3.0278e-10
-1.34885e-09
-1.29895e-09
-1.20039e-09
-1.15606e-09
-1.23462e-09
-1.19068e-09
-1.04745e-09
-9.65979e-10
-8.87028e-10
-8.19966e-10
-1.31379e-09
-1.24702e-09
-1.14922e-09
-1.09471e-09
-1.11872e-09
-1.08253e-09
-9.56445e-10
-8.75334e-10
-8.01309e-10
-7.47297e-10
-1.23607e-09
-1.17723e-09
-1.07182e-09
-9.66209e-10
-8.88683e-10
-8.32777e-10
-7.07286e-10
-6.4026e-10
-5.98896e-10
-5.83384e-10
-1.21022e-09
-1.1703e-09
-1.03515e-09
-8.29171e-10
-5.5898e-10
-5.40477e-10
-3.87897e-10
-3.52136e-10
-3.75772e-10
-4.24148e-10
-1.25977e-09
-1.22977e-09
-1.03931e-09
-6.45264e-10
-6.70246e-11
-3.79155e-10
-1.5591e-10
-1.0148e-10
-2.13069e-10
-3.69849e-10
-1.14385e-09
-1.12998e-09
-9.69005e-10
-6.95721e-10
-4.74226e-10
2.47867e-10
1.33375e-10
6.45276e-11
-8.44453e-11
-2.64201e-10
-9.61793e-10
-9.40312e-10
-8.06029e-10
-5.84601e-10
-4.29459e-10
-8.64519e-11
1.59059e-12
1.3776e-11
-9.90969e-11
-2.1611e-10
-8.15734e-10
-8.19131e-10
-7.52892e-10
-6.21794e-10
-4.94445e-10
-2.74554e-10
-8.61802e-11
-6.5552e-11
-1.68155e-10
-2.49139e-10
-7.52458e-10
-7.78597e-10
-7.50747e-10
-6.60682e-10
-5.40698e-10
-3.65021e-10
-1.63832e-10
-1.61562e-10
-2.54216e-10
-2.90018e-10
-7.35844e-10
-7.59281e-10
-7.30092e-10
-6.36977e-10
-5.11207e-10
-3.69997e-10
-2.04669e-10
-2.19172e-10
-2.77723e-10
-2.43742e-10
-1.23515e-09
-1.16352e-09
-1.09327e-09
-1.06052e-09
-1.08223e-09
-1.01528e-09
-8.9797e-10
-8.14874e-10
-7.4071e-10
-6.85627e-10
-1.21053e-09
-1.15261e-09
-1.08823e-09
-1.0419e-09
-1.03547e-09
-9.57731e-10
-8.35429e-10
-7.46553e-10
-6.87102e-10
-6.42462e-10
-1.24526e-09
-1.20515e-09
-1.11854e-09
-1.02016e-09
-9.48833e-10
-8.17259e-10
-6.46511e-10
-5.5009e-10
-5.24687e-10
-5.17701e-10
-1.36658e-09
-1.33229e-09
-1.19134e-09
-1.00007e-09
-7.97278e-10
-6.52533e-10
-4.07214e-10
-3.17146e-10
-3.66276e-10
-4.30547e-10
-1.55593e-09
-1.49371e-09
-1.27364e-09
-9.49075e-10
-5.17043e-10
-6.72219e-10
-2.65448e-10
-1.5672e-10
-3.26771e-10
-4.96039e-10
-1.45815e-09
-1.40018e-09
-1.17348e-09
-8.90802e-10
-7.8979e-10
-7.3613e-11
7.15918e-11
5.04713e-11
-1.75778e-10
-3.79013e-10
-1.18385e-09
-1.11653e-09
-9.18037e-10
-6.45563e-10
-4.40829e-10
-4.1987e-11
8.1289e-11
5.8525e-11
-7.66112e-11
-1.48741e-10
-9.71921e-10
-9.19161e-10
-7.59591e-10
-5.05634e-10
-2.29156e-10
2.1084e-11
1.01776e-10
5.52083e-11
-3.45721e-11
-3.97583e-11
-8.5612e-10
-8.13171e-10
-6.67259e-10
-4.19324e-10
-1.23886e-10
5.80525e-11
9.69975e-11
4.26147e-11
1.72041e-12
6.41246e-11
-7.99375e-10
-7.46104e-10
-5.94265e-10
-3.50217e-10
-7.22935e-11
7.18633e-11
8.93226e-11
6.40864e-11
9.32841e-11
2.20868e-10
-1.06705e-09
-1.00571e-09
-9.65424e-10
-9.22636e-10
-8.71632e-10
-7.53036e-10
-6.34663e-10
-5.28376e-10
-4.3547e-10
-3.61436e-10
-1.07577e-09
-1.04104e-09
-9.98386e-10
-9.39028e-10
-8.80928e-10
-7.44739e-10
-6.05453e-10
-4.9022e-10
-4.05525e-10
-3.22514e-10
-1.18303e-09
-1.15312e-09
-1.06824e-09
-9.59726e-10
-8.70955e-10
-6.73335e-10
-4.7417e-10
-3.41797e-10
-2.79451e-10
-2.227e-10
-1.34006e-09
-1.28556e-09
-1.12645e-09
-9.51982e-10
-8.2585e-10
-5.73781e-10
-3.08105e-10
-1.72302e-10
-1.63325e-10
-1.52373e-10
-1.50117e-09
-1.37673e-09
-1.12467e-09
-8.99107e-10
-7.09208e-10
-5.94465e-10
-2.0286e-10
-6.93527e-11
-1.36604e-10
-1.63571e-10
-1.40269e-09
-1.26728e-09
-9.78098e-10
-7.0309e-10
-6.29616e-10
-2.14662e-10
1.04437e-10
1.63194e-10
4.6798e-11
-1.14162e-11
-1.10724e-09
-9.74929e-10
-7.19766e-10
-4.15072e-10
-1.48306e-10
1.81854e-10
3.16041e-10
3.3697e-10
3.11854e-10
3.51903e-10
-8.79144e-10
-7.56891e-10
-5.12443e-10
-1.7181e-10
1.96122e-10
4.50209e-10
4.7239e-10
4.7989e-10
5.14046e-10
6.05618e-10
-7.36914e-10
-6.16856e-10
-3.71312e-10
-2.22435e-11
3.61328e-10
5.71215e-10
5.58154e-10
5.90045e-10
6.90006e-10
8.299e-10
-6.56136e-10
-5.29056e-10
-2.86222e-10
4.3623e-11
3.92208e-10
5.82509e-10
5.8923e-10
6.81837e-10
8.46021e-10
1.00487e-09
-9.75256e-10
-9.40829e-10
-9.06844e-10
-8.35359e-10
-7.19626e-10
-5.14529e-10
-3.02041e-10
-9.20657e-11
9.31167e-11
2.33187e-10
-1.01504e-09
-9.96517e-10
-9.43161e-10
-8.44232e-10
-7.13598e-10
-4.98139e-10
-2.68459e-10
-4.64178e-11
1.42503e-10
2.95736e-10
-1.1205e-09
-1.08065e-09
-9.63174e-10
-8.05009e-10
-6.42074e-10
-3.90077e-10
-1.29844e-10
9.49629e-11
2.64386e-10
3.96858e-10
-1.21071e-09
-1.11679e-09
-9.11005e-10
-6.99188e-10
-5.43736e-10
-2.42146e-10
3.96881e-11
2.5509e-10
3.99237e-10
5.2105e-10
-1.24949e-09
-1.05871e-09
-7.61027e-10
-5.50754e-10
-4.42488e-10
-1.1243e-10
2.04303e-10
4.07038e-10
5.48103e-10
6.89644e-10
-1.12554e-09
-9.19634e-10
-5.85951e-10
-2.95812e-10
-1.23758e-10
8.70465e-11
4.23715e-10
6.24918e-10
7.51216e-10
8.80102e-10
-8.4608e-10
-6.64179e-10
-3.72947e-10
-4.88208e-11
2.66051e-10
5.21521e-10
7.36348e-10
9.1032e-10
1.0713e-09
1.2105e-09
-6.2819e-10
-4.59068e-10
-1.76156e-10
1.74358e-10
5.30064e-10
8.04332e-10
9.5571e-10
1.148e-09
1.35452e-09
1.50803e-09
-4.75273e-10
-3.10316e-10
-3.52327e-11
3.06989e-10
6.49881e-10
9.27914e-10
1.08769e-09
1.33199e-09
1.59517e-09
1.75785e-09
-3.86474e-10
-2.25948e-10
3.25353e-11
3.46281e-10
6.52651e-10
9.34686e-10
1.14327e-09
1.44642e-09
1.73536e-09
1.86936e-09
-9.7792e-10
-9.48752e-10
-8.8275e-10
-7.67005e-10
-6.19759e-10
-2.92419e-10
1.30784e-10
5.41927e-10
8.77743e-10
1.08921e-09
-1.02021e-09
-9.87603e-10
-8.90529e-10
-7.39681e-10
-5.5522e-10
-2.27813e-10
2.12204e-10
6.27924e-10
9.58456e-10
1.16128e-09
-1.07407e-09
-1.00262e-09
-8.29303e-10
-5.98498e-10
-3.35034e-10
-1.01533e-11
4.14226e-10
7.89643e-10
1.08502e-09
1.27116e-09
-1.08007e-09
-9.47411e-10
-6.84239e-10
-3.78405e-10
-6.72691e-11
2.43123e-10
6.42978e-10
9.76508e-10
1.26133e-09
1.46163e-09
-1.03035e-09
-8.14972e-10
-4.71803e-10
-1.32097e-10
1.74193e-10
4.89756e-10
8.79833e-10
1.20421e-09
1.53219e-09
1.76795e-09
-8.74598e-10
-6.52127e-10
-3.03211e-10
5.18965e-11
3.84415e-10
7.52492e-10
1.05125e-09
1.38671e-09
1.72498e-09
1.96563e-09
-6.02169e-10
-4.03182e-10
-8.58998e-11
2.77459e-10
6.38565e-10
9.52231e-10
1.30109e-09
1.65049e-09
1.96669e-09
2.15187e-09
-3.76803e-10
-1.91404e-10
9.51288e-11
4.24199e-10
7.36629e-10
1.08313e-09
1.47637e-09
1.87698e-09
2.22107e-09
2.39631e-09
-2.06356e-10
-3.39407e-11
2.20299e-10
5.05531e-10
7.64999e-10
1.13838e-09
1.59522e-09
2.06741e-09
2.45037e-09
2.60934e-09
-1.14974e-10
4.16618e-11
2.7034e-10
5.24546e-10
7.53236e-10
1.1436e-09
1.66943e-09
2.17754e-09
2.54646e-09
2.65499e-09
-9.90619e-10
-9.16905e-10
-7.81867e-10
-6.00682e-10
-4.24199e-10
5.45336e-11
7.59052e-10
1.38853e-09
1.8518e-09
2.09445e-09
-9.99768e-10
-9.17214e-10
-7.55464e-10
-5.39057e-10
-2.82139e-10
1.95947e-10
8.94467e-10
1.49504e-09
1.92723e-09
2.14641e-09
-1.00346e-09
-8.86567e-10
-6.51788e-10
-3.31476e-10
6.94727e-11
5.25472e-10
1.14432e-09
1.65836e-09
2.04713e-09
2.26468e-09
-9.78564e-10
-8.18387e-10
-4.9871e-10
-5.84178e-11
5.01108e-10
8.75368e-10
1.41759e-09
1.85984e-09
2.24046e-09
2.47408e-09
-9.34118e-10
-7.25622e-10
-3.18802e-10
2.60027e-10
1.00206e-09
1.1829e-09
1.65923e-09
2.09374e-09
2.51682e-09
2.76244e-09
-7.6607e-10
-5.553e-10
-1.62851e-10
3.46387e-10
8.89814e-10
1.67227e-09
1.87328e-09
2.25572e-09
2.67403e-09
2.92441e-09
-4.7445e-10
-2.64357e-10
9.90349e-11
5.54683e-10
1.0042e-09
1.52658e-09
1.95507e-09
2.40495e-09
2.78826e-09
2.97945e-09
-2.1761e-10
-2.38194e-11
2.78105e-10
6.37484e-10
9.9268e-10
1.47355e-09
2.0405e-09
2.5666e-09
2.97641e-09
3.16341e-09
-2.95555e-11
1.41325e-10
3.93037e-10
6.83489e-10
9.74471e-10
1.46278e-09
2.13956e-09
2.7456e-09
3.17976e-09
3.34184e-09
5.86824e-11
2.08807e-10
4.35151e-10
6.9959e-10
9.88633e-10
1.49405e-09
2.23991e-09
2.85322e-09
3.25047e-09
3.35221e-09
-9.4762e-10
-7.8875e-10
-5.55042e-10
-2.53917e-10
7.90755e-11
7.31619e-10
1.6418e-09
2.40115e-09
2.92612e-09
3.1792e-09
-9.11687e-10
-7.59604e-10
-5.14852e-10
-1.80156e-10
2.53035e-10
9.14046e-10
1.77191e-09
2.47669e-09
2.96823e-09
3.2175e-09
-8.99674e-10
-7.3334e-10
-4.31264e-10
6.82376e-12
5.79114e-10
1.23094e-09
1.98165e-09
2.60637e-09
3.07628e-09
3.33638e-09
-8.91419e-10
-7.03809e-10
-3.28505e-10
2.35111e-10
9.82379e-10
1.56273e-09
2.21942e-09
2.77702e-09
3.22967e-09
3.47753e-09
-8.71236e-10
-6.51538e-10
-1.91996e-10
5.33943e-10
1.54819e-09
1.8216e-09
2.38071e-09
2.91556e-09
3.35906e-09
3.57471e-09
-7.2239e-10
-4.91909e-10
-3.09074e-11
6.25717e-10
1.32569e-09
2.36585e-09
2.6253e-09
3.05711e-09
3.46544e-09
3.67543e-09
-4.33783e-10
-2.02639e-10
2.13481e-10
7.83944e-10
1.38049e-09
2.12373e-09
2.61981e-09
3.1207e-09
3.52465e-09
3.73306e-09
-1.81888e-10
2.67364e-11
3.83879e-10
8.64745e-10
1.41331e-09
2.06423e-09
2.6847e-09
3.25855e-09
3.69651e-09
3.9113e-09
-1.30227e-11
1.74831e-10
4.95346e-10
9.2402e-10
1.45403e-09
2.08891e-09
2.80829e-09
3.44207e-09
3.88245e-09
4.05365e-09
5.68124e-11
2.29174e-10
5.34751e-10
9.5482e-10
1.52483e-09
2.17482e-09
2.92059e-09
3.53627e-09
3.9258e-09
4.03061e-09
-9.3336e-10
-6.87364e-10
-3.25186e-10
1.81818e-10
8.34014e-10
1.70022e-09
2.70667e-09
3.53977e-09
4.12249e-09
4.42254e-09
-8.81509e-10
-6.6534e-10
-3.0662e-10
2.24888e-10
9.2584e-10
1.80668e-09
2.76981e-09
3.57171e-09
4.15268e-09
4.47794e-09
-8.83622e-10
-6.7041e-10
-2.79257e-10
3.12083e-10
1.06455e-09
1.95226e-09
2.87158e-09
3.65216e-09
4.23886e-09
4.56228e-09
-8.79579e-10
-6.5658e-10
-2.28895e-10
4.19711e-10
1.23822e-09
2.1214e-09
2.99631e-09
3.73424e-09
4.28245e-09
4.56226e-09
-8.00906e-10
-5.71327e-10
-1.36293e-10
5.58952e-10
1.51251e-09
2.18822e-09
3.02926e-09
3.70479e-09
4.18916e-09
4.43677e-09
-6.88426e-10
-4.38772e-10
2.23228e-11
7.12907e-10
1.46724e-09
2.53231e-09
3.1908e-09
3.78648e-09
4.2362e-09
4.47698e-09
-5.0068e-10
-2.60037e-10
1.97862e-10
8.84903e-10
1.68226e-09
2.57707e-09
3.26031e-09
3.88063e-09
4.36681e-09
4.6497e-09
-3.40615e-10
-1.07363e-10
3.5219e-10
1.02545e-09
1.85229e-09
2.69223e-09
3.3941e-09
4.05458e-09
4.55503e-09
4.8126e-09
-2.38613e-10
-3.0298e-12
4.59814e-10
1.12676e-09
1.99139e-09
2.82424e-09
3.55926e-09
4.2237e-09
4.67844e-09
4.86317e-09
-1.99279e-10
3.42243e-11
4.97022e-10
1.17647e-09
2.09228e-09
2.94072e-09
3.64634e-09
4.26597e-09
4.65999e-09
4.79849e-09
-1.18887e-09
-8.78278e-10
-3.34016e-10
4.82585e-10
1.55496e-09
2.71808e-09
3.87816e-09
4.85329e-09
5.56385e-09
5.96031e-09
-1.17281e-09
-8.96417e-10
-3.54599e-10
4.78659e-10
1.55141e-09
2.72412e-09
3.89125e-09
4.87454e-09
5.61082e-09
6.02933e-09
-1.18468e-09
-9.10043e-10
-3.61017e-10
4.77449e-10
1.52972e-09
2.69477e-09
3.89411e-09
4.89861e-09
5.64401e-09
6.03587e-09
-1.13393e-09
-8.5842e-10
-3.2853e-10
4.85914e-10
1.50174e-09
2.67639e-09
3.8843e-09
4.85892e-09
5.56498e-09
5.92875e-09
-9.54113e-10
-7.32127e-10
-2.90001e-10
4.74146e-10
1.49293e-09
2.56361e-09
3.78973e-09
4.69907e-09
5.38064e-09
5.78484e-09
-8.68495e-10
-6.33963e-10
-1.75193e-10
5.9049e-10
1.52102e-09
2.72803e-09
3.81739e-09
4.70085e-09
5.37855e-09
5.78496e-09
-8.44398e-10
-5.85104e-10
-3.01804e-11
8.29644e-10
1.85962e-09
2.94796e-09
3.97195e-09
4.87299e-09
5.566e-09
5.95754e-09
-8.14858e-10
-5.23136e-10
9.50448e-11
9.94145e-10
2.07556e-09
3.16786e-09
4.16384e-09
5.05034e-09
5.68254e-09
5.98924e-09
-7.88092e-10
-4.68354e-10
1.82576e-10
1.1135e-09
2.2642e-09
3.37052e-09
4.32594e-09
5.13208e-09
5.66244e-09
5.90189e-09
-7.75166e-10
-4.45626e-10
2.18137e-10
1.17948e-09
2.37451e-09
3.48864e-09
4.3659e-09
5.09551e-09
5.57786e-09
5.82024e-09
-1.96413e-09
-1.57633e-09
-7.41678e-10
5.25751e-10
2.15246e-09
3.72846e-09
5.1762e-09
6.4022e-09
7.31658e-09
7.82582e-09
-2.00526e-09
-1.61853e-09
-7.66431e-10
5.21552e-10
2.13997e-09
3.71505e-09
5.17305e-09
6.42026e-09
7.36042e-09
7.85969e-09
-1.9845e-09
-1.58375e-09
-7.46224e-10
5.03393e-10
2.05922e-09
3.58941e-09
5.09972e-09
6.37377e-09
7.31813e-09
7.79221e-09
-1.85565e-09
-1.46807e-09
-6.91672e-10
4.86897e-10
1.94979e-09
3.41243e-09
4.97223e-09
6.25014e-09
7.20693e-09
7.71219e-09
-1.63981e-09
-1.33894e-09
-6.61693e-10
4.59892e-10
1.87248e-09
3.14665e-09
4.78414e-09
6.12469e-09
7.17431e-09
7.76385e-09
-1.565e-09
-1.27198e-09
-6.18034e-10
4.19957e-10
1.65446e-09
3.36359e-09
4.75987e-09
6.08936e-09
7.15363e-09
7.74726e-09
-1.64063e-09
-1.27922e-09
-4.98547e-10
6.30822e-10
1.92729e-09
3.40124e-09
4.91151e-09
6.2383e-09
7.20732e-09
7.68944e-09
-1.69377e-09
-1.28004e-09
-4.36864e-10
7.4093e-10
2.12312e-09
3.59631e-09
5.08528e-09
6.30778e-09
7.13244e-09
7.52271e-09
-1.71259e-09
-1.2672e-09
-3.83954e-10
8.56654e-10
2.34047e-09
3.82109e-09
5.18399e-09
6.25122e-09
6.96671e-09
7.34207e-09
-1.71457e-09
-1.25461e-09
-3.44818e-10
9.43526e-10
2.4713e-09
3.93968e-09
5.17471e-09
6.16153e-09
6.867e-09
7.28609e-09
-3.35908e-09
-2.80449e-09
-1.53886e-09
3.18384e-10
2.60599e-09
4.7216e-09
6.56516e-09
8.15521e-09
9.3459e-09
9.9783e-09
-3.41548e-09
-2.81389e-09
-1.52146e-09
3.38944e-10
2.57005e-09
4.6734e-09
6.52435e-09
8.13725e-09
9.34072e-09
9.94425e-09
-3.3217e-09
-2.7022e-09
-1.45125e-09
3.26072e-10
2.44192e-09
4.47534e-09
6.38839e-09
8.02973e-09
9.24809e-09
9.86339e-09
-3.13505e-09
-2.54236e-09
-1.36649e-09
3.10885e-10
2.29508e-09
4.16923e-09
6.20499e-09
7.91994e-09
9.21282e-09
9.89205e-09
-2.95313e-09
-2.4148e-09
-1.29161e-09
3.15594e-10
2.22385e-09
3.71665e-09
6.01473e-09
7.95587e-09
9.38113e-09
1.00816e-08
-2.89114e-09
-2.37401e-09
-1.30651e-09
1.34264e-10
1.66707e-09
4.15907e-09
6.05481e-09
7.94483e-09
9.36381e-09
1.00577e-08
-2.97069e-09
-2.40047e-09
-1.27358e-09
2.5444e-10
1.99367e-09
4.07614e-09
6.15917e-09
7.94338e-09
9.19068e-09
9.78042e-09
-3.04138e-09
-2.4407e-09
-1.28257e-09
3.23552e-10
2.24048e-09
4.25329e-09
6.24992e-09
7.85675e-09
8.96249e-09
9.52001e-09
-3.07773e-09
-2.45798e-09
-1.25276e-09
4.41333e-10
2.46549e-09
4.45058e-09
6.25544e-09
7.71146e-09
8.75878e-09
9.34322e-09
-3.08978e-09
-2.45383e-09
-1.20808e-09
5.32247e-10
2.56226e-09
4.51912e-09
6.20512e-09
7.62581e-09
8.68996e-09
9.32309e-09
-5.34561e-09
-4.50622e-09
-2.71489e-09
-2.10182e-10
2.70031e-09
5.50939e-09
7.98774e-09
1.01227e-08
1.16995e-08
1.25121e-08
-5.36157e-09
-4.46418e-09
-2.67028e-09
-2.0583e-10
2.60792e-09
5.39173e-09
7.90431e-09
1.00583e-08
1.16404e-08
1.24443e-08
-5.21577e-09
-4.32022e-09
-2.58663e-09
-2.24824e-10
2.47133e-09
5.19169e-09
7.758e-09
9.93796e-09
1.15534e-08
1.24022e-08
-5.03586e-09
-4.16858e-09
-2.49924e-09
-2.39254e-10
2.36762e-09
4.8982e-09
7.6224e-09
9.9046e-09
1.15968e-08
1.24791e-08
-4.91543e-09
-4.05003e-09
-2.4043e-09
-2.18467e-10
2.45051e-09
4.4736e-09
7.52564e-09
1.00265e-08
1.17739e-08
1.26129e-08
-4.88302e-09
-4.03664e-09
-2.45155e-09
-4.38946e-10
1.72909e-09
5.11549e-09
7.66025e-09
1.00533e-08
1.17555e-08
1.25799e-08
-4.93422e-09
-4.08942e-09
-2.50747e-09
-3.5837e-10
2.14537e-09
5.01596e-09
7.66218e-09
9.91537e-09
1.15152e-08
1.23202e-08
-4.99652e-09
-4.15384e-09
-2.54852e-09
-2.96462e-10
2.3951e-09
5.12699e-09
7.64214e-09
9.75817e-09
1.12973e-08
1.21072e-08
-5.04316e-09
-4.18823e-09
-2.52601e-09
-2.02451e-10
2.52777e-09
5.20149e-09
7.57549e-09
9.62168e-09
1.11417e-08
1.19721e-08
-5.06671e-09
-4.19047e-09
-2.48769e-09
-1.58875e-10
2.51021e-09
5.15873e-09
7.50876e-09
9.55728e-09
1.10879e-08
1.19377e-08
-7.97611e-09
-6.7851e-09
-4.41505e-09
-1.19385e-09
2.44386e-09
6.17027e-09
9.61942e-09
1.25324e-08
1.46584e-08
1.57607e-08
-7.96172e-09
-6.74365e-09
-4.38992e-09
-1.21474e-09
2.38003e-09
6.07296e-09
9.5334e-09
1.24536e-08
1.45921e-08
1.57138e-08
-7.84085e-09
-6.63564e-09
-4.32959e-09
-1.23365e-09
2.29254e-09
5.94794e-09
9.41914e-09
1.2357e-08
1.45338e-08
1.56907e-08
-7.72899e-09
-6.53528e-09
-4.27737e-09
-1.25621e-09
2.27824e-09
5.7753e-09
9.3635e-09
1.23618e-08
1.4568e-08
1.57237e-08
-7.68131e-09
-6.46401e-09
-4.23687e-09
-1.22666e-09
2.59066e-09
5.58185e-09
9.32344e-09
1.24104e-08
1.46267e-08
1.57805e-08
-7.70007e-09
-6.49474e-09
-4.31442e-09
-1.42584e-09
1.8966e-09
6.24434e-09
9.45745e-09
1.24201e-08
1.45844e-08
1.57302e-08
-7.741e-09
-6.57978e-09
-4.40164e-09
-1.37329e-09
2.14917e-09
5.97224e-09
9.339e-09
1.227e-08
1.44268e-08
1.55597e-08
-7.81303e-09
-6.66395e-09
-4.45165e-09
-1.36134e-09
2.24868e-09
5.9282e-09
9.24326e-09
1.21323e-08
1.42671e-08
1.53807e-08
-7.87721e-09
-6.70752e-09
-4.44364e-09
-1.34274e-09
2.23369e-09
5.85867e-09
9.1452e-09
1.20115e-08
1.41199e-08
1.52279e-08
-7.90844e-09
-6.70988e-09
-4.4334e-09
-1.37765e-09
2.13405e-09
5.74942e-09
9.06753e-09
1.19231e-08
1.40243e-08
1.51073e-08
-1.15405e-08
-9.95852e-09
-6.87165e-09
-2.68105e-09
2.12209e-09
7.09917e-09
1.17834e-08
1.57511e-08
1.86431e-08
2.01492e-08
-1.15589e-08
-9.96266e-09
-6.87285e-09
-2.70144e-09
2.08225e-09
7.03145e-09
1.17058e-08
1.56898e-08
1.85973e-08
2.01092e-08
-1.15147e-08
-9.91278e-09
-6.85839e-09
-2.75709e-09
1.96569e-09
6.88949e-09
1.15993e-08
1.56024e-08
1.85281e-08
2.0051e-08
-1.14851e-08
-9.8843e-09
-6.89095e-09
-2.84338e-09
1.94116e-09
6.73697e-09
1.15519e-08
1.55689e-08
1.84968e-08
2.00379e-08
-1.1497e-08
-9.9042e-09
-6.96614e-09
-2.85318e-09
2.26124e-09
6.56867e-09
1.14568e-08
1.55209e-08
1.85027e-08
2.00947e-08
-1.15963e-08
-1.00135e-08
-7.10876e-09
-3.08685e-09
1.55223e-09
7.16955e-09
1.14834e-08
1.5437e-08
1.83992e-08
1.99948e-08
-1.17038e-08
-1.01617e-08
-7.20363e-09
-3.07666e-09
1.66445e-09
6.73143e-09
1.12901e-08
1.52824e-08
1.82197e-08
1.97448e-08
-1.18303e-08
-1.02796e-08
-7.28494e-09
-3.16359e-09
1.60716e-09
6.56342e-09
1.11399e-08
1.51032e-08
1.79921e-08
1.94826e-08
-1.19187e-08
-1.03341e-08
-7.3207e-09
-3.24568e-09
1.48551e-09
6.41087e-09
1.09874e-08
1.49068e-08
1.77626e-08
1.92286e-08
-1.19473e-08
-1.03441e-08
-7.36387e-09
-3.34236e-09
1.37133e-09
6.29259e-09
1.08644e-08
1.47593e-08
1.75915e-08
1.90119e-08
-1.65111e-08
-1.44169e-08
-1.03246e-08
-4.75523e-09
1.70259e-09
8.41057e-09
1.47275e-08
2.0137e-08
2.40467e-08
2.60519e-08
-1.65878e-08
-1.44534e-08
-1.03507e-08
-4.81449e-09
1.57349e-09
8.27142e-09
1.46517e-08
2.00856e-08
2.39805e-08
2.59657e-08
-1.6619e-08
-1.44753e-08
-1.04349e-08
-4.97582e-09
1.37385e-09
8.03305e-09
1.45195e-08
1.99622e-08
2.38575e-08
2.58701e-08
-1.66857e-08
-1.45703e-08
-1.06062e-08
-5.16061e-09
1.30385e-09
7.82372e-09
1.44169e-08
1.98592e-08
2.37756e-08
2.58291e-08
-1.67948e-08
-1.47511e-08
-1.08157e-08
-5.23458e-09
1.55009e-09
7.47564e-09
1.42085e-08
1.97569e-08
2.3746e-08
2.58077e-08
-1.70035e-08
-1.49687e-08
-1.10644e-08
-5.6201e-09
5.64355e-10
8.10095e-09
1.41392e-08
1.95515e-08
2.35396e-08
2.56066e-08
-1.72609e-08
-1.52057e-08
-1.12068e-08
-5.68719e-09
6.39763e-10
7.50401e-09
1.37891e-08
1.92285e-08
2.31675e-08
2.51945e-08
-1.74641e-08
-1.53763e-08
-1.13747e-08
-5.9069e-09
4.62271e-10
7.19007e-09
1.34965e-08
1.88801e-08
2.2777e-08
2.47916e-08
-1.75772e-08
-1.54664e-08
-1.14993e-08
-6.09587e-09
2.50728e-10
6.94298e-09
1.32281e-08
1.85636e-08
2.2435e-08
2.44201e-08
-1.76112e-08
-1.55191e-08
-1.16035e-08
-6.22145e-09
1.25452e-10
6.79379e-09
1.30577e-08
1.83759e-08
2.22082e-08
2.41883e-08
-2.34347e-08
-2.05936e-08
-1.51162e-08
-7.66949e-09
9.9989e-10
1.00936e-08
1.87214e-08
2.60494e-08
3.12777e-08
3.39481e-08
-2.35419e-08
-2.06588e-08
-1.521e-08
-7.81499e-09
8.23506e-10
9.92593e-09
1.86453e-08
2.59611e-08
3.1153e-08
3.38317e-08
-2.36713e-08
-2.08209e-08
-1.54466e-08
-8.08041e-09
6.04643e-10
9.66601e-09
1.84573e-08
2.57696e-08
3.09886e-08
3.37142e-08
-2.39163e-08
-2.11212e-08
-1.57698e-08
-8.35228e-09
4.61601e-10
9.39713e-09
1.82518e-08
2.55891e-08
3.08469e-08
3.35795e-08
-2.4269e-08
-2.15321e-08
-1.61148e-08
-8.54621e-09
5.65988e-10
8.802e-09
1.78742e-08
2.53725e-08
3.06627e-08
3.33577e-08
-2.46049e-08
-2.18741e-08
-1.64928e-08
-9.11214e-09
-7.44094e-10
9.33855e-09
1.77212e-08
2.50494e-08
3.03266e-08
3.30195e-08
-2.49688e-08
-2.21785e-08
-1.67719e-08
-9.3777e-09
-8.7166e-10
8.49938e-09
1.71166e-08
2.44765e-08
2.97742e-08
3.25211e-08
-2.5231e-08
-2.24296e-08
-1.70854e-08
-9.75445e-09
-1.18545e-09
7.97915e-09
1.66244e-08
2.39548e-08
2.92545e-08
3.20073e-08
-2.53838e-08
-2.25995e-08
-1.73177e-08
-1.00299e-08
-1.46402e-09
7.63104e-09
1.62571e-08
2.35595e-08
2.88323e-08
3.15939e-08
-2.54561e-08
-2.27085e-08
-1.74467e-08
-1.01535e-08
-1.57992e-09
7.46446e-09
1.60758e-08
2.33503e-08
2.86083e-08
3.14408e-08
-3.30005e-08
-2.9131e-08
-2.17951e-08
-1.17569e-08
6.79023e-11
1.24092e-08
2.41098e-08
3.39586e-08
4.09971e-08
4.46614e-08
-3.31381e-08
-2.92784e-08
-2.19894e-08
-1.19541e-08
-7.96759e-11
1.22733e-08
2.39881e-08
3.38097e-08
4.0852e-08
4.45562e-08
-3.34374e-08
-2.96362e-08
-2.23615e-08
-1.22916e-08
-3.6651e-10
1.19779e-08
2.36969e-08
3.35489e-08
4.0646e-08
4.43616e-08
-3.39321e-08
-3.01489e-08
-2.28129e-08
-1.26967e-08
-7.70967e-10
1.15306e-08
2.33337e-08
3.3251e-08
4.0369e-08
4.40707e-08
-3.46028e-08
-3.07741e-08
-2.3329e-08
-1.31786e-08
-1.11501e-09
1.05935e-08
2.27642e-08
3.28514e-08
3.9986e-08
4.36891e-08
-3.50863e-08
-3.12719e-08
-2.38761e-08
-1.38747e-08
-2.4761e-09
1.07283e-08
2.24199e-08
3.23852e-08
3.95018e-08
4.31979e-08
-3.54622e-08
-3.16506e-08
-2.43527e-08
-1.43789e-08
-2.81713e-09
9.83769e-09
2.16582e-08
3.16529e-08
3.88546e-08
4.26172e-08
-3.57891e-08
-3.20222e-08
-2.48156e-08
-1.48737e-08
-3.23568e-09
9.20079e-09
2.10358e-08
3.10384e-08
3.82634e-08
4.2058e-08
-3.60157e-08
-3.22868e-08
-2.51201e-08
-1.51945e-08
-3.5322e-09
8.81756e-09
2.06155e-08
3.05928e-08
3.78241e-08
4.17001e-08
-3.6138e-08
-3.2415e-08
-2.52391e-08
-1.53104e-08
-3.63841e-09
8.65965e-09
2.04074e-08
3.03651e-08
3.76577e-08
4.1607e-08
-4.62116e-08
-4.09891e-08
-3.11023e-08
-1.74479e-08
-1.28294e-09
1.547e-08
3.12534e-08
4.45906e-08
5.42257e-08
5.93055e-08
-4.64283e-08
-4.12502e-08
-3.13639e-08
-1.76668e-08
-1.48229e-09
1.52694e-08
3.10549e-08
4.44108e-08
5.40841e-08
5.91705e-08
-4.69141e-08
-4.17501e-08
-3.18144e-08
-1.80962e-08
-1.93435e-09
1.48428e-08
3.06523e-08
4.40633e-08
5.37667e-08
5.88503e-08
-4.76019e-08
-4.23947e-08
-3.23926e-08
-1.86971e-08
-2.62228e-09
1.41657e-08
3.01234e-08
4.35913e-08
5.33127e-08
5.8421e-08
-4.84699e-08
-4.31624e-08
-3.31079e-08
-1.94923e-08
-3.30856e-09
1.30773e-08
2.94224e-08
4.30118e-08
5.27749e-08
5.79292e-08
-4.91306e-08
-4.38538e-08
-3.38698e-08
-2.03235e-08
-4.62312e-09
1.2802e-08
2.88218e-08
4.23717e-08
5.21241e-08
5.72735e-08
-4.95762e-08
-4.43887e-08
-3.45262e-08
-2.09749e-08
-5.13261e-09
1.18881e-08
2.79705e-08
4.15528e-08
5.13822e-08
5.65492e-08
-5.00247e-08
-4.49023e-08
-3.50987e-08
-2.15606e-08
-5.68325e-09
1.11589e-08
2.72588e-08
4.0872e-08
5.07471e-08
5.59906e-08
-5.03461e-08
-4.52445e-08
-3.54587e-08
-2.19438e-08
-6.06322e-09
1.07004e-08
2.67567e-08
4.03807e-08
5.03428e-08
5.56689e-08
-5.0502e-08
-4.5384e-08
-3.55973e-08
-2.20987e-08
-6.25455e-09
1.04804e-08
2.64928e-08
4.01609e-08
5.02046e-08
5.54966e-08
-6.44592e-08
-5.7406e-08
-4.39728e-08
-2.5397e-08
-3.52232e-09
1.92491e-08
4.07412e-08
5.89828e-08
7.22261e-08
7.91919e-08
-6.47691e-08
-5.77304e-08
-4.42591e-08
-2.56656e-08
-3.79875e-09
1.89718e-08
4.04929e-08
5.87682e-08
7.2029e-08
7.89863e-08
-6.53602e-08
-5.82855e-08
-4.478e-08
-2.62099e-08
-4.38147e-09
1.84179e-08
3.99797e-08
5.82821e-08
7.15685e-08
7.85626e-08
-6.61392e-08
-5.90242e-08
-4.55162e-08
-2.69982e-08
-5.19848e-09
1.75766e-08
3.92856e-08
5.76227e-08
7.09563e-08
7.79772e-08
-6.70855e-08
-5.99177e-08
-4.64248e-08
-2.79747e-08
-5.90097e-09
1.65313e-08
3.84374e-08
5.68514e-08
7.02465e-08
7.73016e-08
-6.79465e-08
-6.08096e-08
-4.73874e-08
-2.89715e-08
-7.32648e-09
1.60802e-08
3.76138e-08
5.60157e-08
6.94163e-08
7.64735e-08
-6.86184e-08
-6.15677e-08
-4.8188e-08
-2.97296e-08
-8.09325e-09
1.48766e-08
3.66419e-08
5.51106e-08
6.85326e-08
7.55994e-08
-6.92377e-08
-6.2224e-08
-4.88706e-08
-3.04537e-08
-8.85135e-09
1.39816e-08
3.58252e-08
5.43472e-08
6.78446e-08
7.49869e-08
-6.96679e-08
-6.26673e-08
-4.93344e-08
-3.0963e-08
-9.41331e-09
1.33737e-08
3.52247e-08
5.38259e-08
6.74314e-08
7.45593e-08
-6.98811e-08
-6.28806e-08
-4.95521e-08
-3.12036e-08
-9.71751e-09
1.30634e-08
3.49438e-08
5.36193e-08
6.72113e-08
7.42471e-08
-8.95547e-08
-7.99598e-08
-6.16745e-08
-3.64705e-08
-6.85342e-09
2.41246e-08
5.34889e-08
7.84405e-08
9.65691e-08
1.06095e-07
-8.99151e-08
-8.03036e-08
-6.19994e-08
-3.68056e-08
-7.17775e-09
2.38178e-08
5.31731e-08
7.81387e-08
9.62872e-08
1.05832e-07
-9.05614e-08
-8.09254e-08
-6.26319e-08
-3.74694e-08
-7.88378e-09
2.312e-08
5.2522e-08
7.75117e-08
9.57091e-08
1.05263e-07
-9.14445e-08
-8.18119e-08
-6.35553e-08
-3.84289e-08
-8.8323e-09
2.20745e-08
5.16512e-08
7.66851e-08
9.49028e-08
1.04427e-07
-9.25247e-08
-8.28917e-08
-6.46722e-08
-3.95585e-08
-9.66374e-09
2.08116e-08
5.05655e-08
7.57101e-08
9.3968e-08
1.03478e-07
-9.36083e-08
-8.39972e-08
-6.58207e-08
-4.07726e-08
-1.13709e-08
2.03341e-08
4.95455e-08
7.46487e-08
9.29397e-08
1.02464e-07
-9.45589e-08
-8.49622e-08
-6.67531e-08
-4.16264e-08
-1.21989e-08
1.89073e-08
4.84648e-08
7.35992e-08
9.18609e-08
1.01444e-07
-9.5375e-08
-8.57932e-08
-6.75983e-08
-4.25173e-08
-1.30863e-08
1.79198e-08
4.75464e-08
7.2725e-08
9.10638e-08
1.00675e-07
-9.59702e-08
-8.64117e-08
-6.82229e-08
-4.31765e-08
-1.37996e-08
1.72227e-08
4.6888e-08
7.21665e-08
9.05415e-08
1.00091e-07
-9.63088e-08
-8.67561e-08
-6.85486e-08
-4.3502e-08
-1.415e-08
1.68749e-08
4.66125e-08
7.19192e-08
9.0213e-08
9.97447e-08
-1.23932e-07
-1.10852e-07
-8.59886e-08
-5.17771e-08
-1.1573e-08
3.05917e-08
7.06574e-08
1.04741e-07
1.2952e-07
1.42558e-07
-1.24334e-07
-1.11249e-07
-8.63894e-08
-5.21888e-08
-1.19982e-08
3.01838e-08
7.02483e-08
1.0435e-07
1.29162e-07
1.42183e-07
-1.25098e-07
-1.12016e-07
-8.71761e-08
-5.29862e-08
-1.28064e-08
2.93732e-08
6.94894e-08
1.03598e-07
1.28399e-07
1.41359e-07
-1.2619e-07
-1.13126e-07
-8.8309e-08
-5.41015e-08
-1.38621e-08
2.81304e-08
6.84432e-08
1.02559e-07
1.27307e-07
1.40226e-07
-1.27533e-07
-1.14455e-07
-8.96447e-08
-5.53759e-08
-1.4913e-08
2.64194e-08
6.70691e-08
1.01336e-07
1.26066e-07
1.3894e-07
-1.28878e-07
-1.1583e-07
-9.10399e-08
-5.69387e-08
-1.71316e-08
2.60133e-08
6.59171e-08
1.00061e-07
1.24797e-07
1.37707e-07
-1.30097e-07
-1.17019e-07
-9.21672e-08
-5.79277e-08