/*--------------------------------*- C++ -*----------------------------------*\
  =========                 |
  \\      /  F ield         | OpenFOAM: The Open Source CFD Toolbox
   \\    /   O peration     | Website:  https://openfoam.org
    \\  /    A nd           | Version:  9
     \\/     M anipulation  |
\*---------------------------------------------------------------------------*/
FoamFile
{
    format      ascii;
    class       volVectorField;
    location    "70000";
    object      stored_U;
}
// * * * * * * * * * * * * * * * * * * * * * * * * * * * * * * * * * * * * * //

dimensions      [0 1 -1 0 0 0 0];

internalField   nonuniform List<vector> 
9000
(
(-2.03255e-11 2.70932e-11 -0.001)
(-2.55398e-11 3.45058e-11 -0.001)
(-1.71267e-11 4.10516e-11 -0.001)
(-1.58097e-11 4.53624e-11 -0.001)
(-4.23418e-11 4.22371e-11 -0.001)
(-7.68425e-11 3.98267e-11 -0.001)
(-7.8084e-11 3.32773e-11 -0.001)
(-5.9973e-11 3.06835e-11 -0.001)
(-2.5842e-11 3.42445e-11 -0.001)
(-5.57515e-12 3.82694e-11 -0.001)
(-1.29931e-11 1.08833e-10 -0.001)
(-1.16457e-11 1.22348e-10 -0.001)
(-6.24741e-12 1.30323e-10 -0.001)
(-1.47575e-11 1.32296e-10 -0.001)
(-4.81722e-11 1.21548e-10 -0.001)
(-8.6095e-11 1.12827e-10 -0.001)
(-8.74642e-11 1.02079e-10 -0.001)
(-5.90939e-11 9.63281e-11 -0.001)
(-1.81884e-11 1.02155e-10 -0.001)
(-1.4929e-12 1.09379e-10 -0.001)
(-7.03631e-12 2.04814e-10 -0.001)
(-4.29609e-12 2.17153e-10 -0.001)
(-7.20859e-12 2.16412e-10 -0.001)
(-2.47098e-11 2.05938e-10 -0.001)
(-6.20329e-11 1.76372e-10 -0.001)
(-9.65617e-11 1.70019e-10 -0.001)
(-9.47745e-11 1.54496e-10 -0.001)
(-5.99884e-11 1.45317e-10 -0.001)
(-1.25863e-11 1.52238e-10 -0.001)
(1.85751e-12 1.6156e-10 -0.001)
(-1.05564e-12 2.82266e-10 -0.001)
(-4.73063e-13 2.9316e-10 -0.001)
(-1.74867e-11 2.84835e-10 -0.001)
(-5.48132e-11 2.57487e-10 -0.001)
(-8.41563e-11 1.99126e-10 -0.001)
(-1.07987e-10 1.78996e-10 -0.001)
(-1.12135e-10 1.57843e-10 -0.001)
(-6.13392e-11 1.48102e-10 -0.001)
(-1.61455e-12 1.69818e-10 -0.001)
(8.13504e-12 1.96149e-10 -0.001)
(3.18439e-12 2.92264e-10 -0.001)
(-2.39589e-12 2.9968e-10 -0.001)
(-4.29085e-11 2.79747e-10 -0.001)
(-1.10429e-10 2.53707e-10 -0.001)
(-1.40578e-10 2.05099e-10 -0.001)
(-1.37884e-10 2.10698e-10 -0.001)
(-1.25701e-10 2.04043e-10 -0.001)
(-4.79895e-11 1.97559e-10 -0.001)
(3.58505e-11 2.13065e-10 -0.001)
(2.85003e-11 2.33088e-10 -0.001)
(5.66786e-12 2.56314e-10 -0.000999999)
(-1.36786e-11 2.55641e-10 -0.000999999)
(-6.34925e-11 2.36881e-10 -0.000999999)
(-1.29556e-10 2.34991e-10 -0.000999999)
(-1.27338e-10 2.57423e-10 -0.001)
(-1.09111e-10 2.62806e-10 -0.001)
(-1.25146e-10 2.87148e-10 -0.001)
(-5.22476e-11 3.05744e-10 -0.001)
(3.44132e-11 2.97495e-10 -0.001)
(2.85897e-11 2.75294e-10 -0.001)
(1.9772e-12 2.29718e-10 -0.000999999)
(-2.23619e-11 2.21131e-10 -0.000999999)
(-6.3586e-11 2.09276e-10 -0.000999999)
(-8.99935e-11 2.11314e-10 -0.000999999)
(-1.12824e-10 2.56848e-10 -0.000999999)
(-1.08024e-10 2.55444e-10 -0.000999999)
(-8.26211e-11 2.83504e-10 -0.000999999)
(-3.75766e-11 3.18452e-10 -0.000999999)
(6.05097e-12 3.05684e-10 -0.000999999)
(6.9987e-12 2.69863e-10 -0.000999999)
(-3.34908e-12 1.80134e-10 -0.000999998)
(-3.45619e-11 1.68689e-10 -0.000999998)
(-7.33283e-11 1.56772e-10 -0.000999998)
(-8.199e-11 1.51283e-10 -0.000999999)
(-8.31786e-11 1.70406e-10 -0.000999999)
(-8.23401e-11 1.94739e-10 -0.000999999)
(-6.21161e-11 2.15739e-10 -0.000999999)
(-3.00328e-11 2.35768e-10 -0.000999999)
(-1.35414e-11 2.23882e-10 -0.000999999)
(-6.52008e-12 1.99373e-10 -0.000999999)
(-9.74761e-12 1.07929e-10 -0.000999998)
(-4.6056e-11 9.61444e-11 -0.000999998)
(-8.1001e-11 8.9447e-11 -0.000999998)
(-7.63492e-11 8.72661e-11 -0.000999998)
(-6.93547e-11 1.03628e-10 -0.000999998)
(-6.26693e-11 1.12671e-10 -0.000999999)
(-4.15761e-11 1.3155e-10 -0.000999999)
(-2.94075e-11 1.35758e-10 -0.000999999)
(-2.99024e-11 1.23007e-10 -0.000999999)
(-1.70317e-11 1.05011e-10 -0.000999999)
(-1.52509e-11 3.43167e-11 -0.000999998)
(-5.31397e-11 2.88439e-11 -0.000999998)
(-8.20749e-11 2.7217e-11 -0.000999998)
(-6.7606e-11 2.76444e-11 -0.000999998)
(-5.76719e-11 3.57019e-11 -0.000999998)
(-5.43267e-11 3.92166e-11 -0.000999998)
(-3.8895e-11 4.39773e-11 -0.000999998)
(-3.85085e-11 4.17666e-11 -0.000999999)
(-4.40068e-11 3.48995e-11 -0.000999999)
(-2.42313e-11 2.7637e-11 -0.000999999)
(-3.94123e-11 9.09354e-11 -0.001)
(-5.22305e-11 1.08725e-10 -0.001)
(-5.55758e-11 1.18503e-10 -0.001)
(-9.81764e-11 1.20739e-10 -0.001)
(-1.59272e-10 1.12568e-10 -0.001)
(-1.9248e-10 1.05466e-10 -0.001)
(-1.74609e-10 9.84312e-11 -0.001)
(-1.26661e-10 9.71759e-11 -0.001)
(-4.83391e-11 1.0634e-10 -0.001)
(-7.70618e-12 1.13181e-10 -0.001)
(-2.18409e-11 3.1812e-10 -0.001)
(-2.48585e-11 3.462e-10 -0.001)
(-4.35933e-11 3.55924e-10 -0.001)
(-1.04578e-10 3.53278e-10 -0.001)
(-1.75305e-10 3.43277e-10 -0.001)
(-2.07171e-10 3.23174e-10 -0.001)
(-1.83264e-10 3.06144e-10 -0.001)
(-1.18857e-10 2.95135e-10 -0.001)
(-3.20541e-11 3.07712e-10 -0.001)
(-6.20138e-13 3.16986e-10 -0.001)
(-1.19279e-11 5.52933e-10 -0.001)
(-1.5069e-11 5.70375e-10 -0.001)
(-4.86232e-11 5.63797e-10 -0.001)
(-1.11232e-10 5.50628e-10 -0.001)
(-1.89953e-10 5.31479e-10 -0.001)
(-2.29979e-10 5.14093e-10 -0.001)
(-2.02966e-10 4.75976e-10 -0.001)
(-1.25236e-10 4.49186e-10 -0.001)
(-2.58794e-11 4.61229e-10 -0.001)
(2.18756e-12 4.71199e-10 -0.001)
(-5.42583e-12 7.31875e-10 -0.001)
(-1.50863e-11 7.39589e-10 -0.001)
(-6.34056e-11 7.20118e-10 -0.001)
(-1.3693e-10 6.93096e-10 -0.001)
(-2.11831e-10 6.49106e-10 -0.001)
(-2.627e-10 6.05334e-10 -0.001)
(-2.48237e-10 5.30818e-10 -0.001)
(-1.33578e-10 5.10903e-10 -0.001)
(-9.11736e-12 5.57923e-10 -0.001)
(1.02516e-11 5.96268e-10 -0.001)
(-5.77637e-12 7.70906e-10 -0.001)
(-2.84087e-11 7.75847e-10 -0.001)
(-9.51829e-11 7.31974e-10 -0.001)
(-1.82243e-10 6.90856e-10 -0.001)
(-2.7773e-10 6.20709e-10 -0.001)
(-3.48377e-10 6.74007e-10 -0.001)
(-2.97422e-10 6.33488e-10 -0.001)
(-9.80779e-11 6.15057e-10 -0.001)
(6.06536e-11 6.43806e-10 -0.001)
(4.15864e-11 6.749e-10 -0.001)
(-2.16623e-12 7.07982e-10 -0.000999999)
(-5.56946e-11 7.06802e-10 -0.000999999)
(-1.48464e-10 6.64531e-10 -0.000999999)
(-2.48134e-10 6.46379e-10 -0.000999999)
(-2.28779e-10 6.43642e-10 -0.000999999)
(-2.49919e-10 6.82361e-10 -0.000999999)
(-3.0705e-10 7.51767e-10 -0.001)
(-1.23173e-10 7.8697e-10 -0.001)
(5.20729e-11 7.5093e-10 -0.001)
(4.26072e-11 6.98382e-10 -0.001)
(-8.26867e-12 6.40292e-10 -0.000999999)
(-7.32132e-11 6.22185e-10 -0.000999999)
(-1.55683e-10 5.91351e-10 -0.000999999)
(-2.03324e-10 5.77776e-10 -0.000999999)
(-2.41743e-10 6.218e-10 -0.000999999)
(-2.40009e-10 5.99748e-10 -0.000999999)
(-1.92763e-10 6.9345e-10 -0.000999999)
(-9.8875e-11 7.71393e-10 -0.000999999)
(-2.64671e-11 7.261e-10 -0.000999999)
(-9.39036e-12 6.42616e-10 -0.000999999)
(-2.12964e-11 5.00691e-10 -0.000999998)
(-1.05753e-10 4.72446e-10 -0.000999998)
(-1.92923e-10 4.388e-10 -0.000999998)
(-2.17709e-10 4.0939e-10 -0.000999999)
(-2.06801e-10 4.24832e-10 -0.000999999)
(-1.7834e-10 4.66694e-10 -0.000999999)
(-1.35426e-10 5.29103e-10 -0.000999999)
(-9.04759e-11 5.62624e-10 -0.000999999)
(-7.53474e-11 5.26253e-10 -0.000999999)
(-3.93786e-11 4.7494e-10 -0.000999999)
(-3.72748e-11 2.95864e-10 -0.000999998)
(-1.35981e-10 2.67896e-10 -0.000999998)
(-2.18759e-10 2.51293e-10 -0.000999998)
(-2.17267e-10 2.41988e-10 -0.000999998)
(-1.84396e-10 2.721e-10 -0.000999998)
(-1.35675e-10 2.87061e-10 -0.000999999)
(-9.68061e-11 3.2347e-10 -0.000999999)
(-1.01661e-10 3.16288e-10 -0.000999999)
(-1.13186e-10 2.8195e-10 -0.000999999)
(-5.96832e-11 2.51825e-10 -0.000999999)
(-4.95623e-11 9.23909e-11 -0.000999998)
(-1.50554e-10 8.01617e-11 -0.000999998)
(-2.18467e-10 7.77595e-11 -0.000999998)
(-1.96355e-10 8.00856e-11 -0.000999998)
(-1.61322e-10 9.79817e-11 -0.000999998)
(-1.26631e-10 1.02709e-10 -0.000999998)
(-1.05873e-10 1.06789e-10 -0.000999998)
(-1.31793e-10 9.34009e-11 -0.000999999)
(-1.39038e-10 7.6606e-11 -0.000999999)
(-6.88113e-11 6.72123e-11 -0.000999999)
(-3.84763e-11 1.85447e-10 -0.001)
(-8.4361e-11 1.98309e-10 -0.001)
(-1.62536e-10 1.99598e-10 -0.001)
(-2.90888e-10 1.94961e-10 -0.001)
(-3.54917e-10 1.99898e-10 -0.001)
(-3.0913e-10 1.90972e-10 -0.001)
(-2.45047e-10 1.87464e-10 -0.001)
(-1.74944e-10 1.87279e-10 -0.001)
(-7.36265e-11 1.96169e-10 -0.001)
(-1.51908e-11 1.95874e-10 -0.001)
(-2.59987e-11 5.58341e-10 -0.001)
(-7.08653e-11 5.74435e-10 -0.001)
(-1.66398e-10 5.71446e-10 -0.001)
(-2.91497e-10 5.7109e-10 -0.001)
(-3.6002e-10 5.98539e-10 -0.001)
(-3.22223e-10 5.84303e-10 -0.001)
(-2.49086e-10 5.66616e-10 -0.001)
(-1.66444e-10 5.54935e-10 -0.001)
(-6.46843e-11 5.61996e-10 -0.001)
(-1.51064e-11 5.53881e-10 -0.001)
(-2.33699e-11 8.79089e-10 -0.001)
(-7.25399e-11 8.80062e-10 -0.001)
(-1.66361e-10 8.73327e-10 -0.001)
(-2.64617e-10 8.86488e-10 -0.001)
(-3.42668e-10 9.43709e-10 -0.001)
(-3.41626e-10 9.2979e-10 -0.001)
(-2.7477e-10 8.87733e-10 -0.001)
(-1.79794e-10 8.52912e-10 -0.001)
(-7.36301e-11 8.51568e-10 -0.001)
(-2.21466e-11 8.38691e-10 -0.001)
(-2.65668e-11 1.11292e-09 -0.001)
(-7.83421e-11 1.10654e-09 -0.001)
(-1.60098e-10 1.09892e-09 -0.001)
(-2.21213e-10 1.1273e-09 -0.001)
(-3.1679e-10 1.22881e-09 -0.001)
(-3.78174e-10 1.14238e-09 -0.001)
(-3.25978e-10 1.06557e-09 -0.001)
(-2.02559e-10 1.04153e-09 -0.001)
(-7.72165e-11 1.06424e-09 -0.001)
(-2.62717e-11 1.05633e-09 -0.001)
(-3.1849e-11 1.21802e-09 -0.001)
(-8.8775e-11 1.21717e-09 -0.001)
(-1.45769e-10 1.18138e-09 -0.001)
(-1.34762e-10 1.17189e-09 -0.001)
(-3.275e-10 1.11124e-09 -0.001)
(-5.04583e-10 1.27498e-09 -0.001)
(-3.75542e-10 1.18059e-09 -0.001)
(-1.81033e-10 1.16202e-09 -0.001)
(-5.67107e-11 1.16719e-09 -0.001)
(-2.79782e-11 1.16346e-09 -0.001)
(-2.98731e-11 1.21188e-09 -0.000999999)
(-1.17529e-10 1.20941e-09 -0.000999999)
(-2.05555e-10 1.16203e-09 -0.000999999)
(-2.91327e-10 1.11838e-09 -0.000999999)
(-2.13378e-10 9.98474e-10 -0.001)
(-3.08724e-10 1.11523e-09 -0.000999999)
(-4.39183e-10 1.18653e-09 -0.001)
(-2.15915e-10 1.21648e-09 -0.001)
(-7.34437e-11 1.16679e-09 -0.001)
(-2.77164e-11 1.1264e-09 -0.001)
(-3.65632e-11 1.11185e-09 -0.000999999)
(-1.41007e-10 1.08898e-09 -0.000999999)
(-2.36942e-10 1.04056e-09 -0.000999999)
(-2.98179e-10 9.85967e-10 -0.000999999)
(-3.30473e-10 9.80974e-10 -0.000999999)
(-3.16812e-10 8.75611e-10 -0.000999999)
(-2.74472e-10 1.03629e-09 -0.000999999)
(-2.00675e-10 1.10096e-09 -0.000999999)
(-1.44587e-10 1.04553e-09 -0.000999999)
(-6.61631e-11 9.8503e-10 -0.001)
(-5.45784e-11 8.59136e-10 -0.000999998)
(-1.90837e-10 8.21834e-10 -0.000999998)
(-3.08627e-10 7.70426e-10 -0.000999998)
(-3.50844e-10 7.1342e-10 -0.000999998)
(-3.23724e-10 7.14493e-10 -0.000999999)
(-2.53449e-10 7.39287e-10 -0.000999999)
(-2.13806e-10 8.09286e-10 -0.000999999)
(-2.06564e-10 8.19806e-10 -0.000999999)
(-1.8743e-10 7.78596e-10 -0.000999999)
(-8.6251e-11 7.47714e-10 -0.000999999)
(-7.52468e-11 5.06241e-10 -0.000999998)
(-2.3126e-10 4.73684e-10 -0.000999998)
(-3.45379e-10 4.54753e-10 -0.000999998)
(-3.54068e-10 4.4515e-10 -0.000999998)
(-3.04574e-10 4.81651e-10 -0.000999998)
(-2.21977e-10 4.86315e-10 -0.000999998)
(-1.93903e-10 5.02872e-10 -0.000999998)
(-2.31254e-10 4.75208e-10 -0.000999999)
(-2.15159e-10 4.46368e-10 -0.000999999)
(-9.55338e-11 4.43679e-10 -0.000999999)
(-8.77522e-11 1.58668e-10 -0.000999998)
(-2.42808e-10 1.4628e-10 -0.000999998)
(-3.36554e-10 1.47015e-10 -0.000999998)
(-3.23171e-10 1.54462e-10 -0.000999998)
(-2.81962e-10 1.77012e-10 -0.000999998)
(-2.31756e-10 1.76456e-10 -0.000999998)
(-2.24424e-10 1.6686e-10 -0.000999998)
(-2.62633e-10 1.45596e-10 -0.000999999)
(-2.17704e-10 1.35263e-10 -0.000999999)
(-8.79067e-11 1.42496e-10 -0.000999999)
(-4.13181e-11 2.92743e-10 -0.001)
(-1.60686e-10 2.89307e-10 -0.001)
(-3.42529e-10 2.81604e-10 -0.001)
(-5.19952e-10 2.77136e-10 -0.001)
(-5.71495e-10 2.89933e-10 -0.001)
(-4.68299e-10 2.87564e-10 -0.001)
(-3.5959e-10 2.84649e-10 -0.001)
(-2.64542e-10 2.87276e-10 -0.001)
(-1.43159e-10 2.89539e-10 -0.001)
(-4.44265e-11 2.79861e-10 -0.001)
(-4.53619e-11 8.10288e-10 -0.001)
(-1.72868e-10 7.97741e-10 -0.001)
(-3.55561e-10 7.90152e-10 -0.001)
(-5.12916e-10 7.99268e-10 -0.001)
(-5.6241e-10 8.45247e-10 -0.001)
(-4.74373e-10 8.49673e-10 -0.001)
(-3.60459e-10 8.46965e-10 -0.001)
(-2.60123e-10 8.44993e-10 -0.001)
(-1.50272e-10 8.37835e-10 -0.001)
(-5.36382e-11 8.11566e-10 -0.001)
(-5.52203e-11 1.20374e-09 -0.001)
(-1.82686e-10 1.18769e-09 -0.001)
(-3.41844e-10 1.19672e-09 -0.001)
(-4.66045e-10 1.23288e-09 -0.001)
(-5.22327e-10 1.32623e-09 -0.001)
(-4.67394e-10 1.33185e-09 -0.001)
(-3.64878e-10 1.33568e-09 -0.001)
(-2.74133e-10 1.31354e-09 -0.001)
(-1.75212e-10 1.2874e-09 -0.001)
(-6.91026e-11 1.24777e-09 -0.001)
(-6.34554e-11 1.50575e-09 -0.001)
(-1.82204e-10 1.4979e-09 -0.001)
(-3.10541e-10 1.51568e-09 -0.001)
(-3.83431e-10 1.5762e-09 -0.001)
(-4.63469e-10 1.77726e-09 -0.001)
(-4.65058e-10 1.61557e-09 -0.001)
(-3.7884e-10 1.65309e-09 -0.001)
(-3.08339e-10 1.64093e-09 -0.001)
(-2.13573e-10 1.6007e-09 -0.001)
(-9.07662e-11 1.53645e-09 -0.001)
(-6.56502e-11 1.7073e-09 -0.001)
(-1.75624e-10 1.71019e-09 -0.001)
(-2.63685e-10 1.69724e-09 -0.001)
(-2.04397e-10 1.71936e-09 -0.001)
(-4.82975e-10 1.61689e-09 -0.001)
(-5.91786e-10 1.92033e-09 -0.001)
(-3.39516e-10 1.79801e-09 -0.001)
(-3.26387e-10 1.78441e-09 -0.001)
(-2.76673e-10 1.74126e-09 -0.001)
(-1.30317e-10 1.69451e-09 -0.001)
(-6.38017e-11 1.77933e-09 -0.000999999)
(-1.9558e-10 1.7793e-09 -0.000999999)
(-3.01454e-10 1.74121e-09 -0.000999999)
(-4.63804e-10 1.70528e-09 -0.000999999)
(-2.62689e-10 1.5196e-09 -0.001)
(-2.83944e-10 1.75843e-09 -0.001)
(-5.14682e-10 1.71508e-09 -0.001)
(-3.64938e-10 1.707e-09 -0.001)
(-3.00188e-10 1.6807e-09 -0.001)
(-1.34289e-10 1.68739e-09 -0.001)
(-6.91e-11 1.64314e-09 -0.000999998)
(-2.17225e-10 1.62201e-09 -0.000999998)
(-3.37833e-10 1.57378e-09 -0.000999999)
(-4.25892e-10 1.52027e-09 -0.000999999)
(-4.2996e-10 1.58698e-09 -0.000999999)
(-3.96357e-10 1.35018e-09 -0.000999999)
(-3.90884e-10 1.47822e-09 -0.000999999)
(-3.60549e-10 1.48069e-09 -0.000999999)
(-2.93062e-10 1.46552e-09 -0.000999999)
(-1.20593e-10 1.48334e-09 -0.000999999)
(-8.78202e-11 1.26464e-09 -0.000999998)
(-2.68085e-10 1.22977e-09 -0.000999998)
(-4.0338e-10 1.18358e-09 -0.000999998)
(-4.50644e-10 1.142e-09 -0.000999998)
(-4.32812e-10 1.17332e-09 -0.000999998)
(-3.92674e-10 1.15067e-09 -0.000999998)
(-3.84115e-10 1.16751e-09 -0.000999999)
(-3.77471e-10 1.14611e-09 -0.000999999)
(-2.94673e-10 1.13539e-09 -0.000999999)
(-1.13766e-10 1.15281e-09 -0.000999999)
(-1.06196e-10 7.56416e-10 -0.000999997)
(-3.00722e-10 7.31719e-10 -0.000999998)
(-4.25702e-10 7.24613e-10 -0.000999998)
(-4.36105e-10 7.2926e-10 -0.000999998)
(-4.21224e-10 7.67869e-10 -0.000999998)
(-4.02114e-10 7.50155e-10 -0.000999998)
(-3.95372e-10 7.33018e-10 -0.000999998)
(-3.92501e-10 7.09444e-10 -0.000999998)
(-2.84008e-10 7.17018e-10 -0.000999998)
(-1.0095e-10 7.52761e-10 -0.000999998)
(-1.13604e-10 2.43654e-10 -0.000999997)
(-3.00762e-10 2.3647e-10 -0.000999997)
(-4.05115e-10 2.43538e-10 -0.000999997)
(-4.06523e-10 2.56275e-10 -0.000999997)
(-4.11101e-10 2.72213e-10 -0.000999998)
(-4.26675e-10 2.656e-10 -0.000999998)
(-4.24022e-10 2.46931e-10 -0.000999998)
(-3.92763e-10 2.36334e-10 -0.000999998)
(-2.4943e-10 2.46133e-10 -0.000999998)
(-7.65016e-11 2.69969e-10 -0.000999998)
(-7.08222e-11 4.0566e-10 -0.001)
(-2.87537e-10 3.87287e-10 -0.001)
(-5.54526e-10 3.77573e-10 -0.001)
(-7.40721e-10 3.75269e-10 -0.001)
(-7.83863e-10 3.77993e-10 -0.001)
(-6.97401e-10 3.82501e-10 -0.001)
(-5.71466e-10 3.90278e-10 -0.001)
(-4.28438e-10 3.95313e-10 -0.001)
(-2.65966e-10 3.90908e-10 -0.001)
(-9.22764e-11 3.8246e-10 -0.001)
(-9.00257e-11 1.09848e-09 -0.001)
(-3.17058e-10 1.06776e-09 -0.001)
(-5.67663e-10 1.06505e-09 -0.001)
(-7.41736e-10 1.07829e-09 -0.001)
(-7.78113e-10 1.1034e-09 -0.001)
(-6.86401e-10 1.12304e-09 -0.001)
(-5.5978e-10 1.15506e-09 -0.001)
(-4.2871e-10 1.16418e-09 -0.001)
(-2.78663e-10 1.14889e-09 -0.001)
(-1.00199e-10 1.12434e-09 -0.001)
(-1.0343e-10 1.62724e-09 -0.001)
(-3.23581e-10 1.61425e-09 -0.001)
(-5.45182e-10 1.64031e-09 -0.001)
(-7.03787e-10 1.67812e-09 -0.001)
(-7.40614e-10 1.74565e-09 -0.001)
(-6.47103e-10 1.77172e-09 -0.001)
(-5.31497e-10 1.82654e-09 -0.001)
(-4.35471e-10 1.82483e-09 -0.001)
(-3.04193e-10 1.7878e-09 -0.001)
(-1.14861e-10 1.74223e-09 -0.001)
(-1.05871e-10 2.06833e-09 -0.001)
(-3.07142e-10 2.07442e-09 -0.001)
(-5.04016e-10 2.11424e-09 -0.001)
(-6.36464e-10 2.16012e-09 -0.001)
(-6.84618e-10 2.33524e-09 -0.001)
(-6.05614e-10 2.17067e-09 -0.001)
(-5.06759e-10 2.28698e-09 -0.001)
(-4.67363e-10 2.28502e-09 -0.001)
(-3.57872e-10 2.21425e-09 -0.001)
(-1.42407e-10 2.14045e-09 -0.001)
(-1.00874e-10 2.37116e-09 -0.000999999)
(-2.81493e-10 2.38791e-09 -0.001)
(-4.59629e-10 2.40212e-09 -0.001)
(-4.82831e-10 2.43371e-09 -0.001)
(-7.30099e-10 2.31357e-09 -0.001)
(-6.9539e-10 2.61692e-09 -0.001)
(-4.17134e-10 2.52375e-09 -0.001)
(-5.07964e-10 2.507e-09 -0.001)
(-4.44504e-10 2.43782e-09 -0.001)
(-1.84472e-10 2.38275e-09 -0.001)
(-9.35051e-11 2.4598e-09 -0.000999999)
(-2.80729e-10 2.4671e-09 -0.000999999)
(-4.58487e-10 2.44972e-09 -0.000999999)
(-7.25149e-10 2.4647e-09 -0.000999999)
(-5.01663e-10 2.34874e-09 -0.000999999)
(-3.95443e-10 2.61079e-09 -0.001)
(-6.16505e-10 2.46056e-09 -0.001)
(-5.53028e-10 2.4173e-09 -0.001)
(-4.77373e-10 2.42095e-09 -0.001)
(-1.9288e-10 2.45853e-09 -0.001)
(-9.82386e-11 2.25509e-09 -0.000999998)
(-2.96402e-10 2.23915e-09 -0.000999998)
(-4.62279e-10 2.21189e-09 -0.000999998)
(-5.83983e-10 2.21844e-09 -0.000999998)
(-5.8407e-10 2.40018e-09 -0.000999998)
(-5.83363e-10 2.14739e-09 -0.000999999)
(-6.10614e-10 2.15228e-09 -0.000999999)
(-5.47384e-10 2.11094e-09 -0.000999999)
(-3.9857e-10 2.15206e-09 -0.000999999)
(-1.42512e-10 2.22055e-09 -0.000999999)
(-1.13419e-10 1.74734e-09 -0.000999997)
(-3.28232e-10 1.72359e-09 -0.000999997)
(-4.79436e-10 1.70622e-09 -0.000999997)
(-5.36909e-10 1.7142e-09 -0.000999997)
(-5.7255e-10 1.78569e-09 -0.000999998)
(-6.43238e-10 1.73044e-09 -0.000999998)
(-6.52996e-10 1.69762e-09 -0.000999998)
(-5.53011e-10 1.67621e-09 -0.000999998)
(-3.63502e-10 1.70618e-09 -0.000999999)
(-1.20442e-10 1.74806e-09 -0.000999999)
(-1.25137e-10 1.06949e-09 -0.000999997)
(-3.40865e-10 1.05921e-09 -0.000999997)
(-4.7177e-10 1.07044e-09 -0.000999997)
(-5.04411e-10 1.08871e-09 -0.000999997)
(-5.67704e-10 1.11551e-09 -0.000999997)
(-6.71342e-10 1.0874e-09 -0.000999997)
(-6.64748e-10 1.0725e-09 -0.000999998)
(-5.38573e-10 1.07968e-09 -0.000999998)
(-3.23159e-10 1.1204e-09 -0.000999998)
(-9.73162e-11 1.16195e-09 -0.000999998)
(-1.25369e-10 3.54957e-10 -0.000999997)
(-3.2868e-10 3.55126e-10 -0.000999997)
(-4.49178e-10 3.67171e-10 -0.000999997)
(-4.90838e-10 3.76897e-10 -0.000999997)
(-5.72752e-10 3.7978e-10 -0.000999997)
(-6.85021e-10 3.70823e-10 -0.000999997)
(-6.59539e-10 3.65041e-10 -0.000999997)
(-5.04154e-10 3.75039e-10 -0.000999998)
(-2.78472e-10 3.98622e-10 -0.000999998)
(-7.6652e-11 4.18378e-10 -0.000999998)
(-1.32254e-10 5.33356e-10 -0.001)
(-4.53955e-10 5.12619e-10 -0.001)
(-7.7267e-10 5.09362e-10 -0.001)
(-9.65152e-10 5.1249e-10 -0.001)
(-1.01854e-09 5.1064e-10 -0.001)
(-9.7422e-10 5.18039e-10 -0.001)
(-8.4916e-10 5.29498e-10 -0.001)
(-6.50223e-10 5.33557e-10 -0.001)
(-4.11952e-10 5.30439e-10 -0.001)
(-1.40875e-10 5.31567e-10 -0.001)
(-1.54154e-10 1.48053e-09 -0.001)
(-4.79835e-10 1.45717e-09 -0.001)
(-7.74175e-10 1.47011e-09 -0.001)
(-9.65556e-10 1.48962e-09 -0.001)
(-1.01474e-09 1.4988e-09 -0.001)
(-9.57138e-10 1.52442e-09 -0.001)
(-8.35323e-10 1.55958e-09 -0.001)
(-6.50527e-10 1.57024e-09 -0.001)
(-4.13735e-10 1.55994e-09 -0.001)
(-1.39038e-10 1.54954e-09 -0.001)
(-1.58397e-10 2.25967e-09 -0.001)
(-4.68033e-10 2.27158e-09 -0.001)
(-7.41788e-10 2.31656e-09 -0.001)
(-9.38237e-10 2.34777e-09 -0.001)
(-9.8561e-10 2.37329e-09 -0.001)
(-9.15347e-10 2.40798e-09 -0.001)
(-8.05101e-10 2.4556e-09 -0.001)
(-6.51065e-10 2.4612e-09 -0.001)
(-4.30455e-10 2.43461e-09 -0.001)
(-1.48631e-10 2.40268e-09 -0.001)
(-1.46401e-10 2.91232e-09 -0.001)
(-4.27382e-10 2.95049e-09 -0.001)
(-6.98325e-10 3.00938e-09 -0.001)
(-9.08946e-10 3.02166e-09 -0.001)
(-9.54662e-10 3.09977e-09 -0.001)
(-8.74964e-10 3.02092e-09 -0.001)
(-7.82217e-10 3.09586e-09 -0.001)
(-6.71365e-10 3.0886e-09 -0.001)
(-4.67555e-10 3.04093e-09 -0.001)
(-1.66416e-10 3.00344e-09 -0.001)
(-1.25373e-10 3.30619e-09 -0.000999999)
(-3.76425e-10 3.34547e-09 -0.000999999)
(-6.70927e-10 3.38772e-09 -0.001)
(-8.47862e-10 3.42543e-09 -0.001)
(-9.86316e-10 3.34172e-09 -0.001)
(-9.19135e-10 3.48709e-09 -0.001)
(-7.37423e-10 3.44522e-09 -0.001)
(-7.05694e-10 3.42765e-09 -0.001)
(-5.09789e-10 3.37942e-09 -0.001)
(-1.80561e-10 3.35102e-09 -0.001)
(-1.13187e-10 3.35166e-09 -0.000999998)
(-3.52211e-10 3.35831e-09 -0.000999998)
(-6.18716e-10 3.35262e-09 -0.000999998)
(-9.55026e-10 3.41318e-09 -0.000999999)
(-8.92637e-10 3.41193e-09 -0.000999999)
(-7.71404e-10 3.56085e-09 -0.001)
(-8.41876e-10 3.43171e-09 -0.001)
(-7.36825e-10 3.40038e-09 -0.001)
(-5.3762e-10 3.41836e-09 -0.001)
(-1.88575e-10 3.4414e-09 -0.001)
(-1.24918e-10 3.03588e-09 -0.000999997)
(-3.81974e-10 3.01737e-09 -0.000999997)
(-6.16439e-10 3.00055e-09 -0.000999997)
(-7.8844e-10 3.04752e-09 -0.000999998)
(-8.38657e-10 3.25079e-09 -0.000999998)
(-8.99585e-10 3.12673e-09 -0.000999998)
(-8.97897e-10 3.0655e-09 -0.000999999)
(-7.18709e-10 3.03971e-09 -0.000999999)
(-4.62119e-10 3.09951e-09 -0.000999999)
(-1.5125e-10 3.14633e-09 -0.000999999)
(-1.37111e-10 2.37141e-09 -0.000999996)
(-3.9334e-10 2.35808e-09 -0.000999996)
(-5.88862e-10 2.36803e-09 -0.000999997)
(-7.04831e-10 2.41093e-09 -0.000999997)
(-8.13562e-10 2.48926e-09 -0.000999997)
(-9.56606e-10 2.44972e-09 -0.000999997)
(-9.28883e-10 2.42466e-09 -0.000999998)
(-7.02543e-10 2.42991e-09 -0.000999998)
(-4.24914e-10 2.47414e-09 -0.000999998)
(-1.3601e-10 2.49791e-09 -0.000999998)
(-1.42514e-10 1.48514e-09 -0.000999996)
(-3.89887e-10 1.48685e-09 -0.000999996)
(-5.63734e-10 1.50511e-09 -0.000999996)
(-6.6711e-10 1.52528e-09 -0.000999996)
(-7.99693e-10 1.54397e-09 -0.000999996)
(-9.64037e-10 1.53224e-09 -0.000999997)
(-9.17584e-10 1.54325e-09 -0.000999997)
(-6.68892e-10 1.57389e-09 -0.000999997)
(-3.8913e-10 1.61435e-09 -0.000999997)
(-1.2279e-10 1.62325e-09 -0.000999997)
(-1.37817e-10 5.04498e-10 -0.000999995)
(-3.7548e-10 5.09851e-10 -0.000999995)
(-5.49576e-10 5.19161e-10 -0.000999996)
(-6.64749e-10 5.23131e-10 -0.000999996)
(-8.05143e-10 5.20435e-10 -0.000999996)
(-9.55605e-10 5.16403e-10 -0.000999996)
(-8.85609e-10 5.27311e-10 -0.000999997)
(-6.30118e-10 5.46858e-10 -0.000999997)
(-3.71715e-10 5.64868e-10 -0.000999997)
(-1.23965e-10 5.62469e-10 -0.000999997)
(-2.13605e-10 7.04255e-10 -0.001)
(-6.40453e-10 6.96319e-10 -0.001)
(-9.96605e-10 7.04739e-10 -0.001)
(-1.21603e-09 7.16615e-10 -0.001)
(-1.30691e-09 7.21353e-10 -0.001)
(-1.2998e-09 7.25808e-10 -0.001)
(-1.1634e-09 7.27453e-10 -0.00100001)
(-8.97327e-10 7.31215e-10 -0.00100001)
(-5.58988e-10 7.33181e-10 -0.00100001)
(-1.85875e-10 7.35868e-10 -0.00100001)
(-2.23151e-10 2.02731e-09 -0.001)
(-6.42412e-10 2.03231e-09 -0.001)
(-9.78049e-10 2.06587e-09 -0.001)
(-1.20148e-09 2.0954e-09 -0.001)
(-1.29995e-09 2.10336e-09 -0.001)
(-1.29608e-09 2.12204e-09 -0.001)
(-1.16019e-09 2.12657e-09 -0.001)
(-8.93187e-10 2.13191e-09 -0.001)
(-5.53971e-10 2.1284e-09 -0.00100001)
(-1.82191e-10 2.12167e-09 -0.00100001)
(-2.12652e-10 3.1766e-09 -0.001)
(-6.06968e-10 3.21828e-09 -0.001)
(-9.35581e-10 3.27587e-09 -0.001)
(-1.1808e-09 3.29856e-09 -0.001)
(-1.28267e-09 3.28732e-09 -0.001)
(-1.27912e-09 3.3131e-09 -0.001)
(-1.15588e-09 3.31501e-09 -0.001)
(-8.97077e-10 3.31681e-09 -0.001)
(-5.66237e-10 3.30669e-09 -0.001)
(-1.89062e-10 3.29343e-09 -0.001)
(-1.87375e-10 4.08977e-09 -0.001)
(-5.4936e-10 4.15673e-09 -0.001)
(-8.98241e-10 4.21644e-09 -0.001)
(-1.1902e-09 4.19216e-09 -0.001)
(-1.28559e-09 4.15092e-09 -0.001)
(-1.26861e-09 4.2043e-09 -0.001)
(-1.15664e-09 4.19479e-09 -0.001)
(-9.01317e-10 4.17951e-09 -0.001)
(-5.71071e-10 4.17732e-09 -0.001)
(-1.89446e-10 4.18019e-09 -0.001)
(-1.53012e-10 4.57771e-09 -0.000999999)
(-4.87982e-10 4.63159e-09 -0.000999999)
(-9.00568e-10 4.68073e-09 -0.001)
(-1.24633e-09 4.70471e-09 -0.001)
(-1.27059e-09 4.66246e-09 -0.001)
(-1.23526e-09 4.64337e-09 -0.001)
(-1.18061e-09 4.64315e-09 -0.001)
(-9.14118e-10 4.64578e-09 -0.001)
(-5.57483e-10 4.64641e-09 -0.001)
(-1.78607e-10 4.64741e-09 -0.001)
(-1.41767e-10 4.57321e-09 -0.000999998)
(-4.5509e-10 4.56792e-09 -0.000999998)
(-8.25565e-10 4.55853e-09 -0.000999998)
(-1.20828e-09 4.62611e-09 -0.000999998)
(-1.34695e-09 4.70514e-09 -0.000999999)
(-1.28793e-09 4.68095e-09 -0.000999999)
(-1.15422e-09 4.66299e-09 -0.001)
(-8.97597e-10 4.67232e-09 -0.001)
(-5.6041e-10 4.68327e-09 -0.001)
(-1.79897e-10 4.6714e-09 -0.001)
(-1.66681e-10 4.11129e-09 -0.000999996)
(-5.11495e-10 4.08432e-09 -0.000999997)
(-8.42789e-10 4.06187e-09 -0.000999997)
(-1.0998e-09 4.10856e-09 -0.000999997)
(-1.21568e-09 4.24459e-09 -0.000999998)
(-1.27732e-09 4.26637e-09 -0.000999998)
(-1.18928e-09 4.24408e-09 -0.000999998)
(-8.93375e-10 4.24267e-09 -0.000999999)
(-5.49331e-10 4.26749e-09 -0.000999999)
(-1.81818e-10 4.255e-09 -0.000999999)
(-1.7616e-10 3.22978e-09 -0.000999995)
(-5.1237e-10 3.22549e-09 -0.000999995)
(-8.01715e-10 3.24302e-09 -0.000999996)
(-1.02551e-09 3.28991e-09 -0.000999996)
(-1.18913e-09 3.34911e-09 -0.000999996)
(-1.28864e-09 3.3465e-09 -0.000999997)
(-1.17792e-09 3.35818e-09 -0.000999997)
(-8.73764e-10 3.37953e-09 -0.000999997)
(-5.39796e-10 3.4044e-09 -0.000999998)
(-1.84464e-10 3.39051e-09 -0.000999998)
(-1.76804e-10 2.05768e-09 -0.000999994)
(-5.04407e-10 2.06542e-09 -0.000999995)
(-7.78563e-10 2.07777e-09 -0.000999995)
(-9.93567e-10 2.09398e-09 -0.000999995)
(-1.15899e-09 2.11267e-09 -0.000999996)
(-1.26809e-09 2.12829e-09 -0.000999996)
(-1.15606e-09 2.14738e-09 -0.000999996)
(-8.46685e-10 2.17484e-09 -0.000999997)
(-5.31718e-10 2.18807e-09 -0.000999997)
(-1.89445e-10 2.15941e-09 -0.000999997)
(-1.71832e-10 7.07493e-10 -0.000999994)
(-4.95292e-10 7.13437e-10 -0.000999994)
(-7.71996e-10 7.17076e-10 -0.000999994)
(-9.88875e-10 7.18813e-10 -0.000999995)
(-1.15282e-09 7.20185e-10 -0.000999995)
(-1.2516e-09 7.23229e-10 -0.000999995)
(-1.12913e-09 7.34549e-10 -0.000999996)
(-8.31197e-10 7.48004e-10 -0.000999996)
(-5.50042e-10 7.48348e-10 -0.000999996)
(-2.08858e-10 7.27278e-10 -0.000999996)
(-2.95379e-10 9.58385e-10 -0.001)
(-8.37666e-10 9.65938e-10 -0.001)
(-1.26516e-09 9.81937e-10 -0.00100001)
(-1.56319e-09 9.96132e-10 -0.00100001)
(-1.71204e-09 1.00489e-09 -0.00100001)
(-1.70335e-09 1.00443e-09 -0.00100001)
(-1.51908e-09 1.00256e-09 -0.00100001)
(-1.17779e-09 1.00417e-09 -0.00100001)
(-7.41485e-10 1.00251e-09 -0.00100001)
(-2.51163e-10 9.94818e-10 -0.00100001)
(-2.90023e-10 2.80622e-09 -0.001)
(-8.17328e-10 2.83583e-09 -0.001)
(-1.23722e-09 2.87719e-09 -0.001)
(-1.54285e-09 2.90704e-09 -0.001)
(-1.70669e-09 2.92251e-09 -0.00100001)
(-1.7088e-09 2.92377e-09 -0.00100001)
(-1.52211e-09 2.90702e-09 -0.00100001)
(-1.1799e-09 2.89779e-09 -0.00100001)
(-7.50345e-10 2.88779e-09 -0.00100001)
(-2.5752e-10 2.87477e-09 -0.00100001)
(-2.71407e-10 4.42239e-09 -0.001)
(-7.73611e-10 4.47357e-09 -0.001)
(-1.19662e-09 4.52213e-09 -0.001)
(-1.52077e-09 4.5377e-09 -0.001)
(-1.69852e-09 4.52463e-09 -0.001)
(-1.72218e-09 4.52822e-09 -0.001)
(-1.54805e-09 4.49462e-09 -0.00100001)
(-1.19906e-09 4.48123e-09 -0.00100001)
(-7.60446e-10 4.4819e-09 -0.00100001)
(-2.59412e-10 4.4873e-09 -0.00100001)
(-2.46988e-10 5.63788e-09 -0.001)
(-7.262e-10 5.69824e-09 -0.001)
(-1.17372e-09 5.73446e-09 -0.001)
(-1.54059e-09 5.70927e-09 -0.001)
(-1.71644e-09 5.61745e-09 -0.001)
(-1.73919e-09 5.73319e-09 -0.001)
(-1.56933e-09 5.67574e-09 -0.001)
(-1.19235e-09 5.66072e-09 -0.001)
(-7.35771e-10 5.69389e-09 -0.001)
(-2.44058e-10 5.718e-09 -0.001)
(-2.21225e-10 6.25978e-09 -0.000999999)
(-6.87777e-10 6.30055e-09 -0.001)
(-1.18618e-09 6.32549e-09 -0.001)
(-1.63781e-09 6.33124e-09 -0.001)
(-1.67474e-09 6.33611e-09 -0.001)
(-1.6639e-09 6.24358e-09 -0.001)
(-1.62037e-09 6.26021e-09 -0.001)
(-1.18032e-09 6.28187e-09 -0.001)
(-6.92068e-10 6.31468e-09 -0.001)
(-2.24856e-10 6.32619e-09 -0.001)
(-2.17517e-10 6.23736e-09 -0.000999997)
(-6.72463e-10 6.22985e-09 -0.000999998)
(-1.14368e-09 6.22079e-09 -0.000999998)
(-1.52999e-09 6.25608e-09 -0.000999998)
(-1.80407e-09 6.34772e-09 -0.000999999)
(-1.81496e-09 6.22516e-09 -0.000999999)
(-1.531e-09 6.28677e-09 -0.001)
(-1.13723e-09 6.3141e-09 -0.001)
(-6.79157e-10 6.30312e-09 -0.001)
(-2.2091e-10 6.26429e-09 -0.001)
(-2.40092e-10 5.60797e-09 -0.000999995)
(-7.16341e-10 5.59176e-09 -0.000999996)
(-1.1606e-09 5.57506e-09 -0.000999996)
(-1.51093e-09 5.59362e-09 -0.000999996)
(-1.70566e-09 5.61828e-09 -0.000999997)
(-1.72482e-09 5.71451e-09 -0.000999997)
(-1.53141e-09 5.739e-09 -0.000999998)
(-1.16332e-09 5.73998e-09 -0.000999998)
(-7.29753e-10 5.71694e-09 -0.000999999)
(-2.52118e-10 5.66158e-09 -0.000999999)
(-2.43911e-10 4.43152e-09 -0.000999994)
(-7.16112e-10 4.43684e-09 -0.000999994)
(-1.14238e-09 4.44412e-09 -0.000999994)
(-1.48678e-09 4.46507e-09 -0.000999995)
(-1.68321e-09 4.47983e-09 -0.000999995)
(-1.69423e-09 4.51093e-09 -0.000999996)
(-1.5055e-09 4.53898e-09 -0.000999996)
(-1.15871e-09 4.55819e-09 -0.000999997)
(-7.46598e-10 4.55659e-09 -0.000999997)
(-2.65794e-10 4.52071e-09 -0.000999997)
(-2.4271e-10 2.8463e-09 -0.000999993)
(-7.12069e-10 2.8546e-09 -0.000999993)
(-1.13265e-09 2.85639e-09 -0.000999993)
(-1.47501e-09 2.86295e-09 -0.000999994)
(-1.65956e-09 2.86869e-09 -0.000999994)
(-1.66541e-09 2.89486e-09 -0.000999995)
(-1.4839e-09 2.91441e-09 -0.000999995)
(-1.14508e-09 2.92915e-09 -0.000999996)
(-7.58495e-10 2.91838e-09 -0.000999996)
(-2.79775e-10 2.8778e-09 -0.000999996)
(-2.4031e-10 9.81836e-10 -0.000999992)
(-7.10155e-10 9.8559e-10 -0.000999992)
(-1.13232e-09 9.84424e-10 -0.000999992)
(-1.47186e-09 9.84188e-10 -0.000999993)
(-1.64839e-09 9.85115e-10 -0.000999994)
(-1.64539e-09 9.92693e-10 -0.000999994)
(-1.46822e-09 1.00228e-09 -0.000999994)
(-1.15214e-09 1.00555e-09 -0.000999995)
(-7.90973e-10 9.9296e-10 -0.000999995)
(-3.00651e-10 9.69852e-10 -0.000999995)