thermo_log      ../DEM/post/thermo.txt

atom_style      granular
atom_modify     map array
communicate     single vel yes

boundary        m m m
newton          off

units           cgs
processors      2 2 1

# read the restart file
read_restart    ../DEM/post/restart/liggghts.restart
WARNING: Restart file version does not match LIGGGHTS version (../read_restart.cpp:507)
WARNING: Restart file used different 3d processor grid (../read_restart.cpp:587)
  orthogonal box = (-1.5 -1.5 -0.1) to (1.5 1.5 5.54)
  2 by 2 by 1 MPI processor grid
  10000 atoms

neighbor        0.1 bin
neigh_modify    delay 0

# Material properties required for granular pair styles
soft_particles yes
fix         m1 all property/global youngsModulus peratomtype 5.e6
fix         m2 all property/global poissonsRatio peratomtype 0.45
fix         m3 all property/global coefficientRestitution peratomtypepair 1 0.3
fix         m4 all property/global coefficientFriction peratomtypepair 1 0.5

# pair style
pair_style  gran model hertz tangential history # Hertzian without cohesion
pair_coeff  * *

# timestep, gravity
timestep    0.00001
fix         gravi all gravity 981 vector 0.0 0.0 -1.0

# walls
fix         zwalls1  all wall/gran model hertz tangential history primitive type 1 zplane 0.0
Resetting global state of Fix history_zwalls1 Style property/atom from restart file info
Resetting per-atom state of Fix history_zwalls1 Style property/atom from restart file info
fix         zwalls2  all wall/gran model hertz tangential history primitive type 1 zplane 5.53
Resetting global state of Fix history_zwalls2 Style property/atom from restart file info
Resetting per-atom state of Fix history_zwalls2 Style property/atom from restart file info
fix         cylwalls all wall/gran model hertz tangential history primitive type 1 zcylinder 1.385 0. 0.
Resetting global state of Fix history_cylwalls Style property/atom from restart file info
Resetting per-atom state of Fix history_cylwalls Style property/atom from restart file info

# change the particles density
set         group all density 2.0
  10000 settings made for density

# cfd coupling
fix         cfd all couple/cfd couple_every 100 mpi
couple_every as specified in LIGGGHTS is overriden by calling external program (../fix_cfd_coupling.cpp:114)
fix         cfd2 all couple/cfd/force

# apply nve integration to all particles that are inserted as single particles
fix         integr all nve/sphere

# center of mass
compute     centerOfMass all com

# compute total dragforce
compute     dragtotal all reduce sum f_dragforce[1] f_dragforce[2] f_dragforce[3]

# screen output
compute         rke all erotate/sphere
thermo_style    custom step atoms ke c_rke vol c_centerOfMass[3] c_dragtotal[1] c_dragtotal[2] c_dragtotal[3]
thermo          10
thermo_modify   lost ignore norm no
compute_modify  thermo_temp dynamic yes
WARNING: Changing thermo_temp compute object. This object is deprecated and will be removed in the future. (../compute.cpp:161)

dump            dmp all custom 5000 ../DEM/post/dump*.liggghts_run id type x y z vx vy vz fx fy fz f_dragforce[1] f_dragforce[2] f_dragforce[3] radius

run             1
Resetting global state of Fix contacthistory Style contacthistory from restart file info
Resetting per-atom state of Fix contacthistory Style contacthistory from restart file info
Setting up run at Tue Mar  7 13:27:49 2023

Memory usage per processor = 10.4515 Mbytes
    Step    Atoms         KinEng            rke         Volume       centerOf       dragtota       dragtota       dragtota 
   10000    10000      7.5970328      3.7032044          50.76     0.74755392              0              0              0 
   10001    10000      7.5789098      3.6983516          50.76     0.74755407              0              0              0 
Loop time of 0.00108969 on 4 procs for 1 steps with 10000 atoms, finish time Tue Mar  7 13:27:49 2023


Pair  time (%) = 0.000831104 (76.2697)
Neigh time (%) = 0 (0)
Comm  time (%) = 5.36625e-05 (4.92456)
Outpt time (%) = 9.35145e-05 (8.58175)
Other time (%) = 0.000111409 (10.2239)

Nlocal:    2500 ave 2513 max 2485 min
Histogram: 1 0 0 0 0 1 1 0 0 1
Nghost:    1003.75 ave 1016 max 998 min
Histogram: 2 0 1 0 0 0 0 0 0 1
Neighs:    47497.8 ave 47805 max 47135 min
Histogram: 1 0 0 0 1 0 0 1 0 1

Total # of neighbors = 189991
Ave neighs/atom = 18.9991
Neighbor list builds = 0
Dangerous builds = 0
run 100    
Setting up run at Tue Mar  7 13:27:49 2023

Memory usage per processor = 10.4518 Mbytes
    Step    Atoms         KinEng            rke         Volume       centerOf       dragtota       dragtota       dragtota 
   10001    10000      7.5789098      3.6983516          50.76     0.74755407              0              0              0 
   10010    10000      7.5060126      3.6830814          50.76     0.74755557              0              0              0 
   10020    10000      7.4380904      3.6746384          50.76     0.74755755              0              0              0 
   10030    10000      7.3936916      3.6696547          50.76     0.74755983              0              0              0 
   10040    10000      7.3648712      3.6663008          50.76     0.74756243              0              0              0 
   10050    10000      7.3370336      3.6508845          50.76     0.74756531              0              0              0 
   10060    10000      7.2911684      3.6166741          50.76     0.74756847              0              0              0 
   10070    10000      7.1182903      3.5752437          50.76     0.74757191              0              0              0 
   10080    10000      6.9745618      3.5590654          50.76     0.74757561              0              0              0 
   10090    10000       6.909019      3.5308905          50.76     0.74757955              0              0              0 
CFD Coupling established at step 10100
   10100    10000      6.8673371      3.5232592          50.76     0.74758372              0              0              0 
   10101    10000      6.8622075      3.5198083          50.76     0.74758415              0              0              0 
Loop time of 0.0913103 on 4 procs for 100 steps with 10000 atoms, finish time Tue Mar  7 13:27:49 2023


Pair  time (%) = 0.0772383 (84.5888)
Neigh time (%) = 0 (0)
Comm  time (%) = 0.00368611 (4.03691)
Outpt time (%) = 0.000793182 (0.868666)
Other time (%) = 0.00959274 (10.5056)

Nlocal:    2500 ave 2513 max 2485 min
Histogram: 1 0 0 0 0 1 1 0 0 1
Nghost:    1003.75 ave 1016 max 998 min
Histogram: 2 0 1 0 0 0 0 0 0 1
Neighs:    47498.2 ave 47805 max 47134 min
Histogram: 1 0 0 0 1 0 0 1 0 1

Total # of neighbors = 189993
Ave neighs/atom = 18.9993
Neighbor list builds = 0
Dangerous builds = 0
run 100    
Setting up run at Tue Mar  7 13:27:50 2023

Memory usage per processor = 10.4518 Mbytes
    Step    Atoms         KinEng            rke         Volume       centerOf       dragtota       dragtota       dragtota 
   10101    10000      6.8622075      3.5198083          50.76     0.74758415     -7.0080302      24.281342     -163.80729 
   10110    10000      6.7385343      3.4566927          50.76     0.74758804     -7.0080302      24.281342     -163.80729 
   10120    10000      6.6305481      3.4104706          50.76     0.74759238     -7.0080302      24.281342     -163.80729 
   10130    10000      6.4821759      3.3516178          50.76     0.74759674     -7.0080302      24.281342     -163.80729 
   10140    10000      6.3701772      3.2923318          50.76     0.74760107     -7.0080302      24.281342     -163.80729 
   10150    10000      6.2291525      3.2455221          50.76     0.74760538     -7.0080302      24.281342     -163.80729 
   10160    10000      6.1293004      3.2127489          50.76     0.74760964     -7.0080302      24.281342     -163.80729 
   10170    10000      6.0648784      3.1856821          50.76     0.74761385     -7.0080302      24.281342     -163.80729 
   10180    10000      5.9932888      3.1443112          50.76     0.74761797     -7.0080302      24.281342     -163.80729 
   10190    10000      5.9342503      3.1010995          50.76     0.74762199     -7.0080302      24.281342     -163.80729 
CFD Coupling established at step 10200
   10200    10000      5.8963637      3.0613708          50.76     0.74762588     -7.0080302      24.281342     -163.80729 
   10201    10000      5.8931653      3.0567778          50.76     0.74762626     -7.0080302      24.281342     -163.80729 
Loop time of 0.0913501 on 4 procs for 100 steps with 10000 atoms, finish time Tue Mar  7 13:27:50 2023


Pair  time (%) = 0.0772948 (84.6138)
Neigh time (%) = 0 (0)
Comm  time (%) = 0.0036325 (3.97646)
Outpt time (%) = 0.000794391 (0.869612)
Other time (%) = 0.00962839 (10.5401)

Nlocal:    2500 ave 2513 max 2484 min
Histogram: 1 0 0 0 0 1 1 0 0 1
Nghost:    1003.5 ave 1016 max 997 min
Histogram: 1 1 1 0 0 0 0 0 0 1
Neighs:    47515 ave 47812 max 47134 min
Histogram: 1 0 0 0 1 0 0 1 0 1

Total # of neighbors = 190060
Ave neighs/atom = 19.006
Neighbor list builds = 0
Dangerous builds = 0
run 100    
Setting up run at Tue Mar  7 13:27:50 2023

Memory usage per processor = 10.4518 Mbytes
    Step    Atoms         KinEng            rke         Volume       centerOf       dragtota       dragtota       dragtota 
   10201    10000      5.8931653      3.0567778          50.76     0.74762626     -37.346379      17.955454      1354.7243 
   10210    10000      5.8564002       3.007581          50.76      0.7476302     -37.346379      17.955454      1354.7243 
   10220    10000      5.8206686      2.9732733          50.76     0.74763576     -37.346379      17.955454      1354.7243 
   10230    10000      5.7853873      2.9397778          50.76      0.7476425     -37.346379      17.955454      1354.7243 
   10240    10000      5.7429109      2.9102032          50.76     0.74765036     -37.346379      17.955454      1354.7243 
   10250    10000      5.7054754      2.8887776          50.76     0.74765928     -37.346379      17.955454      1354.7243 
   10260    10000      5.6932691      2.8739875          50.76     0.74766919     -37.346379      17.955454      1354.7243 
   10270    10000      5.5959593      2.8572198          50.76     0.74768003     -37.346379      17.955454      1354.7243 
   10280    10000      5.3167644      2.8593963          50.76     0.74769177     -37.346379      17.955454      1354.7243 
   10290    10000      5.1831724      2.8857025          50.76     0.74770434     -37.346379      17.955454      1354.7243 
CFD Coupling established at step 10300
   10300    10000      5.0931493       2.877252          50.76     0.74771768     -37.346379      17.955454      1354.7243 
   10301    10000      5.0866811      2.8730573          50.76     0.74771906     -37.346379      17.955454      1354.7243 
Loop time of 0.0902925 on 4 procs for 100 steps with 10000 atoms, finish time Tue Mar  7 13:27:50 2023


Pair  time (%) = 0.0769765 (85.2524)
Neigh time (%) = 0 (0)
Comm  time (%) = 0.00354553 (3.92671)
Outpt time (%) = 0.000759735 (0.841416)
Other time (%) = 0.00901073 (9.97949)

Nlocal:    2500 ave 2514 max 2484 min
Histogram: 1 0 0 0 0 1 1 0 0 1
Nghost:    1002.75 ave 1015 max 998 min
Histogram: 2 1 0 0 0 0 0 0 0 1
Neighs:    47538.5 ave 47842 max 47162 min
Histogram: 1 0 0 0 1 0 0 1 0 1

Total # of neighbors = 190154
Ave neighs/atom = 19.0154
Neighbor list builds = 0
Dangerous builds = 0
run 100    
Setting up run at Tue Mar  7 13:27:50 2023

Memory usage per processor = 10.4518 Mbytes
    Step    Atoms         KinEng            rke         Volume       centerOf       dragtota       dragtota       dragtota 
   10301    10000      5.0866811      2.8730573          50.76     0.74771906     -33.348748      1.9298467      1125.5041 
   10310    10000      4.9595654      2.8012627          50.76     0.74773161     -33.348748      1.9298467      1125.5041 
   10320    10000       4.787894      2.7415589          50.76     0.74774591     -33.348748      1.9298467      1125.5041 
   10330    10000      4.6760857      2.7095019          50.76     0.74776053     -33.348748      1.9298467      1125.5041 
   10340    10000      4.4707179      2.7138883          50.76     0.74777541     -33.348748      1.9298467      1125.5041 
   10350    10000      4.3932921      2.6903113          50.76      0.7477905     -33.348748      1.9298467      1125.5041 
   10360    10000      4.3139955      2.6216912          50.76     0.74780577     -33.348748      1.9298467      1125.5041 
   10370    10000      4.2546579      2.5932406          50.76     0.74782118     -33.348748      1.9298467      1125.5041 
   10380    10000      4.2173734      2.5779161          50.76     0.74783667     -33.348748      1.9298467      1125.5041 
   10390    10000      4.1845376      2.5599898          50.76     0.74785218     -33.348748      1.9298467      1125.5041 
CFD Coupling established at step 10400
   10400    10000      4.1611822      2.5494285          50.76     0.74786767     -33.348748      1.9298467      1125.5041 
   10401    10000      4.1590702      2.5486223          50.76     0.74786921     -33.348748      1.9298467      1125.5041 
Loop time of 0.0906356 on 4 procs for 100 steps with 10000 atoms, finish time Tue Mar  7 13:27:50 2023


Pair  time (%) = 0.0773637 (85.3568)
Neigh time (%) = 0 (0)
Comm  time (%) = 0.00353706 (3.9025)
Outpt time (%) = 0.000758311 (0.836659)
Other time (%) = 0.00897656 (9.90401)

Nlocal:    2500 ave 2514 max 2484 min
Histogram: 1 0 0 0 0 1 1 0 0 1
Nghost:    1002.5 ave 1014 max 998 min
Histogram: 2 1 0 0 0 0 0 0 0 1
Neighs:    47545.2 ave 47844 max 47164 min
Histogram: 1 0 0 0 1 0 0 1 0 1

Total # of neighbors = 190181
Ave neighs/atom = 19.0181
Neighbor list builds = 0
Dangerous builds = 0
run 100    
Setting up run at Tue Mar  7 13:27:50 2023

Memory usage per processor = 10.4518 Mbytes
    Step    Atoms         KinEng            rke         Volume       centerOf       dragtota       dragtota       dragtota 
   10401    10000      4.1590702      2.5486223          50.76     0.74786921     -35.909805     -21.794796      1203.2092 
   10410    10000      4.1328578      2.5386129          50.76     0.74788313     -35.909805     -21.794796      1203.2092 
   10420    10000      4.0856963      2.5227533          50.76     0.74789857     -35.909805     -21.794796      1203.2092 
   10430    10000       4.049235      2.5112025          50.76     0.74791396     -35.909805     -21.794796      1203.2092 
   10440    10000      3.9996147      2.5017262          50.76     0.74792926     -35.909805     -21.794796      1203.2092 
   10450    10000      3.9247478      2.4851088          50.76     0.74794442     -35.909805     -21.794796      1203.2092 
   10460    10000      3.8242835      2.4443891          50.76     0.74795944     -35.909805     -21.794796      1203.2092 
   10470    10000      3.6274958       2.399889          50.76     0.74797426     -35.909805     -21.794796      1203.2092 
   10480    10000      3.5183588      2.3804177          50.76     0.74798887     -35.909805     -21.794796      1203.2092 
   10490    10000      3.4539111      2.3539841          50.76     0.74800323     -35.909805     -21.794796      1203.2092 
CFD Coupling established at step 10500
   10500    10000      3.4152874      2.3285983          50.76     0.74801731     -35.909805     -21.794796      1203.2092 
   10501    10000      3.4123955      2.3265673          50.76      0.7480187     -35.909805     -21.794796      1203.2092 
Loop time of 0.0909791 on 4 procs for 100 steps with 10000 atoms, finish time Tue Mar  7 13:27:50 2023


Pair  time (%) = 0.0773495 (85.019)
Neigh time (%) = 0 (0)
Comm  time (%) = 0.00354968 (3.90165)
Outpt time (%) = 0.000779747 (0.857061)
Other time (%) = 0.00930017 (10.2223)

Nlocal:    2500 ave 2514 max 2484 min
Histogram: 1 0 0 0 0 1 1 0 0 1
Nghost:    1002.75 ave 1014 max 998 min
Histogram: 2 1 0 0 0 0 0 0 0 1
Neighs:    47555 ave 47859 max 47168 min
Histogram: 1 0 0 0 0 1 0 1 0 1

Total # of neighbors = 190220
Ave neighs/atom = 19.022
Neighbor list builds = 0
Dangerous builds = 0
run 100    
Setting up run at Tue Mar  7 13:27:50 2023

Memory usage per processor = 10.4518 Mbytes
    Step    Atoms         KinEng            rke         Volume       centerOf       dragtota       dragtota       dragtota 
   10501    10000      3.4123955      2.3265673          50.76      0.7480187     -26.490522       -31.0844      1107.0908 
   10510    10000      3.3763269      2.3076619          50.76     0.74803105     -26.490522       -31.0844      1107.0908 
   10520    10000      3.3396715      2.2808455          50.76     0.74804438     -26.490522       -31.0844      1107.0908 
   10530    10000      3.2904165      2.2448827          50.76     0.74805727     -26.490522       -31.0844      1107.0908 
   10540    10000      3.2454491      2.2251746          50.76     0.74806972     -26.490522       -31.0844      1107.0908 
   10550    10000      3.2060439      2.2141017          50.76     0.74808169     -26.490522       -31.0844      1107.0908 
   10560    10000      3.1298323       2.186792          50.76     0.74809318     -26.490522       -31.0844      1107.0908 
   10570    10000      3.0740378      2.1763673          50.76     0.74810417     -26.490522       -31.0844      1107.0908 
   10580    10000      3.0445716      2.1670897          50.76     0.74811466     -26.490522       -31.0844      1107.0908 
   10590    10000      3.0210988      2.1528113          50.76     0.74812464     -26.490522       -31.0844      1107.0908 
CFD Coupling established at step 10600
   10600    10000      2.9910391      2.1357783          50.76     0.74813409     -26.490522       -31.0844      1107.0908 
   10601    10000      2.9878857      2.1342548          50.76     0.74813501     -26.490522       -31.0844      1107.0908 
Loop time of 0.090778 on 4 procs for 100 steps with 10000 atoms, finish time Tue Mar  7 13:27:50 2023


Pair  time (%) = 0.0772958 (85.1482)
Neigh time (%) = 0 (0)
Comm  time (%) = 0.00354521 (3.90537)
Outpt time (%) = 0.000775658 (0.854456)
Other time (%) = 0.00916131 (10.092)

Nlocal:    2500 ave 2514 max 2484 min
Histogram: 1 0 0 0 0 1 1 0 0 1
Nghost:    1002.75 ave 1014 max 998 min
Histogram: 2 1 0 0 0 0 0 0 0 1
Neighs:    47557.2 ave 47863 max 47160 min
Histogram: 1 0 0 0 0 1 0 1 0 1

Total # of neighbors = 190229
Ave neighs/atom = 19.0229
Neighbor list builds = 0
Dangerous builds = 0
run 100    
Setting up run at Tue Mar  7 13:27:50 2023

Memory usage per processor = 10.4518 Mbytes
    Step    Atoms         KinEng            rke         Volume       centerOf       dragtota       dragtota       dragtota 
   10601    10000      2.9878857      2.1342548          50.76     0.74813501     -25.887333     -12.791955      1165.6196 
   10610    10000      2.9489251       2.110513          50.76     0.74814304     -25.887333     -12.791955      1165.6196 
   10620    10000      2.9039338       2.080821          50.76     0.74815152     -25.887333     -12.791955      1165.6196 
   10630    10000      2.8570478      2.0556521          50.76     0.74815951     -25.887333     -12.791955      1165.6196 
   10640    10000      2.8248137      2.0397565          50.76     0.74816701     -25.887333     -12.791955      1165.6196 
   10650    10000      2.8023731      2.0312496          50.76     0.74817402     -25.887333     -12.791955      1165.6196 
   10660    10000      2.7729951       2.012673          50.76     0.74818052     -25.887333     -12.791955      1165.6196 
   10670    10000      2.7390098        1.99865          50.76     0.74818651     -25.887333     -12.791955      1165.6196 
   10680    10000      2.7092412      1.9880543          50.76     0.74819198     -25.887333     -12.791955      1165.6196 
   10690    10000      2.6832832      1.9808997          50.76     0.74819693     -25.887333     -12.791955      1165.6196 
CFD Coupling established at step 10700
   10700    10000      2.6617812      1.9735837          50.76     0.74820135     -25.887333     -12.791955      1165.6196 
   10701    10000      2.6596105      1.9724061          50.76     0.74820176     -25.887333     -12.791955      1165.6196 
Loop time of 0.0906328 on 4 procs for 100 steps with 10000 atoms, finish time Tue Mar  7 13:27:50 2023


Pair  time (%) = 0.0771289 (85.1004)
Neigh time (%) = 0 (0)
Comm  time (%) = 0.00355287 (3.92007)
Outpt time (%) = 0.000784152 (0.865196)
Other time (%) = 0.00916693 (10.1144)

Nlocal:    2500 ave 2514 max 2484 min
Histogram: 1 0 0 0 0 1 1 0 0 1
Nghost:    1002.5 ave 1014 max 997 min
Histogram: 2 0 1 0 0 0 0 0 0 1
Neighs:    47562.5 ave 47870 max 47169 min
Histogram: 1 0 0 0 0 1 0 1 0 1

Total # of neighbors = 190250
Ave neighs/atom = 19.025
Neighbor list builds = 0
Dangerous builds = 0
run 100    
Setting up run at Tue Mar  7 13:27:50 2023

Memory usage per processor = 10.4518 Mbytes
    Step    Atoms         KinEng            rke         Volume       centerOf       dragtota       dragtota       dragtota 
   10701    10000      2.6596105      1.9724061          50.76     0.74820176      -13.21667     -4.6072384      1223.3831 
   10710    10000      2.6392954      1.9618931          50.76     0.74820526      -13.21667     -4.6072384      1223.3831 
   10720    10000      2.6225037      1.9520602          50.76     0.74820869      -13.21667     -4.6072384      1223.3831 
   10730    10000      2.6083649      1.9425448          50.76     0.74821165      -13.21667     -4.6072384      1223.3831 
   10740    10000      2.5929157      1.9307492          50.76     0.74821413      -13.21667     -4.6072384      1223.3831 
   10750    10000      2.5784704       1.918785          50.76     0.74821613      -13.21667     -4.6072384      1223.3831 
   10760    10000      2.5647913      1.9058827          50.76     0.74821765      -13.21667     -4.6072384      1223.3831 
   10770    10000      2.5379213       1.891545          50.76     0.74821869      -13.21667     -4.6072384      1223.3831 
   10780    10000      2.5069586      1.8752554          50.76     0.74821925      -13.21667     -4.6072384      1223.3831 
   10790    10000       2.488305      1.8661298          50.76     0.74821933      -13.21667     -4.6072384      1223.3831 
CFD Coupling established at step 10800
   10800    10000      2.4722515      1.8566802          50.76     0.74821893      -13.21667     -4.6072384      1223.3831 
   10801    10000      2.4708376      1.8558157          50.76     0.74821886      -13.21667     -4.6072384      1223.3831 
Loop time of 0.0904355 on 4 procs for 100 steps with 10000 atoms, finish time Tue Mar  7 13:27:50 2023


Pair  time (%) = 0.0773682 (85.5506)
Neigh time (%) = 0 (0)
Comm  time (%) = 0.00354449 (3.91935)
Outpt time (%) = 0.000737637 (0.815649)
Other time (%) = 0.00878523 (9.71436)

Nlocal:    2500 ave 2513 max 2485 min
Histogram: 1 0 0 0 0 1 1 0 0 1
Nghost:    1002.5 ave 1014 max 998 min
Histogram: 2 1 0 0 0 0 0 0 0 1
Neighs:    47566.2 ave 47862 max 47183 min
Histogram: 1 0 0 0 0 1 1 0 0 1

Total # of neighbors = 190265
Ave neighs/atom = 19.0265
Neighbor list builds = 0
Dangerous builds = 0
run 100    
Setting up run at Tue Mar  7 13:27:50 2023

Memory usage per processor = 10.4518 Mbytes
    Step    Atoms         KinEng            rke         Volume       centerOf       dragtota       dragtota       dragtota 
   10801    10000      2.4708376      1.8558157          50.76     0.74821886     -15.203069     -3.1703027      1320.4315 
   10810    10000      2.4445134      1.8414611          50.76     0.74821808     -15.203069     -3.1703027      1320.4315 
   10820    10000      2.3996996      1.8218254          50.76     0.74821685     -15.203069     -3.1703027      1320.4315 
   10830    10000      2.3393768      1.7852839          50.76     0.74821522     -15.203069     -3.1703027      1320.4315 
   10840    10000      2.3052425      1.7716959          50.76      0.7482132     -15.203069     -3.1703027      1320.4315 
   10850    10000      2.2874974      1.7647348          50.76     0.74821079     -15.203069     -3.1703027      1320.4315 
   10860    10000      2.2723796      1.7605059          50.76     0.74820799     -15.203069     -3.1703027      1320.4315 
   10870    10000      2.2595043      1.7511082          50.76      0.7482048     -15.203069     -3.1703027      1320.4315 
   10880    10000      2.2392316      1.7414511          50.76     0.74820123     -15.203069     -3.1703027      1320.4315 
   10890    10000      2.2203245       1.732513          50.76     0.74819727     -15.203069     -3.1703027      1320.4315 
CFD Coupling established at step 10900
   10900    10000      2.1998819      1.7198539          50.76     0.74819292     -15.203069     -3.1703027      1320.4315 
   10901    10000      2.1980933      1.7184713          50.76     0.74819247     -15.203069     -3.1703027      1320.4315 
Loop time of 0.09086 on 4 procs for 100 steps with 10000 atoms, finish time Tue Mar  7 13:27:50 2023


Pair  time (%) = 0.0773017 (85.0778)
Neigh time (%) = 0 (0)
Comm  time (%) = 0.00355481 (3.9124)
Outpt time (%) = 0.000786975 (0.86614)
Other time (%) = 0.00921657 (10.1437)

Nlocal:    2500 ave 2513 max 2485 min
Histogram: 1 0 0 0 0 1 1 0 0 1
Nghost:    1002.75 ave 1015 max 998 min
Histogram: 2 1 0 0 0 0 0 0 0 1
Neighs:    47568.5 ave 47879 max 47181 min
Histogram: 1 0 0 0 0 1 1 0 0 1

Total # of neighbors = 190274
Ave neighs/atom = 19.0274
Neighbor list builds = 0
Dangerous builds = 0
run 100    
Setting up run at Tue Mar  7 13:27:50 2023

Memory usage per processor = 10.4556 Mbytes
    Step    Atoms         KinEng            rke         Volume       centerOf       dragtota       dragtota       dragtota 
   10901    10000      2.1980933      1.7184713          50.76     0.74819247     -24.867207     -13.408747      1417.9003 
   10910    10000      2.1800345      1.6963444          50.76     0.74818823     -24.867207     -13.408747      1417.9003 
   10920    10000      2.1621772       1.669178          50.76     0.74818326     -24.867207     -13.408747      1417.9003 
   10930    10000      2.1484234      1.6490176          50.76     0.74817799     -24.867207     -13.408747      1417.9003 
   10940    10000      2.1371453       1.633291          50.76     0.74817244     -24.867207     -13.408747      1417.9003 
   10950    10000      2.1265898      1.6142062          50.76      0.7481666     -24.867207     -13.408747      1417.9003 
   10960    10000      2.1177301      1.5996498          50.76     0.74816049     -24.867207     -13.408747      1417.9003 
   10970    10000      2.1139128      1.5864615          50.76     0.74815411     -24.867207     -13.408747      1417.9003 
   10980    10000      2.1131935      1.5754352          50.76     0.74814746     -24.867207     -13.408747      1417.9003 
   10990    10000      2.1136186      1.5669397          50.76     0.74814055     -24.867207     -13.408747      1417.9003 
CFD Coupling established at step 11000
   11000    10000      2.1110482      1.5594924          50.76     0.74813338     -24.867207     -13.408747      1417.9003 
   11001    10000      2.1094633      1.5582248          50.76     0.74813265     -24.867207     -13.408747      1417.9003 
Loop time of 0.0903739 on 4 procs for 100 steps with 10000 atoms, finish time Tue Mar  7 13:27:51 2023


Pair  time (%) = 0.0771842 (85.4054)
Neigh time (%) = 0 (0)
Comm  time (%) = 0.00355233 (3.9307)
Outpt time (%) = 0.000752334 (0.832469)
Other time (%) = 0.008885 (9.83138)

Nlocal:    2500 ave 2513 max 2485 min
Histogram: 1 0 0 0 0 1 1 0 0 1
Nghost:    1003.25 ave 1015 max 998 min
Histogram: 2 1 0 0 0 0 0 0 0 1
Neighs:    47581.5 ave 47883 max 47192 min
Histogram: 1 0 0 0 0 1 0 1 0 1

Total # of neighbors = 190326
Ave neighs/atom = 19.0326
Neighbor list builds = 0
Dangerous builds = 0
run 100    
Setting up run at Tue Mar  7 13:27:51 2023

Memory usage per processor = 10.4556 Mbytes
    Step    Atoms         KinEng            rke         Volume       centerOf       dragtota       dragtota       dragtota 
   11001    10000      2.1094633      1.5582248          50.76     0.74813265     -12.253579     -18.844795      1478.6992 
   11010    10000      2.0948115      1.5474678          50.76     0.74812597     -12.253579     -18.844795      1478.6992 
   11020    10000      2.0847412       1.539027          50.76     0.74811837     -12.253579     -18.844795      1478.6992 
   11030    10000      2.0790441      1.5338762          50.76     0.74811058     -12.253579     -18.844795      1478.6992 
   11040    10000      2.0808226      1.5303444          50.76     0.74810261     -12.253579     -18.844795      1478.6992 
   11050    10000      2.0868509      1.5277134          50.76     0.74809446     -12.253579     -18.844795      1478.6992 
   11060    10000      2.0864713       1.518146          50.76     0.74808613     -12.253579     -18.844795      1478.6992 
   11070    10000      2.0859349      1.5099625          50.76     0.74807764     -12.253579     -18.844795      1478.6992 
   11080    10000      2.0900608      1.5039501          50.76     0.74806899     -12.253579     -18.844795      1478.6992 
   11090    10000      2.0966367      1.4972083          50.76     0.74806017     -12.253579     -18.844795      1478.6992 
CFD Coupling established at step 11100
   11100    10000      2.1021458      1.4892108          50.76     0.74805121     -12.253579     -18.844795      1478.6992 
   11101    10000      2.1025989      1.4882072          50.76      0.7480503     -12.253579     -18.844795      1478.6992 
Loop time of 0.0902061 on 4 procs for 100 steps with 10000 atoms, finish time Tue Mar  7 13:27:51 2023


Pair  time (%) = 0.0771294 (85.5036)
Neigh time (%) = 0 (0)
Comm  time (%) = 0.00354864 (3.93392)
Outpt time (%) = 0.000737585 (0.817667)
Other time (%) = 0.00879042 (9.74483)

Nlocal:    2500 ave 2513 max 2485 min
Histogram: 1 0 0 0 0 1 1 0 0 1
Nghost:    1003 ave 1015 max 998 min
Histogram: 2 1 0 0 0 0 0 0 0 1
Neighs:    47593.2 ave 47902 max 47203 min
Histogram: 1 0 0 0 0 1 1 0 0 1

Total # of neighbors = 190373
Ave neighs/atom = 19.0373
Neighbor list builds = 0
Dangerous builds = 0
run 100    
Setting up run at Tue Mar  7 13:27:51 2023

Memory usage per processor = 10.4556 Mbytes
    Step    Atoms         KinEng            rke         Volume       centerOf       dragtota       dragtota       dragtota 
   11101    10000      2.1025989      1.4882072          50.76      0.7480503     -3.2963823     -13.637959      1523.4216 
   11110    10000      2.1037792      1.4755677          50.76      0.7480421     -3.2963823     -13.637959      1523.4216 
   11120    10000      2.0992919      1.4421522          50.76     0.74803289     -3.2963823     -13.637959      1523.4216 
   11130    10000      2.0966452      1.4184418          50.76     0.74802358     -3.2963823     -13.637959      1523.4216 
   11140    10000      2.0970177      1.4008486          50.76     0.74801417     -3.2963823     -13.637959      1523.4216 
   11150    10000      2.0956566      1.3830687          50.76     0.74800468     -3.2963823     -13.637959      1523.4216 
   11160    10000      2.0934178      1.3685131          50.76      0.7479951     -3.2963823     -13.637959      1523.4216 
   11170    10000      2.0934809      1.3595974          50.76     0.74798544     -3.2963823     -13.637959      1523.4216 
   11180    10000       2.081843      1.3491178          50.76     0.74797572     -3.2963823     -13.637959      1523.4216 
   11190    10000      2.0710393      1.3451937          50.76     0.74796593     -3.2963823     -13.637959      1523.4216 
CFD Coupling established at step 11200
   11200    10000      2.0608149      1.3428044          50.76     0.74795608     -3.2963823     -13.637959      1523.4216 
   11201    10000      2.0597905      1.3426184          50.76      0.7479551     -3.2963823     -13.637959      1523.4216 
Loop time of 0.0904745 on 4 procs for 100 steps with 10000 atoms, finish time Tue Mar  7 13:27:51 2023


Pair  time (%) = 0.0770641 (85.1777)
Neigh time (%) = 0 (0)
Comm  time (%) = 0.00354333 (3.91639)
Outpt time (%) = 0.00076137 (0.84153)
Other time (%) = 0.00910567 (10.0643)

Nlocal:    2500 ave 2513 max 2484 min
Histogram: 1 0 0 0 0 1 1 0 0 1
Nghost:    1003 ave 1014 max 998 min
Histogram: 2 0 1 0 0 0 0 0 0 1
Neighs:    47615 ave 47916 max 47224 min
Histogram: 1 0 0 0 0 1 1 0 0 1

Total # of neighbors = 190460
Ave neighs/atom = 19.046
Neighbor list builds = 0
Dangerous builds = 0
run 100    
Setting up run at Tue Mar  7 13:27:51 2023

Memory usage per processor = 10.4556 Mbytes
    Step    Atoms         KinEng            rke         Volume       centerOf       dragtota       dragtota       dragtota 
   11201    10000      2.0597905      1.3426184          50.76      0.7479551     -10.793751     -23.141903      2980.8168 
   11210    10000      2.0432661        1.34005          50.76     0.74794675     -10.793751     -23.141903      2980.8168 
   11220    10000      2.0318223       1.336262          50.76     0.74793873     -10.793751     -23.141903      2980.8168 
   11230    10000      2.0251921      1.3315204          50.76       0.747932     -10.793751     -23.141903      2980.8168 
   11240    10000      2.0167716      1.3221015          50.76      0.7479265     -10.793751     -23.141903      2980.8168 
   11250    10000      2.0080272      1.3148468          50.76     0.74792221     -10.793751     -23.141903      2980.8168 
   11260    10000        2.00009        1.30955          50.76      0.7479191     -10.793751     -23.141903      2980.8168 
   11270    10000      1.9948577      1.3034232          50.76     0.74791711     -10.793751     -23.141903      2980.8168 
   11280    10000      1.9946041      1.2985306          50.76     0.74791622     -10.793751     -23.141903      2980.8168 
   11290    10000      1.9992337      1.2943014          50.76     0.74791638     -10.793751     -23.141903      2980.8168 
CFD Coupling established at step 11300
   11300    10000      2.0039488      1.2890511          50.76     0.74791755     -10.793751     -23.141903      2980.8168 
   11301    10000      2.0045166      1.2886483          50.76     0.74791773     -10.793751     -23.141903      2980.8168 
Loop time of 0.0905371 on 4 procs for 100 steps with 10000 atoms, finish time Tue Mar  7 13:27:51 2023


Pair  time (%) = 0.0771431 (85.2061)
Neigh time (%) = 0 (0)
Comm  time (%) = 0.00355065 (3.92177)
Outpt time (%) = 0.000775738 (0.856818)
Other time (%) = 0.00906755 (10.0153)

Nlocal:    2500 ave 2513 max 2484 min
Histogram: 1 0 0 0 0 1 1 0 0 1
Nghost:    1002.75 ave 1013 max 998 min
Histogram: 2 0 1 0 0 0 0 0 0 1
Neighs:    47635.2 ave 47935 max 47249 min
Histogram: 1 0 0 0 0 1 1 0 0 1

Total # of neighbors = 190541
Ave neighs/atom = 19.0541
Neighbor list builds = 0
Dangerous builds = 0
run 100    
Setting up run at Tue Mar  7 13:27:51 2023

Memory usage per processor = 10.4556 Mbytes
    Step    Atoms         KinEng            rke         Volume       centerOf       dragtota       dragtota       dragtota 
   11301    10000      2.0045166      1.2886483          50.76     0.74791773     -11.725644     -21.271972      2749.4001 
   11310    10000      2.0031358      1.2804163          50.76      0.7479196     -11.725644     -21.271972      2749.4001 
   11320    10000      1.9983761      1.2720736          50.76     0.74792237     -11.725644     -21.271972      2749.4001 
   11330    10000       1.989928      1.2653499          50.76      0.7479258     -11.725644     -21.271972      2749.4001 
   11340    10000      1.9787317      1.2546412          50.76     0.74792987     -11.725644     -21.271972      2749.4001 
   11350    10000      1.9670754      1.2459414          50.76     0.74793456     -11.725644     -21.271972      2749.4001 
   11360    10000      1.9533868      1.2385261          50.76     0.74793982     -11.725644     -21.271972      2749.4001 
   11370    10000      1.9414597      1.2266113          50.76     0.74794563     -11.725644     -21.271972      2749.4001 
   11380    10000      1.9286886      1.2173148          50.76     0.74795194     -11.725644     -21.271972      2749.4001 
   11390    10000      1.9044388      1.2069749          50.76     0.74795874     -11.725644     -21.271972      2749.4001 
CFD Coupling established at step 11400
   11400    10000      1.8924341      1.1995003          50.76     0.74796599     -11.725644     -21.271972      2749.4001 
   11401    10000      1.8917927      1.1988857          50.76     0.74796674     -11.725644     -21.271972      2749.4001 
Loop time of 0.0910844 on 4 procs for 100 steps with 10000 atoms, finish time Tue Mar  7 13:27:51 2023


Pair  time (%) = 0.0776737 (85.2767)
Neigh time (%) = 0 (0)
Comm  time (%) = 0.00354113 (3.88775)
Outpt time (%) = 0.000765219 (0.840122)
Other time (%) = 0.00910427 (9.99542)

Nlocal:    2500 ave 2513 max 2484 min
Histogram: 1 0 0 0 0 1 1 0 0 1
Nghost:    1002.75 ave 1012 max 998 min
Histogram: 2 0 1 0 0 0 0 0 0 1
Neighs:    47651.8 ave 47958 max 47264 min
Histogram: 1 0 0 0 0 0 2 0 0 1

Total # of neighbors = 190607
Ave neighs/atom = 19.0607
Neighbor list builds = 0
Dangerous builds = 0
run 100    
Setting up run at Tue Mar  7 13:27:51 2023

Memory usage per processor = 10.4556 Mbytes
    Step    Atoms         KinEng            rke         Volume       centerOf       dragtota       dragtota       dragtota 
   11401    10000      1.8917927      1.1988857          50.76     0.74796674     -15.554822     -18.716042      2759.9859 
   11410    10000      1.8849725      1.1917163          50.76     0.74797366     -15.554822     -18.716042      2759.9859 
   11420    10000      1.8816138      1.1840988          50.76     0.74798174     -15.554822     -18.716042      2759.9859 
   11430    10000      1.8811567      1.1785691          50.76      0.7479902     -15.554822     -18.716042      2759.9859 
   11440    10000      1.8816429      1.1724207          50.76     0.74799902     -15.554822     -18.716042      2759.9859 
   11450    10000      1.8731624      1.1629003          50.76     0.74800816     -15.554822     -18.716042      2759.9859 
   11460    10000      1.8662233      1.1554483          50.76      0.7480176     -15.554822     -18.716042      2759.9859 
   11470    10000      1.8612177      1.1481817          50.76     0.74802732     -15.554822     -18.716042      2759.9859 
   11480    10000       1.859055      1.1433435          50.76      0.7480373     -15.554822     -18.716042      2759.9859 
   11490    10000      1.8571772      1.1400184          50.76     0.74804751     -15.554822     -18.716042      2759.9859 
CFD Coupling established at step 11500
   11500    10000       1.856801      1.1370168          50.76     0.74805793     -15.554822     -18.716042      2759.9859 
   11501    10000      1.8565395      1.1365296          50.76     0.74805899     -15.554822     -18.716042      2759.9859 
Loop time of 0.0911847 on 4 procs for 100 steps with 10000 atoms, finish time Tue Mar  7 13:27:51 2023


Pair  time (%) = 0.0778869 (85.4166)
Neigh time (%) = 0 (0)
Comm  time (%) = 0.00353189 (3.87333)
Outpt time (%) = 0.000750324 (0.822862)
Other time (%) = 0.00901561 (9.8872)

Nlocal:    2500 ave 2513 max 2484 min
Histogram: 1 0 0 0 0 1 1 0 0 1
Nghost:    1002.5 ave 1011 max 998 min
Histogram: 2 0 0 1 0 0 0 0 0 1
Neighs:    47661.8 ave 47965 max 47274 min
Histogram: 1 0 0 0 0 0 2 0 0 1

Total # of neighbors = 190647
Ave neighs/atom = 19.0647
Neighbor list builds = 0
Dangerous builds = 0
run 100    
Setting up run at Tue Mar  7 13:27:51 2023

Memory usage per processor = 10.4556 Mbytes
    Step    Atoms         KinEng            rke         Volume       centerOf       dragtota       dragtota       dragtota 
   11501    10000      1.8565395      1.1365296          50.76     0.74805899     -10.499817     -20.161495      2629.3278 
   11510    10000        1.85088       1.131299          50.76      0.7480685     -10.499817     -20.161495      2629.3278 
   11520    10000      1.8474046      1.1267309          50.76     0.74807912     -10.499817     -20.161495      2629.3278 
   11530    10000      1.8452342      1.1226387          50.76     0.74808978     -10.499817     -20.161495      2629.3278 
   11540    10000      1.8400509      1.1143504          50.76     0.74810047     -10.499817     -20.161495      2629.3278 
   11550    10000      1.8296366      1.1039289          50.76     0.74811117     -10.499817     -20.161495      2629.3278 
   11560    10000        1.82515      1.0959064          50.76     0.74812187     -10.499817     -20.161495      2629.3278 
   11570    10000      1.8055346      1.0764896          50.76     0.74813256     -10.499817     -20.161495      2629.3278 
   11580    10000      1.7768459      1.0607372          50.76     0.74814323     -10.499817     -20.161495      2629.3278 
   11590    10000      1.7607027      1.0536334          50.76     0.74815386     -10.499817     -20.161495      2629.3278 
CFD Coupling established at step 11600
   11600    10000      1.7462695      1.0498855          50.76     0.74816446     -10.499817     -20.161495      2629.3278 
   11601    10000      1.7446998      1.0496046          50.76     0.74816552     -10.499817     -20.161495      2629.3278 
Loop time of 0.0915661 on 4 procs for 100 steps with 10000 atoms, finish time Tue Mar  7 13:27:51 2023


Pair  time (%) = 0.0779165 (85.0932)
Neigh time (%) = 0 (0)
Comm  time (%) = 0.00353954 (3.86556)
Outpt time (%) = 0.000788732 (0.86138)
Other time (%) = 0.00932127 (10.1798)

Nlocal:    2500 ave 2513 max 2484 min
Histogram: 1 0 0 0 0 1 1 0 0 1
Nghost:    1003.25 ave 1012 max 999 min
Histogram: 2 0 1 0 0 0 0 0 0 1
Neighs:    47663 ave 47951 max 47285 min
Histogram: 1 0 0 0 0 0 2 0 0 1

Total # of neighbors = 190652
Ave neighs/atom = 19.0652
Neighbor list builds = 0
Dangerous builds = 0
run 100    
Setting up run at Tue Mar  7 13:27:51 2023

Memory usage per processor = 10.4556 Mbytes
    Step    Atoms         KinEng            rke         Volume       centerOf       dragtota       dragtota       dragtota 
   11601    10000      1.7446998      1.0496046          50.76     0.74816552      -12.75671      -24.60485      2579.8569 
   11610    10000      1.7309489       1.047559          50.76     0.74817499      -12.75671      -24.60485      2579.8569 
   11620    10000       1.719475      1.0436217          50.76     0.74818541      -12.75671      -24.60485      2579.8569 
   11630    10000      1.6428452      1.0413453          50.76     0.74819572      -12.75671      -24.60485      2579.8569 
   11640    10000      1.5111324      1.0445509          50.76     0.74820591      -12.75671      -24.60485      2579.8569 
   11650    10000      1.4733077      1.0226786          50.76     0.74821598      -12.75671      -24.60485      2579.8569 
   11660    10000      1.4600351      1.0027577          50.76     0.74822592      -12.75671      -24.60485      2579.8569 
   11670    10000      1.4445733     0.99104358          50.76     0.74823572      -12.75671      -24.60485      2579.8569 
   11680    10000      1.4247603     0.98280457          50.76      0.7482454      -12.75671      -24.60485      2579.8569 
   11690    10000      1.4070656     0.97463029          50.76     0.74825493      -12.75671      -24.60485      2579.8569 
CFD Coupling established at step 11700
   11700    10000      1.3942311     0.97130544          50.76     0.74826433      -12.75671      -24.60485      2579.8569 
   11701    10000      1.3932227     0.97113572          50.76     0.74826526      -12.75671      -24.60485      2579.8569 
Loop time of 0.0913348 on 4 procs for 100 steps with 10000 atoms, finish time Tue Mar  7 13:27:51 2023


Pair  time (%) = 0.0779175 (85.3098)
Neigh time (%) = 0 (0)
Comm  time (%) = 0.00353589 (3.87136)
Outpt time (%) = 0.000768633 (0.841555)
Other time (%) = 0.00911276 (9.97732)

Nlocal:    2500 ave 2513 max 2484 min
Histogram: 1 0 0 0 0 1 1 0 0 1
Nghost:    1003.25 ave 1011 max 1000 min
Histogram: 2 1 0 0 0 0 0 0 0 1
Neighs:    47668.5 ave 47955 max 47288 min
Histogram: 1 0 0 0 0 0 2 0 0 1

Total # of neighbors = 190674
Ave neighs/atom = 19.0674
Neighbor list builds = 0
Dangerous builds = 0
run 100    
Setting up run at Tue Mar  7 13:27:51 2023

Memory usage per processor = 10.4556 Mbytes
    Step    Atoms         KinEng            rke         Volume       centerOf       dragtota       dragtota       dragtota 
   11701    10000      1.3932227     0.97113572          50.76     0.74826526     -14.474494     -25.752858      2545.7437 
   11710    10000      1.3807892     0.96771751          50.76     0.74827357     -14.474494     -25.752858      2545.7437 
   11720    10000      1.3700469     0.95865939          50.76     0.74828264     -14.474494     -25.752858      2545.7437 
   11730    10000      1.3586878     0.94881798          50.76     0.74829153     -14.474494     -25.752858      2545.7437 
   11740    10000      1.3336742     0.93632208          50.76     0.74830024     -14.474494     -25.752858      2545.7437 
   11750    10000      1.3086348     0.92943994          50.76     0.74830875     -14.474494     -25.752858      2545.7437 
   11760    10000      1.2931276     0.92381978          50.76     0.74831706     -14.474494     -25.752858      2545.7437 
   11770    10000      1.2435177     0.90874824          50.76     0.74832517     -14.474494     -25.752858      2545.7437 
   11780    10000      1.1842963     0.90089348          50.76     0.74833307     -14.474494     -25.752858      2545.7437 
   11790    10000      1.1459549     0.88967787          50.76     0.74834075     -14.474494     -25.752858      2545.7437 
CFD Coupling established at step 11800
   11800    10000      1.1179698     0.88405571          50.76     0.74834822     -14.474494     -25.752858      2545.7437 
   11801    10000       1.115688     0.88386531          50.76     0.74834895     -14.474494     -25.752858      2545.7437 
Loop time of 0.0911595 on 4 procs for 100 steps with 10000 atoms, finish time Tue Mar  7 13:27:51 2023


Pair  time (%) = 0.0778842 (85.4373)
Neigh time (%) = 0 (0)
Comm  time (%) = 0.00353866 (3.88183)
Outpt time (%) = 0.000759 (0.832607)
Other time (%) = 0.00897766 (9.8483)

Nlocal:    2500 ave 2513 max 2484 min
Histogram: 1 0 0 0 0 1 1 0 0 1
Nghost:    1003.5 ave 1012 max 1000 min
Histogram: 2 1 0 0 0 0 0 0 0 1
Neighs:    47664 ave 47948 max 47290 min
Histogram: 1 0 0 0 0 0 2 0 0 1

Total # of neighbors = 190656
Ave neighs/atom = 19.0656
Neighbor list builds = 0
Dangerous builds = 0
run 100    
Setting up run at Tue Mar  7 13:27:51 2023

Memory usage per processor = 10.4556 Mbytes
    Step    Atoms         KinEng            rke         Volume       centerOf       dragtota       dragtota       dragtota 
   11801    10000       1.115688     0.88386531          50.76     0.74834895     -13.780125     -27.079034      2582.7989 
   11810    10000      1.0981284     0.88182049          50.76     0.74835548     -13.780125     -27.079034      2582.7989 
   11820    10000      1.0727185     0.87396022          50.76     0.74836255     -13.780125     -27.079034      2582.7989 
   11830    10000      1.0126456      0.8576393          50.76     0.74836944     -13.780125     -27.079034      2582.7989 
   11840    10000     0.97541807     0.85222169          50.76     0.74837612     -13.780125     -27.079034      2582.7989 
   11850    10000     0.94622483     0.84822068          50.76      0.7483826     -13.780125     -27.079034      2582.7989 
   11860    10000     0.91970141     0.84417135          50.76     0.74838888     -13.780125     -27.079034      2582.7989 
   11870    10000     0.90022488     0.83989933          50.76     0.74839494     -13.780125     -27.079034      2582.7989 
   11880    10000     0.88863837     0.83487943          50.76      0.7484008     -13.780125     -27.079034      2582.7989 
   11890    10000     0.88231558     0.82727247          50.76     0.74840645     -13.780125     -27.079034      2582.7989 
CFD Coupling established at step 11900
   11900    10000     0.87939748     0.82169074          50.76     0.74841187     -13.780125     -27.079034      2582.7989 
   11901    10000     0.87922788     0.82121152          50.76      0.7484124     -13.780125     -27.079034      2582.7989 
Loop time of 0.0916035 on 4 procs for 100 steps with 10000 atoms, finish time Tue Mar  7 13:27:52 2023


Pair  time (%) = 0.0778832 (85.0221)
Neigh time (%) = 0 (0)
Comm  time (%) = 0.00352618 (3.84939)
Outpt time (%) = 0.000782333 (0.854043)
Other time (%) = 0.00941177 (10.2745)

Nlocal:    2500 ave 2513 max 2484 min
Histogram: 1 0 0 0 0 1 1 0 0 1
Nghost:    1003.5 ave 1012 max 1000 min
Histogram: 2 1 0 0 0 0 0 0 0 1
Neighs:    47666.5 ave 47944 max 47284 min
Histogram: 1 0 0 0 0 0 2 0 0 1

Total # of neighbors = 190666
Ave neighs/atom = 19.0666
Neighbor list builds = 0
Dangerous builds = 0
run 100    
Setting up run at Tue Mar  7 13:27:52 2023

Memory usage per processor = 10.4556 Mbytes
    Step    Atoms         KinEng            rke         Volume       centerOf       dragtota       dragtota       dragtota 
   11901    10000     0.87922788     0.82121152          50.76      0.7484124     -17.605621     -32.528984      2645.0948 
   11910    10000     0.87748645     0.81666339          50.76      0.7484171     -17.605621     -32.528984      2645.0948 
   11920    10000     0.87634304     0.81230707          50.76     0.74842214     -17.605621     -32.528984      2645.0948 
   11930    10000     0.87430421     0.80660961          50.76     0.74842701     -17.605621     -32.528984      2645.0948 
   11940    10000     0.87087168     0.80121588          50.76     0.74843168     -17.605621     -32.528984      2645.0948 
   11950    10000     0.86542601     0.79666966          50.76     0.74843616     -17.605621     -32.528984      2645.0948 
   11960    10000     0.85979921     0.79265556          50.76     0.74844042     -17.605621     -32.528984      2645.0948 
   11970    10000     0.85522485     0.78958301          50.76     0.74844449     -17.605621     -32.528984      2645.0948 
   11980    10000     0.85131788     0.78734889          50.76     0.74844834     -17.605621     -32.528984      2645.0948 
   11990    10000     0.84561175     0.78421682          50.76     0.74845198     -17.605621     -32.528984      2645.0948 
CFD Coupling established at step 12000
   12000    10000     0.84053511     0.77905258          50.76     0.74845539     -17.605621     -32.528984      2645.0948 
   12001    10000     0.84008353     0.77860128          50.76     0.74845572     -17.605621     -32.528984      2645.0948 
Loop time of 0.0913702 on 4 procs for 100 steps with 10000 atoms, finish time Tue Mar  7 13:27:52 2023


Pair  time (%) = 0.0778705 (85.2253)
Neigh time (%) = 0 (0)
Comm  time (%) = 0.00354899 (3.88419)
Outpt time (%) = 0.000900043 (0.985052)
Other time (%) = 0.0090506 (9.90542)

Nlocal:    2500 ave 2513 max 2484 min
Histogram: 1 0 0 0 0 1 1 0 0 1
Nghost:    1003.5 ave 1012 max 1000 min
Histogram: 2 1 0 0 0 0 0 0 0 1
Neighs:    47667.5 ave 47951 max 47291 min
Histogram: 1 0 0 0 0 0 2 0 0 1

Total # of neighbors = 190670
Ave neighs/atom = 19.067
Neighbor list builds = 0
Dangerous builds = 0
run 100    
Setting up run at Tue Mar  7 13:27:52 2023

Memory usage per processor = 10.4556 Mbytes
    Step    Atoms         KinEng            rke         Volume       centerOf       dragtota       dragtota       dragtota 
   12001    10000     0.84008353     0.77860128          50.76     0.74845572     -13.357589     -32.457946      2711.0486 
   12010    10000     0.83680828      0.7732546          50.76      0.7484586     -13.357589     -32.457946      2711.0486 
   12020    10000      0.8341278     0.76464538          50.76     0.74846164     -13.357589     -32.457946      2711.0486 
   12030    10000     0.83250603     0.75774025          50.76      0.7484645     -13.357589     -32.457946      2711.0486 
   12040    10000     0.83157324     0.74992295          50.76     0.74846718     -13.357589     -32.457946      2711.0486 
   12050    10000     0.83023043     0.74110741          50.76     0.74846968     -13.357589     -32.457946      2711.0486 
   12060    10000     0.82701432     0.73145917          50.76     0.74847198     -13.357589     -32.457946      2711.0486 
   12070    10000     0.82335015     0.71815193          50.76      0.7484741     -13.357589     -32.457946      2711.0486 
   12080    10000     0.82016871     0.71126372          50.76     0.74847601     -13.357589     -32.457946      2711.0486 
   12090    10000      0.8115039     0.70352623          50.76     0.74847773     -13.357589     -32.457946      2711.0486 
CFD Coupling established at step 12100
   12100    10000     0.80067628     0.69836051          50.76     0.74847925     -13.357589     -32.457946      2711.0486 
   12101    10000     0.79985446     0.69799102          50.76     0.74847939     -13.357589     -32.457946      2711.0486 
Loop time of 0.0911394 on 4 procs for 100 steps with 10000 atoms, finish time Tue Mar  7 13:27:52 2023


Pair  time (%) = 0.077731 (85.288)
Neigh time (%) = 0 (0)
Comm  time (%) = 0.00353669 (3.88053)
Outpt time (%) = 0.000769983 (0.844841)
Other time (%) = 0.00910175 (9.98663)

Nlocal:    2500 ave 2513 max 2484 min
Histogram: 1 0 0 0 0 1 1 0 0 1
Nghost:    1004.25 ave 1016 max 999 min
Histogram: 2 1 0 0 0 0 0 0 0 1
Neighs:    47672 ave 47957 max 47294 min
Histogram: 1 0 0 0 0 1 0 1 0 1

Total # of neighbors = 190688
Ave neighs/atom = 19.0688
Neighbor list builds = 0
Dangerous builds = 0
run 100    
Setting up run at Tue Mar  7 13:27:52 2023

Memory usage per processor = 10.4556 Mbytes
    Step    Atoms         KinEng            rke         Volume       centerOf       dragtota       dragtota       dragtota 
   12101    10000     0.79985446     0.69799102          50.76     0.74847939     -14.086659     -28.972331      2760.9813 
   12110    10000     0.79344002     0.69427335          50.76     0.74848059     -14.086659     -28.972331      2760.9813 
   12120    10000     0.79035567     0.69110509          50.76     0.74848176     -14.086659     -28.972331      2760.9813 
   12130    10000     0.78805059     0.68813716          50.76     0.74848278     -14.086659     -28.972331      2760.9813 
   12140    10000     0.78477973     0.68565519          50.76     0.74848363     -14.086659     -28.972331      2760.9813 
   12150    10000     0.78230494     0.68341096          50.76     0.74848432     -14.086659     -28.972331      2760.9813 
   12160    10000     0.77899373     0.67955889          50.76     0.74848485     -14.086659     -28.972331      2760.9813 
   12170    10000     0.77421079     0.67395719          50.76     0.74848522     -14.086659     -28.972331      2760.9813 
   12180    10000     0.76692582     0.66981648          50.76     0.74848542     -14.086659     -28.972331      2760.9813 
   12190    10000        0.76027     0.66645974          50.76     0.74848546     -14.086659     -28.972331      2760.9813 
CFD Coupling established at step 12200
   12200    10000     0.75796151     0.66239328          50.76     0.74848533     -14.086659     -28.972331      2760.9813 
   12201    10000     0.75776134     0.66207349          50.76      0.7484853     -14.086659     -28.972331      2760.9813 
Loop time of 0.0907302 on 4 procs for 100 steps with 10000 atoms, finish time Tue Mar  7 13:27:52 2023


Pair  time (%) = 0.0777408 (85.6835)
Neigh time (%) = 0 (0)
Comm  time (%) = 0.00353334 (3.89434)
Outpt time (%) = 0.000736658 (0.811921)
Other time (%) = 0.0087194 (9.61025)

Nlocal:    2500 ave 2514 max 2483 min
Histogram: 1 0 0 0 0 1 1 0 0 1
Nghost:    1004.75 ave 1016 max 999 min
Histogram: 1 1 1 0 0 0 0 0 0 1
Neighs:    47678.5 ave 47973 max 47286 min
Histogram: 1 0 0 0 0 1 1 0 0 1

Total # of neighbors = 190714
Ave neighs/atom = 19.0714
Neighbor list builds = 0
Dangerous builds = 0
run 100    
Setting up run at Tue Mar  7 13:27:52 2023

Memory usage per processor = 10.4556 Mbytes
    Step    Atoms         KinEng            rke         Volume       centerOf       dragtota       dragtota       dragtota 
   12201    10000     0.75776134     0.66207349          50.76      0.7484853     -22.239255     -38.416816        4210.11 
   12210    10000     0.74302193     0.65449671          50.76     0.74848559     -22.239255     -38.416816        4210.11 
   12220    10000     0.73838856       0.653779          50.76     0.74848702     -22.239255     -38.416816        4210.11 
   12230    10000     0.74251376     0.64902308          50.76     0.74848958     -22.239255     -38.416816        4210.11 
   12240    10000     0.74553103     0.64270316          50.76     0.74849324     -22.239255     -38.416816        4210.11 
   12250    10000     0.75112285     0.63882804          50.76     0.74849795     -22.239255     -38.416816        4210.11 
   12260    10000     0.75979973     0.63603785          50.76     0.74850367     -22.239255     -38.416816        4210.11 
   12270    10000     0.77102119     0.63378694          50.76     0.74851036     -22.239255     -38.416816        4210.11 
   12280    10000     0.77792677     0.63027817          50.76     0.74851797     -22.239255     -38.416816        4210.11 
   12290    10000     0.78544237     0.62813762          50.76     0.74852647     -22.239255     -38.416816        4210.11 
CFD Coupling established at step 12300
   12300    10000     0.79126998     0.62712426          50.76     0.74853582     -22.239255     -38.416816        4210.11 
   12301    10000     0.79201579     0.62717507          50.76      0.7485368     -22.239255     -38.416816        4210.11 
Loop time of 0.0910599 on 4 procs for 100 steps with 10000 atoms, finish time Tue Mar  7 13:27:52 2023


Pair  time (%) = 0.0778929 (85.5403)
Neigh time (%) = 0 (0)
Comm  time (%) = 0.00355099 (3.89962)
Outpt time (%) = 0.000721724 (0.792582)
Other time (%) = 0.00889427 (9.76749)

Nlocal:    2500 ave 2514 max 2483 min
Histogram: 1 0 0 0 0 1 1 0 0 1
Nghost:    1004.75 ave 1016 max 999 min
Histogram: 1 1 1 0 0 0 0 0 0 1
Neighs:    47681.5 ave 47982 max 47293 min
Histogram: 1 0 0 0 0 1 1 0 0 1

Total # of neighbors = 190726
Ave neighs/atom = 19.0726
Neighbor list builds = 0
Dangerous builds = 0
run 100    
Setting up run at Tue Mar  7 13:27:52 2023

Memory usage per processor = 10.4556 Mbytes
    Step    Atoms         KinEng            rke         Volume       centerOf       dragtota       dragtota       dragtota 
   12301    10000     0.79201579     0.62717507          50.76      0.7485368     -24.090686     -43.050703      4012.1851 
   12310    10000     0.79646946     0.62738199          50.76     0.74854589     -24.090686     -43.050703      4012.1851 
   12320    10000     0.80362052     0.62792029          50.76     0.74855654     -24.090686     -43.050703      4012.1851 
   12330    10000     0.81084525     0.62686063          50.76     0.74856772     -24.090686     -43.050703      4012.1851 
   12340    10000     0.81865872     0.62661373          50.76     0.74857941     -24.090686     -43.050703      4012.1851 
   12350    10000     0.82372109      0.6271248          50.76     0.74859156     -24.090686     -43.050703      4012.1851 
   12360    10000     0.82523211     0.62112436          50.76     0.74860416     -24.090686     -43.050703      4012.1851 
   12370    10000     0.82158424     0.61465172          50.76     0.74861715     -24.090686     -43.050703      4012.1851 
   12380    10000     0.82046559     0.60314734          50.76     0.74863052     -24.090686     -43.050703      4012.1851 
   12390    10000      0.7869121     0.58524035          50.76     0.74864423     -24.090686     -43.050703      4012.1851 
CFD Coupling established at step 12400
   12400    10000     0.76803138     0.58298304          50.76     0.74865826     -24.090686     -43.050703      4012.1851 
   12401    10000     0.76761532      0.5827505          50.76     0.74865968     -24.090686     -43.050703      4012.1851 
Loop time of 0.091419 on 4 procs for 100 steps with 10000 atoms, finish time Tue Mar  7 13:27:52 2023


Pair  time (%) = 0.0779274 (85.242)
Neigh time (%) = 0 (0)
Comm  time (%) = 0.00353229 (3.86385)
Outpt time (%) = 0.000767912 (0.839991)
Other time (%) = 0.00919139 (10.0541)

Nlocal:    2500 ave 2514 max 2483 min
Histogram: 1 0 0 0 0 1 1 0 0 1
Nghost:    1004.75 ave 1015 max 1000 min
Histogram: 2 0 1 0 0 0 0 0 0 1
Neighs:    47692.2 ave 47997 max 47309 min
Histogram: 1 0 0 0 0 1 1 0 0 1

Total # of neighbors = 190769
Ave neighs/atom = 19.0769
Neighbor list builds = 0
Dangerous builds = 0
run 100    
Setting up run at Tue Mar  7 13:27:52 2023

Memory usage per processor = 10.4556 Mbytes
    Step    Atoms         KinEng            rke         Volume       centerOf       dragtota       dragtota       dragtota 
   12401    10000     0.76761532      0.5827505          50.76     0.74865968     -25.207083     -43.015443       4047.305 
   12410    10000     0.76783712     0.57516657          50.76     0.74867258     -25.207083     -43.015443       4047.305 
   12420    10000     0.77130142      0.5661676          50.76      0.7486872     -25.207083     -43.015443       4047.305 
   12430    10000     0.77550778     0.55716192          50.76     0.74870209     -25.207083     -43.015443       4047.305 
   12440    10000      0.7816289     0.54825781          50.76     0.74871722     -25.207083     -43.015443       4047.305 
   12450    10000     0.78903032      0.5404079          50.76     0.74873256     -25.207083     -43.015443       4047.305 
   12460    10000     0.79531138     0.53407475          50.76      0.7487481     -25.207083     -43.015443       4047.305 
   12470    10000     0.79822186     0.52742831          50.76     0.74876381     -25.207083     -43.015443       4047.305 
   12480    10000     0.80322635     0.52399136          50.76     0.74877966     -25.207083     -43.015443       4047.305 
   12490    10000      0.8093268     0.52201808          50.76     0.74879563     -25.207083     -43.015443       4047.305 
CFD Coupling established at step 12500
   12500    10000     0.80836682     0.51655123          50.76     0.74881169     -25.207083     -43.015443       4047.305 
   12501    10000     0.80652097     0.51550582          50.76      0.7488133     -25.207083     -43.015443       4047.305 
Loop time of 0.0910463 on 4 procs for 100 steps with 10000 atoms, finish time Tue Mar  7 13:27:52 2023


Pair  time (%) = 0.0781908 (85.8803)
Neigh time (%) = 0 (0)
Comm  time (%) = 0.00353557 (3.88327)
Outpt time (%) = 0.00071066 (0.780548)
Other time (%) = 0.00860923 (9.45588)

Nlocal:    2500 ave 2514 max 2483 min
Histogram: 1 0 0 0 0 1 1 0 0 1
Nghost:    1004.5 ave 1015 max 1000 min
Histogram: 2 0 1 0 0 0 0 0 0 1
Neighs:    47694.5 ave 48003 max 47314 min
Histogram: 1 0 0 0 0 1 1 0 0 1

Total # of neighbors = 190778
Ave neighs/atom = 19.0778
Neighbor list builds = 0
Dangerous builds = 0
run 100    
Setting up run at Tue Mar  7 13:27:52 2023

Memory usage per processor = 10.4556 Mbytes
    Step    Atoms         KinEng            rke         Volume       centerOf       dragtota       dragtota       dragtota 
   12501    10000     0.80652097     0.51550582          50.76      0.7488133     -21.479923     -44.530594       3930.749 
   12510    10000     0.78708109     0.50866447          50.76     0.74882778     -21.479923     -44.530594       3930.749 
   12520    10000     0.77415109     0.50499288          50.76     0.74884381     -21.479923     -44.530594       3930.749 
   12530    10000     0.76683521     0.50183386          50.76     0.74885976     -21.479923     -44.530594       3930.749 
   12540    10000     0.76105048      0.4978573          50.76     0.74887561     -21.479923     -44.530594       3930.749 
   12550    10000     0.75300239     0.49271813          50.76     0.74889136     -21.479923     -44.530594       3930.749 
   12560    10000     0.74577841     0.48991129          50.76     0.74890697     -21.479923     -44.530594       3930.749 
   12570    10000     0.73570634     0.48482879          50.76     0.74892245     -21.479923     -44.530594       3930.749 
   12580    10000     0.72611151     0.48223331          50.76     0.74893777     -21.479923     -44.530594       3930.749 
   12590    10000     0.71979858     0.48140824          50.76     0.74895294     -21.479923     -44.530594       3930.749 
CFD Coupling established at step 12600
   12600    10000     0.71532941     0.48044157          50.76     0.74896793     -21.479923     -44.530594       3930.749 
   12601    10000     0.71495683     0.48039441          50.76     0.74896942     -21.479923     -44.530594       3930.749 
Loop time of 0.0912786 on 4 procs for 100 steps with 10000 atoms, finish time Tue Mar  7 13:27:52 2023


Pair  time (%) = 0.0779625 (85.4115)
Neigh time (%) = 0 (0)
Comm  time (%) = 0.00353524 (3.87302)
Outpt time (%) = 0.000749699 (0.82133)
Other time (%) = 0.00903122 (9.89412)

Nlocal:    2500 ave 2513 max 2484 min
Histogram: 1 0 0 0 0 1 1 0 0 1
Nghost:    1004.5 ave 1015 max 1000 min
Histogram: 2 1 0 0 0 0 0 0 0 1
Neighs:    47690 ave 47986 max 47318 min
Histogram: 1 0 0 0 0 1 1 0 0 1

Total # of neighbors = 190760
Ave neighs/atom = 19.076
Neighbor list builds = 0
Dangerous builds = 0
run 100    
Setting up run at Tue Mar  7 13:27:52 2023

Memory usage per processor = 10.4556 Mbytes
    Step    Atoms         KinEng            rke         Volume       centerOf       dragtota       dragtota       dragtota 
   12601    10000     0.71495683     0.48039441          50.76     0.74896942     -23.179192     -41.512664      3912.1989 
   12610    10000     0.71017146     0.47882557          50.76     0.74898274     -23.179192     -41.512664      3912.1989 
   12620    10000     0.70487592     0.47627705          50.76     0.74899735     -23.179192     -41.512664      3912.1989 
   12630    10000     0.70014126     0.47395141          50.76     0.74901174     -23.179192     -41.512664      3912.1989 
   12640    10000     0.69637009     0.47269379          50.76     0.74902591     -23.179192     -41.512664      3912.1989 
   12650    10000     0.69337278     0.47181027          50.76     0.74903986     -23.179192     -41.512664      3912.1989 
   12660    10000     0.68887759     0.46817242          50.76     0.74905357     -23.179192     -41.512664      3912.1989 
   12670    10000     0.68298485     0.46437675          50.76     0.74906704     -23.179192     -41.512664      3912.1989 
   12680    10000     0.67880066     0.46145866          50.76     0.74908027     -23.179192     -41.512664      3912.1989 
   12690    10000     0.67037225     0.45498193          50.76     0.74909325     -23.179192     -41.512664      3912.1989 
CFD Coupling established at step 12700
   12700    10000     0.65678393     0.44934858          50.76     0.74910598     -23.179192     -41.512664      3912.1989 
   12701    10000     0.65538669     0.44886763          50.76     0.74910724     -23.179192     -41.512664      3912.1989 
Loop time of 0.0912072 on 4 procs for 100 steps with 10000 atoms, finish time Tue Mar  7 13:27:52 2023


Pair  time (%) = 0.077988 (85.5064)
Neigh time (%) = 0 (0)
Comm  time (%) = 0.00354267 (3.8842)
Outpt time (%) = 0.000748068 (0.820185)
Other time (%) = 0.00892844 (9.78918)

Nlocal:    2500 ave 2513 max 2484 min
Histogram: 1 0 0 0 0 1 1 0 0 1
Nghost:    1004.25 ave 1014 max 1000 min
Histogram: 2 1 0 0 0 0 0 0 0 1
Neighs:    47683 ave 47973 max 47311 min
Histogram: 1 0 0 0 0 1 1 0 0 1

Total # of neighbors = 190732
Ave neighs/atom = 19.0732
Neighbor list builds = 0
Dangerous builds = 0
run 100    
Setting up run at Tue Mar  7 13:27:52 2023

Memory usage per processor = 10.4556 Mbytes
    Step    Atoms         KinEng            rke         Volume       centerOf       dragtota       dragtota       dragtota 
   12701    10000     0.65538669     0.44886763          50.76     0.74910724     -28.254267     -45.776703      3885.8408 
   12710    10000     0.63836349     0.44560582          50.76     0.74911845     -28.254267     -45.776703      3885.8408 
   12720    10000     0.61418649     0.44253017          50.76     0.74913064     -28.254267     -45.776703      3885.8408 
   12730    10000     0.59823675     0.44004759          50.76     0.74914254     -28.254267     -45.776703      3885.8408 
   12740    10000     0.58488504     0.43783091          50.76     0.74915416     -28.254267     -45.776703      3885.8408 
   12750    10000      0.5705837     0.43679901          50.76      0.7491655     -28.254267     -45.776703      3885.8408 
   12760    10000     0.55603429     0.43410695          50.76     0.74917655     -28.254267     -45.776703      3885.8408 
   12770    10000       0.537758     0.42716799          50.76     0.74918731     -28.254267     -45.776703      3885.8408 
   12780    10000     0.52182875     0.42168984          50.76     0.74919778     -28.254267     -45.776703      3885.8408 
   12790    10000     0.51048941     0.41785888          50.76     0.74920795     -28.254267     -45.776703      3885.8408 
CFD Coupling established at step 12800
   12800    10000     0.50159298     0.41481461          50.76     0.74921783     -28.254267     -45.776703      3885.8408 
   12801    10000     0.50074616     0.41457019          50.76      0.7492188     -28.254267     -45.776703      3885.8408 
Loop time of 0.0916515 on 4 procs for 100 steps with 10000 atoms, finish time Tue Mar  7 13:27:53 2023


Pair  time (%) = 0.0782662 (85.3955)
Neigh time (%) = 0 (0)
Comm  time (%) = 0.00355853 (3.88268)
Outpt time (%) = 0.000738821 (0.80612)
Other time (%) = 0.00908792 (9.91573)

Nlocal:    2500 ave 2513 max 2484 min
Histogram: 1 0 0 0 0 1 1 0 0 1
Nghost:    1003.75 ave 1013 max 999 min
Histogram: 2 0 1 0 0 0 0 0 0 1
Neighs:    47682.5 ave 47967 max 47323 min
Histogram: 1 0 0 0 0 1 1 0 0 1

Total # of neighbors = 190730
Ave neighs/atom = 19.073
Neighbor list builds = 0
Dangerous builds = 0
run 100    
Setting up run at Tue Mar  7 13:27:53 2023

Memory usage per processor = 10.4556 Mbytes
    Step    Atoms         KinEng            rke         Volume       centerOf       dragtota       dragtota       dragtota 
   12801    10000     0.50074616     0.41457019          50.76      0.7492188     -30.116718     -44.439016      3919.9885 
   12810    10000      0.4929794     0.41154034          50.76     0.74922743     -30.116718     -44.439016      3919.9885 
   12820    10000     0.48534988      0.4092091          50.76     0.74923675     -30.116718     -44.439016      3919.9885 
   12830    10000     0.47321594     0.40302375          50.76     0.74924581     -30.116718     -44.439016      3919.9885 
   12840    10000     0.46388388     0.39944024          50.76      0.7492546     -30.116718     -44.439016      3919.9885 
   12850    10000     0.45470202     0.39428029          50.76     0.74926311     -30.116718     -44.439016      3919.9885 
   12860    10000     0.44641578     0.39135925          50.76     0.74927134     -30.116718     -44.439016      3919.9885 
   12870    10000     0.44022497     0.38911253          50.76     0.74927929     -30.116718     -44.439016      3919.9885 
   12880    10000     0.43412715     0.38567924          50.76     0.74928695     -30.116718     -44.439016      3919.9885 
   12890    10000     0.42904205     0.38371226          50.76     0.74929433     -30.116718     -44.439016      3919.9885 
CFD Coupling established at step 12900
   12900    10000     0.42511651     0.38250652          50.76     0.74930141     -30.116718     -44.439016      3919.9885 
   12901    10000      0.4247666     0.38240074          50.76      0.7493021     -30.116718     -44.439016      3919.9885 
Loop time of 0.0913013 on 4 procs for 100 steps with 10000 atoms, finish time Tue Mar  7 13:27:53 2023


Pair  time (%) = 0.0778572 (85.275)
Neigh time (%) = 0 (0)
Comm  time (%) = 0.00354837 (3.88645)
Outpt time (%) = 0.000766863 (0.839926)
Other time (%) = 0.00912886 (9.99861)

Nlocal:    2500 ave 2514 max 2483 min
Histogram: 1 0 0 0 0 1 1 0 0 1
Nghost:    1003 ave 1011 max 999 min
Histogram: 2 0 0 1 0 0 0 0 0 1
Neighs:    47683.2 ave 47975 max 47309 min
Histogram: 1 0 0 0 0 1 1 0 0 1

Total # of neighbors = 190733
Ave neighs/atom = 19.0733
Neighbor list builds = 0
Dangerous builds = 0
run 100    
Setting up run at Tue Mar  7 13:27:53 2023

Memory usage per processor = 10.4556 Mbytes
    Step    Atoms         KinEng            rke         Volume       centerOf       dragtota       dragtota       dragtota 
   12901    10000      0.4247666     0.38240074          50.76      0.7493021      -24.80654     -49.956013      3977.1038 
   12910    10000     0.42146417     0.38123421          50.76     0.74930821      -24.80654     -49.956013      3977.1038 
   12920    10000     0.41830835     0.38033447          50.76     0.74931477      -24.80654     -49.956013      3977.1038 
   12930    10000     0.41578806     0.37942818          50.76     0.74932107      -24.80654     -49.956013      3977.1038 
   12940    10000     0.41378733     0.37829056          50.76     0.74932711      -24.80654     -49.956013      3977.1038 
   12950    10000     0.41220243     0.37711538          50.76     0.74933289      -24.80654     -49.956013      3977.1038 
   12960    10000     0.41088043     0.37588613          50.76     0.74933841      -24.80654     -49.956013      3977.1038 
   12970    10000     0.40592222     0.37451198          50.76     0.74934366      -24.80654     -49.956013      3977.1038 
   12980    10000     0.39343022     0.37157287          50.76     0.74934863      -24.80654     -49.956013      3977.1038 
   12990    10000     0.38849364     0.36784383          50.76     0.74935333      -24.80654     -49.956013      3977.1038 
CFD Coupling established at step 13000
   13000    10000     0.38796305     0.36524184          50.76     0.74935773      -24.80654     -49.956013      3977.1038 
   13001    10000     0.38796554      0.3650321          50.76     0.74935816      -24.80654     -49.956013      3977.1038 
Loop time of 0.0912099 on 4 procs for 100 steps with 10000 atoms, finish time Tue Mar  7 13:27:53 2023


Pair  time (%) = 0.0779013 (85.4088)
Neigh time (%) = 0 (0)
Comm  time (%) = 0.00352776 (3.86774)
Outpt time (%) = 0.000760649 (0.833954)
Other time (%) = 0.00902019 (9.88949)

Nlocal:    2500 ave 2513 max 2484 min
Histogram: 1 0 0 0 0 1 1 0 0 1
Nghost:    1004 ave 1012 max 1000 min
Histogram: 1 2 0 0 0 0 0 0 0 1
Neighs:    47678.8 ave 47963 max 47314 min
Histogram: 1 0 0 0 0 1 1 0 0 1

Total # of neighbors = 190715
Ave neighs/atom = 19.0715
Neighbor list builds = 0
Dangerous builds = 0
run 100    
Setting up run at Tue Mar  7 13:27:53 2023

Memory usage per processor = 10.4556 Mbytes
    Step    Atoms         KinEng            rke         Volume       centerOf       dragtota       dragtota       dragtota 
   13001    10000     0.38796554      0.3650321          50.76     0.74935816     -20.996012     -47.189894      4056.3782 
   13010    10000     0.38611769     0.36118576          50.76     0.74936189     -20.996012     -47.189894      4056.3782 
   13020    10000     0.38335609     0.35801339          50.76     0.74936582     -20.996012     -47.189894      4056.3782 
   13030    10000     0.38115209      0.3556956          50.76     0.74936953     -20.996012     -47.189894      4056.3782 
   13040    10000     0.37741131     0.35226987          50.76     0.74937302     -20.996012     -47.189894      4056.3782 
   13050    10000     0.37410348     0.34933351          50.76     0.74937628     -20.996012     -47.189894      4056.3782 
   13060    10000     0.37132571     0.34718547          50.76      0.7493793     -20.996012     -47.189894      4056.3782 
   13070    10000     0.36922616     0.34598336          50.76     0.74938209     -20.996012     -47.189894      4056.3782 
   13080    10000     0.36777009     0.34446215          50.76     0.74938464     -20.996012     -47.189894      4056.3782 
   13090    10000     0.36694456     0.34368158          50.76     0.74938695     -20.996012     -47.189894      4056.3782 
CFD Coupling established at step 13100
   13100    10000     0.36669418     0.34211033          50.76     0.74938901     -20.996012     -47.189894      4056.3782 
   13101    10000     0.36668308     0.34187487          50.76      0.7493892     -20.996012     -47.189894      4056.3782 
Loop time of 0.0912088 on 4 procs for 100 steps with 10000 atoms, finish time Tue Mar  7 13:27:53 2023


Pair  time (%) = 0.0777693 (85.2651)
Neigh time (%) = 0 (0)
Comm  time (%) = 0.00353344 (3.87401)
Outpt time (%) = 0.000771858 (0.846254)
Other time (%) = 0.00913419 (10.0146)

Nlocal:    2500 ave 2513 max 2483 min
Histogram: 1 0 0 0 0 0 2 0 0 1
Nghost:    1004 ave 1012 max 1000 min
Histogram: 2 0 1 0 0 0 0 0 0 1
Neighs:    47677.5 ave 47961 max 47291 min
Histogram: 1 0 0 0 0 0 1 1 0 1

Total # of neighbors = 190710
Ave neighs/atom = 19.071
Neighbor list builds = 0
Dangerous builds = 0
run 100    
Setting up run at Tue Mar  7 13:27:53 2023

Memory usage per processor = 10.4556 Mbytes
    Step    Atoms         KinEng            rke         Volume       centerOf       dragtota       dragtota       dragtota 
   13101    10000     0.36668308     0.34187487          50.76      0.7493892     -23.635295     -53.931343      4123.1016 
   13110    10000     0.36632206      0.3400554          50.76     0.74939084     -23.635295     -53.931343      4123.1016 
   13120    10000     0.36650614      0.3388251          50.76     0.74939249     -23.635295     -53.931343      4123.1016 
   13130    10000     0.36673331     0.33794536          50.76     0.74939395     -23.635295     -53.931343      4123.1016 
   13140    10000     0.36707774     0.33730948          50.76     0.74939521     -23.635295     -53.931343      4123.1016 
   13150    10000     0.36774188     0.33702203          50.76     0.74939627     -23.635295     -53.931343      4123.1016 
   13160    10000     0.36883438     0.33694523          50.76     0.74939714     -23.635295     -53.931343      4123.1016 
   13170    10000     0.37027821     0.33686215          50.76     0.74939781     -23.635295     -53.931343      4123.1016 
   13180    10000     0.37192615     0.33697997          50.76     0.74939827     -23.635295     -53.931343      4123.1016 
   13190    10000     0.37369299     0.33706353          50.76     0.74939853     -23.635295     -53.931343      4123.1016 
CFD Coupling established at step 13200
   13200    10000      0.3732153      0.3351039          50.76      0.7493986     -23.635295     -53.931343      4123.1016 
   13201    10000     0.37279668     0.33460967          50.76     0.74939859     -23.635295     -53.931343      4123.1016 
Loop time of 0.0908004 on 4 procs for 100 steps with 10000 atoms, finish time Tue Mar  7 13:27:53 2023


Pair  time (%) = 0.0776311 (85.4964)
Neigh time (%) = 0 (0)
Comm  time (%) = 0.0035359 (3.89414)
Outpt time (%) = 0.000739216 (0.814111)
Other time (%) = 0.00889423 (9.79536)

Nlocal:    2500 ave 2513 max 2483 min
Histogram: 1 0 0 0 0 0 2 0 0 1
Nghost:    1004.25 ave 1012 max 1001 min
Histogram: 2 1 0 0 0 0 0 0 0 1
Neighs:    47681.8 ave 47967 max 47286 min
Histogram: 1 0 0 0 0 1 0 1 0 1

Total # of neighbors = 190727
Ave neighs/atom = 19.0727
Neighbor list builds = 0
Dangerous builds = 0
run 100    
Setting up run at Tue Mar  7 13:27:53 2023

Memory usage per processor = 10.4556 Mbytes
    Step    Atoms         KinEng            rke         Volume       centerOf       dragtota       dragtota       dragtota 
   13201    10000     0.37279668     0.33460967          50.76     0.74939859     -34.198692     -74.870143      5583.9604 
[...]
   19180    10000       1.836509     0.35078409          50.76     0.76431365     -37.034537      -93.54711      9840.1785 
   19190    10000      1.8316573     0.35018495          50.76     0.76436094     -37.034537      -93.54711      9840.1785 
CFD Coupling established at step 19200
   19200    10000      1.8271346     0.34993521          50.76     0.76440816     -37.034537      -93.54711      9840.1785 
   19201    10000      1.8264138     0.34971601          50.76     0.76441288     -37.034537      -93.54711      9840.1785 
Loop time of 0.0863423 on 4 procs for 100 steps with 10000 atoms, finish time Tue Mar  7 13:28:00 2023


Pair  time (%) = 0.0734254 (85.0399)
Neigh time (%) = 0 (0)
Comm  time (%) = 0.0035873 (4.15474)
Outpt time (%) = 0.000728356 (0.843568)
Other time (%) = 0.00860127 (9.96183)

Nlocal:    2500 ave 2515 max 2481 min
Histogram: 1 0 0 0 0 1 0 1 0 1
Nghost:    1005 ave 1010 max 1002 min
Histogram: 2 0 0 0 0 1 0 0 0 1
Neighs:    47058.2 ave 47426 max 46576 min
Histogram: 1 0 0 0 0 0 2 0 0 1

Total # of neighbors = 188233
Ave neighs/atom = 18.8233
Neighbor list builds = 0
Dangerous builds = 0
run 100    
Setting up run at Tue Mar  7 13:28:00 2023

Memory usage per processor = 10.4557 Mbytes
    Step    Atoms         KinEng            rke         Volume       centerOf       dragtota       dragtota       dragtota 
   19201    10000      1.8264138     0.34971601          50.76     0.76441288     -49.878563      -100.2806      11123.248 
   19210    10000       1.876891     0.34584349          50.76     0.76445582     -49.878563      -100.2806      11123.248 
   19220    10000      1.9376678     0.34534374          50.76     0.76450463     -49.878563      -100.2806      11123.248 
   19230    10000      2.0018402     0.34499842          50.76     0.76455457     -49.878563      -100.2806      11123.248 
   19240    10000      2.0689765     0.34521523          50.76     0.76460563     -49.878563      -100.2806      11123.248 
   19250    10000      2.1380849     0.34583072          50.76      0.7646578     -49.878563      -100.2806      11123.248 
   19260    10000      2.2086668     0.34663336          50.76     0.76471105     -49.878563      -100.2806      11123.248 
   19270    10000      2.2806702     0.34771456          50.76      0.7647654     -49.878563      -100.2806      11123.248 
   19280    10000      2.3539226     0.34878092          50.76     0.76482081     -49.878563      -100.2806      11123.248 
   19290    10000      2.4284793     0.34993571          50.76     0.76487729     -49.878563      -100.2806      11123.248 
CFD Coupling established at step 19300
   19300    10000      2.5043631     0.35131557          50.76     0.76493482     -49.878563      -100.2806      11123.248 
   19301    10000      2.5119946     0.35146367          50.76     0.76494063     -49.878563      -100.2806      11123.248 
Loop time of 0.0863301 on 4 procs for 100 steps with 10000 atoms, finish time Tue Mar  7 13:28:00 2023


Pair  time (%) = 0.0735193 (85.1607)
Neigh time (%) = 0 (0)
Comm  time (%) = 0.00358095 (4.14797)
Outpt time (%) = 0.000716083 (0.829471)
Other time (%) = 0.00851376 (9.86187)

Nlocal:    2500 ave 2515 max 2481 min
Histogram: 1 0 0 0 0 1 0 1 0 1
Nghost:    1005.25 ave 1010 max 1002 min
Histogram: 2 0 0 0 0 0 1 0 0 1
Neighs:    47042 ave 47408 max 46567 min
Histogram: 1 0 0 0 0 0 2 0 0 1

Total # of neighbors = 188168
Ave neighs/atom = 18.8168
Neighbor list builds = 0
Dangerous builds = 0
run 100    
Setting up run at Tue Mar  7 13:28:00 2023

Memory usage per processor = 10.4557 Mbytes
    Step    Atoms         KinEng            rke         Volume       centerOf       dragtota       dragtota       dragtota 
   19301    10000      2.5119946     0.35146367          50.76     0.76494063     -59.788235       -94.9043      10916.437 
   19310    10000      2.5671296     0.35189911          50.76      0.7649933     -59.788235       -94.9043      10916.437 
   19320    10000      2.6303528     0.35339743          50.76     0.76505263     -59.788235       -94.9043      10916.437 
   19330    10000      2.6945178     0.35458131          50.76     0.76511278     -59.788235       -94.9043      10916.437 
   19340    10000      2.7591308     0.35563724          50.76     0.76517376     -59.788235       -94.9043      10916.437 
   19350    10000      2.8246671     0.35671769          50.76     0.76523556     -59.788235       -94.9043      10916.437 
   19360    10000      2.8913831     0.35794889          50.76     0.76529818     -59.788235       -94.9043      10916.437 
   19370    10000      2.9591613     0.35927394          50.76     0.76536161     -59.788235       -94.9043      10916.437 
   19380    10000      3.0279571     0.36064044          50.76     0.76542585     -59.788235       -94.9043      10916.437 
   19390    10000      3.0973644     0.36220475          50.76     0.76549089     -59.788235       -94.9043      10916.437 
CFD Coupling established at step 19400
   19400    10000      3.1662691     0.36317817          50.76     0.76555674     -59.788235       -94.9043      10916.437 
   19401    10000      3.1732099     0.36333152          50.76     0.76556337     -59.788235       -94.9043      10916.437 
Loop time of 0.0862221 on 4 procs for 100 steps with 10000 atoms, finish time Tue Mar  7 13:28:00 2023


Pair  time (%) = 0.0735969 (85.3573)
Neigh time (%) = 0 (0)
Comm  time (%) = 0.00357283 (4.14375)
Outpt time (%) = 0.000691087 (0.80152)
Other time (%) = 0.0083613 (9.6974)

Nlocal:    2500 ave 2515 max 2480 min
Histogram: 1 0 0 0 0 1 0 1 0 1
Nghost:    1005 ave 1009 max 1002 min
Histogram: 1 1 0 0 0 1 0 0 0 1
Neighs:    47023.8 ave 47395 max 46537 min
Histogram: 1 0 0 0 0 1 1 0 0 1

Total # of neighbors = 188095
Ave neighs/atom = 18.8095
Neighbor list builds = 0
Dangerous builds = 0
run 100    
Setting up run at Tue Mar  7 13:28:00 2023

Memory usage per processor = 10.4557 Mbytes
    Step    Atoms         KinEng            rke         Volume       centerOf       dragtota       dragtota       dragtota 
   19401    10000      3.1732099     0.36333152          50.76     0.76556337     -46.852303     -89.426665      10735.702 
   19410    10000      3.2211463     0.36374082          50.76     0.76562332     -46.852303     -89.426665      10735.702 
   19420    10000      3.2764595     0.36516044          50.76     0.76569052     -46.852303     -89.426665      10735.702 
   19430    10000      3.3328669     0.36683363          50.76     0.76575834     -46.852303     -89.426665      10735.702 
   19440    10000      3.3894077     0.36804729          50.76      0.7658268     -46.852303     -89.426665      10735.702 
   19450    10000      3.4466574     0.36939161          50.76     0.76589588     -46.852303     -89.426665      10735.702 
   19460    10000      3.5031847      0.3701233          50.76     0.76596559     -46.852303     -89.426665      10735.702 
   19470    10000      3.5604257     0.37146124          50.76     0.76603593     -46.852303     -89.426665      10735.702 
   19480    10000       3.618667     0.37304649          50.76      0.7661069     -46.852303     -89.426665      10735.702 
   19490    10000      3.6774552     0.37430139          50.76      0.7661785     -46.852303     -89.426665      10735.702 
CFD Coupling established at step 19500
   19500    10000      3.7370765     0.37590424          50.76     0.76625073     -46.852303     -89.426665      10735.702 
   19501    10000      3.7430798     0.37599704          50.76     0.76625799     -46.852303     -89.426665      10735.702 
Loop time of 0.0858814 on 4 procs for 100 steps with 10000 atoms, finish time Tue Mar  7 13:28:00 2023


Pair  time (%) = 0.0732376 (85.2776)
Neigh time (%) = 0 (0)
Comm  time (%) = 0.00356901 (4.15574)
Outpt time (%) = 0.000697898 (0.81263)
Other time (%) = 0.00837685 (9.75398)

Nlocal:    2500 ave 2515 max 2480 min
Histogram: 1 0 0 0 0 1 0 1 0 1
Nghost:    1005.25 ave 1010 max 1002 min
Histogram: 1 1 0 0 0 1 0 0 0 1
Neighs:    46992.8 ave 47366 max 46507 min
Histogram: 1 0 0 0 0 1 1 0 0 1

Total # of neighbors = 187971
Ave neighs/atom = 18.7971
Neighbor list builds = 0
Dangerous builds = 0
run 100    
Setting up run at Tue Mar  7 13:28:00 2023

Memory usage per processor = 10.4557 Mbytes
    Step    Atoms         KinEng            rke         Volume       centerOf       dragtota       dragtota       dragtota 
   19501    10000      3.7430798     0.37599704          50.76     0.76625799     -54.573529     -92.003686       10405.43 
   19510    10000      3.7709084     0.37649822          50.76     0.76632347     -54.573529     -92.003686       10405.43 
   19520    10000      3.8035083      0.3780866          50.76     0.76639652     -54.573529     -92.003686       10405.43 
   19530    10000      3.8360949     0.37951964          50.76     0.76646991     -54.573529     -92.003686       10405.43 
   19540    10000      3.8690564     0.38097228          50.76     0.76654364     -54.573529     -92.003686       10405.43 
   19550    10000      3.9021727     0.38227395          50.76      0.7666177     -54.573529     -92.003686       10405.43 
   19560    10000      3.9354292     0.38350399          50.76     0.76669211     -54.573529     -92.003686       10405.43 
   19570    10000      3.9686466     0.38478442          50.76     0.76676687     -54.573529     -92.003686       10405.43 
   19580    10000      4.0026766      0.3867205          50.76     0.76684198     -54.573529     -92.003686       10405.43 
   19590    10000      4.0371478     0.38893687          50.76     0.76691744     -54.573529     -92.003686       10405.43 
CFD Coupling established at step 19600
   19600    10000      4.0718415     0.39120372          50.76     0.76699327     -54.573529     -92.003686       10405.43 
   19601    10000      4.0753194     0.39144028          50.76     0.76700087     -54.573529     -92.003686       10405.43 
Loop time of 0.0860212 on 4 procs for 100 steps with 10000 atoms, finish time Tue Mar  7 13:28:00 2023


Pair  time (%) = 0.073284 (85.193)
Neigh time (%) = 0 (0)
Comm  time (%) = 0.00357209 (4.15257)
Outpt time (%) = 0.000710427 (0.825875)
Other time (%) = 0.00845467 (9.82859)

Nlocal:    2500 ave 2517 max 2478 min
Histogram: 1 0 0 0 0 1 0 1 0 1
Nghost:    1005.25 ave 1008 max 1001 min
Histogram: 1 0 0 0 1 0 0 0 0 2
Neighs:    46957.5 ave 47358 max 46443 min
Histogram: 1 0 0 0 0 1 1 0 0 1

Total # of neighbors = 187830
Ave neighs/atom = 18.783
Neighbor list builds = 0
Dangerous builds = 0
run 100    
Setting up run at Tue Mar  7 13:28:00 2023

Memory usage per processor = 10.4557 Mbytes
    Step    Atoms         KinEng            rke         Volume       centerOf       dragtota       dragtota       dragtota 
   19601    10000      4.0753194     0.39144028          50.76     0.76700087     -30.155987     -79.784896      10092.282 
   19610    10000      4.0810689     0.39233429          50.76     0.76706932     -30.155987     -79.784896      10092.282 
   19620    10000       4.088908      0.3947565          50.76     0.76714544     -30.155987     -79.784896      10092.282 
   19630    10000      4.0972522     0.39710584          50.76     0.76722163     -30.155987     -79.784896      10092.282 
   19640    10000      4.1060392     0.39960817          50.76      0.7672979     -30.155987     -79.784896      10092.282 
   19650    10000      4.1152804     0.40211153          50.76     0.76737425     -30.155987     -79.784896      10092.282 
   19660    10000        4.12465     0.40475799          50.76     0.76745068     -30.155987     -79.784896      10092.282 
   19670    10000      4.1338831     0.40721974          50.76      0.7675272     -30.155987     -79.784896      10092.282 
   19680    10000      4.1428371     0.40969752          50.76     0.76760381     -30.155987     -79.784896      10092.282 
   19690    10000      4.1519788     0.41194215          50.76     0.76768051     -30.155987     -79.784896      10092.282 
CFD Coupling established at step 19700
   19700    10000      4.1610731     0.41404805          50.76     0.76775731     -30.155987     -79.784896      10092.282 
   19701    10000      4.1619961     0.41424389          50.76     0.76776499     -30.155987     -79.784896      10092.282 
Loop time of 0.0862228 on 4 procs for 100 steps with 10000 atoms, finish time Tue Mar  7 13:28:00 2023


Pair  time (%) = 0.0733415 (85.0604)
Neigh time (%) = 0 (0)
Comm  time (%) = 0.00358498 (4.15781)
Outpt time (%) = 0.000725181 (0.841055)
Other time (%) = 0.00857114 (9.94069)

Nlocal:    2500 ave 2518 max 2477 min
Histogram: 1 0 0 0 0 1 0 1 0 1
Nghost:    1005.25 ave 1009 max 1000 min
Histogram: 1 0 0 0 1 0 0 0 1 1
Neighs:    46919.5 ave 47352 max 46378 min
Histogram: 1 0 0 0 0 1 1 0 0 1

Total # of neighbors = 187678
Ave neighs/atom = 18.7678
Neighbor list builds = 0
Dangerous builds = 0
run 100    
Setting up run at Tue Mar  7 13:28:00 2023

Memory usage per processor = 10.4557 Mbytes
    Step    Atoms         KinEng            rke         Volume       centerOf       dragtota       dragtota       dragtota 
   19701    10000      4.1619961     0.41424389          50.76     0.76776499     -19.742897     -69.840759      10020.981 
   19710    10000      4.1629781     0.41467791          50.76     0.76783417     -19.742897     -69.840759      10020.981 
   19720    10000      4.1655488     0.41630877          50.76     0.76791106     -19.742897     -69.840759      10020.981 
   19730    10000      4.1686443     0.41745236          50.76     0.76798798     -19.742897     -69.840759      10020.981 
   19740    10000      4.1723646     0.41872614          50.76     0.76806495     -19.742897     -69.840759      10020.981 
   19750    10000       4.176385     0.41979943          50.76     0.76814196     -19.742897     -69.840759      10020.981 
   19760    10000      4.1804872     0.42045293          50.76     0.76821903     -19.742897     -69.840759      10020.981 
   19770    10000      4.1844635     0.42086121          50.76     0.76829614     -19.742897     -69.840759      10020.981 
   19780    10000      4.1886818     0.42145381          50.76     0.76837331     -19.742897     -69.840759      10020.981 
   19790    10000      4.1934323     0.42220501          50.76     0.76845053     -19.742897     -69.840759      10020.981 
CFD Coupling established at step 19800
   19800    10000      4.1983023     0.42305817          50.76     0.76852782     -19.742897     -69.840759      10020.981 
   19801    10000      4.1988071     0.42316765          50.76     0.76853555     -19.742897     -69.840759      10020.981 
Loop time of 0.0862849 on 4 procs for 100 steps with 10000 atoms, finish time Tue Mar  7 13:28:00 2023


Pair  time (%) = 0.0735353 (85.2238)
Neigh time (%) = 0 (0)
Comm  time (%) = 0.00356898 (4.13627)
Outpt time (%) = 0.000709119 (0.821834)
Other time (%) = 0.00847149 (9.81804)

Nlocal:    2500 ave 2517 max 2478 min
Histogram: 1 0 0 0 0 1 0 1 0 1
Nghost:    1004.25 ave 1008 max 1000 min
Histogram: 1 0 0 1 0 0 0 1 0 1
Neighs:    46885 ave 47308 max 46346 min
Histogram: 1 0 0 0 0 1 1 0 0 1

Total # of neighbors = 187540
Ave neighs/atom = 18.754
Neighbor list builds = 0
Dangerous builds = 0
run 100    
Setting up run at Tue Mar  7 13:28:00 2023

Memory usage per processor = 10.4557 Mbytes
    Step    Atoms         KinEng            rke         Volume       centerOf       dragtota       dragtota       dragtota 
   19801    10000      4.1988071     0.42316765          50.76     0.76853555      -17.95149     -76.172924      10009.793 
   19810    10000      4.2016148     0.42287288          50.76     0.76860514      -17.95149     -76.172924      10009.793 
   19820    10000      4.2064319     0.42411622          50.76     0.76868252      -17.95149     -76.172924      10009.793 
   19830    10000      4.2118714      0.4250595          50.76     0.76875994      -17.95149     -76.172924      10009.793 
   19840    10000      4.2175386     0.42597843          50.76     0.76883742      -17.95149     -76.172924      10009.793 
   19850    10000      4.2236299     0.42689374          50.76     0.76891496      -17.95149     -76.172924      10009.793 
   19860    10000      4.2302617     0.42783413          50.76     0.76899256      -17.95149     -76.172924      10009.793 
   19870    10000      4.2368685      0.4283649          50.76     0.76907023      -17.95149     -76.172924      10009.793 
   19880    10000      4.2436067      0.4289697          50.76     0.76914796      -17.95149     -76.172924      10009.793 
   19890    10000      4.2504848     0.42983167          50.76     0.76922575      -17.95149     -76.172924      10009.793 
CFD Coupling established at step 19900
   19900    10000      4.2572953     0.43053514          50.76     0.76930361      -17.95149     -76.172924      10009.793 
   19901    10000      4.2579117     0.43055847          50.76      0.7693114      -17.95149     -76.172924      10009.793 
Loop time of 0.0864878 on 4 procs for 100 steps with 10000 atoms, finish time Tue Mar  7 13:28:00 2023


Pair  time (%) = 0.0736306 (85.1341)
Neigh time (%) = 0 (0)
Comm  time (%) = 0.00358021 (4.13956)
Outpt time (%) = 0.00071779 (0.829932)
Other time (%) = 0.00855921 (9.89643)

Nlocal:    2500 ave 2517 max 2478 min
Histogram: 1 0 0 0 0 1 0 1 0 1
Nghost:    1004.5 ave 1008 max 1000 min
Histogram: 1 0 0 1 0 0 0 0 1 1
Neighs:    46854.2 ave 47275 max 46304 min
Histogram: 1 0 0 0 0 1 1 0 0 1

Total # of neighbors = 187417
Ave neighs/atom = 18.7417
Neighbor list builds = 0
Dangerous builds = 0
run 100    
Setting up run at Tue Mar  7 13:28:00 2023

Memory usage per processor = 10.4557 Mbytes
    Step    Atoms         KinEng            rke         Volume       centerOf       dragtota       dragtota       dragtota 
   19901    10000      4.2579117     0.43055847          50.76      0.7693114     -13.811054     -83.955076      9948.1433 
   19910    10000       4.256371     0.42930776          50.76     0.76938151     -13.811054     -83.955076      9948.1433 
   19920    10000      4.2566107     0.42985164          50.76     0.76945943     -13.811054     -83.955076      9948.1433 
   19930    10000      4.2571649     0.43042153          50.76     0.76953736     -13.811054     -83.955076      9948.1433 
   19940    10000      4.2579392     0.43070839          50.76     0.76961532     -13.811054     -83.955076      9948.1433 
   19950    10000      4.2590559     0.43124613          50.76     0.76969329     -13.811054     -83.955076      9948.1433 
   19960    10000      4.2604634     0.43206808          50.76     0.76977128     -13.811054     -83.955076      9948.1433 
   19970    10000      4.2616021     0.43262531          50.76      0.7698493     -13.811054     -83.955076      9948.1433 
   19980    10000      4.2626186     0.43330432          50.76     0.76992733     -13.811054     -83.955076      9948.1433 
   19990    10000       4.264067     0.43377136          50.76      0.7700054     -13.811054     -83.955076      9948.1433 
CFD Coupling established at step 20000
   20000    10000      4.2658324     0.43411526          50.76     0.77008349     -13.811054     -83.955076      9948.1433 
   20001    10000      4.2660406     0.43416442          50.76      0.7700913     -13.811054     -83.955076      9948.1433 
Loop time of 0.0923225 on 4 procs for 100 steps with 10000 atoms, finish time Tue Mar  7 13:28:01 2023


Pair  time (%) = 0.073497 (79.609)
Neigh time (%) = 0 (0)
Comm  time (%) = 0.00357606 (3.87344)
Outpt time (%) = 0.0068946 (7.46795)
Other time (%) = 0.00835487 (9.04965)

Nlocal:    2500 ave 2516 max 2479 min
Histogram: 1 0 0 0 0 1 0 1 0 1
Nghost:    1004.5 ave 1007 max 1001 min
Histogram: 1 0 0 1 0 0 0 0 0 2
Neighs:    46833 ave 47232 max 46316 min
Histogram: 1 0 0 0 0 1 0 1 0 1

Total # of neighbors = 187332
Ave neighs/atom = 18.7332
Neighbor list builds = 0
Dangerous builds = 0
