FoamFile
{version 2.0; format ascii;class vectorField; location 0;object  v;}
348
(
( 0.00499082 0.000182853 0.00617824 )  
( -0.000226049 0.00293606 0.00175306 )  
( -0.00319291 0.0024442 0.000805695 )  
( 0.00238856 0.000951283 0.0013845 )  
( 0.00216526 0.00134307 0.002522 )  
( 0.00199156 0.00187285 0.000974867 )  
( 0.0050207 0.00284969 0.00228232 )  
( -0.00474688 0.00335771 0.00470417 )  
( -0.000281521 0.00133447 0.00249641 )  
( 0.00330124 0.000630642 0.00086169 )  
( -0.0037265 0.00181746 0.00103384 )  
( -0.00115543 -0.00490881 0.0070005 )  
( 0.000831695 0.00163749 0.000663232 )  
( 0.00187683 -0.000164112 0.00336345 )  
( 0.00527286 0.00359726 0.0165891 )  
( 0.000508827 0.000749965 0.0105854 )  
( 0.00178104 -0.00348206 0.00213778 )  
( 0.000665238 -0.0044603 0.000334466 )  
( 0.00352425 -0.00266956 0.00966871 )  
( 0.00204142 -0.00205104 0.0161087 )  
( 0.00267019 0.00168093 0.00286437 )  
( -0.000494656 0.000486854 0.00244816 )  
( 0.00269143 0.000685699 0.000463487 )  
( 0.00288728 0.00199124 0.00990546 )  
( -0.00322539 -0.00543133 0.00837444 )  
( 0.00311107 0.00133191 0.00979435 )  
( -0.00218799 0.00233849 0.00114555 )  
( 0.00248148 -0.00184252 0.0161604 )  
( 0.000546644 -0.00311997 0.0158707 )  
( 0.000692711 0.00201952 0.00302246 )  
( 0.000560787 0.000924629 0.0187895 )  
( 0.00547639 0.000672027 0.0159672 )  
( -0.000763925 -0.000851633 0.0097424 )  
( 0.00346899 0.0020165 0.00545291 )  
( -0.00200893 -0.00187926 0.0166212 )  
( -0.00266251 0.00381369 0.00361117 )  
( -0.00569679 -0.000376576 0.0147621 )  
( 8.39221e-05 -0.00135599 0.0114096 )  
( 0.000190086 0.00152852 0.0103237 )  
( -0.00175913 0.00312039 0.0190968 )  
( -0.00332429 -0.00221602 0.0135549 )  
( -0.000695652 -0.0015193 0.0103903 )  
( -0.000915801 0.0045 0.00939918 )  
( 0.00377246 0.00224841 0.0114764 )  
( 0.00274469 0.00449616 0.0225292 )  
( 0.00158923 0.00466659 0.013141 )  
( 0.00423239 -0.00256489 0.0238621 )  
( -2.27089e-05 -0.000797152 0.0274496 )  
( -0.000710103 -0.00176006 0.0276802 )  
( 0.00114718 -0.00194504 0.0226623 )  
( -0.00809886 -0.00025416 0.0123261 )  
( -0.000123735 0.00223874 0.023396 )  
( -0.00259069 0.000589457 0.0338995 )  
( -0.00540474 -0.00107427 0.0227328 )  
( 0.000332562 -0.00699309 0.0264259 )  
( 0.00240847 -0.000677055 0.019306 )  
( 0.000440562 -0.0024537 0.0193966 )  
( 0.01002 0.00419927 0.0241169 )  
( -0.000650814 0.00263522 0.0273851 )  
( 0.00397479 0.00118989 0.021356 )  
( -0.00427928 -0.000595098 0.0274885 )  
( -0.000402266 -0.00125288 0.0334368 )  
( -0.000518963 -0.00288542 0.0300953 )  
( 0.000666903 -0.00164434 0.0246226 )  
( 0.0014093 0.00440484 0.0268534 )  
( -0.000973696 -0.000332567 0.0248866 )  
( 0.00183027 -0.00628547 0.0338999 )  
( 0.000316795 0.000462711 0.0297762 )  
( -0.00166484 -0.00283498 0.0288178 )  
( 0.00120402 -0.00165489 0.0330875 )  
( -0.00240566 -0.00229508 0.0372772 )  
( 0.00550643 -0.0015225 0.02554 )  
( -0.00360041 0.00152869 0.0282178 )  
( -0.0036071 -0.000440612 0.0365245 )  
( -0.000195762 -0.00403824 0.0350417 )  
( -0.00456042 -8.27128e-06 0.0404207 )  
( 0.00629345 -0.00212481 0.0345306 )  
( 0.00624604 -0.00105311 0.036162 )  
( -0.00104092 -0.00326966 0.0418411 )  
( 0.000492095 0.000886991 0.0372378 )  
( -0.000416549 -0.000648413 0.0261066 )  
( 0.00376573 0.00209324 0.0375925 )  
( 0.00343149 -0.00535869 0.0353249 )  
( 0.0028798 -0.00905196 0.0343352 )  
( -0.00524539 -0.00597489 0.0439636 )  
( 0.00356554 0.00300691 0.0321791 )  
( -0.000483855 -0.00326555 0.0531474 )  
( 0.000241863 -0.00264006 0.0512804 )  
( -0.00578542 -0.00301102 0.0359333 )  
( -0.0116082 3.56227e-05 0.0484195 )  
( -0.00118192 -0.00569398 0.0463622 )  
( -0.000642474 -0.00940147 0.0417787 )  
( 0.00834492 -0.00585622 0.039917 )  
( -0.00410716 -0.00296578 0.042798 )  
( -0.00384029 -0.00651788 0.0516365 )  
( -0.00430903 -0.00116779 0.0366417 )  
( 0.000223734 -0.00443531 0.0328793 )  
( 0.00118156 0.000361968 0.0424714 )  
( -0.00477477 0.000376744 0.06447 )  
( -0.00239408 -0.00100972 0.0633355 )  
( 0.00534391 -0.00705159 0.0544004 )  
( -0.000646201 -0.00477955 0.0576749 )  
( 0.000102022 -0.00368304 0.0586619 )  
( 0.00119576 -0.00213722 0.0561326 )  
( -0.000740269 -0.00582469 0.0574733 )  
( -0.00249133 0.00153182 0.0493242 )  
( -0.000849939 -0.00176065 0.0497101 )  
( -0.000466041 -0.00490083 0.0502635 )  
( 0.000724409 -0.00256945 0.0788363 )  
( -0.00248649 -0.00666102 0.056492 )  
( 0.000659508 -0.000876286 0.0517414 )  
( -0.00490418 -6.05317e-05 0.0516409 )  
( 0.00266165 -0.00359615 0.0595355 )  
( 0.002302 -0.00578842 0.0609347 )  
( 0.00421828 -0.0084833 0.0687359 )  
( 0.00788791 -0.00511602 0.0528721 )  
( -0.00143232 -0.00873826 0.0687429 )  
( -0.00051613 -0.00503572 0.058066 )  
( 0.00236044 -0.00673703 0.0675276 )  
( 0.00715234 -0.00692627 0.0697262 )  
( 0.00393012 -0.00760644 0.061085 )  
( 0.00316429 -0.00214434 0.0602347 )  
( -0.000422909 -0.0046251 0.0713757 )  
( 0.00638885 -0.00441027 0.0560316 )  
( 0.00394996 -0.00176082 0.0670439 )  
( -0.000851774 -0.00604543 0.0708076 )  
( -0.00548993 0.00262765 0.0635594 )  
( -0.00721176 0.00365211 0.0841641 )  
( -0.00661602 0.00133663 0.0765103 )  
( 0.00725647 -0.00256147 0.0841281 )  
( 0.00480635 -0.00745251 0.0765879 )  
( -0.00302413 -0.00526377 0.0770672 )  
( -0.00242221 -0.00265927 0.0785116 )  
( 0.00401466 -0.00478409 0.0706708 )  
( -0.00123248 -0.00815146 0.0595178 )  
( 0.0046528 -0.00631666 0.0740574 )  
( -0.00341301 -0.00223188 0.0779683 )  
( -0.00379872 0.00384671 0.0899456 )  
( -0.000448049 -0.00797338 0.0743292 )  
( -0.00428138 0.00303249 0.0773243 )  
( 0.00650281 -0.00448194 0.0856273 )  
( -0.000992782 -0.00355441 0.0887206 )  
( -0.00221904 -0.00620321 0.0802391 )  
( 0.0043359 -0.00175663 0.0857203 )  
( -0.00139832 -0.00192102 0.0931795 )  
( 0.00339861 -0.00601787 0.0805065 )  
( 0.00142434 0.0021154 0.0996379 )  
( -0.00275792 -0.000726031 0.0810747 )  
( -0.00559257 -0.00880428 0.0967005 )  
( -3.25895e-06 -0.00770853 0.0924772 )  
( -0.00295449 -0.0026848 0.0828202 )  
( 0.000229432 0.000790808 0.0752069 )  
( 0.00979941 -0.00581596 0.0737486 )  
( -0.00603754 0.000244487 0.0842332 )  
( -0.00170134 0.00253243 0.0926372 )  
( 0.00139049 -0.00530866 0.0979085 )  
( 0.00109572 -0.00350199 0.106918 )  
( -0.000183109 0.00276901 0.0892843 )  
( -0.00932073 -0.00235495 0.0944064 )  
( 0.00384168 -0.00289769 0.0883374 )  
( -0.00207038 -0.000975122 0.0958945 )  
( 0.000892393 0.00403934 0.0972662 )  
( 0.000363362 -0.00174149 0.0974223 )  
( 0.00170831 -0.00641858 0.101225 )  
( -0.000951219 0.00203877 0.106095 )  
( -0.00204686 -0.00458565 0.0949718 )  
( 0.0033049 0.00301745 0.087125 )  
( -0.00219084 0.00405847 0.100142 )  
( 0.00163354 0.00731518 0.102155 )  
( 2.71697e-05 0.00289126 0.0912014 )  
( 0.0019228 -0.00133349 0.101074 )  
( -0.00125955 -0.00757901 0.12168 )  
( -0.00286931 4.02991e-05 0.105515 )  
( 0.00400257 -0.00216963 0.106623 )  
( 0.000645179 -0.00320342 0.108963 )  
( -0.00727744 0.00255971 0.108006 )  
( -0.0137905 0.00102609 0.107923 )  
( -0.000452122 -0.000772293 0.109923 )  
( 0.00278777 -0.00548627 0.102643 )  
( 0.00439712 0.00153769 0.110774 )  
( -0.000536124 0.00388296 0.098018 )  
( -0.00838871 0.00733487 0.127603 )  
( -0.00105328 -0.00356367 0.114876 )  
( -0.00231906 0.00190341 0.125061 )  
( -0.00416824 0.00189306 0.113642 )  
( -0.0043149 -0.00166206 0.120478 )  
( -0.00745136 -0.00134795 0.0956462 )  
( 0.0011982 -0.00267763 0.109468 )  
( 0.0021333 -0.00238302 0.138065 )  
( -0.00575227 0.00141971 0.121924 )  
( 0.00213612 0.00370017 0.112433 )  
( 0.0028744 -0.00125192 0.11974 )  
( -0.00338789 -0.000341514 0.10943 )  
( 0.00404008 0.00107644 0.118027 )  
( -0.00502362 0.000265422 0.118281 )  
( -0.00611041 0.000564139 0.115328 )  
( 0.00261535 0.00498778 0.136027 )  
( 7.97281e-05 0.000452041 0.134185 )  
( -0.00714142 -0.00944927 0.124847 )  
( 0.000256797 0.00018683 0.133733 )  
( -0.00392255 0.00636808 0.131704 )  
( 0.00206914 0.00457015 0.122536 )  
( -0.00170515 0.000661451 0.134793 )  
( 0.00384605 0.0048488 0.134014 )  
( -0.00377888 -0.00403497 0.13038 )  
( -0.00207756 0.00129948 0.128065 )  
( -0.00164913 0.0052923 0.118463 )  
( -0.0133922 -0.00229672 0.123659 )  
( -0.00669249 -0.000862795 0.120681 )  
( -0.00266848 -0.00047423 0.121868 )  
( -0.0102351 -0.00805116 0.121741 )  
( 0.00136879 0.00204639 0.131803 )  
( 0.000598273 0.00373803 0.130069 )  
( -0.00156988 -0.0043166 0.139787 )  
( 0.0013311 0.00644029 0.129596 )  
( -0.00194394 -0.00110643 0.130651 )  
( -0.00410792 0.0019065 0.145739 )  
( 0.000525443 0.0053268 0.127949 )  
( 0.00159124 0.0090757 0.146341 )  
( -0.00488714 -0.00385647 0.136763 )  
( 0.000151672 0.00327845 0.143052 )  
( 0.00677901 -7.99582e-05 0.129649 )  
( -6.26045e-05 -0.00521513 0.126581 )  
( 0.00464255 -0.00284434 0.142117 )  
( -0.00205596 0.00236304 0.147212 )  
( 0.000568446 0.00888968 0.141411 )  
( 0.00237169 0.00593066 0.149688 )  
( 0.00643306 0.00795917 0.150084 )  
( 0.00102519 0.00792037 0.15814 )  
( 0.00640761 -0.0096265 0.151471 )  
( 0.00212193 0.00692839 0.140793 )  
( 0.00139068 -0.000725877 0.154138 )  
( -0.000405359 0.0106527 0.126857 )  
( -0.00386384 -0.00332349 0.147606 )  
( -0.0100065 -0.00112496 0.13358 )  
( -0.00157497 0.00494363 0.143104 )  
( -0.00189642 0.00719685 0.143321 )  
( -7.82024e-05 0.00811361 0.141249 )  
( -0.00420771 -0.00185089 0.151292 )  
( 0.00613092 -0.000189603 0.145976 )  
( 0.001986 -0.00260612 0.152065 )  
( 0.00394565 0.0020329 0.14515 )  
( -0.00235287 0.00195976 0.151969 )  
( -0.000310432 0.00302264 0.157803 )  
( -0.00475375 -0.000910878 0.14139 )  
( -0.012804 -0.000347822 0.136045 )  
( -0.00197687 0.00139767 0.146119 )  
( 0.00506135 0.00529482 0.148051 )  
( -0.000426515 -0.00484832 0.15683 )  
( 0.00407609 0.00777133 0.147994 )  
( -0.00127592 0.000783074 0.152523 )  
( 0.0111134 -0.000309728 0.149539 )  
( 0.0073693 0.00713551 0.148598 )  
( -0.00114428 -0.00310086 0.159863 )  
( 0.00323095 -0.0011403 0.157195 )  
( 0.00339058 -0.00798727 0.158446 )  
( 0.011077 0.0174758 0.150927 )  
( -0.00493651 0.0057705 0.153308 )  
( 0.00399897 0.00498025 0.150039 )  
( -0.000273535 0.000360449 0.154912 )  
( 0.000968252 0.00257279 0.147418 )  
( 0.0116131 0.00502638 0.144546 )  
( 0.000901296 -0.00475323 0.14818 )  
( 0.00484711 0.00725718 0.150508 )  
( 0.00915505 0.00246398 0.153449 )  
( 0.00230896 0.00783689 0.142181 )  
( -0.000964313 0.00325334 0.153516 )  
( -0.00491733 0.00960186 0.157728 )  
( 0.00349537 0.00364175 0.156583 )  
( -6.32805e-05 0.00221885 0.152177 )  
( 0.0103879 0.0189198 0.153974 )  
( -0.00610806 0.00752756 0.150159 )  
( 0.00585735 -0.00239611 0.162626 )  
( -0.00191194 1.49844e-05 0.156953 )  
( -0.00697182 0.00240763 0.154017 )  
( 0.00981793 0.00848883 0.158538 )  
( -0.00608546 0.00309896 0.164021 )  
( -0.000284152 0.0024848 0.15645 )  
( -0.00120735 -0.00343796 0.15006 )  
( 0.00792056 -0.00239655 0.145086 )  
( -0.00688179 -0.00143746 0.169308 )  
( -0.00120447 0.00289988 0.133593 )  
( -0.00960456 -0.0118949 0.177339 )  
( -0.00403368 -0.00152244 0.157893 )  
( 0.00242413 -0.000474054 0.164339 )  
( -0.00110555 0.00450989 0.158224 )  
( 0.00482677 0.00954846 0.154061 )  
( -0.0158149 -0.00955289 0.180987 )  
( 0.00281801 0.00729562 0.138616 )  
( -0.00064609 -0.000299059 0.149379 )  
( -0.0176272 -0.00415157 0.176423 )  
( 0.00391244 0.00971299 0.155173 )  
( 0.00130995 0.00693901 0.159961 )  
( 0.0150307 0.00562419 0.134776 )  
( -0.0085893 -0.00417101 0.147119 )  
( -0.011107 0.000346118 0.165811 )  
( 0.00418056 0.00898976 0.153083 )  
( 0.0102956 -0.00276982 0.128482 )  
( -0.00806379 0.00180206 0.170774 )  
( -0.00725861 -0.000646788 0.1487 )  
( -0.000810994 0.00581623 0.159768 )  
( -0.0100937 -0.00951786 0.156976 )  
( -0.00261593 0.00475117 0.163456 )  
( -0.00604129 0.00636053 0.161763 )  
( -0.0182688 -0.000145529 0.168536 )  
( 0.000883258 0.00135944 0.141081 )  
( -0.00790079 0.00837565 0.149227 )  
( -0.00628718 0.0236663 0.195551 )  
( -0.00338414 -0.00199642 0.171619 )  
( -0.0044766 0.00761515 0.16785 )  
( -0.00231612 0.00835463 0.162563 )  
( -0.011834 -0.0184767 0.149165 )  
( 0.00974961 -0.00823608 0.131655 )  
( -0.00842789 -0.00325173 0.174359 )  
( 0.0194521 0.000813484 0.143347 )  
( 0.0139318 0.017503 0.108207 )  
( 0.0297591 0.0231473 0.127338 )  
( -0.00569419 0.0136336 0.138102 )  
( 0.00287182 0.00634414 0.161962 )  
( 0.026244 -0.0401634 0.148034 )  
( 0.0134091 -0.00448538 0.147857 )  
( 0.00435979 0.0227228 0.162238 )  
( -0.00297009 -0.0141677 0.142326 )  
( 0.00731742 0.00431331 0.14759 )  
( 0.019984 0.00816895 0.12412 )  
( -0.00554698 0.00314185 0.17213 )  
( 0.00848378 0.0162202 0.149901 )  
( -0.0424129 -0.0227971 0.0602569 )  
( 0.000971648 0.00296429 0.00578251 )  
( 0.0225821 0.0023106 0.15045 )  
( -0.0160461 0.00557217 0.139979 )  
( 0.0263865 0.0306308 0.116339 )  
( 0.00047839 0.000195557 0.0076925 )  
( -0.0104841 -0.0239482 0.0937563 )  
( 0.0125926 0.0106859 0.159419 )  
( 0.00267149 0.00412374 0.0151364 )  
( 0.00611566 -0.0480015 0.121256 )  
( 0.0151792 0.0287445 0.16339 )  
( -0.0125363 -0.0198336 0.0834678 )  
( -0.00397706 0.0350266 0.133019 )  
( 0.0159052 0.00257621 0.156407 )  
( 0.00683377 -0.0148773 0.15833 )  
( -0.0291007 0.00324134 0.0856343 )  
( 0.00248389 -0.0016376 0.0541051 )  
( 0.00138835 0.001757 -0.000227708 )  
( -0.000137979 0.000355205 0.0109256 )  
( -0.000478135 0.00391419 0.0120282 )  
( -0.00125738 0.00079348 0.00343615 )  
)
