/*--------------------------------*- C++ -*----------------------------------*\
| =========                 |                                                 |
| \\      /  F ield         | OpenFOAM: The Open Source CFD Toolbox           |
|  \\    /   O peration     | Version:  5.x                                   |
|   \\  /    A nd           | Web:      www.OpenFOAM.org                      |
|    \\/     M anipulation  |                                                 |
\*---------------------------------------------------------------------------*/
FoamFile
{
    version     2.0;
    format      ascii;
    class       surfaceScalarField;
    location    "3000";
    object      phi;
}
// * * * * * * * * * * * * * * * * * * * * * * * * * * * * * * * * * * * * * //

dimensions      [0 3 -1 0 0 0 0];

internalField   nonuniform List<scalar> 
179
(
-263.834
-263.677
-263.299
-262.697
-261.975
-261.126
-260.179
-259.16
-258.099
-257.028
-255.974
-254.967
-254.034
-253.199
-252.481
-251.9
-251.455
-251.147
-250.972
-250.924
-250.988
-251.147
-251.38
-251.665
-251.979
-252.299
-252.607
-252.886
-253.13
-253.336
-253.511
-253.674
-253.851
-254.08
-254.409
-254.898
-255.612
-256.627
-258.022
-259.884
-262.299
-265.357
-269.147
-273.756
-279.274
-285.789
-293.393
-302.185
-312.267
-323.755
-336.785
-351.522
-368.163
-386.951
-408.177
-432.194
-459.423
-490.363
-525.596
-565.795
-611.734
-664.286
-724.416
-793.207
-871.87
-961.74
-1064.29
-1181.1
-1313.93
-1464.65
-1635.28
-1827.98
-2045.04
-2288.85
-2561.85
-2866.19
-3204.66
-3580.1
-3997.07
-4550.3
-4698.55
-4631.82
-4859.58
-5374.84
-6342.27
-6859.78
-7262.95
-8221.1
-8311.77
-8080.63
-8470.08
-8506.65
-7821.43
-7064.27
-6744.03
-6653.62
-7338
-7011.98
-7161.57
-6968.33
-6273.65
-5594.96
-5391.41
-6415.16
-7156.11
-6829.53
-6287.87
-5627.03
-4960.05
-4377.61
-3864.12
-3409.87
-3010.6
-2660.26
-2353.1
-2084.02
-1848.49
-1642.45
-1462.31
-1304.89
-1167.39
-1047.36
-942.637
-851.335
-771.785
-702.524
-642.263
-589.865
-544.327
-504.765
-470.4
-440.547
-414.612
-392.074
-372.486
-355.465
-340.684
-327.866
-316.779
-307.225
-299.041
-292.085
-286.232
-281.368
-277.391
-274.206
-271.719
-269.84
-268.479
-267.547
-266.957
-266.624
-266.468
-266.413
-266.391
-266.343
-266.219
-265.982
-265.603
-265.069
-264.374
-263.525
-262.537
-261.437
-260.253
-259.018
-257.768
-256.539
-255.364
-254.274
-253.293
-252.441
-251.729
-251.161
-250.733
-250.433
-250.243
-250.137
-250.082
)
;

boundaryField
{
    inlet
    {
        type            calculated;
        value           uniform -250.008;
    }
    outlet
    {
        type            calculated;
        value           uniform 263.891;
    }
    repeat_boundary
    {
        type            calculated;
        value           uniform 0;
    }
    procBoundary1to0
    {
        type            processor;
        value           nonuniform List<scalar> 
180
(
-0.0406337
-0.116021
-0.193541
-0.267743
-0.337495
-0.401301
-0.457991
-0.506554
-0.546166
-0.576225
-0.596399
-0.606764
-0.605164
-0.591073
-0.566676
-0.528717
-0.488955
-0.444392
-0.392549
-0.335444
-0.274823
-0.212398
-0.149894
-0.0890359
-0.031522
0.0210067
0.067002
0.105043
0.133869
0.152404
0.159784
0.155367
0.138745
0.10974
0.0683897
0.0149312
-0.0502367
-0.126594
-0.213554
-0.310525
-0.416973
-0.532505
-0.656947
-0.790429
-0.933472
-1.08707
-1.2528
-1.43288
-1.63027
-1.84881
-2.09325
-2.36945
-2.68446
-3.04674
-3.46631
-3.95498
-4.52695
-5.19902
-5.99121
-6.92735
-8.03635
-9.35387
-10.922
-12.7925
-15.0285
-17.7071
-20.9223
-24.7958
-29.4695
-35.1207
-41.9665
-50.2737
-60.3697
-72.6564
-87.6269
-105.888
-128.218
-155.624
-189.759
-232.847
123.804
113.983
410.811
763.941
925.704
605.97
143.511
155.723
-427.601
-634.956
-179.469
-304.17
-570.969
-765.643
-1038.58
-787.806
-595.393
-1119.45
-273.696
-396.6
-1149.63
-1079.55
-17.2581
841.035
1588.24
907.997
507.663
672.944
632.409
548.194
474.577
410.584
355.396
307.778
266.665
231.147
200.444
173.888
150.905
131.004
113.765
98.8242
85.8707
74.6333
64.8818
56.417
49.0672
42.6838
37.1387
32.3208
28.1342
24.4956
21.3328
18.5834
16.1929
14.1141
12.3062
10.7336
9.36513
8.17363
7.13657
6.23373
5.44757
4.7629
4.16654
3.6471
3.19466
2.80061
2.45748
2.15873
1.89846
1.67202
1.47492
1.30322
1.15346
1.02262
0.908004
0.807239
0.718233
0.639154
0.568401
0.504601
0.446603
0.393327
0.344016
0.298067
0.255022
0.214613
0.176674
0.141158
0.108106
0.0776376
0.0499085
0.0251316
0.00342697
-0.0150401
-0.0300566
-0.0414557
-0.0493333
-0.0541702
)
;
    }
    procBoundary1to3
    {
        type            processor;
        value           nonuniform List<scalar> 
180
(
-0.0381256
-0.109297
-0.18221
-0.251584
-0.316212
-0.374492
-0.425142
-0.467021
-0.499153
-0.520743
-0.531188
-0.530091
-0.517284
-0.492844
-0.457442
-0.407361
-0.348835
-0.280921
-0.203422
-0.117523
-0.0242094
0.0747948
0.179316
0.288462
0.401128
0.516714
0.634853
0.755466
0.878846
1.00569
1.13718
1.27503
1.42152
1.57958
1.75284
1.94565
2.16313
2.41125
2.69687
3.02779
3.41284
3.86211
4.38692
5.00002
5.7158
6.55068
7.5236
8.65706
9.9701
11.4853
13.236
15.2559
17.5838
20.2639
23.3467
26.8904
30.9614
35.6358
41.0008
47.1561
54.2151
62.3062
71.5558
82.1331
94.2356
108.074
123.884
141.934
162.52
185.975
212.669
243.015
277.465
316.518
360.725
410.684
467.07
530.46
605.462
783.975
27.185
-179.291
-182.859
-249.084
40.0888
-87.3871
259.367
802.298
518.908
401.36
567.797
342.087
-113.545
7.6503
718.657
696.795
1279.06
794.233
423.555
203.472
454.967
400.807
-186.248
182.121
-849.201
-1235.79
-1048.62
-1327.8
-1292.82
-1132.1
-989.595
-863.665
-753.57
-657.345
-573.271
-499.838
-435.722
-379.757
-330.922
-288.319
-251.162
-218.764
-190.52
-165.903
-144.452
-125.761
-109.479
-95.2958
-82.9428
-72.1847
-62.8161
-54.6583
-47.555
-41.3704
-35.986
-31.2986
-27.2182
-23.6665
-20.5753
-17.8851
-15.5415
-13.501
-11.7282
-10.1873
-8.84743
-7.68219
-6.66863
-5.78687
-5.01963
-4.35181
-3.77052
-3.26455
-2.82422
-2.44113
-2.10803
-1.81867
-1.56764
-1.35028
-1.16257
-1.00102
-0.862612
-0.744702
-0.64492
-0.558952
-0.487394
-0.428514
-0.380738
-0.342619
-0.312823
-0.290104
-0.273299
-0.261333
-0.253228
-0.248116
-0.245207
-0.243798
-0.243292
-0.243224
-0.243371
-0.247152
)
;
    }
}


// ************************************************************************* //
