/*--------------------------------*- C++ -*----------------------------------*\
| =========                 |                                                 |
| \\      /  F ield         | OpenFOAM: The Open Source CFD Toolbox           |
|  \\    /   O peration     | Version:  5.x                                   |
|   \\  /    A nd           | Web:      www.OpenFOAM.org                      |
|    \\/     M anipulation  |                                                 |
\*---------------------------------------------------------------------------*/
FoamFile
{
    version     2.0;
    format      ascii;
    class       volScalarField;
    location    "0.09";
    object      p;
}
// * * * * * * * * * * * * * * * * * * * * * * * * * * * * * * * * * * * * * //

dimensions      [0 2 -2 0 0 0 0];

internalField   nonuniform List<scalar> 
2250
(
1.01875e-09
1.06433e-09
1.10535e-09
1.1767e-09
1.27563e-09
1.04297e-09
1.07611e-09
1.10043e-09
1.16272e-09
1.24264e-09
1.03604e-09
1.03966e-09
1.07531e-09
1.10951e-09
1.13999e-09
1.03157e-09
1.04452e-09
1.05158e-09
1.06162e-09
1.05269e-09
1.02659e-09
1.03411e-09
1.04826e-09
1.06322e-09
1.02666e-09
2.99688e-09
3.0777e-09
3.19457e-09
3.36188e-09
3.61022e-09
3.02565e-09
3.09102e-09
3.19625e-09
3.3302e-09
3.50015e-09
3.02028e-09
3.04936e-09
3.12111e-09
3.20385e-09
3.25301e-09
3.01427e-09
3.04152e-09
3.07352e-09
3.11785e-09
3.06817e-09
3.0412e-09
3.07729e-09
3.11473e-09
3.11202e-09
3.0616e-09
4.8047e-09
4.87599e-09
5.0438e-09
5.27336e-09
5.5581e-09
4.80424e-09
4.85905e-09
5.01001e-09
5.19695e-09
5.40089e-09
4.82214e-09
4.85545e-09
4.96787e-09
5.07494e-09
5.14828e-09
4.87408e-09
4.90544e-09
4.96546e-09
5.04102e-09
5.00682e-09
4.98596e-09
5.02896e-09
5.06719e-09
5.06112e-09
4.9742e-09
6.3582e-09
6.40117e-09
6.60321e-09
6.87215e-09
7.15397e-09
6.34771e-09
6.41401e-09
6.58522e-09
6.80808e-09
7.00255e-09
6.42955e-09
6.48236e-09
6.62759e-09
6.77721e-09
6.88738e-09
6.60373e-09
6.63877e-09
6.74109e-09
6.86172e-09
6.88812e-09
6.81624e-09
6.83589e-09
6.90549e-09
6.97029e-09
6.86173e-09
7.76001e-09
7.82026e-09
8.05266e-09
8.32214e-09
8.57562e-09
7.78852e-09
7.88338e-09
8.08976e-09
8.32557e-09
8.51047e-09
7.97386e-09
8.07326e-09
8.23302e-09
8.41445e-09
8.54863e-09
8.25456e-09
8.31569e-09
8.46306e-09
8.61862e-09
8.72116e-09
8.54713e-09
8.57931e-09
8.6978e-09
8.85906e-09
8.78445e-09
9.14096e-09
9.27045e-09
9.50672e-09
9.75091e-09
9.9599e-09
9.26952e-09
9.41259e-09
9.63273e-09
9.8409e-09
1.00019e-08
9.532e-09
9.67771e-09
9.83424e-09
1.00167e-08
1.01607e-08
9.86694e-09
9.97024e-09
1.01393e-08
1.02987e-08
1.04377e-08
1.02105e-08
1.02891e-08
1.04315e-08
1.06189e-08
1.05817e-08
1.05503e-08
1.07477e-08
1.09392e-08
1.11239e-08
1.12686e-08
1.07695e-08
1.09351e-08
1.11186e-08
1.12625e-08
1.13919e-08
1.10409e-08
1.11957e-08
1.13345e-08
1.14928e-08
1.16341e-08
1.13653e-08
1.14939e-08
1.16506e-08
1.18051e-08
1.19467e-08
1.17005e-08
1.18167e-08
1.19606e-08
1.2122e-08
1.21207e-08
1.18273e-08
1.20255e-08
1.21323e-08
1.2245e-08
1.23123e-08
1.20675e-08
1.22003e-08
1.23167e-08
1.24046e-08
1.2527e-08
1.22932e-08
1.24147e-08
1.25434e-08
1.26924e-08
1.28712e-08
1.2575e-08
1.27001e-08
1.28522e-08
1.30554e-08
1.32596e-08
1.28576e-08
1.30085e-08
1.31919e-08
1.33877e-08
1.35062e-08
1.27113e-08
1.28414e-08
1.28871e-08
1.29632e-08
1.30123e-08
1.29074e-08
1.29833e-08
1.3057e-08
1.31578e-08
1.33405e-08
1.30975e-08
1.31852e-08
1.3341e-08
1.35352e-08
1.38168e-08
1.33802e-08
1.35063e-08
1.37009e-08
1.40083e-08
1.43487e-08
1.36691e-08
1.3876e-08
1.41424e-08
1.44547e-08
1.47693e-08
1.30421e-08
1.31044e-08
1.31637e-08
1.3281e-08
1.34042e-08
1.31902e-08
1.32413e-08
1.33447e-08
1.35296e-08
1.38107e-08
1.34212e-08
1.35165e-08
1.37261e-08
1.3998e-08
1.4382e-08
1.37901e-08
1.39374e-08
1.41943e-08
1.45897e-08
1.50484e-08
1.42066e-08
1.44531e-08
1.47734e-08
1.51959e-08
1.56732e-08
1.28554e-08
1.29161e-08
1.30665e-08
1.32862e-08
1.35323e-08
1.30107e-08
1.30913e-08
1.32837e-08
1.35714e-08
1.39406e-08
1.33464e-08
1.34797e-08
1.37334e-08
1.40807e-08
1.45288e-08
1.38344e-08
1.40009e-08
1.42981e-08
1.47312e-08
1.52476e-08
1.44231e-08
1.46509e-08
1.49651e-08
1.54357e-08
1.60103e-08
1.23003e-08
1.24275e-08
1.2708e-08
1.30616e-08
1.34687e-08
1.25088e-08
1.26558e-08
1.29545e-08
1.33484e-08
1.38173e-08
1.29417e-08
1.31151e-08
1.34066e-08
1.3837e-08
1.43561e-08
1.35098e-08
1.36878e-08
1.40088e-08
1.44635e-08
1.50274e-08
1.42131e-08
1.4396e-08
1.46837e-08
1.51623e-08
1.5845e-08
1.14616e-08
1.16871e-08
1.21045e-08
1.26323e-08
1.32648e-08
1.17292e-08
1.19584e-08
1.23716e-08
1.29048e-08
1.35324e-08
1.22157e-08
1.24356e-08
1.27968e-08
1.33414e-08
1.39899e-08
1.28269e-08
1.30326e-08
1.33911e-08
1.38986e-08
1.45654e-08
1.35925e-08
1.37506e-08
1.40407e-08
1.45516e-08
1.53952e-08
1.02629e-08
1.05853e-08
1.11523e-08
1.19025e-08
1.28196e-08
1.05787e-08
1.0905e-08
1.14511e-08
1.21706e-08
1.30328e-08
1.11149e-08
1.14043e-08
1.18802e-08
1.25809e-08
1.34351e-08
1.17926e-08
1.20513e-08
1.249e-08
1.31208e-08
1.3975e-08
1.26306e-08
1.28044e-08
1.31856e-08
1.38227e-08
1.48344e-08
8.47948e-09
8.89011e-09
9.63028e-09
1.06303e-08
1.18647e-08
8.85097e-09
9.27839e-09
9.97357e-09
1.09262e-08
1.20889e-08
9.49442e-09
9.86551e-09
1.04954e-08
1.14158e-08
1.25419e-08
1.03224e-08
1.06558e-08
1.12549e-08
1.21082e-08
1.32267e-08
1.13128e-08
1.15782e-08
1.21828e-08
1.30644e-08
1.42664e-08
5.81615e-09
6.30976e-09
7.24565e-09
8.53235e-09
1.01082e-08
6.27086e-09
6.77538e-09
7.65763e-09
8.92545e-09
1.04386e-08
7.11799e-09
7.57509e-09
8.43411e-09
9.6802e-09
1.11402e-08
8.24815e-09
8.7007e-09
9.57436e-09
1.07719e-08
1.22371e-08
9.57329e-09
1.00232e-08
1.09655e-08
1.22096e-08
1.37251e-08
1.99054e-09
2.57382e-09
3.77583e-09
5.46814e-09
7.46023e-09
2.56912e-09
3.15779e-09
4.34643e-09
6.07614e-09
8.03253e-09
3.76321e-09
4.35985e-09
5.58972e-09
7.30682e-09
9.23223e-09
5.42145e-09
6.07297e-09
7.34618e-09
9.04301e-09
1.10041e-08
7.33116e-09
8.03306e-09
9.40913e-09
1.11648e-08
1.31576e-08
-3.22365e-09
-2.47053e-09
-8.27588e-10
1.47599e-09
4.08548e-09
-2.42308e-09
-1.6273e-09
5.39267e-11
2.42216e-09
5.01641e-09
-6.83195e-10
1.71224e-10
1.92458e-09
4.26546e-09
6.88123e-09
1.73645e-09
2.66983e-09
4.44506e-09
6.80457e-09
9.49361e-09
4.47196e-09
5.46627e-09
7.35296e-09
9.7855e-09
1.25165e-08
-1.00444e-08
-8.9338e-09
-6.62831e-09
-3.4952e-09
2.94753e-11
-8.84208e-09
-7.65083e-09
-5.31628e-09
-2.14631e-09
1.35389e-09
-6.36858e-09
-5.14332e-09
-2.76558e-09
3.55029e-10
3.92129e-09
-3.01572e-09
-1.74868e-09
6.02461e-10
3.76396e-09
7.43474e-09
7.87145e-10
2.07504e-09
4.49091e-09
7.73874e-09
1.16095e-08
-1.89015e-08
-1.72397e-08
-1.41009e-08
-9.91776e-09
-5.14109e-09
-1.71275e-08
-1.54255e-08
-1.23079e-08
-8.12327e-09
-3.36302e-09
-1.37962e-08
-1.21296e-08
-9.01205e-09
-4.86483e-09
-3.19698e-11
-9.33448e-09
-7.67955e-09
-4.61526e-09
-4.50743e-10
4.43931e-09
-4.16162e-09
-2.55143e-09
4.78554e-10
4.69776e-09
9.88688e-09
-3.07237e-08
-2.84175e-08
-2.42741e-08
-1.87109e-08
-1.22482e-08
-2.82981e-08
-2.60367e-08
-2.19128e-08
-1.63443e-08
-9.85415e-09
-2.39435e-08
-2.17305e-08
-1.76144e-08
-1.20343e-08
-5.50786e-09
-1.80293e-08
-1.58421e-08
-1.17572e-08
-6.20032e-09
2.53926e-10
-1.1034e-08
-8.91282e-09
-4.93035e-09
5.91175e-10
7.12753e-09
-4.69889e-08
-4.39634e-08
-3.84908e-08
-3.10424e-08
-2.23384e-08
-4.38201e-08
-4.08598e-08
-3.53458e-08
-2.78761e-08
-1.91169e-08
-3.80638e-08
-3.50914e-08
-2.95612e-08
-2.20241e-08
-1.32485e-08
-3.01051e-08
-2.71344e-08
-2.15765e-08
-1.40298e-08
-5.33956e-09
-2.06344e-08
-1.76969e-08
-1.21974e-08
-4.70082e-09
3.87901e-09
-6.95149e-08
-6.55471e-08
-5.8223e-08
-4.82285e-08
-3.65726e-08
-6.53388e-08
-6.13812e-08
-5.39771e-08
-4.39534e-08
-3.22312e-08
-5.75616e-08
-5.35352e-08
-4.60641e-08
-3.59121e-08
-2.41261e-08
-4.67705e-08
-4.2708e-08
-3.51261e-08
-2.48137e-08
-1.29042e-08
-3.39989e-08
-2.99067e-08
-2.22264e-08
-1.18056e-08
1.30526e-10
-1.00398e-07
-9.50889e-08
-8.52268e-08
-7.18113e-08
-5.62024e-08
-9.4776e-08
-8.94258e-08
-7.94824e-08
-6.59987e-08
-5.03049e-08
-8.41988e-08
-7.87546e-08
-6.8648e-08
-5.49451e-08
-3.9055e-08
-6.96018e-08
-6.40613e-08
-5.37276e-08
-3.96467e-08
-2.33491e-08
-5.24421e-08
-4.67747e-08
-3.61326e-08
-2.17025e-08
-5.19687e-09
-1.42332e-07
-1.35157e-07
-1.21825e-07
-1.03744e-07
-8.28346e-08
-1.34735e-07
-1.27492e-07
-1.14049e-07
-9.5809e-08
-7.47076e-08
-1.20403e-07
-1.13026e-07
-9.92865e-08
-8.06588e-08
-5.90963e-08
-1.00721e-07
-9.31586e-08
-7.90154e-08
-5.97685e-08
-3.75428e-08
-7.76705e-08
-6.98423e-08
-5.51451e-08
-3.53098e-08
-1.26573e-08
-1.99054e-07
-1.8929e-07
-1.71124e-07
-1.46602e-07
-1.18512e-07
-1.88837e-07
-1.78965e-07
-1.60594e-07
-1.35765e-07
-1.07237e-07
-1.69492e-07
-1.59402e-07
-1.40576e-07
-1.1508e-07
-8.57349e-08
-1.42989e-07
-1.32602e-07
-1.13116e-07
-8.67242e-08
-5.63821e-08
-1.11992e-07
-1.01136e-07
-8.08645e-08
-5.36051e-08
-2.2213e-08
-2.75702e-07
-2.62249e-07
-2.3728e-07
-2.03818e-07
-1.65892e-07
-2.61998e-07
-2.48381e-07
-2.23047e-07
-1.8907e-07
-1.50444e-07
-2.35939e-07
-2.21974e-07
-1.95968e-07
-1.60953e-07
-1.2107e-07
-2.00289e-07
-1.85875e-07
-1.58904e-07
-1.226e-07
-8.11374e-08
-1.58481e-07
-1.43434e-07
-1.15497e-07
-7.78703e-08
-3.45481e-08
-3.79274e-07
-3.60463e-07
-3.25886e-07
-2.80008e-07
-2.28762e-07
-3.60963e-07
-3.41919e-07
-3.06751e-07
-2.60079e-07
-2.07798e-07
-3.25842e-07
-3.06285e-07
-2.70108e-07
-2.21879e-07
-1.67642e-07
-2.78048e-07
-2.5786e-07
-2.20311e-07
-1.70135e-07
-1.13389e-07
-2.21631e-07
-2.00757e-07
-1.61924e-07
-1.09708e-07
-5.03408e-08
-5.19445e-07
-4.92707e-07
-4.44466e-07
-3.81208e-07
-3.11906e-07
-4.9525e-07
-4.6822e-07
-4.19039e-07
-3.5457e-07
-2.83582e-07
-4.47634e-07
-4.19915e-07
-3.69183e-07
-3.02321e-07
-2.28209e-07
-3.84159e-07
-3.55562e-07
-3.02694e-07
-2.3284e-07
-1.54742e-07
-3.07925e-07
-2.78569e-07
-2.23911e-07
-1.50983e-07
-6.90098e-08
-7.09701e-07
-6.70843e-07
-6.03008e-07
-5.14859e-07
-4.20653e-07
-6.7883e-07
-6.39816e-07
-5.70244e-07
-4.80411e-07
-3.8329e-07
-6.12843e-07
-5.72891e-07
-5.01079e-07
-4.07468e-07
-3.0555e-07
-5.30575e-07
-4.89403e-07
-4.1375e-07
-3.15549e-07
-2.07127e-07
-4.25645e-07
-3.8398e-07
-3.06339e-07
-2.03631e-07
-8.92287e-08
-9.68663e-07
-9.10187e-07
-8.14329e-07
-6.89354e-07
-5.60168e-07
-9.33426e-07
-8.75928e-07
-7.75846e-07
-6.49376e-07
-5.14727e-07
-8.35641e-07
-7.76574e-07
-6.74422e-07
-5.41565e-07
-4.00903e-07
-7.3749e-07
-6.7709e-07
-5.65889e-07
-4.26374e-07
-2.7398e-07
-5.83925e-07
-5.25094e-07
-4.1448e-07
-2.69051e-07
-1.08901e-07
-1.32259e-06
-1.2298e-06
-1.09568e-06
-9.13447e-07
-7.33565e-07
-1.29365e-06
-1.20672e-06
-1.05926e-06
-8.79558e-07
-6.86942e-07
-1.13157e-06
-1.04044e-06
-8.96328e-07
-7.03347e-07
-5.09427e-07
-1.04108e-06
-9.51248e-07
-7.80187e-07
-5.80924e-07
-3.60643e-07
-7.90543e-07
-7.07815e-07
-5.50534e-07
-3.44128e-07
-1.20831e-07
-1.81158e-06
-1.65555e-06
-1.47214e-06
-1.19516e-06
-9.3917e-07
-1.8094e-06
-1.67475e-06
-1.44979e-06
-1.19625e-06
-9.05145e-07
-1.52769e-06
-1.37643e-06
-1.18023e-06
-8.84953e-07
-6.20664e-07
-1.49151e-06
-1.36062e-06
-1.08185e-06
-8.03748e-07
-4.68185e-07
-1.05947e-06
-9.41375e-07
-7.14286e-07
-4.16531e-07
-1.07123e-07
-2.49929e-06
-2.22391e-06
-1.9775e-06
-1.53794e-06
-1.16716e-06
-2.54893e-06
-2.33894e-06
-1.9762e-06
-1.62977e-06
-1.1694e-06
-2.08186e-06
-1.81107e-06
-1.55914e-06
-1.06571e-06
-7.28838e-07
-2.15039e-06
-1.96742e-06
-1.49121e-06
-1.11936e-06
-5.87485e-07
-1.42784e-06
-1.25636e-06
-9.20112e-07
-4.74569e-07
-4.60275e-08
-3.49747e-06
-3.00962e-06
-2.68587e-06
-1.95469e-06
-1.40989e-06
-3.62147e-06
-3.30493e-06
-2.69533e-06
-2.21892e-06
-1.48259e-06
-2.90225e-06
-2.41489e-06
-2.11144e-06
-1.2251e-06
-8.60221e-07
-3.12169e-06
-2.86751e-06
-2.04559e-06
-1.55829e-06
-7.01356e-07
-1.9655e-06
-1.72224e-06
-1.21586e-06
-5.20883e-07
7.28835e-08
-4.99125e-06
-4.33857e-06
-3.80356e-06
-2.60192e-06
-1.82734e-06
-5.15738e-06
-4.7561e-06
-3.75441e-06
-3.00574e-06
-1.82157e-06
-4.17422e-06
-3.45457e-06
-3.13175e-06
-1.60401e-06
-1.15497e-06
-4.56138e-06
-4.19779e-06
-2.88975e-06
-2.15561e-06
-7.40356e-07
-2.73516e-06
-2.42304e-06
-1.70446e-06
-5.61524e-07
2.91346e-07
-5.22058e-06
-2.96467e-06
-2.78221e-06
-3.0659e-07
1.32024e-06
-5.84264e-06
-4.8232e-06
-3.0331e-06
-2.60935e-06
-7.87357e-07
-4.21782e-06
-1.94932e-06
-1.65931e-06
1.80926e-06
1.53959e-06
-5.00335e-06
-4.80341e-06
-1.69665e-06
-1.43139e-06
5.5264e-07
-3.09846e-06
-2.15619e-06
-4.76393e-07
1.59295e-06
2.40202e-06
-1.37835e-05
-1.2394e-05
-1.09256e-05
-8.22372e-06
-5.81273e-06
-1.39215e-05
-1.33063e-05
-1.03223e-05
-8.10446e-06
-4.02282e-06
-1.25239e-05
-1.11892e-05
-1.0141e-05
-6.85434e-06
-5.96051e-06
-1.33661e-05
-1.21289e-05
-8.26512e-06
-7.3845e-06
-2.02367e-06
-8.23765e-06
-8.24954e-06
-6.37406e-06
-4.35175e-06
-9.86997e-07
-8.9044e-06
1.70441e-06
-2.47065e-06
7.80516e-06
1.53793e-05
-9.41745e-06
-7.21119e-06
-1.54781e-06
-3.6343e-06
-7.64112e-07
-7.65817e-06
2.54762e-06
8.8259e-07
1.60768e-05
8.67805e-06
-7.18046e-06
-9.05344e-06
3.57844e-06
-1.17346e-06
2.5467e-06
-4.68936e-06
-1.87492e-06
3.70528e-06
7.54228e-06
7.64853e-06
-3.2036e-05
-3.77794e-05
-1.66598e-05
-2.46653e-05
-1.65945e-05
-2.75377e-05
-3.46477e-05
-2.44063e-05
-1.44855e-05
2.88075e-06
-3.14687e-05
-3.65761e-05
-2.4626e-05
-2.86823e-05
-1.76359e-05
-3.73174e-05
-2.792e-05
-2.73222e-05
-1.89918e-05
5.04496e-06
-1.8295e-05
-1.65594e-05
-1.41196e-05
-9.45173e-06
4.45707e-06
-4.31329e-05
-1.06301e-05
2.21932e-05
-2.10624e-05
4.26977e-05
-3.49087e-05
-5.2307e-05
-9.04699e-06
-2.5052e-05
-7.32708e-05
-4.90379e-05
-1.33159e-05
-7.74134e-06
5.48247e-05
9.45411e-06
-3.01558e-05
-5.55663e-05
1.81069e-07
-3.06864e-05
-6.99394e-05
-4.08095e-05
-1.52889e-05
9.44387e-06
-1.13117e-05
-6.39e-06
0.000728328
0.00102236
0.000985959
0.000486658
0.000723351
0.00135076
0.000811149
0.000779429
0.000537926
0.00041704
0.00124886
0.000660857
0.000796903
0.000783378
0.000659317
0.00056339
0.000494677
0.000986968
0.000706656
0.000183856
0.000206969
0.000696446
0.000729963
0.000337722
0.000138466
0.00208256
0.00155685
0.00167733
0.00163229
0.000943621
0.00183256
0.00184243
0.00149054
0.00151483
0.00121511
0.00182478
0.00154161
0.00132891
0.00186262
0.00139577
0.00141
0.00147319
0.0013297
0.0015608
0.00111464
0.0015523
0.00167884
0.00133522
0.00195111
0.00163232
0.00202253
0.00192449
0.00207734
0.00216399
0.00211827
0.00223548
0.00214086
0.00223307
0.00222755
0.00137848
0.00222212
0.00212446
0.00213912
0.00216523
0.00219303
0.00224906
0.00230922
0.00197724
0.0021459
0.00192935
0.00249455
0.00232077
0.00218475
0.00218863
0.00223481
0.00228298
0.00228758
0.00263186
0.00263946
0.00312823
0.00269493
0.00254465
0.00274276
0.00305662
0.00370064
0.00242844
0.00238347
0.00244174
0.00236408
0.00242074
0.00378132
0.00276319
0.00268463
0.00281988
0.00274036
0.00274423
0.00283621
0.00254789
0.00303821
0.00302062
0.00419198
0.00337892
0.00383884
0.00333516
0.00383645
0.00321929
0.00333839
0.00344999
0.0035059
0.00354468
0.00325344
0.00342968
0.00303249
0.00334488
0.00340996
0.00372476
0.00364382
0.00311172
0.0036307
0.00306573
0.00319366
0.0030894
0.00312939
0.00341771
0.00318695
0.00505141
0.00496907
0.00426953
0.00450083
0.00428557
0.004444
0.00395396
0.00422145
0.00393803
0.00355475
0.00411499
0.00418318
0.00453732
0.00405145
0.00460836
0.00382181
0.00390124
0.00384429
0.00400693
0.00369226
0.00357592
0.00349477
0.00421498
0.00406003
0.00355233
0.00572677
0.00572509
0.00466367
0.00495194
0.0047126
0.00521864
0.00516458
0.00496961
0.00477775
0.00474675
0.00495463
0.00485642
0.00494879
0.00491703
0.00475748
0.00516599
0.00458456
0.00481291
0.00465163
0.00443181
0.00477907
0.00508047
0.00478256
0.00475884
0.00456714
0.00622128
0.00631245
0.00601003
0.00553845
0.00639081
0.00591124
0.00618356
0.00586154
0.00552476
0.00635986
0.00558247
0.0056694
0.00545599
0.00565812
0.00548754
0.00573025
0.00572756
0.00550132
0.00550721
0.00562078
0.00553119
0.00551383
0.00517463
0.00498767
0.00535289
0.00638365
0.00666801
0.00672
0.00631907
0.00671947
0.00657869
0.00665421
0.00695735
0.0064616
0.00699694
0.00650463
0.00645121
0.00642592
0.00631126
0.00653365
0.00587553
0.00649504
0.0064055
0.00638361
0.00619984
0.00614658
0.00622221
0.00621337
0.00586627
0.00617856
0.00733111
0.00728667
0.00725488
0.00723137
0.00724997
0.00745109
0.00727059
0.00719941
0.00719559
0.00727836
0.00728842
0.00728168
0.00721705
0.00683065
0.00722078
0.00707542
0.00726106
0.00710915
0.00707584
0.0072228
0.00715311
0.0071851
0.00723274
0.00709008
0.00718295
0.00754944
0.00753509
0.00751773
0.00751879
0.00753194
0.00754717
0.00755093
0.0074579
0.00752673
0.00748053
0.00752524
0.00758194
0.00754317
0.00748028
0.00751604
0.00750777
0.00752457
0.0075024
0.00748541
0.00752283
0.0075543
0.0075126
0.00748932
0.00747447
0.00749396
0.00751902
0.00750926
0.00751481
0.00750742
0.00748427
0.00752739
0.00752262
0.00752147
0.007508
0.00750116
0.00753184
0.00753197
0.00752492
0.00751232
0.00751117
0.00752412
0.00751795
0.00752132
0.0075119
0.00751294
0.00751951
0.00751899
0.00751365
0.00751304
0.00751523
0.00752648
0.00752298
0.00751582
0.00751356
0.00751287
0.0075231
0.0075229
0.00750777
0.00751245
0.00750661
0.00752161
0.00752285
0.00751872
0.00751099
0.00751272
0.00751267
0.00751438
0.00750996
0.00750777
0.00751261
0.00751454
0.00751621
0.00751514
0.00750965
0.00751028
0.00751641
0.00751469
0.00751392
0.00751181
0.00750836
0.00751659
0.00751532
0.00751345
0.00751223
0.00750927
0.00751713
0.00751582
0.00751509
0.00751216
0.00751161
0.00751295
0.00751187
0.00751211
0.00751031
0.00751073
0.00751324
0.00751301
0.00751229
0.00751101
0.00751066
0.00751456
0.00751348
0.00751238
0.00751109
0.00750995
0.00751343
0.00751281
0.00751095
0.00751091
0.00750958
0.00751371
0.00751305
0.00751244
0.00751073
0.00751055
0.00751018
0.00750998
0.00750961
0.00750894
0.00750947
0.00751093
0.0075108
0.00751034
0.00750935
0.00750924
0.00751221
0.00751167
0.0075111
0.0075103
0.00750962
0.00751145
0.00751109
0.00751036
0.00751005
0.00750944
0.00751166
0.00751126
0.0075109
0.00750997
0.00750974
0.00750929
0.00750911
0.00750899
0.0075086
0.00750883
0.00750968
0.00750951
0.00750926
0.00750874
0.00750858
0.0075107
0.00751041
0.00751008
0.0075096
0.00750922
0.00751017
0.00750996
0.00750964
0.00750934
0.00750906
0.00751026
0.00751002
0.00750979
0.00750926
0.00750906
0.00750866
0.00750855
0.00750849
0.00750826
0.00750837
0.00750885
0.00750871
0.00750853
0.00750825
0.00750811
0.00750967
0.00750951
0.00750932
0.00750901
0.00750879
0.00750931
0.00750919
0.00750903
0.00750882
0.00750867
0.00750931
0.00750917
0.00750902
0.00750871
0.00750856
0.00750824
0.00750818
0.00750816
0.00750802
0.00750806
0.00750825
0.00750819
0.00750807
0.0075079
0.0075078
0.00750895
0.00750886
0.00750874
0.00750856
0.00750842
0.00750872
0.00750865
0.00750856
0.00750843
0.00750833
0.00750866
0.00750858
0.00750848
0.0075083
0.00750819
0.00750796
0.00750793
0.00750792
0.00750784
0.00750785
0.00750789
0.00750785
0.00750777
0.00750767
0.00750759
0.00750845
0.0075084
0.00750833
0.00750822
0.00750813
0.00750831
0.00750827
0.00750821
0.00750813
0.00750806
0.00750822
0.00750817
0.0075081
0.007508
0.00750793
0.00750777
0.00750776
0.00750775
0.0075077
0.00750769
0.00750766
0.00750763
0.00750758
0.00750752
0.00750746
0.0075081
0.00750807
0.00750803
0.00750796
0.0075079
0.00750801
0.00750799
0.00750795
0.0075079
0.00750785
0.00750792
0.00750789
0.00750785
0.00750779
0.00750774
0.00750764
0.00750763
0.00750762
0.00750759
0.00750757
0.0075075
0.00750749
0.00750745
0.00750742
0.00750738
0.00750786
0.00750784
0.00750781
0.00750777
0.00750773
0.0075078
0.00750778
0.00750776
0.00750772
0.00750769
0.00750771
0.00750769
0.00750767
0.00750764
0.0075076
0.00750754
0.00750753
0.00750752
0.0075075
0.00750748
0.00750741
0.0075074
0.00750738
0.00750736
0.00750734
0.00750768
0.00750767
0.00750765
0.00750763
0.0075076
0.00750764
0.00750763
0.00750762
0.00750759
0.00750757
0.00750757
0.00750756
0.00750755
0.00750753
0.00750751
0.00750746
0.00750746
0.00750745
0.00750743
0.00750742
0.00750735
0.00750734
0.00750733
0.00750732
0.00750731
0.00750756
0.00750755
0.00750754
0.00750753
0.00750751
0.00750753
0.00750752
0.00750751
0.0075075
0.00750748
0.00750748
0.00750747
0.00750746
0.00750745
0.00750744
0.0075074
0.0075074
0.00750739
0.00750738
0.00750737
0.00750731
0.00750731
0.0075073
0.0075073
0.00750729
0.00750747
0.00750747
0.00750746
0.00750745
0.00750744
0.00750745
0.00750745
0.00750744
0.00750743
0.00750742
0.00750741
0.00750741
0.0075074
0.00750739
0.00750738
0.00750736
0.00750735
0.00750735
0.00750734
0.00750734
0.00750729
0.00750729
0.00750729
0.00750728
0.00750728
0.00750741
0.0075074
0.0075074
0.00750739
0.00750739
0.00750739
0.00750739
0.00750738
0.00750738
0.00750737
0.00750736
0.00750736
0.00750736
0.00750735
0.00750735
0.00750732
0.00750732
0.00750732
0.00750731
0.00750731
0.00750728
0.00750728
0.00750727
0.00750727
0.00750727
0.00750736
0.00750736
0.00750736
0.00750735
0.00750735
0.00750735
0.00750735
0.00750734
0.00750734
0.00750734
0.00750733
0.00750733
0.00750732
0.00750732
0.00750732
0.0075073
0.0075073
0.0075073
0.00750729
0.00750729
0.00750727
0.00750727
0.00750726
0.00750726
0.00750726
0.00750733
0.00750733
0.00750732
0.00750732
0.00750732
0.00750732
0.00750732
0.00750732
0.00750731
0.00750731
0.0075073
0.0075073
0.0075073
0.0075073
0.0075073
0.00750728
0.00750728
0.00750728
0.00750728
0.00750728
0.00750726
0.00750726
0.00750726
0.00750726
0.00750725
0.0075073
0.0075073
0.0075073
0.0075073
0.0075073
0.0075073
0.0075073
0.00750729
0.00750729
0.00750729
0.00750729
0.00750728
0.00750728
0.00750728
0.00750728
0.00750727
0.00750727
0.00750727
0.00750727
0.00750727
0.00750725
0.00750725
0.00750725
0.00750725
0.00750725
0.00750728
0.00750728
0.00750728
0.00750728
0.00750728
0.00750728
0.00750728
0.00750728
0.00750728
0.00750728
0.00750727
0.00750727
0.00750727
0.00750727
0.00750727
0.00750726
0.00750726
0.00750726
0.00750726
0.00750726
0.00750725
0.00750725
0.00750725
0.00750725
0.00750725
0.00750727
0.00750727
0.00750727
0.00750727
0.00750727
0.00750727
0.00750727
0.00750727
0.00750727
0.00750726
0.00750726
0.00750726
0.00750726
0.00750726
0.00750726
0.00750725
0.00750725
0.00750725
0.00750725
0.00750725
0.00750724
0.00750724
0.00750724
0.00750724
0.00750724
0.00750726
0.00750726
0.00750726
0.00750726
0.00750726
0.00750726
0.00750726
0.00750726
0.00750726
0.00750726
0.00750725
0.00750725
0.00750725
0.00750725
0.00750725
0.00750725
0.00750725
0.00750725
0.00750725
0.00750725
0.00750724
0.00750724
0.00750724
0.00750724
0.00750724
0.00750725
0.00750725
0.00750725
0.00750725
0.00750725
0.00750725
0.00750725
0.00750725
0.00750725
0.00750725
0.00750725
0.00750725
0.00750725
0.00750725
0.00750725
0.00750724
0.00750724
0.00750724
0.00750724
0.00750724
0.00750724
0.00750724
0.00750724
0.00750724
0.00750724
0.00750725
0.00750725
0.00750725
0.00750725
0.00750725
0.00750725
0.00750725
0.00750725
0.00750725
0.00750725
0.00750724
0.00750724
0.00750724
0.00750724
0.00750724
0.00750724
0.00750724
0.00750724
0.00750724
0.00750724
0.00750724
0.00750724
0.00750724
0.00750724
0.00750724
0.00750724
0.00750724
0.00750724
0.00750724
0.00750724
0.00750724
0.00750724
0.00750724
0.00750724
0.00750724
0.00750724
0.00750724
0.00750724
0.00750724
0.00750724
0.00750724
0.00750724
0.00750724
0.00750724
0.00750724
0.00750723
0.00750723
0.00750724
0.00750724
0.00750723
0.00750724
0.00750724
0.00750724
0.00750724
0.00750724
0.00750724
0.00750724
0.00750724
0.00750724
0.00750724
0.00750724
0.00750724
0.00750724
0.00750724
0.00750724
0.00750724
0.00750724
0.00750724
0.00750724
0.00750724
0.00750723
0.00750723
0.00750723
0.00750723
0.00750723
0.00750724
0.00750724
0.00750724
0.00750724
0.00750724
0.00750724
0.00750724
0.00750724
0.00750724
0.00750724
0.00750724
0.00750724
0.00750724
0.00750724
0.00750724
0.00750723
0.00750723
0.00750723
0.00750723
0.00750723
0.00750723
0.00750723
0.00750723
0.00750723
0.00750723
0.00750724
0.00750724
0.00750724
0.00750724
0.00750724
0.00750724
0.00750724
0.00750724
0.00750724
0.00750724
0.00750724
0.00750724
0.00750724
0.00750724
0.00750724
0.00750723
0.00750723
0.00750723
0.00750723
0.00750723
0.00750723
0.00750723
0.00750723
0.00750723
0.00750723
0.00750724
0.00750724
0.00750724
0.00750724
0.00750724
0.00750724
0.00750724
0.00750724
0.00750724
0.00750724
0.00750724
0.00750724
0.00750724
0.00750723
0.00750723
0.00750723
0.00750723
0.00750723
0.00750723
0.00750723
0.00750723
0.00750723
0.00750723
0.00750723
0.00750723
0.00750724
0.00750724
0.00750724
0.00750724
0.00750724
0.00750724
0.00750724
0.00750724
0.00750724
0.00750723
0.00750724
0.00750724
0.00750724
0.00750723
0.00750723
0.00750723
0.00750723
0.00750723
0.00750723
0.00750723
0.00750723
0.00750723
0.00750723
0.00750723
0.00750723
0.00750724
0.00750724
0.00750724
0.00750724
0.00750724
0.00750724
0.00750724
0.00750724
0.00750724
0.00750724
0.00750724
0.00750724
0.00750724
0.00750724
0.00750724
0.00750724
0.00750724
0.00750724
0.00750724
0.00750724
0.00750724
0.00750723
0.00750723
0.00750723
0.00750723
0.00750724
0.00750724
0.00750724
0.00750724
0.00750724
0.00750724
0.00750724
0.00750724
0.00750724
0.00750724
0.00750724
0.00750724
0.00750724
0.00750724
0.00750724
0.00750724
0.00750724
0.00750724
0.00750724
0.00750724
0.00750724
0.00750724
0.00750724
0.00750724
0.00750724
0.00750724
0.00750724
0.00750724
0.00750724
0.00750724
0.00750724
0.00750724
0.00750724
0.00750724
0.00750724
0.00750724
0.00750724
0.00750724
0.00750724
0.00750724
0.00750724
0.00750724
0.00750724
0.00750724
0.00750724
0.00750724
0.00750724
0.00750724
0.00750724
0.00750724
0.00750724
0.00750724
0.00750724
0.00750724
0.00750724
0.00750724
0.00750724
0.00750724
0.00750724
0.00750724
0.00750724
0.00750724
0.00750724
0.00750724
0.00750724
0.00750724
0.00750724
0.00750724
0.00750724
0.00750724
0.00750724
0.00750724
0.00750724
0.00750724
0.00750724
0.00750724
0.00750724
0.00750724
0.00750724
0.00750724
0.00750724
0.00750724
0.00750724
0.00750724
0.00750724
0.00750724
0.00750724
0.00750724
0.00750724
0.00750724
0.00750724
0.00750724
0.00750724
0.00750724
0.00750724
0.00750724
0.00750724
0.00750724
0.00750724
0.00750724
0.00750724
0.00750724
0.00750724
0.00750724
0.00750724
0.00750724
0.00750724
0.00750724
0.00750724
0.00750724
0.00750724
0.00750724
0.00750724
0.00750724
0.00750724
0.00750724
0.00750724
0.00750724
0.00750724
0.00750724
0.00750724
0.00750724
0.00750724
0.00750724
0.00750724
0.00750724
0.00750724
0.00750724
0.00750724
0.00750724
0.00750724
0.00750724
0.00750724
0.00750724
0.00750724
0.00750724
0.00750724
0.00750724
0.00750724
0.00750724
0.00750724
0.00750724
0.00750724
0.00750724
0.00750724
0.00750724
0.00750724
0.00750724
0.00750724
0.00750724
0.00750724
0.00750724
0.00750724
0.00750724
0.00750724
0.00750724
0.00750724
0.00750724
0.00750724
0.00750724
0.00750724
0.00750724
0.00750724
0.00750724
0.00750724
0.00750724
0.00750724
0.00750724
0.00750724
0.00750724
0.00750724
0.00750724
0.00750724
0.00750724
0.00750724
0.00750724
0.00750724
0.00750724
0.00750724
0.00750724
0.00750724
0.00750724
0.00750724
0.00750724
0.00750724
0.00750724
0.00750724
0.00750724
0.00750724
0.00750724
0.00750724
0.00750724
0.00750724
0.00750724
0.00750724
0.00750724
0.00750724
0.00750724
0.00750724
0.00750724
)
;

boundaryField
{
    inlet
    {
        type            zeroGradient;
    }
    outlet
    {
        type            fixedValue;
        value           uniform 0;
    }
    repeat_boundary
    {
        type            zeroGradient;
    }
    procBoundary0to1
    {
        type            processor;
        value           nonuniform List<scalar> 
450
(
1.26405e-09
1.23812e-09
1.15076e-09
1.07486e-09
1.06996e-09
3.63995e-09
3.53616e-09
3.31231e-09
3.20227e-09
3.24236e-09
5.64182e-09
5.47599e-09
5.23929e-09
5.24631e-09
5.48961e-09
7.27187e-09
7.13121e-09
7.00346e-09
7.14142e-09
7.60997e-09
8.7008e-09
8.64028e-09
8.66377e-09
8.89621e-09
9.46611e-09
1.0067e-08
1.01074e-08
1.02565e-08
1.0549e-08
1.10948e-08
1.13485e-08
1.14628e-08
1.17049e-08
1.20598e-08
1.25692e-08
1.23863e-08
1.25797e-08
1.29313e-08
1.33876e-08
1.39106e-08
1.31338e-08
1.34265e-08
1.39112e-08
1.44768e-08
1.50501e-08
1.36198e-08
1.39803e-08
1.4565e-08
1.5196e-08
1.58148e-08
1.38594e-08
1.42252e-08
1.48284e-08
1.54513e-08
1.60295e-08
1.39099e-08
1.42447e-08
1.47859e-08
1.53387e-08
1.57729e-08
1.3831e-08
1.4136e-08
1.45805e-08
1.50631e-08
1.539e-08
1.35566e-08
1.38516e-08
1.42351e-08
1.47125e-08
1.5094e-08
1.2877e-08
1.31885e-08
1.36327e-08
1.42626e-08
1.4944e-08
1.1543e-08
1.19241e-08
1.26489e-08
1.37543e-08
1.51533e-08
9.4612e-09
1.00299e-08
1.12667e-08
1.31691e-08
1.5628e-08
6.80041e-09
7.69296e-09
9.53939e-09
1.22791e-08
1.56557e-08
3.67637e-09
4.9797e-09
7.47655e-09
1.09862e-08
1.5011e-08
-2.42773e-10
1.56598e-09
4.89721e-09
9.39309e-09
1.4376e-08
-5.67417e-09
-3.22245e-09
1.26594e-09
7.27894e-09
1.41317e-08
-1.35088e-08
-1.02239e-08
-4.12463e-09
4.17141e-09
1.40708e-08
-2.46919e-08
-2.02346e-08
-1.1844e-08
-2.60528e-10
1.38359e-08
-4.02193e-08
-3.41033e-08
-2.24871e-08
-6.4195e-09
1.28331e-08
-6.13649e-08
-5.2916e-08
-3.68194e-08
-1.47221e-08
1.11767e-08
-8.97656e-08
-7.80299e-08
-5.58008e-08
-2.54283e-08
9.96344e-09
-1.2761e-07
-1.11427e-07
-8.08109e-08
-3.90618e-08
9.54531e-09
-1.78067e-07
-1.55899e-07
-1.13571e-07
-5.63267e-08
1.01247e-08
-2.45207e-07
-2.14953e-07
-1.55834e-07
-7.75746e-08
1.37489e-08
-3.33812e-07
-2.93431e-07
-2.09012e-07
-1.03072e-07
2.41194e-08
-4.49333e-07
-3.99413e-07
-2.72277e-07
-1.34101e-07
4.80771e-08
-5.98802e-07
-5.46552e-07
-3.38626e-07
-1.7396e-07
1.01203e-07
-7.89836e-07
-7.51497e-07
-3.95249e-07
-2.24904e-07
2.13553e-07
-1.02289e-06
-1.02499e-06
-4.19233e-07
-2.79396e-07
4.30406e-07
-1.29146e-06
-1.37169e-06
-3.81898e-07
-3.2466e-07
7.91736e-07
-1.58189e-06
-1.75435e-06
-4.04833e-07
-3.64368e-07
1.17767e-06
9.47891e-07
-2.29475e-07
3.5666e-06
1.90117e-06
5.25032e-06
-5.2705e-06
-5.34775e-06
-4.51054e-06
-3.56268e-06
-7.64383e-07
1.12716e-05
6.43758e-06
1.80343e-05
6.7218e-06
1.81349e-05
8.81039e-06
2.8905e-07
-1.95015e-05
-9.29388e-06
-9.53293e-06
9.15323e-05
5.63143e-05
1.52654e-05
-6.19958e-05
2.05713e-05
7.57384e-05
0.000948084
0.00070301
0.000725474
0.000804279
0.00242248
0.00215698
0.001451
0.00210618
0.00130008
0.00270684