FoamFile
{version 2.0; format ascii;class vectorField; location 0;object  v;}
344
(
( 3.09984e-07 7.07032e-06 9.11774e-07 )  
( 6.76007e-07 4.7474e-06 -4.58372e-07 )  
( -7.28258e-07 5.81699e-06 7.04425e-07 )  
( 1.27436e-06 3.8516e-06 4.71334e-07 )  
( -1.23059e-06 8.73749e-06 5.03017e-09 )  
( 6.64923e-07 3.15669e-06 -7.09103e-07 )  
( 1.86421e-07 4.06296e-06 6.90355e-07 )  
( -3.30861e-07 4.36127e-06 3.95626e-07 )  
( -4.0382e-07 3.11894e-06 1.03631e-07 )  
( 7.01988e-07 2.87565e-06 -6.71079e-07 )  
( 2.07927e-06 6.25225e-06 -3.11189e-07 )  
( 1.66931e-06 3.18161e-06 -7.96649e-07 )  
( 8.90685e-07 8.44245e-06 -1.05626e-06 )  
( -5.83185e-07 4.57422e-06 4.70374e-07 )  
( 9.81833e-06 1.13987e-05 -1.38703e-06 )  
( -1.01056e-07 6.00328e-06 -4.33604e-08 )  
( 2.33796e-08 3.3129e-06 1.54946e-06 )  
( 4.59311e-06 1.01895e-05 7.35188e-07 )  
( 1.10963e-07 3.53347e-06 -1.39986e-14 )  
( 6.00945e-07 1.13333e-05 2.69945e-06 )  
( 1.23037e-06 3.90619e-06 -1.45375e-07 )  
( 2.36e-06 6.99266e-06 5.32468e-07 )  
( 8.45464e-06 1.94592e-05 -9.99556e-08 )  
( 1.59671e-06 5.87032e-06 -5.05912e-07 )  
( 9.48174e-07 2.97821e-06 9.01747e-07 )  
( 1.55023e-06 1.24359e-05 -9.26018e-07 )  
( 1.60541e-06 1.03559e-05 1.51959e-06 )  
( 1.64864e-06 9.3439e-06 5.82578e-07 )  
( 3.90983e-06 1.39731e-05 -4.2539e-06 )  
( 3.3608e-06 6.63404e-06 9.71599e-07 )  
( 2.34818e-06 1.49985e-05 -2.74944e-06 )  
( -1.24279e-07 3.21739e-06 -1.12339e-06 )  
( 2.69514e-06 5.13708e-06 2.80783e-07 )  
( 3.94509e-06 1.4661e-05 -2.68297e-06 )  
( 3.90813e-06 1.20791e-05 2.10797e-06 )  
( -4.3182e-08 1.12761e-05 3.9542e-07 )  
( -5.69634e-09 1.34358e-05 3.03262e-06 )  
( 2.55275e-06 6.8956e-06 -2.60802e-06 )  
( 3.81362e-06 1.38402e-05 2.69901e-06 )  
( 1.03859e-06 1.03037e-05 -1.58184e-07 )  
( 4.34129e-06 9.66759e-06 5.19527e-07 )  
( 3.54002e-06 1.25796e-05 1.77465e-06 )  
( 2.19805e-06 1.37504e-05 6.99363e-07 )  
( 2.32916e-06 9.34111e-06 -1.76479e-06 )  
( 3.7527e-06 1.41887e-05 -3.02383e-06 )  
( 8.21321e-06 1.64427e-05 3.69177e-06 )  
( 4.38174e-06 1.60793e-05 -9.57787e-07 )  
( 4.00275e-06 1.82654e-05 2.68889e-06 )  
( 4.18524e-06 1.41309e-05 -2.57788e-06 )  
( 3.26245e-06 1.56532e-05 2.91674e-07 )  
( 1.80911e-06 1.7912e-05 -4.0039e-06 )  
( 9.709e-07 2.02737e-05 -6.15522e-06 )  
( 1.69042e-06 9.95514e-06 -1.01342e-06 )  
( 1.32496e-06 1.72542e-05 2.63768e-06 )  
( 3.62138e-07 1.67997e-05 -2.13897e-06 )  
( 1.58616e-06 1.83851e-05 4.58438e-07 )  
( 2.63384e-06 1.59247e-05 2.55185e-07 )  
( 6.90706e-06 1.73374e-05 3.39277e-06 )  
( 7.27291e-06 2.38123e-05 1.97278e-06 )  
( 4.8382e-06 1.82596e-05 2.91399e-07 )  
( 3.80543e-06 1.91568e-05 -2.75275e-06 )  
( 2.88605e-06 2.32233e-05 -1.70481e-06 )  
( 5.04095e-06 1.65531e-05 5.03353e-06 )  
( 2.27863e-06 1.97523e-05 3.04032e-07 )  
( 1.26071e-06 1.58501e-05 4.52022e-07 )  
( 5.52002e-07 1.63961e-05 -4.13226e-07 )  
( 6.05911e-06 1.65818e-05 8.42402e-07 )  
( 6.11594e-06 1.9371e-05 1.86401e-06 )  
( 2.96108e-06 1.97023e-05 -1.15102e-06 )  
( 9.51629e-07 1.7453e-05 -1.41662e-06 )  
( 6.4199e-06 2.04989e-05 2.33718e-07 )  
( 3.38347e-06 2.65432e-05 -9.58256e-07 )  
( 3.23143e-06 1.94477e-05 1.22457e-06 )  
( 7.99543e-06 2.64772e-05 1.00634e-06 )  
( 6.58943e-06 2.23514e-05 -3.60949e-07 )  
( 3.42169e-06 2.42274e-05 -8.00855e-07 )  
( 5.32158e-06 2.85504e-05 1.95546e-07 )  
( 2.75229e-06 1.15872e-05 -3.48432e-06 )  
( 6.4157e-06 2.20189e-05 3.10476e-07 )  
( 4.4772e-06 1.94116e-05 -1.00592e-06 )  
( 5.9326e-06 1.75397e-05 4.10797e-06 )  
( -2.22273e-07 2.45859e-05 -6.99697e-06 )  
( 1.53525e-06 1.63152e-05 1.23683e-06 )  
( 5.73142e-06 2.34071e-05 7.12118e-07 )  
( 5.93815e-06 2.67178e-05 1.51389e-07 )  
( 5.72533e-06 2.0423e-05 -1.96527e-06 )  
( 2.59371e-06 2.64169e-05 -2.04524e-06 )  
( 4.53702e-06 2.58179e-05 -1.76085e-06 )  
( 6.46635e-06 2.50719e-05 1.84764e-06 )  
( -1.50541e-06 1.66359e-05 -1.52195e-06 )  
( 4.32808e-06 2.76093e-05 -2.10967e-06 )  
( 2.69426e-06 2.47441e-05 -2.69944e-06 )  
( 6.68576e-06 2.57709e-05 -2.52441e-06 )  
( 4.44979e-07 2.21327e-05 -2.16195e-06 )  
( 5.24164e-06 2.84555e-05 -1.91166e-06 )  
( 9.48554e-06 2.13643e-05 2.00318e-06 )  
( 1.12743e-05 3.7377e-05 -9.3197e-06 )  
( 6.20379e-06 2.7361e-05 -1.02809e-06 )  
( 5.13749e-06 2.62692e-05 -1.09786e-06 )  
( 5.87205e-06 2.62894e-05 -4.22051e-06 )  
( 7.31452e-06 3.14153e-05 -1.49058e-06 )  
( 5.1056e-06 2.77923e-05 -1.36753e-06 )  
( 7.52004e-06 2.58213e-05 2.61881e-06 )  
( 5.53995e-06 2.99065e-05 -8.09846e-07 )  
( 6.82854e-06 2.98411e-05 -7.3992e-07 )  
( 9.24257e-06 2.9661e-05 4.69127e-06 )  
( 6.10549e-06 2.86389e-05 -6.39299e-07 )  
( 6.21955e-06 3.12831e-05 -2.09803e-06 )  
( 8.06922e-06 3.16534e-05 7.69856e-07 )  
( 8.24816e-06 3.13822e-05 -4.81206e-06 )  
( 7.4783e-06 3.19334e-05 -5.87229e-07 )  
( 6.11882e-06 2.73896e-05 -2.35872e-06 )  
( 4.45129e-06 3.19785e-05 2.09266e-07 )  
( 4.34634e-06 3.12051e-05 2.02261e-06 )  
( 5.79163e-06 2.80315e-05 -7.32884e-07 )  
( 9.0588e-06 2.7051e-05 1.60618e-06 )  
( 2.15472e-05 4.18238e-05 -9.71039e-06 )  
( 5.64392e-06 2.98908e-05 -2.2044e-06 )  
( 6.3824e-06 3.55032e-05 -7.47761e-07 )  
( 1.05091e-05 3.51861e-05 1.76206e-06 )  
( 4.84477e-06 2.9508e-05 5.97097e-08 )  
( 8.63791e-06 3.50816e-05 -3.47571e-06 )  
( 8.39975e-06 2.84105e-05 1.97478e-06 )  
( 6.88846e-06 3.24099e-05 -3.44014e-06 )  
( 7.24573e-06 3.53674e-05 8.41942e-07 )  
( 7.26078e-06 3.20414e-05 -1.8527e-06 )  
( 5.02192e-06 3.36043e-05 -1.11855e-06 )  
( 6.72974e-06 3.36808e-05 -5.62271e-07 )  
( 9.73294e-06 3.78093e-05 -5.86035e-07 )  
( 6.47368e-06 3.42856e-05 -1.60676e-06 )  
( 8.2922e-06 3.69858e-05 -1.77647e-06 )  
( 1.0172e-05 3.90204e-05 -4.27614e-06 )  
( 8.99556e-06 3.12239e-05 -1.12712e-06 )  
( 4.33831e-06 3.82337e-05 -5.12077e-06 )  
( 6.92834e-06 3.62364e-05 -1.19286e-06 )  
( 9.29714e-06 3.78274e-05 8.73611e-07 )  
( 1.15321e-05 3.77621e-05 -2.19924e-06 )  
( 7.29962e-06 3.21742e-05 -4.5276e-06 )  
( 8.50167e-06 3.82303e-05 1.41406e-06 )  
( 7.36821e-06 3.53854e-05 -2.64383e-06 )  
( 8.62937e-06 3.57793e-05 3.23816e-07 )  
( 1.02727e-05 3.8342e-05 -1.93534e-09 )  
( 7.07351e-06 4.05102e-05 6.17834e-07 )  
( 8.66284e-06 3.6928e-05 -2.42904e-06 )  
( 1.01225e-05 4.26749e-05 2.53974e-06 )  
( 1.27189e-05 4.12717e-05 -1.08345e-06 )  
( 9.85913e-06 3.78787e-05 -9.63758e-06 )  
( 8.99483e-06 3.79064e-05 5.36502e-08 )  
( 1.19518e-05 4.37122e-05 -1.07106e-06 )  
( 1.1496e-05 3.60967e-05 -3.92235e-06 )  
( 1.03569e-05 3.85042e-05 -6.77944e-07 )  
( 1.16054e-05 3.71321e-05 -1.52047e-06 )  
( 8.85528e-06 3.90344e-05 -4.18205e-06 )  
( 9.63391e-06 3.9551e-05 -4.45617e-07 )  
( 9.63706e-06 3.79931e-05 -1.72937e-06 )  
( 1.18085e-05 4.44631e-05 7.09073e-08 )  
( 1.51078e-05 5.05679e-05 2.03219e-06 )  
( 1.08712e-05 4.08574e-05 -1.50607e-07 )  
( 9.9761e-06 4.23169e-05 2.28998e-06 )  
( 1.00388e-05 4.05276e-05 3.8337e-07 )  
( 1.23078e-05 3.7326e-05 3.31918e-06 )  
( 1.12037e-05 3.95711e-05 -6.67139e-06 )  
( 1.03326e-05 3.90395e-05 -4.56537e-06 )  
( 1.56465e-05 4.6255e-05 -3.92096e-06 )  
( 1.19875e-05 4.45847e-05 -7.69281e-07 )  
( 1.20752e-05 4.40303e-05 -1.0808e-06 )  
( 1.03102e-05 4.54824e-05 -2.16681e-06 )  
( 1.25613e-05 4.58344e-05 1.8888e-06 )  
( 1.08868e-05 3.88936e-05 -2.98337e-06 )  
( 1.01168e-05 4.21626e-05 -2.7091e-06 )  
( 1.14861e-05 4.34781e-05 -4.87839e-06 )  
( 1.28919e-05 4.49635e-05 3.40598e-06 )  
( 1.18155e-05 4.84289e-05 -1.88107e-06 )  
( 6.3876e-06 4.61475e-05 -3.37689e-06 )  
( 1.36383e-05 4.66552e-05 -1.41852e-06 )  
( 1.3201e-05 4.72675e-05 1.02104e-06 )  
( 1.34436e-05 4.54415e-05 -2.08795e-06 )  
( 1.28814e-05 4.35582e-05 -6.90422e-07 )  
( 1.28597e-05 4.68256e-05 -3.33501e-07 )  
( 1.21091e-05 4.50793e-05 -2.81347e-06 )  
( 1.79099e-05 4.99877e-05 1.28593e-06 )  
( 1.51226e-05 4.70399e-05 2.42268e-07 )  
( 1.37944e-05 4.63198e-05 -1.77295e-06 )  
( 1.22654e-05 4.66521e-05 1.06461e-06 )  
( 1.08585e-05 4.80259e-05 -1.51479e-06 )  
( 1.39231e-05 4.97363e-05 -2.02649e-06 )  
( 1.25828e-05 4.86518e-05 2.40249e-06 )  
( 1.44071e-05 5.06908e-05 3.0431e-06 )  
( 1.34594e-05 4.50336e-05 -2.62572e-07 )  
( 1.31379e-05 4.88199e-05 1.1298e-06 )  
( 1.48166e-05 5.03041e-05 -1.90219e-06 )  
( 1.12774e-05 4.69803e-05 -1.33392e-06 )  
( 1.57742e-05 5.11242e-05 -2.78487e-06 )  
( 1.42165e-05 4.74993e-05 -7.24624e-06 )  
( 1.68735e-05 5.25057e-05 -4.01227e-06 )  
( 1.25652e-05 4.82172e-05 -1.423e-06 )  
( 1.56448e-05 5.29248e-05 1.34679e-06 )  
( 1.39631e-05 4.52855e-05 5.75454e-07 )  
( 1.4739e-05 5.08188e-05 -2.56403e-06 )  
( 1.63258e-05 5.35011e-05 -3.36939e-06 )  
( 1.5397e-05 5.13336e-05 -1.00278e-07 )  
( 1.30335e-05 4.93685e-05 -3.33383e-06 )  
( 1.50655e-05 4.81787e-05 -1.68089e-07 )  
( 1.86217e-05 5.70122e-05 4.5392e-06 )  
( 1.44937e-05 4.78641e-05 -2.51418e-06 )  
( 1.14792e-05 5.03077e-05 -1.46514e-06 )  
( 1.38199e-05 4.44369e-05 -1.85045e-06 )  
( 1.25565e-05 4.99491e-05 9.10618e-07 )  
( 1.43159e-05 4.71619e-05 -7.15562e-07 )  
( 1.63272e-05 5.06708e-05 -1.90949e-06 )  
( 1.52708e-05 5.19261e-05 5.63645e-07 )  
( 1.60945e-05 5.25858e-05 -8.41325e-07 )  
( 1.49052e-05 5.0566e-05 -5.61874e-06 )  
( 1.34868e-05 5.01702e-05 -2.61313e-06 )  
( 1.80862e-05 5.18188e-05 -1.20335e-06 )  
( 1.65591e-05 5.59073e-05 -3.04226e-06 )  
( 1.7506e-05 5.47327e-05 -7.19882e-06 )  
( 1.72532e-05 5.89097e-05 -1.85004e-06 )  
( 1.19623e-05 5.66177e-05 -4.69416e-06 )  
( 1.8576e-05 5.53753e-05 -2.70993e-06 )  
( 1.70973e-05 5.31191e-05 -2.62125e-06 )  
( 1.65392e-05 6.11562e-05 9.84301e-07 )  
( 1.75648e-05 5.55716e-05 -3.84107e-06 )  
( 1.86386e-05 6.04949e-05 -3.17334e-06 )  
( 1.44551e-05 5.45229e-05 8.35188e-07 )  
( 1.09191e-05 5.66594e-05 -8.51924e-07 )  
( 1.50925e-05 5.86526e-05 -2.15722e-06 )  
( 1.62886e-05 5.62113e-05 -2.08779e-06 )  
( 1.57723e-05 5.76749e-05 -1.71089e-06 )  
( 1.47813e-05 5.89069e-05 -4.99853e-06 )  
( 1.54912e-05 5.79858e-05 -3.66356e-06 )  
( 1.70375e-05 5.91745e-05 -4.02726e-06 )  
( 1.69281e-05 5.65608e-05 -2.43046e-06 )  
( 1.60985e-05 5.9196e-05 -2.88778e-06 )  
( 1.91703e-05 6.22535e-05 -3.01764e-06 )  
( 1.53692e-05 5.69703e-05 -5.5213e-06 )  
( 1.56959e-05 5.7236e-05 -3.16124e-06 )  
( 1.59666e-05 5.22601e-05 -3.73405e-06 )  
( 1.94894e-05 6.269e-05 -7.46942e-07 )  
( 1.47163e-05 5.44291e-05 -1.99393e-06 )  
( 1.81818e-05 5.98371e-05 -1.88803e-06 )  
( 1.77866e-05 5.90227e-05 -1.79377e-06 )  
( 1.51463e-05 6.07145e-05 -1.49803e-06 )  
( 1.98305e-05 6.19194e-05 -5.71345e-06 )  
( 1.86681e-05 6.15714e-05 -1.54929e-06 )  
( 1.83023e-05 6.2101e-05 -1.817e-06 )  
( 1.65994e-05 6.00756e-05 -2.70372e-06 )  
( 1.47668e-05 5.74745e-05 -1.60347e-06 )  
( 1.48517e-05 6.01341e-05 -3.19876e-06 )  
( 1.84234e-05 6.16225e-05 -5.83235e-06 )  
( 1.54716e-05 5.65616e-05 -2.8234e-06 )  
( 1.72316e-05 6.00643e-05 -2.42135e-06 )  
( 1.52744e-05 5.50645e-05 -4.58067e-06 )  
( 1.93205e-05 6.10519e-05 -2.15444e-06 )  
( 1.69261e-05 6.09778e-05 -3.79921e-06 )  
( 1.92288e-05 6.36318e-05 -1.79526e-07 )  
( 1.84198e-05 6.26293e-05 -4.5488e-06 )  
( 2.36636e-05 6.62503e-05 -1.06176e-06 )  
( 1.6909e-05 6.02419e-05 -3.3951e-06 )  
( 1.75347e-05 6.30818e-05 -3.5361e-06 )  
( 1.52149e-05 6.18081e-05 -2.83327e-06 )  
( 1.93054e-05 6.7175e-05 -3.56104e-06 )  
( 1.69775e-05 5.82855e-05 -4.46824e-06 )  
( 1.6394e-05 6.14337e-05 -3.65198e-06 )  
( 1.84094e-05 6.52964e-05 -4.17116e-06 )  
( 1.77975e-05 6.23107e-05 -2.31154e-06 )  
( 1.78213e-05 6.2195e-05 -3.45625e-06 )  
( 1.80397e-05 6.16816e-05 -5.51321e-06 )  
( 1.68145e-05 6.22183e-05 -5.19264e-06 )  
( 1.95065e-05 6.32083e-05 -5.34459e-06 )  
( 1.95174e-05 6.39146e-05 -4.62665e-07 )  
( 1.8226e-05 6.60932e-05 -4.68719e-07 )  
( 1.93036e-05 6.14692e-05 -2.51787e-06 )  
( 1.92222e-05 6.82502e-05 -8.09226e-07 )  
( 1.83761e-05 6.39046e-05 -4.37571e-06 )  
( 1.56097e-05 6.51371e-05 -4.47756e-06 )  
( 1.81614e-05 6.54707e-05 -2.007e-06 )  
( 1.47117e-05 7.00125e-05 -3.99982e-06 )  
( 1.83233e-05 6.70774e-05 -4.31301e-06 )  
( 1.88211e-05 6.57705e-05 -6.23615e-06 )  
( 1.74924e-05 6.23203e-05 -5.88295e-06 )  
( 1.67327e-05 6.56104e-05 -2.56433e-06 )  
( 1.88038e-05 6.58542e-05 -4.16259e-06 )  
( 1.77835e-05 6.67845e-05 -1.11187e-06 )  
( 1.73664e-05 6.99025e-05 -3.49664e-06 )  
( 2.05515e-05 6.20275e-05 -5.45596e-06 )  
( 1.86711e-05 6.66414e-05 1.01946e-06 )  
( 1.904e-05 7.04239e-05 -8.88957e-06 )  
( 1.62996e-05 7.11413e-05 -7.37464e-06 )  
( 2.33109e-05 6.84547e-05 -5.17624e-07 )  
( 1.95425e-05 6.90957e-05 -3.9847e-06 )  
( 1.99207e-05 6.68109e-05 -3.64195e-06 )  
( 2.10883e-05 6.63144e-05 -1.93303e-06 )  
( 1.99685e-05 6.84594e-05 -2.60751e-06 )  
( 1.98642e-05 6.82487e-05 -1.75909e-06 )  
( 1.54966e-05 6.94186e-05 1.59632e-06 )  
( 1.92276e-05 6.67122e-05 -4.66549e-06 )  
( 1.87662e-05 6.91929e-05 -4.51046e-06 )  
( 1.90651e-05 7.01495e-05 -5.9812e-06 )  
( 1.88828e-05 7.54823e-05 -5.14749e-06 )  
( 1.91594e-05 7.01981e-05 -5.32905e-06 )  
( 1.8697e-05 6.92224e-05 -5.36723e-06 )  
( 1.93165e-05 6.93372e-05 -2.60382e-06 )  
( 1.93483e-05 6.96011e-05 -5.67822e-06 )  
( 1.61722e-05 7.07509e-05 -4.26782e-06 )  
( 1.95151e-05 7.05792e-05 -3.30932e-06 )  
( 2.10676e-05 6.87087e-05 -3.22758e-06 )  
( 1.79566e-05 6.93452e-05 -4.56864e-06 )  
( 1.90055e-05 6.82014e-05 -5.61412e-06 )  
( 1.79739e-05 6.9681e-05 4.88744e-06 )  
( 2.10727e-05 6.66589e-05 -2.97124e-06 )  
( 1.88903e-05 7.13856e-05 -8.76519e-06 )  
( 1.89263e-05 7.08657e-05 -6.14484e-06 )  
( 2.05276e-05 6.79596e-05 -4.35287e-06 )  
( 2.32241e-05 6.48092e-05 1.49506e-07 )  
( 1.87455e-05 7.01405e-05 -4.51277e-06 )  
( 2.04276e-05 6.86296e-05 -4.19945e-06 )  
( 1.58763e-05 7.32735e-05 -6.43398e-06 )  
( 1.76874e-05 7.01074e-05 4.25875e-07 )  
( 2.13258e-05 7.02155e-05 -7.72445e-06 )  
( 2.29981e-05 6.58551e-05 -6.74467e-07 )  
( 1.89722e-05 7.11497e-05 -4.65886e-06 )  
( 2.17675e-05 6.78726e-05 -1.61466e-06 )  
( 1.97797e-05 7.02e-05 -7.31669e-06 )  
( 1.99481e-05 6.86009e-05 -2.53845e-06 )  
( 2.13883e-05 6.68909e-05 -1.22383e-06 )  
( 2.25162e-05 7.29073e-05 -5.5197e-06 )  
( 1.65038e-05 7.04459e-05 -4.71303e-07 )  
( 2.07862e-05 7.60273e-05 -1.09361e-05 )  
( 2.46199e-05 7.48192e-05 -3.41291e-06 )  
( 2.08026e-05 7.64823e-05 -6.38507e-06 )  
( 2.1316e-05 7.15466e-05 -2.39311e-07 )  
( 1.97601e-05 6.81215e-05 -1.62684e-06 )  
( 1.98466e-05 7.25342e-05 -4.15525e-06 )  
( 1.93319e-05 6.85728e-05 -1.61902e-06 )  
( 2.1145e-05 7.22147e-05 -4.52272e-06 )  
( 1.83725e-05 7.02921e-05 -9.55419e-07 )  
( 1.99854e-05 7.21194e-05 -2.08261e-07 )  
( 1.61275e-05 6.94453e-05 -3.7579e-06 )  
( 1.92039e-05 6.87198e-05 -5.29574e-06 )  
( 2.24976e-05 7.13526e-05 1.38104e-06 )  
( 2.90369e-05 8.0111e-05 -6.79656e-06 )  
( 2.1398e-05 7.28655e-05 -4.34855e-06 )  
( 2.17968e-05 7.31592e-05 -4.13831e-06 )  
)
