/*--------------------------------*- C++ -*----------------------------------*\
| =========                 |                                                 |
| \\      /  F ield         | OpenFOAM: The Open Source CFD Toolbox           |
|  \\    /   O peration     | Version:  5.x                                   |
|   \\  /    A nd           | Web:      www.OpenFOAM.org                      |
|    \\/     M anipulation  |                                                 |
\*---------------------------------------------------------------------------*/
FoamFile
{
    version     2.0;
    format      ascii;
    class       volScalarField;
    location    "9000";
    object      p;
}
// * * * * * * * * * * * * * * * * * * * * * * * * * * * * * * * * * * * * * //

dimensions      [0 2 -2 0 0 0 0];

internalField   nonuniform List<scalar> 
180
(
-7.75297
-8.01852
-2.32109
0.0997507
5.36264
11.8939
16.1958
26.1474
33.5464
38.0646
41.9189
47.8375
53.9145
55.7918
53.4666
58.0664
70.9957
76.5088
78.7117
81.7669
84.9519
85.7283
88.1832
90.8125
93.0284
96.8398
100.138
101.731
103.386
105.866
111.527
115.014
117.77
122.456
123.526
130.483
140.128
142.952
141.354
146.06
160.921
171.156
175.12
184.651
202.432
209.447
214.8
222.577
227.46
232.963
239.254
247.362
254.154
260.443
270.926
283.592
295.822
308.813
322.399
337.869
345.155
344.999
342.521
349.633
355.182
357.817
371.269
380.03
382.681
389.587
394.233
395.55
401.657
412.837
423.521
431.301
439.805
451.894
459.044
463.128
471.337
481.321
491.587
503.311
512.746
518.029
527.561
545.256
566.947
568.502
571.604
586.937
604.505
611.939
616.998
633.959
642.083
647.429
661.007
668.979
682.856
706.935
708.393
713.888
733.154
741.861
748.337
758.249
772.301
774.268
765.663
764.5
766.853
770.063
772.103
774.48
777.898
781.552
787.346
792.436
796.645
802.398
808.919
813.693
818.435
824.256
830.665
836.214
841.397
846.091
850.341
854.504
859.009
865.262
872.302
880.531
887.436
895.789
902.299
910.775
917.269
925.113
933.389
940.567
948.623
955.056
963.75
970.018
976.852
981.425
987.009
992.265
996.816
1003.41
1007.99
1015.43
1020.55
1030.6
1039
1053.35
1070.22
1091.3
1111.42
1145.75
1167.75
1209.48
1216.24
1188.46
1168.5
1162.63
1203.55
1252.51
1309.61
1365.78
1428.47
1485.89
1547.53
1619.77
1682.65
1700.48
)
;

boundaryField
{
    inlet
    {
        type            zeroGradient;
    }
    outlet
    {
        type            fixedValue;
        value           uniform 0;
    }
    repeat_boundary
    {
        type            zeroGradient;
    }
    procBoundary2to0
    {
        type            processor;
        value           nonuniform List<scalar> 
180
(
6.90827
20.1222
25.3182
26.7808
27.6445
30.473
32.8531
36.3064
43.8584
54.1836
63.5205
70.4883
74.4469
76.0865
87.2669
97.6688
99.8673
105.519
115.699
123.667
120.987
108.787
103.333
106.986
106.077
109.097
115.126
132.437
142.379
142.701
145.473
155.308
163.21
169.64
174.434
176.216
173.954
170.645
172.496
178.354
180.319
176.509
174.534
177.812
184.462
194.507
203.298
209.927
215.764
223.778
233.282
239.41
245.097
251.028
260.093
269.655
278.869
292.234
309.857
315.059
317.391
324.488
335.323
342.832
353.7
370.245
379.675
381.283
384.292
391.411
396.864
401.24
409.247
418.867
424.557
431.557
439.773
447.297
450.093
457.293
462.628
462.004
466.948
483.458
488.491
491.777
495.238
493.568
504.308
519.201
532.749
546.831
557.958
569.903
582.687
588.81
591.617
600.23
613.094
626.277
635.662
646.052
660.198
671.993
683.17
693.683
703.631
716.633
726.174
737.921
752.471
757.238
762.504
777.778
793.476
793.465
789.084
799.197
809.937
822.197
824.457
821.455
826.801
838.121
838.57
837.514
850.442
861.344
867.599
875.821
883.889
886.214
905.251
933.775
956.347
959.395
968.529
965.723
960.816
951.504
930.337
949.294
974.706
974.222
981.084
999.821
1033.19
1056.09
1062.08
1071.72
1086.78
1103.19
1117.58
1131.9
1145.29
1160.02
1170.75
1185.07
1195.2
1205.88
1219.86
1227.5
1238.94
1252
1260.44
1272.84
1283.61
1294.9
1310.35
1331.48
1347.37
1371.33
1399.07
1421.96
1454.23
1490.49
1516.27
1536.47
1556.32
1567.05
)
;
    }
    procBoundary2to3
    {
        type            processor;
        value           nonuniform List<scalar> 
180
(
-4.58713
-6.45693
-0.749469
5.29163
8.49417
13.3519
19.8886
26.113
31.2821
34.7271
37.4816
48.4637
62.4724
67.0357
65.3723
60.1735
63.8671
79.0657
84.9693
90.2073
97.3184
93.1809
81.5362
70.0945
61.5014
55.4406
55.9776
67.3801
71.7925
66.6904
68.5766
92.8152
107.191
108.399
104.079
105.23
114.67
127.198
140.018
154.656
162.391
168.098
181.373
190.016
195.722
206.849
220.986
228.869
237.358
247.362
253.823
259.267
265.684
276.33
289.857
295.996
303.544
313.775
323.223
331.628
338.441
347.05
362.148
375.279
389.759
402.347
408.398
414.192
424.221
437.883
449.914
461.137
470.158
478.721
488.491
497.153
503.895
513.572
522.906
529.287
538.502
550.238
559.299
565.98
572.669
578.796
586.817
592.276
596.929
601.644
606.434
612.171
615.044
618.202
618.112
621.614
628.179
630.608
638.016
644.729
654.741
664.153
675.736
686.102
699.385
709.482
721.775
720.741
707.371
711.304
718.36
717.903
716.932
726.901
740.205
755.295
765.332
776.003
785.415
795.293
805.632
815.531
824.908
832.725
839.891
845.206
850.652
854.223
855.309
856.748
857.512
859.554
863.516
868.08
876.015
883.165
893.458
899.336
901.818
902.715
906.553
911.907
920.573
929.444
941.143
951.108
965.831
976.71
992.027
1002.75
1016.22
1026.53
1036.87
1045.1
1051.88
1053.1
1053.64
1046.23
1049.05
1053.49
1053.11
1051.43
1046.36
1038.79
1027.17
1010.7
989.752
962.235
931.085
891.937
844.509
792.06
722.502
659.99
570.465
502.113
408.869
323.051
267.122
235.094
)
;
    }
}


// ************************************************************************* //
