/*--------------------------------*- C++ -*----------------------------------*\
| =========                 |                                                 |
| \\      /  F ield         | OpenFOAM: The Open Source CFD Toolbox           |
|  \\    /   O peration     | Version:  5.x                                   |
|   \\  /    A nd           | Web:      www.OpenFOAM.org                      |
|    \\/     M anipulation  |                                                 |
\*---------------------------------------------------------------------------*/
FoamFile
{
    version     2.0;
    format      ascii;
    class       surfaceScalarField;
    location    "9000";
    object      phi;
}
// * * * * * * * * * * * * * * * * * * * * * * * * * * * * * * * * * * * * * //

dimensions      [0 3 -1 0 0 0 0];

internalField   nonuniform List<scalar> 
179
(
3.15468e+07
3.15477e+07
3.15497e+07
3.1552e+07
3.15549e+07
3.1559e+07
3.15654e+07
3.15738e+07
3.1582e+07
3.15906e+07
3.15979e+07
3.16037e+07
3.16104e+07
3.16183e+07
3.16253e+07
3.16311e+07
3.16341e+07
3.16388e+07
3.16441e+07
3.16503e+07
3.16568e+07
3.16629e+07
3.16689e+07
3.16756e+07
3.16823e+07
3.16874e+07
3.16907e+07
3.16935e+07
3.16976e+07
3.16997e+07
3.16992e+07
3.16996e+07
3.17045e+07
3.17098e+07
3.17151e+07
3.17224e+07
3.17278e+07
3.17325e+07
3.17384e+07
3.17449e+07
3.1749e+07
3.17508e+07
3.17522e+07
3.17535e+07
3.17529e+07
3.17522e+07
3.17524e+07
3.17523e+07
3.17512e+07
3.17495e+07
3.1749e+07
3.17495e+07
3.17493e+07
3.17517e+07
3.17552e+07
3.17628e+07
3.17705e+07
3.17784e+07
3.17866e+07
3.17942e+07
3.18013e+07
3.18087e+07
3.18162e+07
3.18255e+07
3.18359e+07
3.18476e+07
3.18595e+07
3.18687e+07
3.18775e+07
3.1884e+07
3.1887e+07
3.18884e+07
3.18839e+07
3.18749e+07
3.18655e+07
3.1857e+07
3.18489e+07
3.18401e+07
3.18294e+07
3.18126e+07
3.17979e+07
3.17839e+07
3.17691e+07
3.17471e+07
3.17168e+07
3.16726e+07
3.16129e+07
3.15405e+07
3.146e+07
3.13707e+07
3.12713e+07
3.11641e+07
3.10512e+07
3.09311e+07
3.08088e+07
3.06898e+07
3.05623e+07
3.04304e+07
3.02922e+07
3.01525e+07
3.00108e+07
2.98685e+07
2.9722e+07
2.95752e+07
2.94257e+07
2.92748e+07
2.91241e+07
2.89709e+07
2.88196e+07
2.86679e+07
2.85267e+07
2.83988e+07
2.82908e+07
2.82069e+07
2.81531e+07
2.81201e+07
2.81113e+07
2.81172e+07
2.81379e+07
2.81652e+07
2.81994e+07
2.82398e+07
2.8294e+07
2.83577e+07
2.84286e+07
2.85071e+07
2.85955e+07
2.86931e+07
2.87988e+07
2.8913e+07
2.90345e+07
2.91655e+07
2.9303e+07
2.94488e+07
2.96068e+07
2.97791e+07
2.99592e+07
3.01499e+07
3.03413e+07
3.05412e+07
3.07404e+07
3.09435e+07
3.11511e+07
3.13666e+07
3.15919e+07
3.18341e+07
3.20922e+07
3.23771e+07
3.26787e+07
3.30032e+07
3.33329e+07
3.36765e+07
3.40136e+07
3.4356e+07
3.4686e+07
3.50135e+07
3.53203e+07
3.56176e+07
3.58866e+07
3.61424e+07
3.63717e+07
3.65862e+07
3.67768e+07
3.69531e+07
3.71079e+07
3.72484e+07
3.73719e+07
3.74831e+07
3.75736e+07
3.7651e+07
3.77132e+07
3.77646e+07
3.7812e+07
3.78513e+07
3.78953e+07
3.79316e+07
3.79797e+07
3.80191e+07
3.80549e+07
)
;

boundaryField
{
    inlet
    {
        type            calculated;
        value           uniform 3.80444e+07;
    }
    outlet
    {
        type            calculated;
        value           uniform -3.15464e+07;
    }
    repeat_boundary
    {
        type            calculated;
        value           uniform 0;
    }
    procBoundary2to0
    {
        type            processor;
        value           nonuniform List<scalar> 
180
(
684.801
326.514
-617.616
-577.411
-1003.13
-1614.85
-2813.53
-4084.23
-3762.42
-4248.31
-2842.61
-2375.19
-2703.91
-3425.42
-2528.76
-1685.99
603.382
-856.162
-1228.45
-1790.75
-1692.08
-1431.46
-1125.59
-1914.68
-1876.31
-1191.95
-599.405
-872.712
-2030.68
-1640.1
-1143.4
-1887
-5656.83
-6547.16
-7011.82
-8994.43
-6534.96
-4743.52
-5081.1
-4359.15
-1849.54
709.528
2853.2
4419.11
6841.3
6999.62
7332.74
6851.99
7010.16
6510.57
5877.04
5076.49
5652.42
3069.13
3104.66
118.618
347.126
656.052
-597.189
1156.47
2062.58
1242.06
698.368
-1363.42
-968.52
-2738.15
-4382.71
-1662
-2392.26
343.033
2901.62
3297.24
7385.19
10786.3
12125.5
12730.7
12716.7
15098
18221.6
25164.9
27399
29466.5
31341.7
34641.8
36944
41085.2
42387.3
43717
44884.9
48083.7
50178.5
52002.8
54381
56808.8
58547.6
56193.6
59927.3
64424.6
68922
71174.4
72887.9
73421.2
72380.7
74881.4
75790.5
75456.1
76162.4
78619.3
78382
77107
68240.2
60589.3
53460.2
50471.5
48314.3
51711.4
52658.1
56262
60162.5
66253.8
72577.9
75800.9
71426.4
68774.3
67196.2
63868.4
56109.5
47861.2
39277
28492.9
18065.8
3995.89
-7596.43
-22062.5
-40417.6
-61724
-76245.1
-94651.7
-102643
-118154
-123352
-132032
-139507
-148076
-157644
-171376
-185149
-206030
-220174
-235535
-240555
-246666
-243588
-242327
-233458
-226779
-212666
-201228
-184646
-168155
-152761
-133692
-119144
-101879
-89406.2
-73903
-67698.1
-57139
-50517.5
-40917.5
-39827.9
-33908.7
-45553.1
-48625.3
-67307.1
-76428.2
-98974.9
-112681
-120554
-113161
)
;
    }
    procBoundary2to3
    {
        type            processor;
        value           nonuniform List<scalar> 
180
(
-1152.04
-1202.68
-1419.94
-1636.19
-1943.79
-2441.35
-3599.72
-4357.7
-4464.92
-4328.97
-4428.67
-3386.65
-4044.82
-4456.56
-4453.29
-4164.77
-3602.11
-3827.71
-4118.02
-4329.56
-4823.57
-4691.94
-4899.97
-4798.65
-4776.76
-3872.65
-2698.26
-1995.38
-2061.44
-465.531
1678.92
1496.39
704.16
1241.21
1771.27
1679.3
1129.31
49.342
-793.944
-2134.4
-2315.88
-2465.64
-4229.77
-5711.81
-6300.93
-6283.87
-7500.78
-6749.7
-5917.01
-4884.39
-5383.24
-5484.69
-5543.58
-5380.32
-6659.48
-7732.34
-7990.09
-8539.12
-7690.28
-8694.06
-9142.94
-8676.01
-8217.03
-7971.54
-9344.49
-9033.82
-7495.47
-7551.47
-6342.59
-6837.37
-5904.13
-4729.05
-2948.04
-1700.06
-2721.07
-4254.48
-4645.14
-6293.65
-7538.05
-8368.83
-12688.7
-15487.7
-16554.6
-12565.5
-6715.51
3163.11
17355.3
28629.2
35642.9
41209.9
49175.3
55266.6
58514.4
63282.5
63757.2
62807.2
67575.1
67457.7
69254.2
68508.6
68856.5
68878.9
74059.2
72001.4
73712
75442.6
74535.8
74512.8
72901.1
74590.8
73017.4
67294.7
54552.1
33388.6
5493.68
-18695
-43880.5
-62160.8
-80849.4
-93537.8
-106799
-116217
-125555
-132533
-138119
-142297
-144537
-145478
-144922
-142752
-139560
-134955
-129933
-123771
-117566
-110577
-103788
-96048.4
-88835.3
-81742.4
-75798.2
-71101.5
-68107.9
-67385.7
-67656.5
-70827.9
-72984.9
-78874
-81374.5
-88932
-89232.5
-96927.2
-93496.9
-100042
-96541.8
-100731
-94174.3
-96017.4
-84352.6
-87623.7
-76552.9
-80807
-71505
-74420.1
-65416.4
-66531
-55809
-54065
-40024.4
-36423.7
-22438.5
-17482.1
-1853.99
9323.11
23347.3
40085.4
50956
73214
84783.1
123629
)
;
    }
}


// ************************************************************************* //
