/*--------------------------------*- C++ -*----------------------------------*\
| =========                 |                                                 |
| \\      /  F ield         | OpenFOAM: The Open Source CFD Toolbox           |
|  \\    /   O peration     | Version:  5.x                                   |
|   \\  /    A nd           | Web:      www.OpenFOAM.org                      |
|    \\/     M anipulation  |                                                 |
\*---------------------------------------------------------------------------*/
FoamFile
{
    version     2.0;
    format      ascii;
    class       volVectorField;
    location    "9000";
    object      stored_U;
}
// * * * * * * * * * * * * * * * * * * * * * * * * * * * * * * * * * * * * * //

dimensions      [0 1 -1 0 0 0 0];

internalField   nonuniform List<vector> 
180
(
(-0.0467494 -0.0332883 126.124)
(-0.0579653 -0.0112233 126.298)
(-0.0726551 0.0149158 126.325)
(-0.084633 0.0396049 126.254)
(-0.141921 0.0957492 126.308)
(-0.165156 0.140341 126.277)
(-0.212221 0.244223 126.369)
(-0.230955 0.27512 126.387)
(-0.236824 0.299715 126.411)
(-0.183987 0.346621 126.507)
(-0.11763 0.394894 126.469)
(-0.17646 0.321447 126.553)
(-0.183727 0.292209 126.549)
(-0.231658 0.310212 126.535)
(-0.249687 0.325683 126.613)
(-0.210726 0.23453 126.64)
(-0.190092 0.0446673 126.628)
(-0.142766 -0.0167365 126.607)
(-0.168704 0.0225138 126.686)
(-0.256757 0.0510515 126.664)
(-0.254628 0.0378032 126.674)
(-0.219657 0.00145018 126.728)
(-0.27123 0.0817228 126.732)
(-0.323864 0.131135 126.732)
(-0.232199 0.0264931 126.805)
(-0.196041 -0.00990068 126.769)
(-0.159741 -0.0319466 126.803)
(-0.111383 -0.0632579 126.822)
(-0.106824 0.248231 126.801)
(-0.0645327 0.227304 126.784)
(-0.172581 0.639939 126.884)
(-0.152257 0.644909 126.853)
(-0.153107 0.650578 126.889)
(-0.144974 0.63385 127.001)
(-0.108835 0.863148 126.981)
(-0.0895345 0.86532 127.028)
(-0.096331 0.863357 127.047)
(-0.224932 0.822096 127.133)
(-0.220645 0.783692 127.079)
(-0.230311 0.78457 127.14)
(-0.176487 0.761332 127.166)
(-0.145242 0.708891 127.16)
(-0.179788 0.689166 127.131)
(-0.395088 0.442448 127.201)
(-0.420036 0.373828 127.113)
(-0.498222 0.310871 127.139)
(-0.433736 0.310285 127.143)
(-0.355813 0.303742 127.119)
(-0.398064 0.34744 127.115)
(-0.393412 0.351752 127.101)
(-0.394716 0.313446 127.071)
(-0.390851 0.340925 127.097)
(-0.415839 0.391735 127.103)
(-0.459228 0.356925 127.11)
(-0.50966 0.274502 127.107)
(-0.549004 0.234289 127.169)
(-0.573403 0.183293 127.191)
(-0.604035 0.168415 127.246)
(-0.656632 0.104447 127.28)
(-0.704217 0.0199017 127.323)
(-0.737352 -0.0631972 127.315)
(-0.538968 0.215734 127.45)
(-0.625661 0.154538 127.343)
(-0.598249 0.451073 127.453)
(-0.569619 0.817568 127.531)
(-0.653284 0.807739 127.555)
(-0.723761 0.802742 127.611)
(-0.719473 0.839291 127.63)
(-0.780018 0.826358 127.674)
(-0.797879 0.720248 127.732)
(-0.876496 0.656943 127.629)
(-0.883072 0.536532 127.772)
(-0.790484 0.239945 127.587)
(-0.829454 0.162052 127.573)
(-0.886219 0.159239 127.57)
(-1.03721 0.277033 127.556)
(-0.928251 0.090726 127.464)
(-0.959156 0.00798978 127.432)
(-0.914685 -0.0259295 127.446)
(-1.1378 -0.115533 127.234)
(-1.37353 -0.237837 127.224)
(-1.44863 -0.242586 127.199)
(-1.55222 -0.226425 127.15)
(-1.75045 -0.329558 127.084)
(-2.15833 -0.495433 126.789)
(-2.23344 -0.549319 126.664)
(-2.27372 -0.594502 126.487)
(-2.92704 -0.485447 126.196)
(-3.57911 -0.467615 125.684)
(-3.9299 -0.568755 125.256)
(-4.06467 -0.577211 125.066)
(-4.14365 -0.543702 124.491)
(-4.19382 -0.526316 124.092)
(-4.04667 -0.672364 123.442)
(-4.05475 -0.717672 123.16)
(-3.95271 -0.565151 122.559)
(-3.39855 -0.928031 121.935)
(-3.2451 -1.08762 121.613)
(-2.80261 -1.07447 120.907)
(-2.82384 -1.04896 120.341)
(-2.70721 -1.14696 120.061)
(-2.31518 -1.01395 119.104)
(-1.75923 -0.93871 118.455)
(-1.50899 -1.15421 118.257)
(-1.17397 -0.897043 117.26)
(-1.03429 -0.851207 116.793)
(-1.00228 -0.890554 116.305)
(-1.02834 -0.880127 115.703)
(-0.621976 -0.576359 115.098)
(-0.289089 0.00743346 114.195)
(-0.648368 0.944241 113.825)
(-1.44414 1.53322 113.34)
(-2.30412 1.90923 112.945)
(-3.21569 1.84868 112.657)
(-3.90962 1.72206 112.467)
(-4.57834 1.22633 112.429)
(-4.98633 0.743214 112.376)
(-5.35972 -0.0743443 112.517)
(-5.49997 -0.724095 112.579)
(-5.63468 -1.40988 112.745)
(-5.59883 -1.83749 112.856)
(-5.59751 -2.12742 113.115)
(-5.49084 -2.17603 113.276)
(-5.44971 -2.07641 113.629)
(-5.35373 -1.84598 113.857)
(-5.32942 -1.51993 114.268)
(-5.28594 -1.07515 114.572)
(-5.30443 -0.50451 115.046)
(-5.32752 0.0849672 115.429)
(-5.4052 0.704012 115.957)
(-5.50411 1.38137 116.408)
(-5.65171 2.15035 116.996)
(-5.81868 2.91722 117.527)
(-6.01549 3.76715 118.178)
(-6.22811 4.4854 118.784)
(-6.46771 5.14825 119.56)
(-6.72827 5.63248 120.237)
(-7.05287 6.11705 121.098)
(-7.44354 6.46707 121.785)
(-7.98601 6.87684 122.703)
(-8.66332 7.24691 123.382)
(-9.57557 7.87021 124.354)
(-10.6587 8.56611 125.043)
(-12.0092 9.47888 126.067)
(-13.4797 10.4608 126.86)
(-15.2037 11.752 127.976)
(-16.8776 12.9307 128.983)
(-18.7886 14.2499 130.203)
(-20.5062 15.2638 131.483)
(-22.3815 16.3973 132.77)
(-23.8882 17.0562 134.25)
(-25.4672 17.7861 135.499)
(-26.5947 17.9886 137.059)
(-27.701 18.25 138.233)
(-28.3799 18.031 139.765)
(-28.9439 17.861 140.858)
(-29.18 17.269 142.264)
(-29.274 16.8141 143.25)
(-29.1871 15.9455 144.448)
(-28.9907 15.3068 145.314)
(-28.7085 14.4999 146.339)
(-28.5215 13.6028 146.99)
(-28.2012 13.022 147.923)
(-28.0391 12.307 148.466)
(-27.8122 11.8799 149.064)
(-27.834 11.2807 149.872)
(-27.5621 11.2404 149.922)
(-27.8088 10.9213 150.453)
(-27.9105 10.8935 150.937)
(-29.1001 10.8538 151.101)
(-29.6391 11.6167 151.467)
(-31.2796 12.1291 151.474)
(-31.8276 13.8127 151.865)
(-33.2318 14.8054 151.817)
(-33.5081 17.0957 152.272)
(-34.178 18.3785 152.121)
(-33.8123 20.783 152.772)
(-33.2497 21.5625 152.63)
(-32.3014 22.014 152.752)
(-31.6729 21.6579 152.741)
)
;

boundaryField
{
    inlet
    {
        type            calculated;
        value           uniform (-31.6729 21.6579 152.741);
    }
    outlet
    {
        type            calculated;
        value           uniform (-0.0467494 -0.0332883 126.124);
    }
    repeat_boundary
    {
        type            calculated;
        value           nonuniform List<vector> 
360
(
(-0.0467494 0 126.124)
(-0.0579653 0 126.298)
(-0.0726551 0 126.325)
(-0.084633 0 126.254)
(-0.141921 0 126.308)
(-0.165156 0 126.277)
(-0.212221 0 126.369)
(-0.230955 0 126.387)
(-0.236824 0 126.411)
(-0.183987 0 126.507)
(-0.11763 0 126.469)
(-0.17646 0 126.553)
(-0.183727 0 126.549)
(-0.231658 0 126.535)
(-0.249687 0 126.613)
(-0.210726 0 126.64)
(-0.190092 0 126.628)
(-0.142766 0 126.607)
(-0.168704 0 126.686)
(-0.256757 0 126.664)
(-0.254628 0 126.674)
(-0.219657 0 126.728)
(-0.27123 0 126.732)
(-0.323864 0 126.732)
(-0.232199 0 126.805)
(-0.196041 0 126.769)
(-0.159741 0 126.803)
(-0.111383 0 126.822)
(-0.106824 0 126.801)
(-0.0645327 0 126.784)
(-0.172581 0 126.884)
(-0.152257 0 126.853)
(-0.153107 0 126.889)
(-0.144974 0 127.001)
(-0.108835 0 126.981)
(-0.0895345 0 127.028)
(-0.096331 0 127.047)
(-0.224932 0 127.133)
(-0.220645 0 127.079)
(-0.230311 0 127.14)
(-0.176487 0 127.166)
(-0.145242 0 127.16)
(-0.179788 0 127.131)
(-0.395088 0 127.201)
(-0.420036 0 127.113)
(-0.498222 0 127.139)
(-0.433736 0 127.143)
(-0.355813 0 127.119)
(-0.398064 0 127.115)
(-0.393412 0 127.101)
(-0.394716 0 127.071)
(-0.390851 0 127.097)
(-0.415839 0 127.103)
(-0.459228 0 127.11)
(-0.50966 0 127.107)
(-0.549004 0 127.169)
(-0.573403 0 127.191)
(-0.604035 0 127.246)
(-0.656632 0 127.28)
(-0.704217 0 127.323)
(-0.737352 0 127.315)
(-0.538968 0 127.45)
(-0.625661 0 127.343)
(-0.598249 0 127.453)
(-0.569619 0 127.531)
(-0.653284 0 127.555)
(-0.723761 0 127.611)
(-0.719473 0 127.63)
(-0.780018 0 127.674)
(-0.797879 0 127.732)
(-0.876496 0 127.629)
(-0.883072 0 127.772)
(-0.790484 0 127.587)
(-0.829454 0 127.573)
(-0.886219 0 127.57)
(-1.03721 0 127.556)
(-0.928251 0 127.464)
(-0.959156 0 127.432)
(-0.914685 0 127.446)
(-1.1378 0 127.234)
(-1.37353 0 127.224)
(-1.44863 0 127.199)
(-1.55222 0 127.15)
(-1.75045 0 127.084)
(-2.15833 0 126.789)
(-2.23344 0 126.664)
(-2.27372 0 126.487)
(-2.92704 0 126.196)
(-3.57911 0 125.684)
(-3.9299 0 125.256)
(-4.06467 0 125.066)
(-4.14365 0 124.491)
(-4.19382 0 124.092)
(-4.04667 0 123.442)
(-4.05475 0 123.16)
(-3.95271 0 122.559)
(-3.39855 0 121.935)
(-3.2451 0 121.613)
(-2.80261 0 120.907)
(-2.82384 0 120.341)
(-2.70721 0 120.061)
(-2.31518 0 119.104)
(-1.75923 0 118.455)
(-1.50899 0 118.257)
(-1.17397 0 117.26)
(-1.03429 0 116.793)
(-1.00228 0 116.305)
(-1.02834 0 115.703)
(-0.621976 0 115.098)
(-0.289089 0 114.195)
(-0.648368 0 113.825)
(-1.44414 0 113.34)
(-2.30412 0 112.945)
(-3.21569 0 112.657)
(-3.90962 0 112.467)
(-4.57834 0 112.429)
(-4.98633 0 112.376)
(-5.35972 0 112.517)
(-5.49997 0 112.579)
(-5.63468 0 112.745)
(-5.59883 0 112.856)
(-5.59751 0 113.115)
(-5.49084 0 113.276)
(-5.44971 0 113.629)
(-5.35373 0 113.857)
(-5.32942 0 114.268)
(-5.28594 0 114.572)
(-5.30443 0 115.046)
(-5.32752 0 115.429)
(-5.4052 0 115.957)
(-5.50411 0 116.408)
(-5.65171 0 116.996)
(-5.81868 0 117.527)
(-6.01549 0 118.178)
(-6.22811 0 118.784)
(-6.46771 0 119.56)
(-6.72827 0 120.237)
(-7.05287 0 121.098)
(-7.44354 0 121.785)
(-7.98601 0 122.703)
(-8.66332 0 123.382)
(-9.57557 0 124.354)
(-10.6587 0 125.043)
(-12.0092 0 126.067)
(-13.4797 0 126.86)
(-15.2037 0 127.976)
(-16.8776 0 128.983)
(-18.7886 0 130.203)
(-20.5062 0 131.483)
(-22.3815 0 132.77)
(-23.8882 0 134.25)
(-25.4672 0 135.499)
(-26.5947 0 137.059)
(-27.701 0 138.233)
(-28.3799 0 139.765)
(-28.9439 0 140.858)
(-29.18 0 142.264)
(-29.274 0 143.25)
(-29.1871 0 144.448)
(-28.9907 0 145.314)
(-28.7085 0 146.339)
(-28.5215 0 146.99)
(-28.2012 0 147.923)
(-28.0391 0 148.466)
(-27.8122 0 149.064)
(-27.834 0 149.872)
(-27.5621 0 149.922)
(-27.8088 0 150.453)
(-27.9105 0 150.937)
(-29.1001 0 151.101)
(-29.6391 0 151.467)
(-31.2796 0 151.474)
(-31.8276 0 151.865)
(-33.2318 0 151.817)
(-33.5081 0 152.272)
(-34.178 0 152.121)
(-33.8123 0 152.772)
(-33.2497 0 152.63)
(-32.3014 0 152.752)
(-31.6729 0 152.741)
(0 -0.0332883 126.124)
(0 -0.0112233 126.298)
(0 0.0149158 126.325)
(0 0.0396049 126.254)
(0 0.0957492 126.308)
(0 0.140341 126.277)
(0 0.244223 126.369)
(0 0.27512 126.387)
(0 0.299715 126.411)
(0 0.346621 126.507)
(0 0.394894 126.469)
(0 0.321447 126.553)
(0 0.292209 126.549)
(0 0.310212 126.535)
(0 0.325683 126.613)
(0 0.23453 126.64)
(0 0.0446673 126.628)
(0 -0.0167365 126.607)
(0 0.0225138 126.686)
(0 0.0510515 126.664)
(0 0.0378032 126.674)
(0 0.00145018 126.728)
(0 0.0817228 126.732)
(0 0.131135 126.732)
(0 0.0264931 126.805)
(0 -0.00990068 126.769)
(0 -0.0319466 126.803)
(0 -0.0632579 126.822)
(0 0.248231 126.801)
(0 0.227304 126.784)
(0 0.639939 126.884)
(0 0.644909 126.853)
(0 0.650578 126.889)
(0 0.63385 127.001)
(0 0.863148 126.981)
(0 0.86532 127.028)
(0 0.863357 127.047)
(0 0.822096 127.133)
(0 0.783692 127.079)
(0 0.78457 127.14)
(0 0.761332 127.166)
(0 0.708891 127.16)
(0 0.689166 127.131)
(0 0.442448 127.201)
(0 0.373828 127.113)
(0 0.310871 127.139)
(0 0.310285 127.143)
(0 0.303742 127.119)
(0 0.34744 127.115)
(0 0.351752 127.101)
(0 0.313446 127.071)
(0 0.340925 127.097)
(0 0.391735 127.103)
(0 0.356925 127.11)
(0 0.274502 127.107)
(0 0.234289 127.169)
(0 0.183293 127.191)
(0 0.168415 127.246)
(0 0.104447 127.28)
(0 0.0199017 127.323)
(0 -0.0631972 127.315)
(0 0.215734 127.45)
(0 0.154538 127.343)
(0 0.451073 127.453)
(0 0.817568 127.531)
(0 0.807739 127.555)
(0 0.802742 127.611)
(0 0.839291 127.63)
(0 0.826358 127.674)
(0 0.720248 127.732)
(0 0.656943 127.629)
(0 0.536532 127.772)
(0 0.239945 127.587)
(0 0.162052 127.573)
(0 0.159239 127.57)
(0 0.277033 127.556)
(0 0.090726 127.464)
(0 0.00798978 127.432)
(0 -0.0259295 127.446)
(0 -0.115533 127.234)
(0 -0.237837 127.224)
(0 -0.242586 127.199)
(0 -0.226425 127.15)
(0 -0.329558 127.084)
(0 -0.495433 126.789)
(0 -0.549319 126.664)
(0 -0.594502 126.487)
(0 -0.485447 126.196)
(0 -0.467615 125.684)
(0 -0.568755 125.256)
(0 -0.577211 125.066)
(0 -0.543702 124.491)
(0 -0.526316 124.092)
(0 -0.672364 123.442)
(0 -0.717672 123.16)
(0 -0.565151 122.559)
(0 -0.928031 121.935)
(0 -1.08762 121.613)
(0 -1.07447 120.907)
(0 -1.04896 120.341)
(0 -1.14696 120.061)
(0 -1.01395 119.104)
(0 -0.93871 118.455)
(0 -1.15421 118.257)
(0 -0.897043 117.26)
(0 -0.851207 116.793)
(0 -0.890554 116.305)
(0 -0.880127 115.703)
(0 -0.576359 115.098)
(0 0.00743346 114.195)
(0 0.944241 113.825)
(0 1.53322 113.34)
(0 1.90923 112.945)
(0 1.84868 112.657)
(0 1.72206 112.467)
(0 1.22633 112.429)
(0 0.743214 112.376)
(0 -0.0743443 112.517)
(0 -0.724095 112.579)
(0 -1.40988 112.745)
(0 -1.83749 112.856)
(0 -2.12742 113.115)
(0 -2.17603 113.276)
(0 -2.07641 113.629)
(0 -1.84598 113.857)
(0 -1.51993 114.268)
(0 -1.07515 114.572)
(0 -0.50451 115.046)
(0 0.0849672 115.429)
(0 0.704012 115.957)
(0 1.38137 116.408)
(0 2.15035 116.996)
(0 2.91722 117.527)
(0 3.76715 118.178)
(0 4.4854 118.784)
(0 5.14825 119.56)
(0 5.63248 120.237)
(0 6.11705 121.098)
(0 6.46707 121.785)
(0 6.87684 122.703)
(0 7.24691 123.382)
(0 7.87021 124.354)
(0 8.56611 125.043)
(0 9.47888 126.067)
(0 10.4608 126.86)
(0 11.752 127.976)
(0 12.9307 128.983)
(0 14.2499 130.203)
(0 15.2638 131.483)
(0 16.3973 132.77)
(0 17.0562 134.25)
(0 17.7861 135.499)
(0 17.9886 137.059)
(0 18.25 138.233)
(0 18.031 139.765)
(0 17.861 140.858)
(0 17.269 142.264)
(0 16.8141 143.25)
(0 15.9455 144.448)
(0 15.3068 145.314)
(0 14.4999 146.339)
(0 13.6028 146.99)
(0 13.022 147.923)
(0 12.307 148.466)
(0 11.8799 149.064)
(0 11.2807 149.872)
(0 11.2404 149.922)
(0 10.9213 150.453)
(0 10.8935 150.937)
(0 10.8538 151.101)
(0 11.6167 151.467)
(0 12.1291 151.474)
(0 13.8127 151.865)
(0 14.8054 151.817)
(0 17.0957 152.272)
(0 18.3785 152.121)
(0 20.783 152.772)
(0 21.5625 152.63)
(0 22.014 152.752)
(0 21.6579 152.741)
)
;
    }
    procBoundary2to0
    {
        type            processor;
        value           nonuniform List<vector> 
180
(
(-0.0782562 -0.0332324 123.551)
(-0.0892937 -0.0107181 123.62)
(-0.0985876 0.0143751 123.653)
(-0.110679 0.0394214 123.596)
(-0.091275 0.0919473 123.678)
(-0.102775 0.136738 123.585)
(-0.102294 0.184044 123.617)
(-0.160553 0.157659 123.608)
(-0.426343 -0.039493 123.594)
(-0.645221 -0.0748447 123.648)
(-0.980107 -0.190788 123.645)
(-1.00942 -0.151646 123.717)
(-1.03533 -0.15127 123.792)
(-1.2735 -0.0933439 123.886)
(-1.58758 -0.247451 124.078)
(-1.66609 -0.271717 124.152)
(-1.68911 -0.163593 124.295)
(-1.88895 -0.0642818 124.577)
(-1.93638 -0.0609037 124.665)
(-2.06853 -0.06291 124.829)
(-2.28869 0.037553 125.168)
(-2.31358 -0.00869953 125.105)
(-2.35211 0.00678345 125.367)
(-2.33241 0.103393 125.396)
(-2.35025 0.083731 125.466)
(-2.32939 0.0202522 125.605)
(-2.12872 0.0583829 125.626)
(-2.02759 -0.00408053 125.651)
(-1.98483 0.00239501 125.605)
(-1.92072 -0.0321462 125.694)
(-1.58068 0.10087 125.609)
(-1.52889 0.100683 125.523)
(-1.44178 0.172858 125.497)
(-1.31595 0.217785 125.37)
(-1.37113 0.063987 125.214)
(-1.41841 -0.160113 125.106)
(-1.41712 -0.439697 124.974)
(-1.36373 -0.435469 124.928)
(-1.36441 -0.455931 124.885)
(-1.26903 -0.623397 124.743)
(-1.2015 -0.828574 124.596)
(-1.15724 -0.984488 124.549)
(-1.15667 -1.06129 124.476)
(-1.16075 -1.08147 124.413)
(-1.01485 -1.0011 124.463)
(-0.943385 -1.01431 124.26)
(-0.908983 -1.06392 124.232)
(-0.642061 -0.853035 124.161)
(-0.60058 -0.889347 124.051)
(-0.438192 -0.832925 124.021)
(-0.307229 -0.763572 123.887)
(-0.139647 -0.718765 123.734)
(-0.0959194 -0.703502 123.663)
(0.15333 -0.409172 123.402)
(0.270497 -0.351022 123.389)
(0.507749 -0.0183654 123.096)
(0.53579 -0.0650511 122.951)
(0.663285 0.127323 122.875)
(0.542092 -0.00197851 122.559)
(0.457505 -0.155069 122.423)
(0.446451 -0.208214 122.396)
(0.562019 -0.0964095 122.153)
(0.584571 -0.0976456 122.021)
(0.520493 -0.207809 121.884)
(0.61826 -0.101144 121.753)
(0.373858 -0.437348 121.48)
(0.320729 -0.49417 121.398)
(0.227054 -0.669758 121.202)
(0.248721 -0.661629 121.122)
(0.0208308 -1.07385 120.908)
(-0.0282161 -1.10469 120.898)
(-0.0534859 -1.11391 120.828)
(-0.18226 -1.27422 120.82)
(-0.227012 -1.2906 120.712)
(-0.322429 -1.358 120.744)
(-0.335291 -1.30319 120.744)
(-0.323153 -1.25895 120.726)
(-0.494272 -1.47214 120.775)
(-0.852191 -1.91895 120.649)
(-1.15597 -2.31397 120.931)
(-1.16526 -2.34179 120.924)
(-1.1987 -2.33195 120.994)
(-1.33513 -2.51279 121.232)
(-1.43598 -2.65543 121.289)
(-1.41564 -2.72085 121.32)
(-1.60182 -2.97452 121.679)
(-1.68546 -3.03372 121.657)
(-1.67074 -3.14229 121.891)
(-1.77061 -3.20304 122.102)
(-1.87476 -3.41031 122.235)
(-1.97922 -3.53319 122.514)
(-2.14835 -3.73134 122.66)
(-2.20354 -3.94717 122.934)
(-2.20737 -3.98005 123.197)
(-2.23019 -3.8986 123.42)
(-2.24502 -3.8612 123.65)
(-2.33182 -4.15384 123.941)
(-2.40176 -4.37343 124.244)
(-2.59958 -4.65081 124.586)
(-2.68182 -4.72937 124.897)
(-2.63602 -4.71429 125.207)
(-2.38004 -4.76873 125.661)
(-2.44188 -4.84049 125.939)
(-2.53892 -4.9643 126.298)
(-2.65035 -5.10514 126.668)
(-2.56804 -5.13418 127.009)
(-2.4095 -5.26839 127.389)
(-2.39287 -5.43992 127.744)
(-2.49308 -5.56981 128.052)
(-2.69287 -5.73573 128.541)
(-2.75062 -5.74417 128.714)
(-2.73753 -5.7894 128.912)
(-2.6705 -5.78888 129.264)
(-2.74354 -5.72018 129.413)
(-2.87059 -5.69667 129.471)
(-2.88929 -5.69313 129.573)
(-2.6285 -5.0292 129.808)
(-2.65592 -4.76188 129.755)
(-2.82445 -4.53175 129.875)
(-2.82309 -4.45172 129.943)
(-2.84252 -4.39753 130.035)
(-3.02811 -3.81768 130.163)
(-3.4505 -3.33317 130.218)
(-3.68428 -3.35958 130.181)
(-3.70478 -3.34389 130.199)
(-3.51564 -3.15524 130.197)
(-3.50971 -2.881 130.076)
(-3.56674 -2.78073 129.86)
(-3.85651 -2.58027 129.464)
(-3.87431 -2.28096 129.148)
(-3.98969 -2.00239 128.516)
(-3.8463 -1.6178 127.975)
(-3.71248 -1.37214 127.374)
(-4.94139 -0.793298 126.214)
(-7.32052 0.108069 125.463)
(-10.1415 1.00222 124.463)
(-12.9905 1.57088 123.776)
(-16.295 2.32939 122.686)
(-18.5873 2.53372 122.448)
(-23.3346 3.33531 121.096)
(-23.7616 3.17733 121.297)
(-24.8502 3.28637 120.888)
(-25.9693 3.14513 120.087)
(-26.3018 3.01506 119.689)
(-27.0565 2.99102 119.275)
(-27.2318 2.95755 118.651)
(-29.2496 3.21056 118.176)
(-33.0271 3.55753 117.194)
(-36.558 3.51181 117.063)
(-39.4672 3.28998 116.481)
(-41.7227 2.68543 116.355)
(-43.2611 2.12625 115.936)
(-44.2924 1.38944 115.872)
(-44.8209 0.791027 115.589)
(-44.9761 0.0731369 115.585)
(-44.85 -0.515091 115.395)
(-44.47 -1.25348 115.41)
(-43.9467 -1.827 115.434)
(-43.2167 -2.49275 115.382)
(-42.5138 -3.12976 115.709)
(-41.6079 -3.65564 115.753)
(-40.66 -4.24198 116.097)
(-39.7816 -4.74213 116.564)
(-39.0243 -5.30823 116.899)
(-38.2232 -5.79083 117.532)
(-37.7497 -6.15455 118.129)
(-37.1802 -6.73361 118.765)
(-36.7468 -7.25687 119.488)
(-36.3514 -7.77939 120.291)
(-35.9271 -8.22104 120.962)
(-35.4071 -8.76383 121.658)
(-35.0484 -9.22241 122.522)
(-34.4979 -9.59122 122.904)
(-33.8997 -9.99 123.509)
(-33.2898 -10.471 123.983)
(-32.8019 -10.7788 124.072)
(-32.2633 -11.0753 124.194)
(-32.1189 -11.4633 124.349)
(-31.1724 -12.0797 124.291)
(-30.8496 -12.5939 124.352)
)
;
    }
    procBoundary2to3
    {
        type            processor;
        value           nonuniform List<vector> 
180
(
(-0.0428722 -0.00475979 122.999)
(-0.0441733 0.00943104 123.242)
(-0.0706178 0.0454486 123.092)
(-0.0830172 0.0708083 123.072)
(-0.0698443 0.118698 123.139)
(-0.142944 0.124307 123.078)
(-0.187845 0.151217 123.106)
(-0.157241 0.252388 123.105)
(-0.13972 0.290468 123.085)
(-0.180263 0.311241 123.143)
(-0.125945 0.416496 123.113)
(-0.0464676 0.654756 123.213)
(-0.126582 0.700008 123.227)
(-0.169073 0.718475 123.23)
(-0.144826 0.931211 123.449)
(-0.106322 1.01158 123.346)
(-0.0808991 1.25099 123.601)
(-0.112946 1.27918 123.627)
(-0.142084 1.29619 123.71)
(-0.125206 1.55579 123.975)
(-0.157772 1.81836 123.908)
(0.0277281 2.27451 124.266)
(0.0265121 2.29074 124.194)
(-0.0507888 2.21738 124.488)
(-0.0832388 2.18275 124.423)
(-0.0184555 2.18062 124.623)
(0.0105767 2.14671 124.608)
(0.0257329 2.11307 124.65)
(0.0691378 1.9581 124.828)
(0.0895478 1.91925 124.771)
(0.150409 1.87402 124.822)
(0.17025 1.85559 124.878)
(0.186672 1.84173 124.882)
(0.160943 1.71588 124.963)
(0.179047 1.67931 124.863)
(0.127598 1.61187 124.975)
(0.0614204 1.39845 124.899)
(0.0166147 1.27991 124.878)
(-0.0341674 1.19894 124.883)
(-0.0717291 1.14462 124.8)
(-0.0496777 1.17502 124.728)
(-0.158911 1.03902 124.75)
(-0.227216 0.911181 124.664)
(-0.243987 0.74521 124.476)
(-0.148046 0.793054 124.48)
(-0.167271 0.732024 124.478)
(-0.173311 0.561339 124.294)
(0.095208 0.473244 124.191)
(0.0444213 0.280747 124.17)
(0.0640432 0.163994 124.05)
(-0.0268423 -0.07556 123.933)
(-0.0322392 -0.17754 123.792)
(-0.00170983 -0.181611 123.757)
(-0.00133329 -0.371172 123.655)
(-0.0842403 -0.716785 123.461)
(-0.11042 -0.913263 123.317)
(-0.0780395 -0.902842 123.253)
(-0.0891624 -0.836387 123.201)
(0.0305036 -0.952246 122.912)
(-0.0588095 -1.1426 122.821)
(-0.0920954 -1.22446 122.814)
(0.0452975 -1.17837 122.629)
(0.0582072 -1.16173 122.464)
(-0.0942984 -1.36812 122.379)
(-0.0675471 -1.34566 122.243)
(0.0848485 -1.33802 122.044)
(0.261102 -1.30351 121.955)
(0.438659 -1.29358 121.842)
(0.38236 -1.35118 121.736)
(0.367707 -1.37408 121.662)
(0.558474 -1.49483 121.474)
(0.68942 -1.69346 121.368)
(0.782739 -1.84849 121.227)
(0.813082 -2.04878 121.135)
(0.694491 -2.17089 120.938)
(0.605283 -2.34835 120.745)
(0.56062 -2.61008 120.555)
(0.460575 -2.77332 120.398)
(0.426855 -3.00585 120.047)
(0.341684 -3.18719 119.823)
(0.189438 -3.26652 119.541)
(0.168182 -3.0996 119.179)
(0.450515 -2.61725 118.756)
(1.22185 -2.03905 118.475)
(2.30938 -1.3494 118.157)
(3.55842 -0.675631 117.966)
(4.81475 0.116019 117.83)
(5.92138 0.849845 117.751)
(6.98327 1.52863 117.812)
(7.83976 2.18996 117.832)
(8.59011 2.71341 118.01)
(8.9725 3.27307 118.141)
(9.23586 3.59295 118.36)
(9.42397 3.85367 118.64)
(9.15957 4.06465 118.808)
(9.12544 4.20834 119.177)
(9.01935 4.31306 119.346)
(8.71137 4.46103 119.725)
(8.40801 4.53898 120.013)
(8.26358 4.54702 120.301)
(8.23254 4.5477 120.696)
(8.04676 4.48267 120.952)
(7.78773 4.54405 121.423)
(7.36709 4.47008 121.661)
(7.28798 4.50528 122.177)
(7.07714 4.44942 122.404)
(6.88012 4.46154 123.046)
(6.94189 4.58851 123.172)
(6.19218 3.99864 123.884)
(6.18934 3.96921 124.082)
(6.14821 3.91987 124.433)
(6.00873 3.70734 124.859)
(5.14305 3.00167 125.162)
(3.82045 1.04804 125.173)
(2.21164 -0.974046 124.8)
(1.07762 -2.73125 124.28)
(-0.281667 -3.80518 123.308)
(-1.09809 -4.20801 122.414)
(-2.22625 -3.74942 121.077)
(-2.88237 -2.64056 120.033)
(-3.84384 -0.914374 118.635)
(-4.43207 1.21523 117.556)
(-5.17378 3.65922 116.225)
(-5.62429 6.35066 115.205)
(-6.05127 9.16911 114.101)
(-6.27231 11.9748 113.221)
(-6.36586 14.8184 112.346)
(-6.31558 17.5261 111.67)
(-6.13077 20.1342 110.886)
(-5.7875 22.643 110.397)
(-5.35244 24.9687 109.817)
(-4.78035 27.07 109.51)
(-4.16813 29.1132 109.053)
(-3.4525 31.0917 108.916)
(-2.72192 32.9365 108.668)
(-1.9072 34.7018 108.659)
(-1.07857 36.3935 108.585)
(-0.133179 37.9724 108.711)
(0.797804 39.4376 108.884)
(1.85528 40.9854 109.171)
(2.90053 42.2907 109.548)
(4.06271 43.7405 109.966)
(5.22961 44.8728 110.508)
(6.50883 46.1448 111.011)
(7.80588 47.1126 111.653)
(9.19884 48.0728 112.141)
(10.6006 48.8097 112.917)
(12.0474 49.5772 113.3)
(13.5254 50.0665 114.206)
(14.9012 50.5527 114.394)
(16.3997 50.6914 115.397)
(17.5208 50.8155 115.394)
(18.9869 50.6345 116.383)
(19.6702 50.1847 116.285)
(20.7597 49.6137 117.216)
(21.0528 48.6403 116.897)
(22.0931 47.3881 117.916)
(21.9229 45.4282 117.386)
(22.7143 43.1983 118.285)
(22.2065 40.2447 117.687)
(22.7515 36.9224 118.293)
(22.1048 32.7748 117.626)
(22.5478 28.2352 117.876)
(22.0639 23.0769 117.05)
(22.5791 17.856 116.92)
(22.4428 12.4242 115.826)
(23.1896 7.25222 115.292)
(23.7051 2.37502 113.867)
(24.8887 -2.07405 112.981)
(26.1318 -5.5999 111.19)
(27.8135 -8.52934 110.078)
(29.706 -9.96862 108.097)
(31.6406 -10.3364 106.867)
(33.6368 -9.63808 105.249)
(35.1042 -7.28957 103.723)
(36.7377 -4.55157 103.326)
(37.343 0.15869 101.135)
(38.5761 2.01835 102.293)
(38.616 4.70573 100.592)
(39.6346 6.23204 101.504)
)
;
    }
}


// ************************************************************************* //
