/*--------------------------------*- C++ -*----------------------------------*\
| =========                 |                                                 |
| \\      /  F ield         | OpenFOAM: The Open Source CFD Toolbox           |
|  \\    /   O peration     | Version:  5.x                                   |
|   \\  /    A nd           | Web:      www.OpenFOAM.org                      |
|    \\/     M anipulation  |                                                 |
\*---------------------------------------------------------------------------*/
FoamFile
{
    version     2.0;
    format      ascii;
    class       volVectorField;
    location    "900";
    object      stored_U;
}
// * * * * * * * * * * * * * * * * * * * * * * * * * * * * * * * * * * * * * //

dimensions      [0 1 -1 0 0 0 0];

internalField   nonuniform List<vector> 
90
(
(0.0690818 -0.00558194 -4.39472)
(0.0716107 -0.0048054 -4.37346)
(0.0722016 -0.00334903 -4.36327)
(0.0729464 -0.0022284 -4.34851)
(0.0734817 -0.000999577 -4.336)
(0.0743764 0.000148528 -4.32271)
(0.0753322 0.00129742 -4.3099)
(0.0761332 0.00238236 -4.29706)
(0.0769104 0.00341238 -4.28452)
(0.0778485 0.00437707 -4.27216)
(0.0788153 0.00530569 -4.25979)
(0.0797955 0.00617493 -4.24754)
(0.0803514 0.00694699 -4.23536)
(0.0808441 0.00765018 -4.22341)
(0.0813992 0.00830847 -4.21166)
(0.0818489 0.00892087 -4.20015)
(0.0824532 0.00948759 -4.18884)
(0.0832604 0.010068 -4.1776)
(0.0840866 0.0106264 -4.16644)
(0.084916 0.011152 -4.15525)
(0.0856549 0.0116293 -4.14411)
(0.0867093 0.0120491 -4.13299)
(0.0877676 0.0124806 -4.12193)
(0.0884252 0.0128901 -4.11092)
(0.0893012 0.0132649 -4.0999)
(0.0899554 0.0136089 -4.0889)
(0.090395 0.0139119 -4.07798)
(0.0909967 0.0142215 -4.06727)
(0.0917333 0.0145555 -4.05662)
(0.0928102 0.0149016 -4.0459)
(0.093959 0.0152573 -4.03518)
(0.0949286 0.0156174 -4.0244)
(0.0959778 0.015975 -4.01362)
(0.0972581 0.0163562 -4.00274)
(0.0985067 0.0167471 -3.9918)
(0.0995995 0.0171167 -3.98086)
(0.100861 0.0174665 -3.96988)
(0.101838 0.017814 -3.95898)
(0.10307 0.0181744 -3.94801)
(0.104867 0.0185584 -3.93702)
(0.106344 0.018934 -3.92596)
(0.107634 0.019313 -3.91492)
(0.10933 0.0196932 -3.90376)
(0.11125 0.0200681 -3.89252)
(0.112984 0.0204365 -3.88115)
(0.114642 0.0207897 -3.86969)
(0.116241 0.0211269 -3.85817)
(0.117801 0.0214478 -3.84659)
(0.119329 0.0217514 -3.83496)
(0.120841 0.0220379 -3.8233)
(0.122342 0.0223072 -3.81161)
(0.123839 0.0225593 -3.79988)
(0.125337 0.0227943 -3.78812)
(0.126837 0.0230119 -3.77634)
(0.128344 0.0232117 -3.76453)
(0.129858 0.0233933 -3.7527)
(0.131381 0.0235562 -3.74084)
(0.132913 0.0236997 -3.72895)
(0.134454 0.023823 -3.71703)
(0.136005 0.0239253 -3.70509)
(0.137565 0.0240059 -3.69312)
(0.139135 0.0240638 -3.68113)
(0.140714 0.0240981 -3.6691)
(0.142301 0.0241081 -3.65704)
(0.143897 0.0240929 -3.64496)
(0.1455 0.0240519 -3.63284)
(0.14711 0.0239844 -3.6207)
(0.148727 0.0238901 -3.60852)
(0.15035 0.0237686 -3.59632)
(0.15198 0.0236201 -3.58408)
(0.153614 0.0234448 -3.57182)
(0.155255 0.0232436 -3.55952)
(0.156901 0.0230177 -3.5472)
(0.158552 0.0227692 -3.53485)
(0.16021 0.0225006 -3.52248)
(0.161875 0.0222157 -3.51008)
(0.163547 0.0219189 -3.49766)
(0.165227 0.0216166 -3.48523)
(0.166919 0.0213186 -3.47279)
(0.168624 0.0210387 -3.46034)
(0.170344 0.0207881 -3.4479)
(0.172081 0.0205634 -3.43549)
(0.173838 0.0203551 -3.42311)
(0.175622 0.0201536 -3.41072)
(0.177442 0.0199453 -3.39819)
(0.179324 0.0197283 -3.38603)
(0.181212 0.0195377 -3.37477)
(0.183071 0.0194023 -3.3646)
(0.18504 0.0191664 -3.3506)
(0.186456 0.0187263 -3.33239)
)
;

boundaryField
{
    inlet
    {
        type            calculated;
        value           uniform (0.186456 0.0187263 -3.33239);
    }
    outlet
    {
        type            calculated;
        value           uniform (0.0690818 -0.00558194 -4.39472);
    }
    repeat_boundary
    {
        type            calculated;
        value           nonuniform List<vector> 
180
(
(0.0690818 0 -4.39472)
(0.0716107 0 -4.37346)
(0.0722016 0 -4.36327)
(0.0729464 0 -4.34851)
(0.0734817 0 -4.336)
(0.0743764 0 -4.32271)
(0.0753322 0 -4.3099)
(0.0761332 0 -4.29706)
(0.0769104 0 -4.28452)
(0.0778485 0 -4.27216)
(0.0788153 0 -4.25979)
(0.0797955 0 -4.24754)
(0.0803514 0 -4.23536)
(0.0808441 0 -4.22341)
(0.0813992 0 -4.21166)
(0.0818489 0 -4.20015)
(0.0824532 0 -4.18884)
(0.0832604 0 -4.1776)
(0.0840866 0 -4.16644)
(0.084916 0 -4.15525)
(0.0856549 0 -4.14411)
(0.0867093 0 -4.13299)
(0.0877676 0 -4.12193)
(0.0884252 0 -4.11092)
(0.0893012 0 -4.0999)
(0.0899554 0 -4.0889)
(0.090395 0 -4.07798)
(0.0909967 0 -4.06727)
(0.0917333 0 -4.05662)
(0.0928102 0 -4.0459)
(0.093959 0 -4.03518)
(0.0949286 0 -4.0244)
(0.0959778 0 -4.01362)
(0.0972581 0 -4.00274)
(0.0985067 0 -3.9918)
(0.0995995 0 -3.98086)
(0.100861 0 -3.96988)
(0.101838 0 -3.95898)
(0.10307 0 -3.94801)
(0.104867 0 -3.93702)
(0.106344 0 -3.92596)
(0.107634 0 -3.91492)
(0.10933 0 -3.90376)
(0.11125 0 -3.89252)
(0.112984 0 -3.88115)
(0.114642 0 -3.86969)
(0.116241 0 -3.85817)
(0.117801 0 -3.84659)
(0.119329 0 -3.83496)
(0.120841 0 -3.8233)
(0.122342 0 -3.81161)
(0.123839 0 -3.79988)
(0.125337 0 -3.78812)
(0.126837 0 -3.77634)
(0.128344 0 -3.76453)
(0.129858 0 -3.7527)
(0.131381 0 -3.74084)
(0.132913 0 -3.72895)
(0.134454 0 -3.71703)
(0.136005 0 -3.70509)
(0.137565 0 -3.69312)
(0.139135 0 -3.68113)
(0.140714 0 -3.6691)
(0.142301 0 -3.65704)
(0.143897 0 -3.64496)
(0.1455 0 -3.63284)
(0.14711 0 -3.6207)
(0.148727 0 -3.60852)
(0.15035 0 -3.59632)
(0.15198 0 -3.58408)
(0.153614 0 -3.57182)
(0.155255 0 -3.55952)
(0.156901 0 -3.5472)
(0.158552 0 -3.53485)
(0.16021 0 -3.52248)
(0.161875 0 -3.51008)
(0.163547 0 -3.49766)
(0.165227 0 -3.48523)
(0.166919 0 -3.47279)
(0.168624 0 -3.46034)
(0.170344 0 -3.4479)
(0.172081 0 -3.43549)
(0.173838 0 -3.42311)
(0.175622 0 -3.41072)
(0.177442 0 -3.39819)
(0.179324 0 -3.38603)
(0.181212 0 -3.37477)
(0.183071 0 -3.3646)
(0.18504 0 -3.3506)
(0.186456 0 -3.33239)
(0 -0.00558194 -4.39472)
(0 -0.0048054 -4.37346)
(0 -0.00334903 -4.36327)
(0 -0.0022284 -4.34851)
(0 -0.000999577 -4.336)
(0 0.000148528 -4.32271)
(0 0.00129742 -4.3099)
(0 0.00238236 -4.29706)
(0 0.00341238 -4.28452)
(0 0.00437707 -4.27216)
(0 0.00530569 -4.25979)
(0 0.00617493 -4.24754)
(0 0.00694699 -4.23536)
(0 0.00765018 -4.22341)
(0 0.00830847 -4.21166)
(0 0.00892087 -4.20015)
(0 0.00948759 -4.18884)
(0 0.010068 -4.1776)
(0 0.0106264 -4.16644)
(0 0.011152 -4.15525)
(0 0.0116293 -4.14411)
(0 0.0120491 -4.13299)
(0 0.0124806 -4.12193)
(0 0.0128901 -4.11092)
(0 0.0132649 -4.0999)
(0 0.0136089 -4.0889)
(0 0.0139119 -4.07798)
(0 0.0142215 -4.06727)
(0 0.0145555 -4.05662)
(0 0.0149016 -4.0459)
(0 0.0152573 -4.03518)
(0 0.0156174 -4.0244)
(0 0.015975 -4.01362)
(0 0.0163562 -4.00274)
(0 0.0167471 -3.9918)
(0 0.0171167 -3.98086)
(0 0.0174665 -3.96988)
(0 0.017814 -3.95898)
(0 0.0181744 -3.94801)
(0 0.0185584 -3.93702)
(0 0.018934 -3.92596)
(0 0.019313 -3.91492)
(0 0.0196932 -3.90376)
(0 0.0200681 -3.89252)
(0 0.0204365 -3.88115)
(0 0.0207897 -3.86969)
(0 0.0211269 -3.85817)
(0 0.0214478 -3.84659)
(0 0.0217514 -3.83496)
(0 0.0220379 -3.8233)
(0 0.0223072 -3.81161)
(0 0.0225593 -3.79988)
(0 0.0227943 -3.78812)
(0 0.0230119 -3.77634)
(0 0.0232117 -3.76453)
(0 0.0233933 -3.7527)
(0 0.0235562 -3.74084)
(0 0.0236997 -3.72895)
(0 0.023823 -3.71703)
(0 0.0239253 -3.70509)
(0 0.0240059 -3.69312)
(0 0.0240638 -3.68113)
(0 0.0240981 -3.6691)
(0 0.0241081 -3.65704)
(0 0.0240929 -3.64496)
(0 0.0240519 -3.63284)
(0 0.0239844 -3.6207)
(0 0.0238901 -3.60852)
(0 0.0237686 -3.59632)
(0 0.0236201 -3.58408)
(0 0.0234448 -3.57182)
(0 0.0232436 -3.55952)
(0 0.0230177 -3.5472)
(0 0.0227692 -3.53485)
(0 0.0225006 -3.52248)
(0 0.0222157 -3.51008)
(0 0.0219189 -3.49766)
(0 0.0216166 -3.48523)
(0 0.0213186 -3.47279)
(0 0.0210387 -3.46034)
(0 0.0207881 -3.4479)
(0 0.0205634 -3.43549)
(0 0.0203551 -3.42311)
(0 0.0201536 -3.41072)
(0 0.0199453 -3.39819)
(0 0.0197283 -3.38603)
(0 0.0195377 -3.37477)
(0 0.0194023 -3.3646)
(0 0.0191664 -3.3506)
(0 0.0187263 -3.33239)
)
;
    }
    procBoundary1to0
    {
        type            processor;
        value           nonuniform List<vector> 
90
(
(0.0442252 -0.0345627 -5.59082)
(0.0445948 -0.0354016 -5.5906)
(0.0441939 -0.0359756 -5.59248)
(0.0439613 -0.036847 -5.59243)
(0.0439552 -0.0373633 -5.5932)
(0.0443045 -0.0375858 -5.59296)
(0.0449308 -0.0374698 -5.58972)
(0.0443034 -0.0371439 -5.5937)
(0.0436275 -0.0377897 -5.59347)
(0.0433297 -0.0381547 -5.5933)
(0.0438142 -0.0378737 -5.5891)
(0.0434279 -0.0367672 -5.59141)
(0.0425495 -0.0363669 -5.59341)
(0.0416684 -0.0369692 -5.59219)
(0.0409256 -0.0375613 -5.59189)
(0.0398535 -0.0384827 -5.59152)
(0.0396468 -0.0386005 -5.59053)
(0.0394583 -0.0387098 -5.59051)
(0.0396763 -0.0385112 -5.58974)
(0.0405146 -0.0378601 -5.58604)
(0.0392508 -0.0381783 -5.58993)
(0.0393986 -0.0380703 -5.5843)
(0.038575 -0.0377943 -5.58841)
(0.0385252 -0.0379338 -5.58659)
(0.0390377 -0.0377876 -5.58288)
(0.0379427 -0.0380177 -5.58656)
(0.0374892 -0.0386631 -5.5817)
(0.0364442 -0.0390744 -5.58424)
(0.0362574 -0.0394619 -5.58268)
(0.036829 -0.0396141 -5.57868)
(0.0366469 -0.039829 -5.57936)
(0.0363867 -0.0403445 -5.57792)
(0.0364829 -0.0404312 -5.57737)
(0.0370032 -0.0402082 -5.57503)
(0.0373057 -0.0399166 -5.57475)
(0.0373219 -0.0397582 -5.57541)
(0.0371892 -0.0406883 -5.5712)
(0.0368422 -0.0407125 -5.57417)
(0.0372728 -0.0411737 -5.56843)
(0.0375652 -0.0408128 -5.56885)
(0.0371164 -0.0409831 -5.56983)
(0.0374489 -0.0411972 -5.56839)
(0.0386557 -0.0412484 -5.56397)
(0.0384475 -0.0412564 -5.56523)
(0.038557 -0.0413622 -5.56381)
(0.0384836 -0.0415551 -5.56311)
(0.0383911 -0.0418069 -5.56225)
(0.0382576 -0.0421003 -5.56147)
(0.0380931 -0.0424336 -5.56064)
(0.0379058 -0.0427955 -5.55979)
(0.0376995 -0.0431822 -5.5589)
(0.0374777 -0.0435896 -5.55796)
(0.0372429 -0.0440151 -5.55696)
(0.0369967 -0.0444568 -5.55589)
(0.0367405 -0.0449132 -5.55475)
(0.0364749 -0.0453834 -5.55353)
(0.0362004 -0.0458666 -5.55222)
(0.0359175 -0.0463623 -5.55082)
(0.0356262 -0.0468701 -5.54933)
(0.0353265 -0.0473897 -5.54775)
(0.0350185 -0.0479208 -5.54606)
(0.034702 -0.048463 -5.54427)
(0.0343769 -0.0490162 -5.54237)
(0.0340431 -0.0495797 -5.54036)
(0.0337006 -0.0501532 -5.53823)
(0.0333493 -0.0507359 -5.53597)
(0.0329894 -0.051327 -5.5336)
(0.0326207 -0.0519256 -5.53109)
(0.0322436 -0.0525303 -5.52845)
(0.0318583 -0.0531394 -5.52568)
(0.031465 -0.053751 -5.52276)
(0.0310644 -0.0543624 -5.51971)
(0.0306568 -0.0549707 -5.5165)
(0.0302431 -0.0555721 -5.51315)
(0.0298242 -0.0561617 -5.50964)
(0.0294009 -0.0567337 -5.50598)
(0.0289745 -0.0572804 -5.50217)
(0.0285463 -0.0577929 -5.4982)
(0.028118 -0.0582617 -5.49408)
(0.0276914 -0.0586761 -5.48982)
(0.027268 -0.0590182 -5.48542)
(0.026849 -0.0592551 -5.48088)
(0.0264363 -0.0593414 -5.47624)
(0.0260332 -0.0592339 -5.47146)
(0.0256445 -0.058894 -5.46649)
(0.0252726 -0.05832 -5.46155)
(0.0248808 -0.0572868 -5.45705)
(0.0244801 -0.0552156 -5.4533)
(0.0241447 -0.0522624 -5.44777)
(0.0240442 -0.0513073 -5.43968)
)
;
    }
    procBoundary1to3
    {
        type            processor;
        value           nonuniform List<vector> 
90
(
(0.0961345 -0.0156441 -5.14284)
(0.100253 -0.0149867 -5.12366)
(0.10103 -0.013424 -5.10937)
(0.10303 -0.0123374 -5.09326)
(0.104093 -0.0110226 -5.07787)
(0.105298 -0.00983611 -5.06205)
(0.106201 -0.00860388 -5.04631)
(0.107037 -0.00744655 -5.03052)
(0.107732 -0.0063116 -5.01479)
(0.108377 -0.00521775 -4.99914)
(0.108952 -0.00416597 -4.98359)
(0.109465 -0.00318402 -4.96815)
(0.109909 -0.00226879 -4.9529)
(0.11031 -0.0014024 -4.93784)
(0.110685 -0.000582521 -4.92301)
(0.111041 0.000184785 -4.90843)
(0.111414 0.000922078 -4.89411)
(0.111822 0.00163985 -4.88005)
(0.112268 0.00233249 -4.86623)
(0.112746 0.00298679 -4.85266)
(0.113237 0.00360061 -4.83931)
(0.113769 0.00419948 -4.82621)
(0.114342 0.00478304 -4.81333)
(0.114944 0.00533726 -4.80067)
(0.115575 0.00586077 -4.78824)
(0.116236 0.00636612 -4.77601)
(0.116926 0.00685917 -4.764)
(0.117662 0.00734796 -4.7522)
(0.118469 0.00784928 -4.74058)
(0.119355 0.00837018 -4.72913)
(0.12031 0.00890243 -4.71782)
(0.121322 0.00944375 -4.70664)
(0.122407 0.0100016 -4.69558)
(0.123559 0.0105747 -4.68462)
(0.124768 0.0111619 -4.67375)
(0.126025 0.0117544 -4.66296)
(0.127328 0.0123508 -4.65225)
(0.12869 0.0129651 -4.64163)
(0.130107 0.0135973 -4.63107)
(0.131588 0.0142527 -4.62056)
(0.133132 0.0149324 -4.61011)
(0.134729 0.0156278 -4.5997)
(0.136374 0.0163373 -4.58932)
(0.138073 0.017065 -4.57896)
(0.139813 0.0178072 -4.56862)
(0.141585 0.0185578 -4.55829)
(0.143387 0.0193169 -4.54797)
(0.145215 0.0200851 -4.53766)
(0.14707 0.0208622 -4.52737)
(0.148952 0.0216494 -4.5171)
(0.15086 0.0224474 -4.50684)
(0.152796 0.0232573 -4.49661)
(0.154761 0.0240799 -4.48641)
(0.156754 0.0249162 -4.47624)
(0.158777 0.025767 -4.4661)
(0.160829 0.0266331 -4.456)
(0.162912 0.0275153 -4.44594)
(0.165026 0.0284143 -4.43592)
(0.167171 0.0293311 -4.42595)
(0.169346 0.0302663 -4.41603)
(0.171553 0.031221 -4.40617)
(0.173792 0.032196 -4.39636)
(0.176061 0.0331924 -4.38661)
(0.178363 0.0342113 -4.37692)
(0.180696 0.0352541 -4.36731)
(0.18306 0.0363221 -4.35776)
(0.185456 0.0374169 -4.3483)
(0.187884 0.0385406 -4.33891)
(0.190343 0.039695 -4.32961)
(0.192833 0.0408828 -4.32039)
(0.195354 0.0421068 -4.31127)
(0.197906 0.04337 -4.30225)
(0.200487 0.0446765 -4.29333)
(0.203097 0.0460305 -4.28451)
(0.205735 0.0474371 -4.2758)
(0.208399 0.0489024 -4.2672)
(0.211084 0.0504333 -4.25873)
(0.213789 0.052038 -4.25036)
(0.216511 0.0537278 -4.24209)
(0.219252 0.055517 -4.23394)
(0.222002 0.0574182 -4.22599)
(0.224743 0.0594467 -4.21808)
(0.22741 0.0615975 -4.21029)
(0.229946 0.0638701 -4.20257)
(0.232297 0.0662614 -4.19482)
(0.234461 0.0687716 -4.18728)
(0.236177 0.071452 -4.18035)
(0.236677 0.0743182 -4.17463)
(0.236094 0.077262 -4.16756)
(0.236591 0.0788942 -4.15709)
)
;
    }
}


// ************************************************************************* //
