/*--------------------------------*- C++ -*----------------------------------*\
| =========                 |                                                 |
| \\      /  F ield         | OpenFOAM: The Open Source CFD Toolbox           |
|  \\    /   O peration     | Version:  5.x                                   |
|   \\  /    A nd           | Web:      www.OpenFOAM.org                      |
|    \\/     M anipulation  |                                                 |
\*---------------------------------------------------------------------------*/
FoamFile
{
    version     2.0;
    format      ascii;
    class       volScalarField;
    location    "0.05";
    object      p;
}
// * * * * * * * * * * * * * * * * * * * * * * * * * * * * * * * * * * * * * //

dimensions      [0 2 -2 0 0 0 0];

internalField   nonuniform List<scalar> 
2250
(
1.77323e-10
1.87744e-10
2.22024e-10
2.78041e-10
3.7012e-10
1.56798e-10
1.6844e-10
2.06847e-10
2.66981e-10
3.35716e-10
1.36156e-10
1.47491e-10
1.80579e-10
2.29341e-10
2.84343e-10
1.25611e-10
1.38436e-10
1.68416e-10
2.09576e-10
2.56294e-10
1.22515e-10
1.35554e-10
1.63082e-10
2.01726e-10
2.49515e-10
5.26421e-10
5.70892e-10
6.7497e-10
8.16709e-10
9.73474e-10
4.60243e-10
5.02423e-10
6.19568e-10
7.90713e-10
9.5131e-10
3.98538e-10
4.39965e-10
5.44396e-10
6.98353e-10
8.6781e-10
3.67635e-10
4.09919e-10
5.03866e-10
6.40726e-10
8.05902e-10
3.56863e-10
3.96863e-10
4.83797e-10
6.15199e-10
7.82304e-10
8.24375e-10
9.0576e-10
1.09764e-09
1.32323e-09
1.43743e-09
7.17091e-10
7.9829e-10
1.00342e-09
1.28767e-09
1.53141e-09
6.29594e-10
7.11507e-10
8.98213e-10
1.16865e-09
1.46943e-09
5.83625e-10
6.61006e-10
8.2882e-10
1.07391e-09
1.37496e-09
5.63339e-10
6.33707e-10
7.90275e-10
1.02271e-09
1.30929e-09
1.00501e-09
1.13733e-09
1.46115e-09
1.83578e-09
2.05395e-09
9.17405e-10
1.05217e-09
1.35634e-09
1.75828e-09
2.10238e-09
8.3679e-10
9.65512e-10
1.23769e-09
1.61316e-09
2.01214e-09
7.78982e-10
8.92761e-10
1.13662e-09
1.47427e-09
1.85733e-09
7.44991e-10
8.49467e-10
1.07778e-09
1.38925e-09
1.73619e-09
1.12774e-09
1.33937e-09
1.77963e-09
2.29856e-09
2.72224e-09
1.10608e-09
1.29628e-09
1.66431e-09
2.13567e-09
2.57532e-09
1.03493e-09
1.1995e-09
1.5248e-09
1.95452e-09
2.39712e-09
9.51564e-10
1.09278e-09
1.39057e-09
1.78133e-09
2.19015e-09
8.99046e-10
1.03475e-09
1.31808e-09
1.67865e-09
2.05394e-09
1.36208e-09
1.61935e-09
2.04197e-09
2.55971e-09
3.10965e-09
1.32881e-09
1.53563e-09
1.88953e-09
2.34916e-09
2.85496e-09
1.21511e-09
1.38556e-09
1.71475e-09
2.14779e-09
2.61728e-09
1.08313e-09
1.23643e-09
1.55734e-09
1.97272e-09
2.41436e-09
1.01161e-09
1.16887e-09
1.48371e-09
1.88263e-09
2.31454e-09
1.6687e-09
1.87782e-09
2.17241e-09
2.58064e-09
3.11742e-09
1.49937e-09
1.67099e-09
1.96808e-09
2.38086e-09
2.89158e-09
1.30057e-09
1.45307e-09
1.76535e-09
2.18912e-09
2.67872e-09
1.12132e-09
1.27637e-09
1.60416e-09
2.03868e-09
2.53351e-09
1.04088e-09
1.20796e-09
1.5388e-09
1.97589e-09
2.47982e-09
1.7692e-09
1.89885e-09
2.12352e-09
2.49135e-09
2.97712e-09
1.46125e-09
1.58803e-09
1.85511e-09
2.24321e-09
2.70599e-09
1.19967e-09
1.33704e-09
1.6467e-09
2.07131e-09
2.54771e-09
1.00513e-09
1.1625e-09
1.49874e-09
1.951e-09
2.46895e-09
9.30718e-10
1.1028e-09
1.44662e-09
1.90885e-09
2.4408e-09
1.53039e-09
1.6429e-09
1.91665e-09
2.36929e-09
2.95228e-09
1.17599e-09
1.28839e-09
1.56385e-09
1.95166e-09
2.42291e-09
8.91961e-10
1.03381e-09
1.35709e-09
1.78165e-09
2.23865e-09
7.07991e-10
8.76931e-10
1.22591e-09
1.67832e-09
2.17189e-09
6.46834e-10
8.31117e-10
1.18391e-09
1.63461e-09
2.13253e-09
1.12164e-09
1.25748e-09
1.57925e-09
2.11001e-09
2.93809e-09
7.36737e-10
8.58384e-10
1.13886e-09
1.51246e-09
2.08862e-09
4.22092e-10
5.82679e-10
9.10294e-10
1.30618e-09
1.76692e-09
2.38605e-10
4.25927e-10
7.69124e-10
1.17534e-09
1.61307e-09
1.8079e-10
3.77844e-10
7.0618e-10
1.08698e-09
1.50511e-09
7.07224e-10
8.34499e-10
1.11946e-09
1.62208e-09
2.62781e-09
2.04636e-10
3.32926e-10
5.86684e-10
9.05778e-10
1.54839e-09
-1.87949e-10
-1.45472e-11
2.78361e-10
5.94874e-10
1.02767e-09
-4.14939e-10
-2.26679e-10
5.65039e-11
3.56526e-10
7.07206e-10
-5.04959e-10
-3.2965e-10
-8.74208e-11
1.78046e-10
4.98736e-10
2.20171e-10
3.09134e-10
5.31485e-10
9.62718e-10
1.97082e-09
-4.71557e-10
-3.48744e-10
-1.4394e-10
1.00379e-10
6.99691e-10
-9.95134e-10
-8.36753e-10
-6.24504e-10
-4.16561e-10
-5.5495e-11
-1.33535e-09
-1.19124e-09
-1.01905e-09
-8.35434e-10
-5.56704e-10
-1.51682e-09
-1.41391e-09
-1.2856e-09
-1.10651e-09
-8.27846e-10
-4.61147e-10
-3.90885e-10
-1.92899e-10
1.87935e-10
1.09225e-09
-1.37127e-09
-1.25875e-09
-1.0996e-09
-9.06485e-10
-3.66753e-10
-2.10132e-09
-1.98709e-09
-1.86442e-09
-1.72489e-09
-1.37909e-09
-2.64531e-09
-2.57541e-09
-2.49729e-09
-2.35156e-09
-2.03695e-09
-2.97286e-09
-2.94561e-09
-2.87608e-09
-2.68454e-09
-2.33429e-09
-1.28252e-09
-1.19356e-09
-1.00157e-09
-6.88786e-10
1.19352e-11
-2.51661e-09
-2.41455e-09
-2.28418e-09
-2.10364e-09
-1.6231e-09
-3.58705e-09
-3.5193e-09
-3.44098e-09
-3.28529e-09
-2.88235e-09
-4.4305e-09
-4.40872e-09
-4.34317e-09
-4.138e-09
-3.7095e-09
-4.92699e-09
-4.91664e-09
-4.8183e-09
-4.54971e-09
-4.09688e-09
-2.10371e-09
-1.99113e-09
-1.81047e-09
-1.55096e-09
-1.08136e-09
-3.9142e-09
-3.82815e-09
-3.70278e-09
-3.48937e-09
-3.08163e-09
-5.51053e-09
-5.46227e-09
-5.36049e-09
-5.12541e-09
-4.68533e-09
-6.74232e-09
-6.70998e-09
-6.58595e-09
-6.29595e-09
-5.8149e-09
-7.41908e-09
-7.36925e-09
-7.20701e-09
-6.88742e-09
-6.42358e-09
-2.94485e-09
-2.83196e-09
-2.61229e-09
-2.229e-09
-1.66129e-09
-5.64158e-09
-5.56279e-09
-5.3822e-09
-5.04732e-09
-4.55905e-09
-7.9706e-09
-7.90125e-09
-7.71283e-09
-7.36106e-09
-6.87031e-09
-9.69792e-09
-9.61491e-09
-9.40628e-09
-9.04394e-09
-8.55698e-09
-1.06062e-08
-1.0507e-08
-1.02887e-08
-9.93825e-09
-9.48053e-09
-3.9548e-09
-3.81392e-09
-3.43098e-09
-2.7463e-09
-1.70064e-09
-7.83739e-09
-7.71172e-09
-7.37555e-09
-6.82669e-09
-6.04378e-09
-1.11488e-08
-1.10112e-08
-1.06768e-08
-1.01622e-08
-9.49282e-09
-1.35499e-08
-1.3398e-08
-1.308e-08
-1.25991e-08
-1.19855e-08
-1.48051e-08
-1.46567e-08
-1.43544e-08
-1.38877e-08
-1.32791e-08
-5.18902e-09
-4.92839e-09
-4.29162e-09
-3.35043e-09
-1.96951e-09
-1.06586e-08
-1.04113e-08
-9.84812e-09
-9.06659e-09
-7.98476e-09
-1.53153e-08
-1.50614e-08
-1.45333e-08
-1.38013e-08
-1.2855e-08
-1.86761e-08
-1.84304e-08
-1.79491e-08
-1.72486e-08
-1.63629e-08
-2.0447e-08
-2.02184e-08
-1.97499e-08
-1.90389e-08
-1.81514e-08
-6.65558e-09
-6.22409e-09
-5.34768e-09
-4.23551e-09
-2.75304e-09
-1.43348e-08
-1.39257e-08
-1.3131e-08
-1.2111e-08
-1.0785e-08
-2.08655e-08
-2.04653e-08
-1.97189e-08
-1.87177e-08
-1.7488e-08
-2.55978e-08
-2.52278e-08
-2.45225e-08
-2.35265e-08
-2.235e-08
-2.81062e-08
-2.77492e-08
-2.7033e-08
-2.60291e-08
-2.48818e-08
-8.51329e-09
-7.93497e-09
-6.85557e-09
-5.433e-09
-3.54956e-09
-1.92703e-08
-1.87066e-08
-1.76885e-08
-1.63478e-08
-1.4678e-08
-2.84198e-08
-2.78754e-08
-2.68881e-08
-2.55607e-08
-2.4026e-08
-3.50878e-08
-3.45727e-08
-3.35923e-08
-3.22743e-08
-3.081e-08
-3.86194e-08
-3.80935e-08
-3.70981e-08
-3.58176e-08
-3.44028e-08
-1.10945e-08
-1.03976e-08
-9.09278e-09
-7.1663e-09
-4.58602e-09
-2.61132e-08
-2.54189e-08
-2.41428e-08
-2.23755e-08
-2.021e-08
-3.89151e-08
-3.82336e-08
-3.69498e-08
-3.5227e-08
-3.32696e-08
-4.82579e-08
-4.75689e-08
-4.62706e-08
-4.45966e-08
-4.27295e-08
-5.31699e-08
-5.24522e-08
-5.11805e-08
-4.95651e-08
-4.77336e-08
-1.48664e-08
-1.40362e-08
-1.24331e-08
-9.987e-09
-6.8345e-09
-3.57612e-08
-3.49209e-08
-3.32872e-08
-3.10007e-08
-2.82107e-08
-5.3595e-08
-5.27306e-08
-5.10536e-08
-4.88287e-08
-4.62423e-08
-6.65637e-08
-6.56514e-08
-6.39837e-08
-6.18168e-08
-5.93179e-08
-7.33413e-08
-7.24268e-08
-7.08147e-08
-6.86632e-08
-6.61792e-08
-2.03746e-08
-1.93212e-08
-1.72551e-08
-1.42594e-08
-1.05868e-08
-4.93073e-08
-4.82154e-08
-4.60535e-08
-4.31021e-08
-3.95815e-08
-7.39896e-08
-7.28364e-08
-7.0636e-08
-6.77106e-08
-6.42664e-08
-9.18892e-08
-9.07024e-08
-8.85307e-08
-8.56047e-08
-8.22002e-08
-1.01261e-07
-1.0011e-07
-9.79579e-08
-9.50111e-08
-9.16129e-08
-2.81901e-08
-2.67397e-08
-2.39226e-08
-2.01243e-08
-1.57429e-08
-6.80805e-08
-6.65736e-08
-6.36774e-08
-5.98204e-08
-5.53876e-08
-1.02105e-07
-1.00554e-07
-9.76323e-08
-9.37033e-08
-8.91607e-08
-1.2682e-07
-1.25276e-07
-1.22338e-07
-1.18347e-07
-1.13781e-07
-1.39817e-07
-1.38292e-07
-1.35344e-07
-1.3134e-07
-1.26787e-07
-3.90436e-08
-3.70067e-08
-3.31537e-08
-2.81831e-08
-2.27118e-08
-9.39002e-08
-9.18235e-08
-8.79411e-08
-8.28153e-08
-7.7037e-08
-1.40781e-07
-1.38698e-07
-1.34736e-07
-1.29429e-07
-1.23441e-07
-1.74947e-07
-1.72853e-07
-1.68821e-07
-1.6342e-07
-1.57335e-07
-1.9293e-07
-1.90818e-07
-1.86792e-07
-1.81375e-07
-1.7524e-07
-5.39804e-08
-5.1157e-08
-4.5989e-08
-3.93874e-08
-3.2131e-08
-1.29369e-07
-1.26526e-07
-1.21256e-07
-1.14326e-07
-1.06596e-07
-1.93992e-07
-1.91115e-07
-1.85678e-07
-1.7849e-07
-1.70456e-07
-2.41172e-07
-2.38244e-07
-2.32734e-07
-2.25383e-07
-2.17039e-07
-2.66004e-07
-2.6307e-07
-2.57568e-07
-2.5015e-07
-2.41602e-07
-7.44467e-08
-7.05309e-08
-6.35281e-08
-5.45387e-08
-4.46975e-08
-1.78123e-07
-1.74169e-07
-1.66895e-07
-1.57384e-07
-1.46909e-07
-2.67203e-07
-2.63163e-07
-2.557e-07
-2.45844e-07
-2.34774e-07
-3.32341e-07
-3.2829e-07
-3.20751e-07
-3.10608e-07
-2.98937e-07
-3.66704e-07
-3.62683e-07
-3.55101e-07
-3.44799e-07
-3.32857e-07
-1.02564e-07
-9.70609e-08
-8.71757e-08
-7.4535e-08
-6.11352e-08
-2.45199e-07
-2.39615e-07
-2.29402e-07
-2.16136e-07
-2.01655e-07
-3.6809e-07
-3.62481e-07
-3.52129e-07
-3.38391e-07
-3.22889e-07
-4.58202e-07
-4.52685e-07
-4.42224e-07
-4.2808e-07
-4.11776e-07
-5.0586e-07
-5.0037e-07
-4.89796e-07
-4.75439e-07
-4.58798e-07
-1.41308e-07
-1.33244e-07
-1.18617e-07
-1.00361e-07
-8.16625e-08
-3.37464e-07
-3.29474e-07
-3.14788e-07
-2.95923e-07
-2.75555e-07
-5.07393e-07
-4.99603e-07
-4.84887e-07
-4.65448e-07
-4.43597e-07
-6.32306e-07
-6.24778e-07
-6.09992e-07
-5.90154e-07
-5.67261e-07
-6.98407e-07
-6.90974e-07
-6.7607e-07
-6.56017e-07
-6.32544e-07
-1.94348e-07
-1.81911e-07
-1.59531e-07
-1.32528e-07
-1.05728e-07
-4.64002e-07
-4.5239e-07
-4.30721e-07
-4.03416e-07
-3.74528e-07
-6.99778e-07
-6.88822e-07
-6.67386e-07
-6.39623e-07
-6.08715e-07
-8.7313e-07
-8.63104e-07
-8.41853e-07
-8.14035e-07
-7.81728e-07
-9.64927e-07
-9.55383e-07
-9.33984e-07
-9.06076e-07
-8.72897e-07
-2.66744e-07
-2.46883e-07
-2.11512e-07
-1.70476e-07
-1.31702e-07
-6.3661e-07
-6.19696e-07
-5.87025e-07
-5.47066e-07
-5.06378e-07
-9.65528e-07
-9.50273e-07
-9.18221e-07
-8.78502e-07
-8.35116e-07
-1.20602e-06
-1.19425e-06
-1.16282e-06
-1.12443e-06
-1.07922e-06
-1.33382e-06
-1.32376e-06
-1.29159e-06
-1.25381e-06
-1.20715e-06
-3.6806e-07
-3.3462e-07
-2.75592e-07
-2.10839e-07
-1.54915e-07
-8.69487e-07
-8.4591e-07
-7.95677e-07
-7.36911e-07
-6.81899e-07
-1.33398e-06
-1.31352e-06
-1.26337e-06
-1.20651e-06
-1.14801e-06
-1.66499e-06
-1.65744e-06
-1.60775e-06
-1.55739e-06
-1.4962e-06
-1.84378e-06
-1.84104e-06
-1.78747e-06
-1.74042e-06
-1.6757e-06
-5.23342e-07
-4.60445e-07
-3.52814e-07
-2.43938e-07
-1.65712e-07
-1.17282e-06
-1.14656e-06
-1.06884e-06
-9.81585e-07
-9.18651e-07
-1.85291e-06
-1.82394e-06
-1.73956e-06
-1.65545e-06
-1.58935e-06
-2.29373e-06
-2.31033e-06
-2.22355e-06
-2.16651e-06
-2.09289e-06
-2.54876e-06
-2.57386e-06
-2.47292e-06
-2.42799e-06
-2.34345e-06
-7.94189e-07
-6.65527e-07
-4.51354e-07
-2.42838e-07
-1.51903e-07
-1.53951e-06
-1.52837e-06
-1.41162e-06
-1.27464e-06
-1.25591e-06
-2.60826e-06
-2.55453e-06
-2.40614e-06
-2.2569e-06
-2.23981e-06
-3.14023e-06
-3.23484e-06
-3.07687e-06
-3.02783e-06
-2.97605e-06
-3.5254e-06
-3.61899e-06
-3.42626e-06
-3.403e-06
-3.31961e-06
-1.2655e-06
-1.00854e-06
-5.9177e-07
-1.29938e-07
-1.00786e-07
-1.96983e-06
-1.99345e-06
-1.82055e-06
-1.57964e-06
-1.75094e-06
-3.72368e-06
-3.60692e-06
-3.37845e-06
-3.03486e-06
-3.2213e-06
-4.2375e-06
-4.54732e-06
-4.26719e-06
-4.25146e-06
-4.3171e-06
-4.88576e-06
-5.12058e-06
-4.77029e-06
-4.77663e-06
-4.78319e-06
-2.00488e-06
-1.49726e-06
-7.46032e-07
3.33099e-07
7.59965e-08
-2.51831e-06
-2.57826e-06
-2.26436e-06
-1.79709e-06
-2.40261e-06
-5.34258e-06
-5.04696e-06
-4.8466e-06
-3.9782e-06
-4.68112e-06
-5.627e-06
-6.37392e-06
-5.90113e-06
-6.01724e-06
-6.37536e-06
-6.75015e-06
-7.26201e-06
-6.67031e-06
-6.70704e-06
-6.99531e-06
-3.09148e-06
-2.05564e-06
-5.16819e-07
2.24895e-06
1.37033e-06
-3.38125e-06
-3.50751e-06
-2.43688e-06
-1.41996e-06
-2.8405e-06
-7.55062e-06
-6.67693e-06
-7.09227e-06
-4.99147e-06
-6.77813e-06
-6.54394e-06
-8.89178e-06
-7.99726e-06
-8.50488e-06
-9.562e-06
-9.01057e-06
-1.02875e-05
-9.41069e-06
-9.27063e-06
-1.02467e-05
-7.81504e-06
-5.71013e-06
-4.57838e-06
-2.00889e-06
-3.49328e-06
-6.74257e-06
-7.31484e-06
-8.20379e-06
-6.68752e-06
-7.32211e-06
-1.457e-05
-1.38907e-05
-1.3414e-05
-1.1725e-05
-1.24054e-05
-1.4948e-05
-1.68375e-05
-1.59578e-05
-1.74633e-05
-1.64144e-05
-1.69442e-05
-1.89523e-05
-1.5587e-05
-1.91945e-05
-1.57466e-05
-2.83214e-06
3.09937e-06
4.89028e-06
2.40265e-05
1.45861e-05
-4.7296e-06
-6.44457e-06
2.51041e-06
6.83195e-06
2.64378e-06
-1.13169e-05
-3.29217e-06
-1.50336e-05
-9.49424e-07
-1.28958e-05
4.37021e-06
-1.52027e-05
-8.42285e-06
-1.51014e-05
-2.33929e-05
-9.1979e-06
-1.60567e-05
-1.69353e-05
-1.27641e-05
-2.94738e-05
-2.05091e-05
-1.45419e-05
-1.89443e-06
-9.71028e-06
1.7934e-05
-1.30668e-05
-1.08095e-05
-2.73687e-05
-1.77835e-05
1.37869e-05
-2.92717e-05
-4.24711e-05
-3.20868e-05
-3.6718e-05
-2.07178e-05
-2.72644e-05
-3.30991e-05
-3.63101e-05
-4.47218e-05
-3.0014e-05
-4.02548e-05
-4.34795e-05
-2.97338e-05
-5.54929e-05
-8.29969e-06
-1.22794e-05
4.85813e-06
2.11263e-05
5.99159e-05
7.13316e-05
-7.58007e-05
-0.000108947
-1.9818e-05
-1.69492e-05
4.40843e-05
-5.66746e-05
2.65769e-06
-0.000107614
-5.37685e-05
-5.14225e-05
9.43254e-05
-7.21012e-05
7.8849e-07
-8.30977e-05
-9.14095e-05
-5.95183e-05
-5.20441e-05
-0.00010702
-5.35473e-05
-0.000151698
0.000889662
0.000409625
0.00112399
0.000532083
0.000719975
0.000363131
0.000320996
0.000477708
0.000506173
0.000448658
0.000418355
0.000255178
0.000297344
0.000410695
0.000358143
0.00063059
0.000521505
0.000359298
0.000710739
0.00114891
0.00028911
0.000257147
0.000108203
0.000572447
0.000322227
0.00124649
0.00115203
0.00147458
0.000957295
0.000905545
0.00105921
0.00103899
0.00109577
0.00116133
0.00137548
0.000883635
0.000590786
0.00100368
0.0012002
0.00124496
0.0010225
0.000990212
0.00126691
0.00116461
0.0013591
0.000791785
0.00102366
0.000823786
0.000915174
0.00140378
0.00248019
0.0019859
0.00173301
0.00226937
0.00189067
0.00120898
0.00159157
0.00186196
0.00188803
0.00198075
0.00184506
0.00185739
0.00196322
0.00177256
0.00174612
0.00142754
0.00161812
0.00192963
0.00167746
0.00220251
0.0019752
0.00193599
0.00181869
0.00211389
0.00199792
0.00246623
0.00243847
0.00231039
0.00206143
0.00235712
0.00254123
0.00221465
0.00233165
0.00250165
0.00264086
0.00336627
0.00254012
0.00257189
0.00243067
0.00266367
0.00167525
0.00255546
0.00252052
0.00262611
0.00320115
0.00264075
0.00313665
0.00272884
0.00275496
0.00291003
0.00241006
0.00312347
0.00281762
0.00251333
0.0027594
0.00336599
0.00323359
0.00284871
0.00310118
0.00304985
0.00327638
0.00311784
0.00328799
0.00295057
0.00349721
0.00328328
0.00307722
0.00299105
0.00304742
0.00316428
0.00285007
0.00302794
0.0032386
0.0035151
0.00321492
0.00450927
0.00442377
0.00342842
0.00370657
0.00333048
0.00442779
0.00413456
0.00392023
0.00377023
0.00349666
0.00391188
0.00406511
0.0041531
0.00355108
0.00366477
0.00454432
0.00391216
0.00332258
0.00362804
0.00336853
0.00311997
0.00373524
0.00366932
0.00362269
0.00329843
0.00469507
0.00470924
0.00450961
0.00416311
0.0046554
0.00481863
0.00464665
0.00445192
0.00429339
0.00402054
0.00474509
0.00455752
0.00442242
0.00458526
0.00375285
0.00520266
0.00469393
0.00429556
0.00420551
0.00400547
0.0045341
0.00425517
0.00412588
0.00372375
0.00357478
0.00537793
0.00464704
0.00526356
0.00501782
0.00515145
0.00482716
0.00488482
0.00489911
0.00468139
0.00495262
0.0052561
0.005108
0.00485163
0.00489546
0.00452167
0.00522081
0.00517919
0.00531275
0.00487704
0.00489573
0.00545228
0.00454323
0.00503685
0.00481976
0.00560424
0.00616194
0.00584589
0.00553258
0.00543872
0.00513541
0.00519246
0.00523238
0.0053583
0.00501823
0.00514525
0.00551175
0.00554197
0.00570478
0.00551824
0.00502397
0.00545568
0.00553821
0.00561692
0.00546267
0.00557683
0.005979
0.00571888
0.00561929
0.00543429
0.00572148
0.006145
0.00620048
0.00579556
0.00571567
0.00546118
0.00597542
0.0058741
0.0059919
0.00602396
0.00532001
0.00620846
0.00606076
0.00603955
0.00594589
0.00579907
0.00619719
0.00626131
0.00608884
0.00609462
0.00596766
0.00623715
0.0062592
0.00607024
0.00601777
0.00585834
0.00619459
0.00621456
0.00625229
0.0061746
0.00615384
0.006189
0.00623156
0.00623315
0.00620793
0.00617808
0.00621551
0.00622515
0.00618429
0.00617492
0.0061905
0.00622791
0.00623777
0.00623528
0.00622097
0.00623193
0.00624087
0.00622751
0.00621343
0.00623041
0.00617236
0.00618121
0.00617477
0.00615467
0.00609932
0.00614653
0.00619142
0.00618741
0.00617461
0.00615535
0.00616153
0.00618174
0.00617491
0.00617862
0.00616705
0.00616861
0.00620448
0.00619933
0.00617553
0.00618066
0.00615717
0.00619159
0.00619189
0.00616433
0.00618469
0.00618073
0.00617177
0.00617052
0.00616267
0.00614853
0.00616116
0.00618217
0.00618495
0.00617541
0.00616913
0.00616475
0.00618452
0.00618606
0.00617423
0.00617227
0.00616799
0.00619207
0.00619418
0.0061854
0.00618546
0.00618009
0.00619214
0.00619485
0.00618419
0.00618554
0.00617327
0.00617431
0.00617279
0.00617095
0.0061671
0.0061687
0.00618245
0.00618135
0.00617598
0.00617327
0.00617078
0.00617931
0.0061782
0.00617485
0.00617454
0.00617213
0.00618486
0.00618486
0.00617863
0.00618013
0.00617371
0.00618318
0.00618382
0.00617749
0.00618101
0.00617488
0.00617462
0.00617397
0.00617305
0.00617152
0.00617187
0.00617947
0.00617912
0.00617625
0.00617489
0.00617309
0.00617775
0.00617736
0.00617526
0.0061752
0.00617325
0.00618104
0.00618123
0.0061775
0.00617847
0.00617427
0.00618022
0.00618073
0.00617711
0.00617879
0.00617444
0.00617518
0.00617493
0.00617442
0.00617375
0.00617366
0.00617808
0.00617785
0.0061763
0.00617552
0.00617434
0.00617691
0.00617669
0.00617555
0.00617554
0.0061742
0.00617886
0.00617897
0.00617682
0.00617734
0.00617473
0.00617841
0.00617863
0.00617663
0.00617748
0.00617479
0.00617548
0.00617537
0.00617507
0.00617478
0.00617463
0.0061772
0.00617706
0.00617618
0.0061757
0.00617496
0.00617645
0.00617629
0.0061757
0.00617569
0.00617478
0.0061776
0.00617764
0.00617642
0.00617665
0.00617507
0.00617735
0.00617743
0.00617632
0.0061767
0.00617508
0.00617568
0.00617559
0.00617543
0.00617529
0.00617516
0.00617663
0.00617649
0.006176
0.00617573
0.00617528
0.00617618
0.00617613
0.00617579
0.00617575
0.00617516
0.00617689
0.00617686
0.0061762
0.00617624
0.00617531
0.00617673
0.00617672
0.00617612
0.00617625
0.00617529
0.00617576
0.00617572
0.00617563
0.00617555
0.00617544
0.00617624
0.00617617
0.00617592
0.00617573
0.00617546
0.00617609
0.00617601
0.00617581
0.00617576
0.00617541
0.00617643
0.00617639
0.00617603
0.00617598
0.00617545
0.00617635
0.0061763
0.006176
0.006176
0.00617545
0.00617582
0.00617579
0.00617573
0.00617567
0.00617559
0.00617604
0.00617599
0.00617583
0.00617574
0.00617557
0.00617597
0.00617593
0.00617582
0.00617576
0.00617554
0.00617615
0.0061761
0.00617592
0.00617585
0.00617555
0.00617613
0.00617608
0.00617591
0.00617587
0.00617555
0.00617583
0.00617581
0.00617577
0.00617572
0.00617566
0.00617592
0.00617588
0.0061758
0.00617574
0.00617564
0.0061759
0.00617587
0.00617581
0.00617575
0.00617562
0.00617598
0.00617594
0.00617585
0.00617578
0.00617562
0.00617598
0.00617594
0.00617585
0.00617579
0.00617562
0.00617582
0.0061758
0.00617577
0.00617574
0.0061757
0.00617585
0.00617582
0.00617578
0.00617574
0.00617568
0.00617585
0.00617583
0.00617579
0.00617574
0.00617567
0.00617588
0.00617585
0.0061758
0.00617575
0.00617566
0.00617589
0.00617586
0.00617581
0.00617576
0.00617566
0.0061758
0.00617579
0.00617577
0.00617574
0.00617572
0.00617581
0.00617579
0.00617577
0.00617574
0.0061757
0.00617581
0.0061758
0.00617577
0.00617574
0.00617569
0.00617583
0.00617581
0.00617578
0.00617574
0.00617569
0.00617583
0.00617581
0.00617578
0.00617574
0.00617568
0.00617578
0.00617578
0.00617576
0.00617575
0.00617573
0.00617579
0.00617578
0.00617576
0.00617574
0.00617572
0.00617579
0.00617578
0.00617576
0.00617574
0.00617571
0.00617579
0.00617578
0.00617576
0.00617574
0.0061757
0.00617579
0.00617578
0.00617576
0.00617574
0.0061757
0.00617577
0.00617577
0.00617576
0.00617574
0.00617573
0.00617577
0.00617576
0.00617575
0.00617574
0.00617572
0.00617577
0.00617576
0.00617575
0.00617574
0.00617572
0.00617577
0.00617577
0.00617575
0.00617573
0.00617571
0.00617577
0.00617577
0.00617575
0.00617573
0.00617571
0.00617576
0.00617576
0.00617575
0.00617574
0.00617574
0.00617576
0.00617576
0.00617575
0.00617574
0.00617573
0.00617576
0.00617576
0.00617575
0.00617574
0.00617572
0.00617576
0.00617575
0.00617575
0.00617573
0.00617572
0.00617576
0.00617575
0.00617575
0.00617573
0.00617572
0.00617575
0.00617575
0.00617575
0.00617574
0.00617574
0.00617575
0.00617575
0.00617575
0.00617574
0.00617573
0.00617575
0.00617575
0.00617574
0.00617574
0.00617573
0.00617575
0.00617575
0.00617574
0.00617573
0.00617573
0.00617575
0.00617575
0.00617574
0.00617573
0.00617572
0.00617575
0.00617575
0.00617575
0.00617574
0.00617574
0.00617575
0.00617575
0.00617574
0.00617574
0.00617573
0.00617575
0.00617575
0.00617574
0.00617574
0.00617573
0.00617575
0.00617575
0.00617574
0.00617574
0.00617573
0.00617575
0.00617574
0.00617574
0.00617573
0.00617573
0.00617575
0.00617575
0.00617574
0.00617574
0.00617574
0.00617575
0.00617575
0.00617574
0.00617574
0.00617574
0.00617575
0.00617574
0.00617574
0.00617574
0.00617573
0.00617574
0.00617574
0.00617574
0.00617574
0.00617573
0.00617574
0.00617574
0.00617574
0.00617574
0.00617573
0.00617575
0.00617574
0.00617574
0.00617574
0.00617574
0.00617574
0.00617574
0.00617574
0.00617574
0.00617574
0.00617574
0.00617574
0.00617574
0.00617574
0.00617574
0.00617574
0.00617574
0.00617574
0.00617574
0.00617573
0.00617574
0.00617574
0.00617574
0.00617574
0.00617573
0.00617574
0.00617574
0.00617574
0.00617574
0.00617574
0.00617574
0.00617574
0.00617574
0.00617574
0.00617574
0.00617574
0.00617574
0.00617574
0.00617574
0.00617574
0.00617574
0.00617574
0.00617574
0.00617574
0.00617574
0.00617574
0.00617574
0.00617574
0.00617574
0.00617573
0.00617574
0.00617574
0.00617574
0.00617574
0.00617574
0.00617574
0.00617574
0.00617574
0.00617574
0.00617574
0.00617574
0.00617574
0.00617574
0.00617574
0.00617574
0.00617574
0.00617574
0.00617574
0.00617574
0.00617574
0.00617574
0.00617574
0.00617574
0.00617574
0.00617574
0.00617574
0.00617574
0.00617574
0.00617574
0.00617574
0.00617574
0.00617574
0.00617574
0.00617574
0.00617574
0.00617574
0.00617574
0.00617574
0.00617574
0.00617574
0.00617574
0.00617574
0.00617574
0.00617574
0.00617574
0.00617574
0.00617574
0.00617574
0.00617574
0.00617574
0.00617574
0.00617574
0.00617574
0.00617574
0.00617574
0.00617574
0.00617574
0.00617574
0.00617574
0.00617574
0.00617574
0.00617574
0.00617574
0.00617574
0.00617574
0.00617574
0.00617574
0.00617574
0.00617574
0.00617574
0.00617574
0.00617574
0.00617574
0.00617574
0.00617574
0.00617574
0.00617574
0.00617574
0.00617574
0.00617574
0.00617574
0.00617574
0.00617574
0.00617574
0.00617574
0.00617574
0.00617574
0.00617574
0.00617574
0.00617574
0.00617574
0.00617574
0.00617574
0.00617574
0.00617574
0.00617574
0.00617574
0.00617574
0.00617574
0.00617574
0.00617574
0.00617574
0.00617574
0.00617574
0.00617574
0.00617574
0.00617574
0.00617574
0.00617574
0.00617574
0.00617574
0.00617574
0.00617574
0.00617574
0.00617574
0.00617574
0.00617574
0.00617574
0.00617574
0.00617574
0.00617574
0.00617574
0.00617574
0.00617574
0.00617574
0.00617574
0.00617574
0.00617574
0.00617574
0.00617574
0.00617574
0.00617574
0.00617574
0.00617574
0.00617574
0.00617574
0.00617574
0.00617574
0.00617574
0.00617574
0.00617574
0.00617574
0.00617574
0.00617574
0.00617574
0.00617574
0.00617574
0.00617574
0.00617574
0.00617574
0.00617574
0.00617574
0.00617574
0.00617574
0.00617574
0.00617574
0.00617574
0.00617574
0.00617574
0.00617574
0.00617574
0.00617574
0.00617574
0.00617574
0.00617574
0.00617574
0.00617574
0.00617574
0.00617574
0.00617574
0.00617574
0.00617574
0.00617574
0.00617574
0.00617574
0.00617574
0.00617574
0.00617574
0.00617574
0.00617574
0.00617574
0.00617574
0.00617574
0.00617574
0.00617574
0.00617574
0.00617574
0.00617574
0.00617574
0.00617574
0.00617574
0.00617574
0.00617574
0.00617574
0.00617574
0.00617574
0.00617574
0.00617574
0.00617574
0.00617574
0.00617574
0.00617574
0.00617574
0.00617574
0.00617574
0.00617574
0.00617574
0.00617574
0.00617574
0.00617574
0.00617574
0.00617574
0.00617574
0.00617574
0.00617574
0.00617574
0.00617574
0.00617574
0.00617574
0.00617574
0.00617574
0.00617574
0.00617574
0.00617574
0.00617574
0.00617574
0.00617574
0.00617574
0.00617574
0.00617574
0.00617574
0.00617574
0.00617574
0.00617574
0.00617574
0.00617574
0.00617574
0.00617574
0.00617574
0.00617574
0.00617574
0.00617574
0.00617574
0.00617574
0.00617574
0.00617574
0.00617574
0.00617574
0.00617574
0.00617574
0.00617574
0.00617574
0.00617574
0.00617574
0.00617574
0.00617574
0.00617574
0.00617574
0.00617574
0.00617574
0.00617574
0.00617574
0.00617574
0.00617574
0.00617574
0.00617574
0.00617574
0.00617574
0.00617574
0.00617574
0.00617574
0.00617574
0.00617574
0.00617574
0.00617574
0.00617574
0.00617574
0.00617574
0.00617574
0.00617574
0.00617574
0.00617574
0.00617574
0.00617574
0.00617574
0.00617574
0.00617574
0.00617574
0.00617574
0.00617574
0.00617574
0.00617574
0.00617574
0.00617574
0.00617574
0.00617574
0.00617574
0.00617574
0.00617574
0.00617574
0.00617574
0.00617574
0.00617574
0.00617574
0.00617574
0.00617574
0.00617574
0.00617574
0.00617574
0.00617574
0.00617574
0.00617574
0.00617574
0.00617574
0.00617574
0.00617574
0.00617574
0.00617574
0.00617574
0.00617574
0.00617574
0.00617574
0.00617574
0.00617574
0.00617574
0.00617574
0.00617574
0.00617574
0.00617574
0.00617574
0.00617574
0.00617574
0.00617574
0.00617574
0.00617574
0.00617574
0.00617574
0.00617574
0.00617574
0.00617574
0.00617574
0.00617574
0.00617574
0.00617574
0.00617574
0.00617574
0.00617574
0.00617574
0.00617574
0.00617574
0.00617574
0.00617574
0.00617574
0.00617574
0.00617574
0.00617574
0.00617574
0.00617574
0.00617574
0.00617574
0.00617574
0.00617574
0.00617574
0.00617574
0.00617574
0.00617574
0.00617574
0.00617574
0.00617574
0.00617574
0.00617574
0.00617574
0.00617574
0.00617574
0.00617574
0.00617574
0.00617574
0.00617574
0.00617574
0.00617574
0.00617574
0.00617574
0.00617574
0.00617574
0.00617574
0.00617574
0.00617574
0.00617574
0.00617574
0.00617574
0.00617574
0.00617574
0.00617574
0.00617574
0.00617574
0.00617574
0.00617574
0.00617574
0.00617574
0.00617574
0.00617574
0.00617574
0.00617574
0.00617574
0.00617574
0.00617574
0.00617574
0.00617574
0.00617574
0.00617574
0.00617574
0.00617574
0.00617574
0.00617574
0.00617574
0.00617574
0.00617574
0.00617574
0.00617574
0.00617574
0.00617574
0.00617574
0.00617574
0.00617574
0.00617574
0.00617574
0.00617574
0.00617574
0.00617574
0.00617574
0.00617574
0.00617574
0.00617574
0.00617574
0.00617574
0.00617574
0.00617574
0.00617574
0.00617574
0.00617574
0.00617574
0.00617574
0.00617574
0.00617574
0.00617574
0.00617574
0.00617574
0.00617574
0.00617574
0.00617574
)
;

boundaryField
{
    inlet
    {
        type            zeroGradient;
    }
    outlet
    {
        type            fixedValue;
        value           uniform 0;
    }
    repeat_boundary
    {
        type            zeroGradient;
    }
    procBoundary2to0
    {
        type            processor;
        value           nonuniform List<scalar> 
450
(
1.96166e-10
2.17159e-10
2.66385e-10
3.59001e-10
5.29432e-10
5.77826e-10
6.49316e-10
7.94454e-10
1.04646e-09
1.45845e-09
9.02668e-10
1.01513e-09
1.25521e-09
1.6306e-09
2.20039e-09
1.10502e-09
1.25969e-09
1.60917e-09
2.09592e-09
2.8072e-09
1.25157e-09
1.46813e-09
1.89141e-09
2.40545e-09
3.07171e-09
1.50932e-09
1.75887e-09
2.14566e-09
2.57199e-09
3.03e-09
1.82193e-09
2.02225e-09
2.30285e-09
2.6582e-09
3.0556e-09
1.91561e-09
2.03636e-09
2.25155e-09
2.60396e-09
3.06832e-09
1.70838e-09
1.80925e-09
2.02277e-09
2.32581e-09
2.6318e-09
1.41688e-09
1.54668e-09
1.76512e-09
1.9576e-09
1.90064e-09
1.19409e-09
1.32304e-09
1.52226e-09
1.66269e-09
1.41245e-09
9.45081e-10
1.03064e-09
1.20577e-09
1.37062e-09
1.13345e-09
5.6854e-10
6.35757e-10
8.23081e-10
1.03885e-09
8.59453e-10
1.72147e-10
2.786e-10
5.11637e-10
8.07603e-10
8.2468e-10
-4.16771e-11
9.42243e-11
3.29742e-10
6.80517e-10
9.81652e-10
-4.59836e-12
1.09801e-10
3.24026e-10
6.86943e-10
1.07719e-09
2.35601e-10
3.74344e-10
7.11004e-10
1.20089e-09
1.57425e-09
7.26195e-10
1.00611e-09
1.62234e-09
2.37913e-09
2.86468e-09
1.61849e-09
2.07105e-09
2.93956e-09
3.95967e-09
4.74288e-09
2.99476e-09
3.57089e-09
4.61613e-09
5.93604e-09
7.27694e-09
4.84396e-09
5.51532e-09
6.76384e-09
8.46957e-09
1.0355e-08
7.15894e-09
7.95057e-09
9.49918e-09
1.16244e-08
1.38146e-08
1.0014e-08
1.10236e-08
1.30478e-08
1.57803e-08
1.861e-08
1.36239e-08
1.50217e-08
1.77556e-08
2.1359e-08
2.52643e-08
1.8346e-08
2.03299e-08
2.40087e-08
2.86681e-08
3.36472e-08
2.46742e-08
2.74613e-08
3.24044e-08
3.85772e-08
4.51512e-08
3.32966e-08
3.71644e-08
4.38935e-08
5.24196e-08
6.14954e-08
4.50414e-08
5.04728e-08
6.00085e-08
7.20805e-08
8.43832e-08
6.09801e-08
6.9062e-08
8.33658e-08
1.00888e-07
1.17902e-07
8.31897e-08
9.5932e-08
1.18193e-07
1.44246e-07
1.68662e-07
1.15445e-07
1.3589e-07
1.71422e-07
2.11096e-07
2.46748e-07
1.64808e-07
1.97225e-07
2.55563e-07
3.17096e-07
3.70238e-07
2.52233e-07
2.99205e-07
3.95972e-07
4.90324e-07
5.71406e-07
4.35912e-07
4.92032e-07
6.52337e-07
7.85266e-07
9.07211e-07
8.00436e-07
8.70679e-07
1.15004e-06
1.31893e-06
1.47729e-06
1.42564e-06
1.56458e-06
2.08927e-06
2.3346e-06
2.45677e-06
2.41779e-06
2.8072e-06
4.30089e-06
4.45347e-06
4.30386e-06
1.29692e-06
4.00807e-07
1.23149e-06
2.44542e-06
2.65033e-06
1.09165e-05
1.41292e-05
2.00716e-05
2.05429e-05
1.4407e-05
4.82048e-06
1.0199e-05
7.22797e-06
8.99983e-06
2.39034e-05
-7.80423e-06
2.69488e-05
4.65809e-05
1.19082e-05
-9.70059e-06