/*--------------------------------*- C++ -*----------------------------------*\
| =========                 |                                                 |
| \\      /  F ield         | OpenFOAM: The Open Source CFD Toolbox           |
|  \\    /   O peration     | Version:  5.x                                   |
|   \\  /    A nd           | Web:      www.OpenFOAM.org                      |
|    \\/     M anipulation  |                                                 |
\*---------------------------------------------------------------------------*/
FoamFile
{
    version     2.0;
    format      ascii;
    class       volVectorField;
    location    "0.05";
    object      stored_U;
}
// * * * * * * * * * * * * * * * * * * * * * * * * * * * * * * * * * * * * * //

dimensions      [0 1 -1 0 0 0 0];

internalField   nonuniform List<vector> 
2250
(
(-2.8183e-11 -1.51305e-10 -0.000999999)
(-7.43239e-11 -1.53727e-10 -0.000999999)
(-1.16195e-10 -1.5821e-10 -0.000999999)
(-1.72047e-10 -1.66923e-10 -0.001)
(-7.68095e-11 -2.03154e-10 -0.001)
(-2.60411e-11 -1.32745e-10 -0.000999999)
(-6.8353e-11 -1.29902e-10 -0.000999999)
(-1.00988e-10 -1.26757e-10 -0.001)
(-1.38282e-10 -1.14718e-10 -0.001)
(-1.4585e-10 -8.45155e-11 -0.001)
(-2.50254e-11 -1.07194e-10 -0.001)
(-6.80154e-11 -1.05609e-10 -0.001)
(-1.00996e-10 -1.06328e-10 -0.001)
(-1.29779e-10 -1.05676e-10 -0.001)
(-1.49553e-10 -9.53861e-11 -0.001)
(-2.41861e-11 -6.84431e-11 -0.001)
(-6.72158e-11 -6.7308e-11 -0.001)
(-1.01034e-10 -6.742e-11 -0.001)
(-1.2732e-10 -6.75711e-11 -0.001)
(-1.49057e-10 -6.48915e-11 -0.001)
(-2.36821e-11 -2.35392e-11 -0.001)
(-6.66913e-11 -2.31329e-11 -0.001)
(-1.01036e-10 -2.32013e-11 -0.001)
(-1.26981e-10 -2.33448e-11 -0.001)
(-1.48675e-10 -2.31168e-11 -0.001)
(-7.42414e-11 -4.35311e-10 -0.000999999)
(-2.04352e-10 -4.42034e-10 -0.000999999)
(-3.26814e-10 -4.51771e-10 -0.000999999)
(-5.06795e-10 -4.68754e-10 -0.000999999)
(-2.37424e-10 -5.83816e-10 -0.001)
(-7.17042e-11 -3.83312e-10 -0.000999999)
(-1.95047e-10 -3.79637e-10 -0.000999999)
(-2.94865e-10 -3.73743e-10 -0.000999999)
(-4.11133e-10 -3.45565e-10 -0.001)
(-4.04594e-10 -2.49688e-10 -0.001)
(-6.97052e-11 -3.12491e-10 -0.000999999)
(-1.93934e-10 -3.09818e-10 -0.001)
(-2.92699e-10 -3.10783e-10 -0.001)
(-3.82753e-10 -3.07591e-10 -0.001)
(-4.22051e-10 -2.71799e-10 -0.001)
(-6.83367e-11 -2.01228e-10 -0.001)
(-1.92638e-10 -1.99531e-10 -0.001)
(-2.92582e-10 -2.00058e-10 -0.001)
(-3.72111e-10 -2.0106e-10 -0.001)
(-4.25719e-10 -1.8962e-10 -0.001)
(-6.74724e-11 -6.93879e-11 -0.001)
(-1.9196e-10 -6.87604e-11 -0.001)
(-2.93614e-10 -6.92048e-11 -0.001)
(-3.71581e-10 -7.03713e-11 -0.001)
(-4.26358e-10 -6.93762e-11 -0.001)
(-1.2422e-10 -7.91178e-10 -0.000999999)
(-3.54426e-10 -8.00038e-10 -0.000999999)
(-5.59383e-10 -8.05853e-10 -0.000999999)
(-8.45525e-10 -8.05445e-10 -0.000999999)
(-5.73582e-10 -9.32161e-10 -0.001)
(-1.25142e-10 -7.07217e-10 -0.000999999)
(-3.5212e-10 -7.08356e-10 -0.000999999)
(-5.3624e-10 -7.05746e-10 -0.000999999)
(-7.23168e-10 -6.85379e-10 -0.001)
(-7.45942e-10 -5.54255e-10 -0.001)
(-1.23839e-10 -5.77145e-10 -0.000999999)
(-3.51474e-10 -5.76154e-10 -0.000999999)
(-5.36351e-10 -5.76237e-10 -0.001)
(-6.94036e-10 -5.75976e-10 -0.001)
(-7.54411e-10 -5.34392e-10 -0.001)
(-1.22966e-10 -3.74677e-10 -0.001)
(-3.49999e-10 -3.74205e-10 -0.001)
(-5.35967e-10 -3.74083e-10 -0.001)
(-6.8127e-10 -3.76387e-10 -0.001)
(-7.59171e-10 -3.62172e-10 -0.001)
(-1.22426e-10 -1.29593e-10 -0.001)
(-3.49437e-10 -1.29499e-10 -0.001)
(-5.374e-10 -1.29956e-10 -0.001)
(-6.80716e-10 -1.32007e-10 -0.001)
(-7.59446e-10 -1.30755e-10 -0.001)
(-1.90857e-10 -1.24975e-09 -0.000999998)
(-5.53238e-10 -1.26104e-09 -0.000999998)
(-8.62731e-10 -1.26625e-09 -0.000999999)
(-1.207e-09 -1.25423e-09 -0.000999999)
(-1.05167e-09 -1.3437e-09 -0.001)
(-1.93125e-10 -1.13358e-09 -0.000999999)
(-5.53789e-10 -1.13871e-09 -0.000999999)
(-8.48977e-10 -1.13682e-09 -0.000999999)
(-1.10062e-09 -1.12616e-09 -0.001)
(-1.18422e-09 -1.01005e-09 -0.001)
(-1.93737e-10 -9.24899e-10 -0.000999999)
(-5.54235e-10 -9.27382e-10 -0.000999999)
(-8.50087e-10 -9.25469e-10 -0.001)
(-1.08023e-09 -9.26573e-10 -0.001)
(-1.17906e-09 -8.96321e-10 -0.001)
(-1.93811e-10 -6.02647e-10 -0.001)
(-5.52502e-10 -6.03412e-10 -0.001)
(-8.48024e-10 -6.01152e-10 -0.001)
(-1.07138e-09 -6.02241e-10 -0.001)
(-1.17845e-09 -5.92695e-10 -0.001)
(-1.92988e-10 -2.0874e-10 -0.001)
(-5.50476e-10 -2.08718e-10 -0.001)
(-8.47137e-10 -2.08223e-10 -0.001)
(-1.06954e-09 -2.09519e-10 -0.001)
(-1.17474e-09 -2.08531e-10 -0.001)
(-2.78772e-10 -1.84714e-09 -0.000999998)
(-8.15852e-10 -1.86024e-09 -0.000999998)
(-1.27353e-09 -1.86887e-09 -0.000999998)
(-1.67819e-09 -1.869e-09 -0.000999999)
(-1.61602e-09 -1.9456e-09 -0.000999999)
(-2.81337e-10 -1.69368e-09 -0.000999998)
(-8.1439e-10 -1.70297e-09 -0.000999999)
(-1.2569e-09 -1.69835e-09 -0.000999999)
(-1.59861e-09 -1.68532e-09 -0.001)
(-1.73713e-09 -1.59998e-09 -0.001)
(-2.84864e-10 -1.37722e-09 -0.000999999)
(-8.17269e-10 -1.38442e-09 -0.000999999)
(-1.25575e-09 -1.38078e-09 -0.001)
(-1.57979e-09 -1.37846e-09 -0.001)
(-1.73137e-09 -1.35402e-09 -0.001)
(-2.85943e-10 -8.9706e-10 -0.000999999)
(-8.15242e-10 -8.98462e-10 -0.001)
(-1.25075e-09 -8.93482e-10 -0.001)
(-1.57172e-09 -8.91307e-10 -0.001)
(-1.72607e-09 -8.84654e-10 -0.001)
(-2.84092e-10 -3.10311e-10 -0.001)
(-8.10382e-10 -3.09549e-10 -0.001)
(-1.24602e-09 -3.07599e-10 -0.001)
(-1.56776e-09 -3.07255e-10 -0.001)
(-1.71932e-09 -3.06704e-10 -0.001)
(-3.94462e-10 -2.62988e-09 -0.000999997)
(-1.15911e-09 -2.64307e-09 -0.000999997)
(-1.81368e-09 -2.65197e-09 -0.000999998)
(-2.35144e-09 -2.66167e-09 -0.000999999)
(-2.35699e-09 -2.76186e-09 -0.001)
(-3.9959e-10 -2.42472e-09 -0.000999998)
(-1.16101e-09 -2.44042e-09 -0.000999998)
(-1.79756e-09 -2.43606e-09 -0.000999999)
(-2.28042e-09 -2.41979e-09 -0.001)
(-2.46708e-09 -2.33901e-09 -0.001)
(-4.0569e-10 -1.96019e-09 -0.000999999)
(-1.16582e-09 -1.97163e-09 -0.000999999)
(-1.79284e-09 -1.96627e-09 -0.001)
(-2.25431e-09 -1.95917e-09 -0.001)
(-2.47134e-09 -1.9274e-09 -0.001)
(-4.07355e-10 -1.27345e-09 -0.000999999)
(-1.16325e-09 -1.27501e-09 -0.001)
(-1.78483e-09 -1.26789e-09 -0.001)
(-2.24138e-09 -1.26315e-09 -0.001)
(-2.46694e-09 -1.25387e-09 -0.001)
(-4.04142e-10 -4.39315e-10 -0.001)
(-1.15558e-09 -4.37648e-10 -0.001)
(-1.77737e-09 -4.34656e-10 -0.001)
(-2.23584e-09 -4.33607e-10 -0.001)
(-2.46168e-09 -4.33363e-10 -0.001)
(-5.53166e-10 -3.66532e-09 -0.000999996)
(-1.62433e-09 -3.67812e-09 -0.000999997)
(-2.54139e-09 -3.68083e-09 -0.000999997)
(-3.25107e-09 -3.68075e-09 -0.000999998)
(-3.44898e-09 -3.75543e-09 -0.001)
(-5.62389e-10 -3.37937e-09 -0.000999998)
(-1.63495e-09 -3.40151e-09 -0.000999998)
(-2.53449e-09 -3.39967e-09 -0.000999999)
(-3.21377e-09 -3.38401e-09 -0.001)
(-3.48094e-09 -3.32767e-09 -0.001)
(-5.69045e-10 -2.71486e-09 -0.000999999)
(-1.63813e-09 -2.72784e-09 -0.000999999)
(-2.52366e-09 -2.71954e-09 -0.001)
(-3.17913e-09 -2.70752e-09 -0.001)
(-3.48898e-09 -2.66893e-09 -0.001)
(-5.70259e-10 -1.75708e-09 -0.000999999)
(-1.63425e-09 -1.75786e-09 -0.001)
(-2.51378e-09 -1.74988e-09 -0.001)
(-3.16293e-09 -1.74503e-09 -0.001)
(-3.48801e-09 -1.73427e-09 -0.001)
(-5.65452e-10 -6.045e-10 -0.001)
(-1.62434e-09 -6.01868e-10 -0.001)
(-2.50574e-09 -5.98832e-10 -0.001)
(-3.15731e-09 -5.98652e-10 -0.001)
(-3.48672e-09 -5.99151e-10 -0.001)
(-7.75902e-10 -5.04742e-09 -0.000999995)
(-2.26894e-09 -5.06001e-09 -0.000999996)
(-3.53558e-09 -5.05235e-09 -0.000999997)
(-4.4684e-09 -5.03202e-09 -0.000999998)
(-4.97162e-09 -5.02889e-09 -0.001)
(-7.86982e-10 -4.63578e-09 -0.000999997)
(-2.2856e-09 -4.65921e-09 -0.000999997)
(-3.54495e-09 -4.65733e-09 -0.000999998)
(-4.47067e-09 -4.64987e-09 -0.001)
(-4.88678e-09 -4.63129e-09 -0.001)
(-7.90643e-10 -3.70384e-09 -0.000999998)
(-2.2815e-09 -3.71382e-09 -0.000999999)
(-3.52591e-09 -3.70105e-09 -0.001)
(-4.44233e-09 -3.68544e-09 -0.001)
(-4.88607e-09 -3.66082e-09 -0.001)
(-7.89969e-10 -2.38714e-09 -0.000999999)
(-2.27546e-09 -2.38626e-09 -0.001)
(-3.51605e-09 -2.37941e-09 -0.001)
(-4.4301e-09 -2.37664e-09 -0.001)
(-4.88931e-09 -2.3711e-09 -0.001)
(-7.83816e-10 -8.19434e-10 -0.001)
(-2.26472e-09 -8.16244e-10 -0.001)
(-3.50921e-09 -8.14557e-10 -0.001)
(-4.42534e-09 -8.16113e-10 -0.001)
(-4.8903e-09 -8.18117e-10 -0.001)
(-1.08419e-09 -6.90622e-09 -0.000999994)
(-3.15209e-09 -6.9171e-09 -0.000999994)
(-4.87839e-09 -6.8997e-09 -0.000999996)
(-6.08685e-09 -6.85648e-09 -0.000999998)
(-7.01098e-09 -6.74227e-09 -0.001)
(-1.09202e-09 -6.30566e-09 -0.000999996)
(-3.16722e-09 -6.32266e-09 -0.000999997)
(-4.91239e-09 -6.31842e-09 -0.000999998)
(-6.15681e-09 -6.33461e-09 -0.001)
(-6.79491e-09 -6.38527e-09 -0.001)
(-1.08938e-09 -5.01694e-09 -0.000999998)
(-3.15262e-09 -5.02054e-09 -0.000999998)
(-4.88989e-09 -5.00472e-09 -0.001)
(-6.1537e-09 -4.99123e-09 -0.001)
(-6.78185e-09 -4.99992e-09 -0.001)
(-1.08622e-09 -3.22284e-09 -0.000999999)
(-3.1451e-09 -3.22167e-09 -0.001)
(-4.88237e-09 -3.21821e-09 -0.001)
(-6.15155e-09 -3.21764e-09 -0.001)
(-6.78986e-09 -3.22143e-09 -0.00100001)
(-1.08022e-09 -1.10525e-09 -0.001)
(-3.1357e-09 -1.10327e-09 -0.001)
(-4.87607e-09 -1.10386e-09 -0.001)
(-6.14485e-09 -1.10623e-09 -0.001)
(-6.78832e-09 -1.10877e-09 -0.00100001)
(-1.50157e-09 -9.42255e-09 -0.000999992)
(-4.34278e-09 -9.42972e-09 -0.000999993)
(-6.6857e-09 -9.40703e-09 -0.000999994)
(-8.26964e-09 -9.34899e-09 -0.000999997)
(-9.68638e-09 -9.12606e-09 -0.001)
(-1.50161e-09 -8.54849e-09 -0.000999995)
(-4.3521e-09 -8.55489e-09 -0.000999995)
(-6.75132e-09 -8.55115e-09 -0.000999997)
(-8.42657e-09 -8.60258e-09 -0.001)
(-9.37411e-09 -8.74362e-09 -0.001)
(-1.49209e-09 -6.7862e-09 -0.000999997)
(-4.32894e-09 -6.78485e-09 -0.000999998)
(-6.73277e-09 -6.76921e-09 -0.001)
(-8.46208e-09 -6.76157e-09 -0.001)
(-9.34514e-09 -6.81226e-09 -0.00100001)
(-1.48764e-09 -4.3538e-09 -0.000999999)
(-4.32175e-09 -4.35577e-09 -0.001)
(-6.72707e-09 -4.35525e-09 -0.001)
(-8.46899e-09 -4.35298e-09 -0.001)
(-9.35385e-09 -4.364e-09 -0.00100001)
(-1.48324e-09 -1.49421e-09 -0.001)
(-4.31368e-09 -1.49527e-09 -0.001)
(-6.71651e-09 -1.49703e-09 -0.001)
(-8.45418e-09 -1.49747e-09 -0.001)
(-9.34355e-09 -1.49827e-09 -0.00100001)
(-2.06082e-09 -1.28523e-08 -0.000999989)
(-5.94673e-09 -1.28573e-08 -0.00099999)
(-9.14296e-09 -1.28336e-08 -0.000999992)
(-1.12963e-08 -1.27661e-08 -0.000999996)
(-1.32316e-08 -1.24609e-08 -0.001)
(-2.05259e-09 -1.16005e-08 -0.000999993)
(-5.95029e-09 -1.15998e-08 -0.000999994)
(-9.23665e-09 -1.15987e-08 -0.000999996)
(-1.15188e-08 -1.16798e-08 -0.001)
(-1.28761e-08 -1.18862e-08 -0.001)
(-2.03871e-09 -9.20525e-09 -0.000999996)
(-5.92259e-09 -9.20394e-09 -0.000999997)
(-9.22207e-09 -9.18764e-09 -0.001)
(-1.15838e-08 -9.1796e-09 -0.001)
(-1.2822e-08 -9.25916e-09 -0.00100001)
(-2.03416e-09 -5.9079e-09 -0.000999998)
(-5.91456e-09 -5.91418e-09 -0.001)
(-9.21097e-09 -5.9112e-09 -0.001)
(-1.15894e-08 -5.89959e-09 -0.00100001)
(-1.28214e-08 -5.91096e-09 -0.00100001)
(-2.03022e-09 -2.03056e-09 -0.001)
(-5.90308e-09 -2.03408e-09 -0.001)
(-9.18898e-09 -2.034e-09 -0.001)
(-1.15608e-08 -2.02966e-09 -0.00100001)
(-1.27966e-08 -2.02733e-09 -0.00100001)
(-2.81424e-09 -1.75552e-08 -0.000999985)
(-8.12691e-09 -1.75622e-08 -0.000999986)
(-1.25289e-08 -1.75343e-08 -0.00099999)
(-1.55215e-08 -1.74615e-08 -0.000999994)
(-1.80311e-08 -1.70709e-08 -0.001)
(-2.8001e-09 -1.5801e-08 -0.00099999)
(-8.12236e-09 -1.58003e-08 -0.000999992)
(-1.26212e-08 -1.5794e-08 -0.000999995)
(-1.57677e-08 -1.58692e-08 -0.001)
(-1.76437e-08 -1.60993e-08 -0.00100001)
(-2.78439e-09 -1.25424e-08 -0.000999995)
(-8.08961e-09 -1.2544e-08 -0.000999996)
(-1.25967e-08 -1.25189e-08 -0.001)
(-1.58268e-08 -1.24938e-08 -0.001)
(-1.75567e-08 -1.25698e-08 -0.00100001)
(-2.77833e-09 -8.05448e-09 -0.000999998)
(-8.07421e-09 -8.06167e-09 -0.001)
(-1.25692e-08 -8.04869e-09 -0.001)
(-1.58174e-08 -8.02094e-09 -0.00100001)
(-1.75332e-08 -8.0246e-09 -0.00100001)
(-2.77139e-09 -2.77078e-09 -0.001)
(-8.05261e-09 -2.77405e-09 -0.001)
(-1.25306e-08 -2.76966e-09 -0.001)
(-1.57716e-08 -2.75957e-09 -0.00100001)
(-1.74886e-08 -2.75386e-09 -0.00100001)
(-3.83906e-09 -2.4019e-08 -0.000999979)
(-1.11094e-08 -2.40308e-08 -0.000999981)
(-1.71946e-08 -2.39867e-08 -0.000999986)
(-2.14213e-08 -2.38993e-08 -0.000999992)
(-2.45087e-08 -2.34596e-08 -0.001)
(-3.81987e-09 -2.16032e-08 -0.000999986)
(-1.10855e-08 -2.16054e-08 -0.000999989)
(-1.72395e-08 -2.15756e-08 -0.000999993)
(-2.15983e-08 -2.15991e-08 -0.001)
(-2.4135e-08 -2.17658e-08 -0.00100001)
(-3.80143e-09 -1.71492e-08 -0.000999993)
(-1.10403e-08 -1.71515e-08 -0.000999995)
(-1.71867e-08 -1.7107e-08 -0.001)
(-2.16114e-08 -1.70497e-08 -0.00100001)
(-2.40078e-08 -1.70852e-08 -0.00100001)
(-3.79031e-09 -1.10128e-08 -0.000999997)
(-1.10096e-08 -1.10166e-08 -0.001)
(-1.71352e-08 -1.0989e-08 -0.001)
(-2.15749e-08 -1.09421e-08 -0.00100001)
(-2.39501e-08 -1.09285e-08 -0.00100002)
(-3.77769e-09 -3.78836e-09 -0.001)
(-1.0974e-08 -3.78968e-09 -0.001)
(-1.70776e-08 -3.78076e-09 -0.00100001)
(-2.15083e-08 -3.76505e-09 -0.00100001)
(-2.38792e-08 -3.75522e-09 -0.00100002)
(-5.23931e-09 -3.28899e-08 -0.000999971)
(-1.51865e-08 -3.2904e-08 -0.000999974)
(-2.35761e-08 -3.28249e-08 -0.000999981)
(-2.95344e-08 -3.27045e-08 -0.000999989)
(-3.32694e-08 -3.22833e-08 -0.001)
(-5.21188e-09 -2.95922e-08 -0.000999981)
(-1.51267e-08 -2.95935e-08 -0.000999985)
(-2.35325e-08 -2.95212e-08 -0.000999991)
(-2.95653e-08 -2.94587e-08 -0.001)
(-3.295e-08 -2.94881e-08 -0.00100001)
(-5.18627e-09 -2.34823e-08 -0.00099999)
(-1.50589e-08 -2.34814e-08 -0.000999993)
(-2.34391e-08 -2.34097e-08 -0.001)
(-2.95012e-08 -2.33126e-08 -0.00100001)
(-3.27832e-08 -2.32726e-08 -0.00100002)
(-5.16734e-09 -1.50741e-08 -0.000999996)
(-1.5008e-08 -1.50739e-08 -0.001)
(-2.33603e-08 -1.50296e-08 -0.00100001)
(-2.9426e-08 -1.49616e-08 -0.00100001)
(-3.26852e-08 -1.4918e-08 -0.00100002)
(-5.1485e-09 -5.18373e-09 -0.001)
(-1.49561e-08 -5.18392e-09 -0.001)
(-2.32795e-08 -5.17008e-09 -0.00100001)
(-2.93315e-08 -5.14805e-09 -0.00100002)
(-3.25801e-08 -5.1317e-09 -0.00100003)
(-7.14996e-09 -4.50279e-08 -0.000999961)
(-2.07387e-08 -4.50364e-08 -0.000999965)
(-3.22406e-08 -4.48992e-08 -0.000999974)
(-4.05526e-08 -4.47133e-08 -0.000999986)
(-4.52127e-08 -4.43516e-08 -0.001)
(-7.10904e-09 -4.05361e-08 -0.000999975)
(-2.06326e-08 -4.05312e-08 -0.000999979)
(-3.2101e-08 -4.04057e-08 -0.000999988)
(-4.04126e-08 -4.02498e-08 -0.000999999)
(-4.49191e-08 -4.01081e-08 -0.00100001)
(-7.0708e-09 -3.21531e-08 -0.000999987)
(-2.0531e-08 -3.21461e-08 -0.000999991)
(-3.19562e-08 -3.20388e-08 -0.001)
(-4.02549e-08 -3.18932e-08 -0.00100001)
(-4.47068e-08 -3.17563e-08 -0.00100002)
(-7.04264e-09 -2.06351e-08 -0.000999995)
(-2.04555e-08 -2.06314e-08 -0.001)
(-3.18435e-08 -2.05645e-08 -0.00100001)
(-4.01271e-08 -2.04701e-08 -0.00100002)
(-4.4563e-08 -2.03819e-08 -0.00100003)
(-7.01582e-09 -7.09486e-09 -0.001)
(-2.03809e-08 -7.09402e-09 -0.001)
(-3.17303e-08 -7.07243e-09 -0.00100001)
(-3.99928e-08 -7.04225e-09 -0.00100002)
(-4.44146e-08 -7.01489e-09 -0.00100004)
(-9.75026e-09 -6.16064e-08 -0.000999946)
(-2.82853e-08 -6.15986e-08 -0.000999953)
(-4.39888e-08 -6.13733e-08 -0.000999964)
(-5.54137e-08 -6.10701e-08 -0.00099998)
(-6.16358e-08 -6.06608e-08 -0.000999999)
(-9.68999e-09 -5.54828e-08 -0.000999966)
(-2.81265e-08 -5.54673e-08 -0.000999972)
(-4.37642e-08 -5.52789e-08 -0.000999983)
(-5.51471e-08 -5.50304e-08 -0.000999999)
(-6.12203e-08 -5.47517e-08 -0.00100002)
(-9.63343e-09 -4.40012e-08 -0.000999982)
(-2.79758e-08 -4.39847e-08 -0.000999988)
(-4.35478e-08 -4.3825e-08 -0.000999999)
(-5.48863e-08 -4.36114e-08 -0.00100002)
(-6.09175e-08 -4.33726e-08 -0.00100003)
(-9.59243e-09 -2.82378e-08 -0.000999994)
(-2.78645e-08 -2.82268e-08 -0.001)
(-4.33845e-08 -2.81261e-08 -0.00100001)
(-5.46907e-08 -2.79926e-08 -0.00100003)
(-6.07048e-08 -2.78467e-08 -0.00100005)
(-9.55247e-09 -9.70851e-09 -0.001)
(-2.77557e-08 -9.70401e-09 -0.00100001)
(-4.32254e-08 -9.67095e-09 -0.00100002)
(-5.44982e-08 -9.62885e-09 -0.00100003)
(-6.04933e-08 -9.58355e-09 -0.00100005)
(-1.3287e-08 -8.42474e-08 -0.000999927)
(-3.85563e-08 -8.42118e-08 -0.000999936)
(-5.99725e-08 -8.38596e-08 -0.000999951)
(-7.55496e-08 -8.33688e-08 -0.000999973)
(-8.41065e-08 -8.27252e-08 -0.000999999)
(-1.31965e-08 -7.58888e-08 -0.000999953)
(-3.8317e-08 -7.5853e-08 -0.000999962)
(-5.96327e-08 -7.55674e-08 -0.000999977)
(-7.51504e-08 -7.51911e-08 -0.000999999)
(-8.34345e-08 -7.47789e-08 -0.00100002)
(-1.31128e-08 -6.01856e-08 -0.000999975)
(-3.80908e-08 -6.01509e-08 -0.000999984)
(-5.93052e-08 -5.99093e-08 -0.000999999)
(-7.47609e-08 -5.95893e-08 -0.00100002)
(-8.29605e-08 -5.92347e-08 -0.00100005)
(-1.30513e-08 -3.86246e-08 -0.000999992)
(-3.79237e-08 -3.86002e-08 -0.001)
(-5.90625e-08 -3.84497e-08 -0.00100002)
(-7.44704e-08 -3.82513e-08 -0.00100004)
(-8.26275e-08 -3.80274e-08 -0.00100006)
(-1.2993e-08 -1.32795e-08 -0.001)
(-3.77679e-08 -1.32697e-08 -0.00100001)
(-5.88358e-08 -1.3221e-08 -0.00100002)
(-7.419e-08 -1.31577e-08 -0.00100005)
(-8.23153e-08 -1.30843e-08 -0.00100007)
(-1.80981e-08 -1.15187e-07 -0.000999901)
(-5.25474e-08 -1.15104e-07 -0.000999912)
(-8.1769e-08 -1.14568e-07 -0.000999934)
(-1.02994e-07 -1.13814e-07 -0.000999964)
(-1.14618e-07 -1.12808e-07 -0.000999999)
(-1.79574e-08 -1.03771e-07 -0.000999937)
(-5.21649e-08 -1.03694e-07 -0.000999948)
(-8.12124e-08 -1.03241e-07 -0.000999969)
(-1.02344e-07 -1.02637e-07 -0.000999999)
(-1.13637e-07 -1.01988e-07 -0.00100003)
(-1.78323e-08 -8.22982e-08 -0.000999967)
(-5.1821e-08 -8.22317e-08 -0.000999978)
(-8.07053e-08 -8.18628e-08 -0.001)
(-1.01741e-07 -8.13664e-08 -0.00100003)
(-1.12901e-07 -8.0822e-08 -0.00100006)
(-1.77404e-08 -5.28177e-08 -0.000999989)
(-5.15704e-08 -5.27754e-08 -0.001)
(-8.03354e-08 -5.25479e-08 -0.00100002)
(-1.01295e-07 -5.22378e-08 -0.00100005)
(-1.12376e-07 -5.18889e-08 -0.00100008)
(-1.76601e-08 -1.81607e-08 -0.001)
(-5.13495e-08 -1.81463e-08 -0.00100001)
(-8.00032e-08 -1.80727e-08 -0.00100003)
(-1.0088e-07 -1.79709e-08 -0.00100006)
(-1.11908e-07 -1.78529e-08 -0.0010001)
(-2.46416e-08 -1.57489e-07 -0.000999866)
(-7.15886e-08 -1.57325e-07 -0.000999881)
(-1.11453e-07 -1.56507e-07 -0.000999911)
(-1.4042e-07 -1.55375e-07 -0.000999951)
(-1.56032e-07 -1.53917e-07 -0.000999999)
(-2.44228e-08 -1.41893e-07 -0.000999914)
(-7.09772e-08 -1.41743e-07 -0.00099993)
(-1.10539e-07 -1.41024e-07 -0.000999959)
(-1.39325e-07 -1.40047e-07 -0.000999999)
(-1.54641e-07 -1.38964e-07 -0.00100005)
(-2.4235e-08 -1.12521e-07 -0.000999956)
(-7.04518e-08 -1.12403e-07 -0.000999971)
(-1.09746e-07 -1.11834e-07 -0.001)
(-1.3836e-07 -1.1105e-07 -0.00100004)
(-1.53522e-07 -1.10171e-07 -0.00100009)
(-2.40994e-08 -7.22199e-08 -0.000999986)
(-7.00727e-08 -7.21491e-08 -0.001)
(-1.0917e-07 -7.17942e-08 -0.00100003)
(-1.37652e-07 -7.13007e-08 -0.00100007)
(-1.52709e-07 -7.07407e-08 -0.00100012)
(-2.39872e-08 -2.48362e-08 -0.001)
(-6.97513e-08 -2.48139e-08 -0.00100002)
(-1.08674e-07 -2.4696e-08 -0.00100005)
(-1.3703e-07 -2.45314e-08 -0.00100008)
(-1.52011e-07 -2.43416e-08 -0.00100013)
(-3.35414e-08 -2.15355e-07 -0.000999818)
(-9.74781e-08 -2.15047e-07 -0.000999839)
(-1.51801e-07 -2.13789e-07 -0.000999879)
(-1.9132e-07 -2.1206e-07 -0.000999934)
(-2.12411e-07 -2.0993e-07 -0.000999999)
(-3.32055e-08 -1.94028e-07 -0.000999884)
(-9.65268e-08 -1.93756e-07 -0.000999905)
(-1.50362e-07 -1.92632e-07 -0.000999945)
(-1.89554e-07 -1.91093e-07 -0.000999999)
(-2.10326e-07 -1.89338e-07 -0.00100006)
(-3.29211e-08 -1.53839e-07 -0.000999941)
(-9.5719e-08 -1.53628e-07 -0.000999962)
(-1.49124e-07 -1.52739e-07 -0.001)
(-1.88025e-07 -1.51507e-07 -0.00100005)
(-2.08607e-07 -1.50099e-07 -0.00100012)
(-3.2716e-08 -9.87398e-08 -0.000999982)
(-9.51323e-08 -9.86098e-08 -0.001)
(-1.48219e-07 -9.8048e-08 -0.00100004)
(-1.869e-07 -9.72674e-08 -0.00100009)
(-2.07357e-07 -9.63698e-08 -0.00100016)
(-3.25502e-08 -3.396e-08 -0.001)
(-9.46527e-08 -3.39167e-08 -0.00100002)
(-1.47476e-07 -3.37274e-08 -0.00100006)
(-1.8597e-07 -3.34654e-08 -0.00100012)
(-2.0632e-07 -3.31615e-08 -0.00100018)
(-4.56463e-08 -2.94539e-07 -0.000999753)
(-1.32671e-07 -2.93996e-07 -0.000999781)
(-2.06624e-07 -2.92053e-07 -0.000999836)
(-2.60472e-07 -2.89373e-07 -0.000999911)
(-2.89187e-07 -2.86148e-07 -0.000999999)
(-4.51311e-08 -2.6533e-07 -0.000999844)
(-1.31205e-07 -2.6485e-07 -0.000999872)
(-2.04396e-07 -2.63105e-07 -0.000999926)
(-2.57707e-07 -2.60717e-07 -0.001)
(-2.85968e-07 -2.57957e-07 -0.00100009)
(-4.46931e-08 -2.10323e-07 -0.000999922)
(-1.29952e-07 -2.09943e-07 -0.00099995)
(-2.02472e-07 -2.08552e-07 -0.001)
(-2.55323e-07 -2.06633e-07 -0.00100008)
(-2.83292e-07 -2.04426e-07 -0.00100016)
(-4.43727e-08 -1.34976e-07 -0.000999978)
(-1.29033e-07 -1.34733e-07 -0.00100001)
(-2.01057e-07 -1.33847e-07 -0.00100006)
(-2.53562e-07 -1.32624e-07 -0.00100013)
(-2.81352e-07 -1.3121e-07 -0.00100021)
(-4.41231e-08 -4.64205e-08 -0.00100001)
(-1.28314e-07 -4.63376e-08 -0.00100004)
(-1.99946e-07 -4.60383e-08 -0.00100009)
(-2.52171e-07 -4.56248e-08 -0.00100016)
(-2.79808e-07 -4.5145e-08 -0.00100024)
(-6.21023e-08 -4.02949e-07 -0.000999665)
(-1.80502e-07 -4.02019e-07 -0.000999704)
(-2.81133e-07 -3.99019e-07 -0.000999777)
(-3.54481e-07 -3.94869e-07 -0.000999879)
(-3.93581e-07 -3.89951e-07 -0.000999999)
(-6.13062e-08 -3.6287e-07 -0.00099979)
(-1.78233e-07 -3.62035e-07 -0.000999828)
(-2.77672e-07 -3.59322e-07 -0.000999901)
(-3.50159e-07 -3.55612e-07 -0.001)
(-3.88665e-07 -3.51293e-07 -0.00100012)
(-6.06237e-08 -2.87551e-07 -0.000999896)
(-1.76281e-07 -2.86878e-07 -0.000999934)
(-2.74685e-07 -2.84706e-07 -0.00100001)
(-3.46451e-07 -2.81727e-07 -0.0010001)
(-3.84502e-07 -2.78285e-07 -0.00100022)
(-6.01202e-08 -1.84492e-07 -0.000999973)
(-1.74843e-07 -1.84059e-07 -0.00100001)
(-2.72481e-07 -1.8267e-07 -0.00100008)
(-3.43713e-07 -1.80759e-07 -0.00100018)
(-3.81473e-07 -1.78552e-07 -0.00100029)
(-5.97461e-08 -6.34424e-08 -0.00100001)
(-1.73766e-07 -6.32951e-08 -0.00100005)
(-2.70816e-07 -6.2823e-08 -0.00100012)
(-3.41633e-07 -6.21723e-08 -0.00100022)
(-3.79164e-07 -6.14211e-08 -0.00100033)
(-8.44559e-08 -5.51465e-07 -0.000999545)
(-2.4548e-07 -5.49904e-07 -0.000999598)
(-3.82395e-07 -5.45264e-07 -0.000999699)
(-4.82315e-07 -5.38868e-07 -0.000999837)
(-5.35464e-07 -5.31393e-07 -0.001)
(-8.32197e-08 -4.96376e-07 -0.000999717)
(-2.41953e-07 -4.94946e-07 -0.000999769)
(-3.76996e-07 -4.90719e-07 -0.000999867)
(-4.7556e-07 -4.84933e-07 -0.001)
(-5.27999e-07 -4.78176e-07 -0.00100016)
(-8.21532e-08 -3.93186e-07 -0.000999862)
(-2.38909e-07 -3.92028e-07 -0.000999913)
(-3.72346e-07 -3.88634e-07 -0.00100001)
(-4.69771e-07 -3.83996e-07 -0.00100014)
(-5.21556e-07 -3.78612e-07 -0.0010003)
(-8.13653e-08 -2.52198e-07 -0.000999967)
(-2.36662e-07 -2.51451e-07 -0.00100002)
(-3.68909e-07 -2.49267e-07 -0.00100011)
(-4.65502e-07 -2.46276e-07 -0.00100024)
(-5.16824e-07 -2.4282e-07 -0.0010004)
(-8.08023e-08 -8.67145e-08 -0.00100002)
(-2.35035e-07 -8.64599e-08 -0.00100007)
(-3.66397e-07 -8.57126e-08 -0.00100017)
(-4.6237e-07 -8.46878e-08 -0.0010003)
(-5.13352e-07 -8.35058e-08 -0.00100045)
(-1.14801e-07 -7.55081e-07 -0.000999384)
(-3.33708e-07 -7.52483e-07 -0.000999455)
(-5.19956e-07 -7.4529e-07 -0.000999592)
(-6.56067e-07 -7.3544e-07 -0.00099978)
(-7.28416e-07 -7.24025e-07 -0.001)
(-1.12875e-07 -6.79236e-07 -0.000999618)
(-3.28216e-07 -6.76826e-07 -0.000999689)
(-5.11547e-07 -6.70225e-07 -0.000999822)
(-6.45569e-07 -6.61197e-07 -0.00100001)
(-7.16973e-07 -6.50677e-07 -0.00100022)
(-1.11207e-07 -5.37774e-07 -0.000999817)
(-3.23457e-07 -5.35815e-07 -0.000999886)
(-5.04279e-07 -5.30494e-07 -0.00100002)
(-6.36517e-07 -5.23231e-07 -0.0010002)
(-7.07001e-07 -5.14794e-07 -0.00100041)
(-1.09972e-07 -3.44841e-07 -0.000999961)
(-3.19931e-07 -3.43569e-07 -0.00100003)
(-4.98888e-07 -3.40123e-07 -0.00100016)
(-6.29822e-07 -3.35419e-07 -0.00100033)
(-6.99607e-07 -3.2997e-07 -0.00100054)
(-1.09115e-07 -1.18556e-07 -0.00100004)
(-3.17456e-07 -1.18118e-07 -0.00100011)
(-4.95073e-07 -1.16932e-07 -0.00100023)
(-6.25064e-07 -1.15312e-07 -0.00100041)
(-6.94361e-07 -1.13437e-07 -0.00100061)
(-1.55964e-07 -1.03448e-06 -0.000999165)
(-4.53443e-07 -1.03017e-06 -0.000999262)
(-7.06746e-07 -1.01899e-06 -0.000999447)
(-8.92127e-07 -1.00379e-06 -0.000999702)
(-9.90893e-07 -9.86242e-07 -0.001)
(-1.52956e-07 -9.29872e-07 -0.000999487)
(-4.44868e-07 -9.25846e-07 -0.000999582)
(-6.9366e-07 -9.15504e-07 -0.000999762)
(-8.75881e-07 -9.01422e-07 -0.00100001)
(-9.73205e-07 -8.85101e-07 -0.0010003)
(-1.50336e-07 -7.35818e-07 -0.000999759)
(-4.37395e-07 -7.32526e-07 -0.000999852)
(-6.82257e-07 -7.24139e-07 -0.00100003)
(-8.61721e-07 -7.12722e-07 -0.00100027)
(-9.57714e-07 -6.99494e-07 -0.00100056)
(-1.48386e-07 -4.71701e-07 -0.000999956)
(-4.31828e-07 -4.69543e-07 -0.00100005)
(-6.73755e-07 -4.64082e-07 -0.00100022)
(-8.51172e-07 -4.56645e-07 -0.00100046)
(-9.46139e-07 -4.48032e-07 -0.00100074)
(-1.47067e-07 -1.62154e-07 -0.00100006)
(-4.28034e-07 -1.61404e-07 -0.00100015)
(-6.67921e-07 -1.59518e-07 -0.00100032)
(-8.43898e-07 -1.56947e-07 -0.00100056)
(-9.38169e-07 -1.53968e-07 -0.00100083)
(-2.11757e-07 -1.41819e-06 -0.000998869)
(-6.15824e-07 -1.41107e-06 -0.000999001)
(-9.60266e-07 -1.39365e-06 -0.000999251)
(-1.21281e-06 -1.37014e-06 -0.000999598)
(-1.34791e-06 -1.34311e-06 -0.00100001)
(-2.07031e-07 -1.27365e-06 -0.000999311)
(-6.02382e-07 -1.26695e-06 -0.000999439)
(-9.39864e-07 -1.25068e-06 -0.000999682)
(-1.18764e-06 -1.22867e-06 -0.00100002)
(-1.32053e-06 -1.20332e-06 -0.00100042)
(-2.02884e-07 -1.00728e-06 -0.000999685)
(-5.90575e-07 -1.00175e-06 -0.000999809)
(-9.219e-07 -9.88459e-07 -0.00100004)
(-1.16544e-06 -9.70439e-07 -0.00100037)
(-1.29637e-06 -9.49661e-07 -0.00100076)
(-1.99776e-07 -6.45569e-07 -0.000999955)
(-5.81724e-07 -6.41913e-07 -0.00100008)
(-9.08418e-07 -6.33215e-07 -0.00100031)
(-1.14876e-06 -6.21396e-07 -0.00100063)
(-1.27819e-06 -6.07762e-07 -0.001001)
(-1.97725e-07 -2.21917e-07 -0.0010001)
(-5.75857e-07 -2.20639e-07 -0.00100022)
(-8.99425e-07 -2.17626e-07 -0.00100045)
(-1.13757e-06 -2.13525e-07 -0.00100076)
(-1.26597e-06 -2.08793e-07 -0.00100113)
(-2.87292e-07 -1.94566e-06 -0.00099847)
(-8.35837e-07 -1.93389e-06 -0.000998648)
(-1.30418e-06 -1.90663e-06 -0.000998988)
(-1.64844e-06 -1.87018e-06 -0.000999459)
(-1.83359e-06 -1.82859e-06 -0.00100002)
(-2.79796e-07 -1.74556e-06 -0.000999078)
(-8.14626e-07 -1.73436e-06 -0.00099925)
(-1.27222e-06 -1.70864e-06 -0.000999576)
(-1.60932e-06 -1.67408e-06 -0.00100003)
(-1.79124e-06 -1.63457e-06 -0.00100057)
(-2.73166e-07 -1.37968e-06 -0.00099959)
(-7.95836e-07 -1.37035e-06 -0.000999756)
(-1.24378e-06 -1.34918e-06 -0.00100007)
(-1.57436e-06 -1.32057e-06 -0.00100051)
(-1.75342e-06 -1.2878e-06 -0.00100103)
(-2.68144e-07 -8.842e-07 -0.000999962)
(-7.81636e-07 -8.77973e-07 -0.00100012)
(-1.22225e-06 -8.64031e-07 -0.00100043)
(-1.54782e-06 -8.45114e-07 -0.00100085)
(-1.72467e-06 -8.23415e-07 -0.00100136)
(-2.64909e-07 -3.03998e-07 -0.00100016)
(-7.72462e-07 -3.0181e-07 -0.00100032)
(-1.20825e-06 -2.96968e-07 -0.00100062)
(-1.53045e-06 -2.90377e-07 -0.00100104)
(-1.70574e-06 -2.8281e-07 -0.00100154)
(-3.89375e-07 -2.67144e-06 -0.000997933)
(-1.13359e-06 -2.65188e-06 -0.000998174)
(-1.77049e-06 -2.60897e-06 -0.000998634)
(-2.24031e-06 -2.55231e-06 -0.000999272)
(-2.49473e-06 -2.48847e-06 -0.00100003)
(-3.77311e-07 -2.39392e-06 -0.000998769)
(-1.09977e-06 -2.37505e-06 -0.000998999)
(-1.72007e-06 -2.33409e-06 -0.000999438)
(-2.17922e-06 -2.27943e-06 -0.00100005)
(-2.4293e-06 -2.21761e-06 -0.00100078)
(-3.66564e-07 -1.89113e-06 -0.000999473)
(-1.0696e-06 -1.87523e-06 -0.000999693)
(-1.67471e-06 -1.84127e-06 -0.00100011)
(-2.12382e-06 -1.79546e-06 -0.0010007)
(-2.36986e-06 -1.74344e-06 -0.0010014)
(-3.58277e-07 -1.2125e-06 -0.000999985)
(-1.04655e-06 -1.20172e-06 -0.0010002)
(-1.64004e-06 -1.17926e-06 -0.0010006)
(-2.08123e-06 -1.14866e-06 -0.00100117)
(-2.324e-06 -1.11384e-06 -0.00100184)
(-3.5305e-07 -4.17131e-07 -0.00100026)
(-1.03202e-06 -4.1332e-07 -0.00100047)
(-1.61803e-06 -4.05517e-07 -0.00100086)
(-2.0539e-06 -3.94804e-07 -0.00100142)
(-2.29431e-06 -3.8259e-07 -0.00100208)
(-5.26949e-07 -3.67101e-06 -0.000997212)
(-1.53595e-06 -3.63812e-06 -0.000997535)
(-2.40258e-06 -3.57015e-06 -0.000998158)
(-3.04506e-06 -3.48183e-06 -0.000999024)
(-3.39621e-06 -3.384e-06 -0.00100006)
(-5.07076e-07 -3.28565e-06 -0.000998366)
(-1.48112e-06 -3.25332e-06 -0.000998669)
(-2.32208e-06 -3.18757e-06 -0.000999256)
(-2.94888e-06 -3.10018e-06 -0.00100008)
(-3.29517e-06 -3.00281e-06 -0.00100106)
(-4.89348e-07 -2.59462e-06 -0.000999332)
(-1.43227e-06 -2.56685e-06 -0.000999617)
(-2.24921e-06 -2.51227e-06 -0.00100017)
(-2.86029e-06 -2.43795e-06 -0.00100095)
(-3.20137e-06 -2.35465e-06 -0.00100189)
(-4.75134e-07 -1.66613e-06 -0.00100004)
(-1.39426e-06 -1.64675e-06 -0.00100031)
(-2.19284e-06 -1.61071e-06 -0.00100084)
(-2.79106e-06 -1.56044e-06 -0.00100159)
(-3.12739e-06 -1.50399e-06 -0.00100249)
(-4.66313e-07 -5.741e-07 -0.00100042)
(-1.37099e-06 -5.6719e-07 -0.00100068)
(-2.15796e-06 -5.54792e-07 -0.0010012)
(-2.74743e-06 -5.37089e-07 -0.00100193)
(-3.08024e-06 -5.17194e-07 -0.00100281)
(-7.11598e-07 -5.04887e-06 -0.000996241)
(-2.07883e-06 -4.9926e-06 -0.000996674)
(-3.25967e-06 -4.88417e-06 -0.000997517)
(-4.14124e-06 -4.74578e-06 -0.000998696)
(-4.63027e-06 -4.59547e-06 -0.00100011)
(-6.77448e-07 -4.51413e-06 -0.000997848)
(-1.98732e-06 -4.45713e-06 -0.000998239)
(-3.12851e-06 -4.35083e-06 -0.00099902)
(-3.9872e-06 -4.20868e-06 -0.00100012)
(-4.474e-06 -4.05341e-06 -0.00100145)
(-6.47584e-07 -3.56411e-06 -0.000999168)
(-1.90802e-06 -3.51346e-06 -0.000999527)
(-3.01091e-06 -3.42673e-06 -0.00100026)
(-3.84382e-06 -3.3038e-06 -0.00100129)
(-4.32549e-06 -3.16898e-06 -0.00100255)
(-6.21271e-07 -2.29818e-06 -0.00100016)
(-1.84391e-06 -2.2606e-06 -0.00100048)
(-2.91839e-06 -2.20457e-06 -0.00100118)
(-3.72916e-06 -2.11974e-06 -0.00100214)
(-4.20454e-06 -2.02742e-06 -0.00100334)
(-6.05151e-07 -7.94657e-07 -0.0010007)
(-1.80652e-06 -7.81094e-07 -0.001001)
(-2.86334e-06 -7.62621e-07 -0.00100169)
(-3.65827e-06 -7.32555e-07 -0.00100262)
(-4.12863e-06 -7.00005e-07 -0.00100378)
(-9.58265e-07 -6.94953e-06 -0.000994919)