/*--------------------------------*- C++ -*----------------------------------*\
| =========                 |                                                 |
| \\      /  F ield         | OpenFOAM: The Open Source CFD Toolbox           |
|  \\    /   O peration     | Version:  5.x                                   |
|   \\  /    A nd           | Web:      www.OpenFOAM.org                      |
|    \\/     M anipulation  |                                                 |
\*---------------------------------------------------------------------------*/
FoamFile
{
    version     2.0;
    format      ascii;
    class       volVectorField;
    location    "50000";
    object      stored_U;
}
// * * * * * * * * * * * * * * * * * * * * * * * * * * * * * * * * * * * * * //

dimensions      [0 1 -1 0 0 0 0];

internalField   nonuniform List<vector> 
2250
(
(-1.945e-11 1.75327e-10 -0.000999999)
(-4.95579e-11 1.85363e-10 -0.000999999)
(-7.35239e-11 1.94296e-10 -0.000999999)
(-1.10526e-10 2.20909e-10 -0.000999999)
(7.16714e-12 1.54489e-10 -0.000999999)
(-1.15509e-11 1.57345e-10 -0.000999998)
(-3.41972e-11 1.70503e-10 -0.000999998)
(-4.82309e-11 1.87733e-10 -0.000999998)
(-5.56811e-11 2.15151e-10 -0.000999999)
(-8.07579e-11 2.64739e-10 -0.000999999)
(-6.64093e-12 1.26741e-10 -0.000999998)
(-1.94731e-11 1.34541e-10 -0.000999998)
(-2.88873e-11 1.53024e-10 -0.000999998)
(-3.35242e-11 1.7115e-10 -0.000999998)
(-6.36666e-11 1.90404e-10 -0.000999998)
(-4.01091e-12 8.3837e-11 -0.000999998)
(-8.16153e-12 8.8362e-11 -0.000999998)
(-1.16278e-11 1.0221e-10 -0.000999998)
(-1.82949e-11 1.151e-10 -0.000999998)
(-5.92373e-11 1.29261e-10 -0.000999998)
(-2.27467e-12 2.98821e-11 -0.000999998)
(-1.26478e-12 3.16718e-11 -0.000999998)
(-2.17412e-12 3.68292e-11 -0.000999998)
(-6.42252e-12 4.11344e-11 -0.000999998)
(-5.52188e-11 4.85945e-11 -0.000999998)
(-4.48121e-11 5.11562e-10 -0.000999999)
(-1.16092e-10 5.33065e-10 -0.000999999)
(-1.70933e-10 5.51669e-10 -0.000999999)
(-2.83642e-10 6.0897e-10 -0.000999999)
(-2.75454e-11 4.4213e-10 -0.000999999)
(-2.75917e-11 4.66268e-10 -0.000999998)
(-8.34889e-11 4.94079e-10 -0.000999998)
(-1.23868e-10 5.34355e-10 -0.000999998)
(-1.68379e-10 5.89839e-10 -0.000999998)
(-2.17653e-10 7.15105e-10 -0.000999999)
(-1.78906e-11 3.69065e-10 -0.000999998)
(-4.88389e-11 3.8723e-10 -0.000999998)
(-7.52066e-11 4.34854e-10 -0.000999998)
(-1.02917e-10 4.79802e-10 -0.000999998)
(-1.928e-10 5.41483e-10 -0.000999998)
(-1.01562e-11 2.43991e-10 -0.000999998)
(-1.83821e-11 2.58722e-10 -0.000999998)
(-3.13071e-11 2.94538e-10 -0.000999998)
(-6.17329e-11 3.24777e-10 -0.000999998)
(-1.77363e-10 3.62067e-10 -0.000999998)
(-3.60922e-12 8.71911e-11 -0.000999998)
(1.23791e-12 9.38945e-11 -0.000999998)
(-9.21026e-12 1.06988e-10 -0.000999998)
(-3.52453e-11 1.16009e-10 -0.000999998)
(-1.65427e-10 1.33197e-10 -0.000999998)
(-5.26996e-11 9.08994e-10 -0.000999999)
(-1.64746e-10 9.24357e-10 -0.000999999)
(-2.79174e-10 9.47679e-10 -0.000999999)
(-4.34953e-10 9.9619e-10 -0.000999999)
(-2.00011e-10 8.73187e-10 -0.000999999)
(-4.36189e-11 8.32112e-10 -0.000999998)
(-1.32514e-10 8.53822e-10 -0.000999998)
(-2.15562e-10 9.12787e-10 -0.000999998)
(-2.99254e-10 9.88918e-10 -0.000999998)
(-3.59834e-10 1.13415e-09 -0.000999999)
(-3.25288e-11 6.59351e-10 -0.000999998)
(-8.5612e-11 6.85633e-10 -0.000999998)
(-1.44106e-10 7.53494e-10 -0.000999998)
(-2.13514e-10 8.1685e-10 -0.000999998)
(-3.50839e-10 8.93818e-10 -0.000999998)
(-1.85853e-11 4.39114e-10 -0.000999997)
(-3.95708e-11 4.67505e-10 -0.000999997)
(-8.43503e-11 5.11416e-10 -0.000999998)
(-1.58896e-10 5.47746e-10 -0.000999998)
(-3.34485e-10 5.88812e-10 -0.000999998)
(-4.98821e-12 1.57302e-10 -0.000999997)
(-1.41654e-11 1.71199e-10 -0.000999997)
(-6.38203e-11 1.83001e-10 -0.000999997)
(-1.35825e-10 1.91636e-10 -0.000999998)
(-3.21346e-10 2.05689e-10 -0.000999998)
(-6.99928e-11 1.38366e-09 -0.000999998)
(-2.45354e-10 1.39651e-09 -0.000999999)
(-4.43958e-10 1.43122e-09 -0.000999999)
(-6.33937e-10 1.49499e-09 -0.000999999)
(-4.10845e-10 1.39929e-09 -0.000999999)
(-6.93933e-11 1.26235e-09 -0.000999998)
(-2.10452e-10 1.28196e-09 -0.000999998)
(-3.44771e-10 1.3554e-09 -0.000999998)
(-4.74522e-10 1.46203e-09 -0.000999998)
(-5.42617e-10 1.60399e-09 -0.000999999)
(-5.27054e-11 1.02811e-09 -0.000999997)
(-1.54708e-10 1.06866e-09 -0.000999998)
(-2.64021e-10 1.13642e-09 -0.000999998)
(-3.85391e-10 1.20038e-09 -0.000999998)
(-5.43768e-10 1.27364e-09 -0.000999998)
(-3.08122e-11 6.91536e-10 -0.000999997)
(-1.04114e-10 7.2643e-10 -0.000999997)
(-2.13113e-10 7.57256e-10 -0.000999997)
(-3.37263e-10 7.81053e-10 -0.000999997)
(-5.37703e-10 8.13077e-10 -0.000999998)
(-1.91028e-11 2.48703e-10 -0.000999997)
(-9.01691e-11 2.60848e-10 -0.000999997)
(-2.09078e-10 2.62988e-10 -0.000999997)
(-3.28933e-10 2.64545e-10 -0.000999997)
(-5.29777e-10 2.70677e-10 -0.000999998)
(-1.21117e-10 2.01765e-09 -0.000999998)
(-3.81614e-10 2.04383e-09 -0.000999999)
(-6.34344e-10 2.09658e-09 -0.000999999)
(-8.27262e-10 2.17618e-09 -0.000999999)
(-6.65444e-10 2.09494e-09 -0.000999999)
(-1.14845e-10 1.84447e-09 -0.000999998)
(-3.31074e-10 1.87663e-09 -0.000999998)
(-5.13685e-10 1.95299e-09 -0.000999998)
(-6.84892e-10 2.05494e-09 -0.000999998)
(-7.75033e-10 2.14832e-09 -0.000999998)
(-9.22794e-11 1.53275e-09 -0.000999997)
(-2.76563e-10 1.57555e-09 -0.000999997)
(-4.56206e-10 1.6198e-09 -0.000999997)
(-6.31982e-10 1.64969e-09 -0.000999998)
(-7.86837e-10 1.69035e-09 -0.000999998)
(-7.49146e-11 1.022e-09 -0.000999996)
(-2.46909e-10 1.0403e-09 -0.000999997)
(-4.39602e-10 1.04613e-09 -0.000999997)
(-6.14264e-10 1.04351e-09 -0.000999997)
(-7.93703e-10 1.05784e-09 -0.000999997)
(-7.5726e-11 3.61689e-10 -0.000999996)
(-2.53889e-10 3.61405e-10 -0.000999996)
(-4.52194e-10 3.54953e-10 -0.000999997)
(-6.1902e-10 3.48024e-10 -0.000999997)
(-7.92174e-10 3.48983e-10 -0.000999997)
(-1.88442e-10 2.92331e-09 -0.000999998)
(-5.30695e-10 2.95845e-09 -0.000999998)
(-7.95556e-10 3.00136e-09 -0.000999998)
(-1.07859e-09 3.05458e-09 -0.000999999)
(-1.01514e-09 2.95906e-09 -0.000999999)
(-1.72969e-10 2.68544e-09 -0.000999997)
(-4.87881e-10 2.7213e-09 -0.000999997)
(-7.40939e-10 2.75834e-09 -0.000999997)
(-9.71582e-10 2.78053e-09 -0.000999998)
(-1.0813e-09 2.86999e-09 -0.000999998)
(-1.57488e-10 2.20412e-09 -0.000999996)
(-4.62885e-10 2.22436e-09 -0.000999996)
(-7.36515e-10 2.22657e-09 -0.000999997)
(-9.66984e-10 2.20857e-09 -0.000999997)
(-1.10908e-09 2.21717e-09 -0.000999997)
(-1.56788e-10 1.43443e-09 -0.000999996)
(-4.69629e-10 1.42791e-09 -0.000999996)
(-7.56817e-10 1.41117e-09 -0.000999996)
(-9.80909e-10 1.39135e-09 -0.000999996)
(-1.1171e-09 1.38978e-09 -0.000999997)
(-1.66293e-10 4.96208e-10 -0.000999995)
(-4.87934e-10 4.87302e-10 -0.000999995)
(-7.71677e-10 4.77969e-10 -0.000999996)
(-9.86449e-10 4.71078e-10 -0.000999996)
(-1.11771e-09 4.70596e-10 -0.000999997)
(-2.5153e-10 4.16528e-09 -0.000999997)
(-6.98242e-10 4.18337e-09 -0.000999998)
(-1.06672e-09 4.17998e-09 -0.000999998)
(-1.41204e-09 4.16456e-09 -0.000999998)
(-1.40826e-09 4.07627e-09 -0.000999999)
(-2.44604e-10 3.81017e-09 -0.000999996)
(-6.97289e-10 3.82006e-09 -0.000999996)
(-1.07459e-09 3.79937e-09 -0.000999997)
(-1.38624e-09 3.77732e-09 -0.000999997)
(-1.48299e-09 3.80502e-09 -0.000999998)
(-2.48681e-10 3.04851e-09 -0.000999995)
(-7.16336e-10 3.03702e-09 -0.000999995)
(-1.10972e-09 3.00417e-09 -0.000999995)
(-1.40634e-09 2.96467e-09 -0.000999996)
(-1.54038e-09 2.95408e-09 -0.000999996)
(-2.61681e-10 1.9496e-09 -0.000999994)
(-7.4748e-10 1.93304e-09 -0.000999994)
(-1.14707e-09 1.91082e-09 -0.000999995)
(-1.43622e-09 1.88855e-09 -0.000999995)
(-1.5464e-09 1.87637e-09 -0.000999996)
(-2.68294e-10 6.66863e-10 -0.000999994)
(-7.57396e-10 6.60977e-10 -0.000999994)
(-1.15214e-09 6.56812e-10 -0.000999994)
(-1.43805e-09 6.53841e-10 -0.000999995)
(-1.5493e-09 6.52367e-10 -0.000999995)
(-3.30883e-10 5.7802e-09 -0.000999996)
(-9.54315e-10 5.7736e-09 -0.000999997)
(-1.51643e-09 5.73225e-09 -0.000999997)
(-1.96614e-09 5.65488e-09 -0.000999998)
(-1.87305e-09 5.51421e-09 -0.000999998)
(-3.39723e-10 5.22744e-09 -0.000999995)
(-9.81114e-10 5.20939e-09 -0.000999995)
(-1.52957e-09 5.16304e-09 -0.000999995)
(-1.96018e-09 5.14321e-09 -0.000999996)
(-2.05165e-09 5.14487e-09 -0.000999997)
(-3.58643e-10 4.12711e-09 -0.000999993)
(-1.02882e-09 4.10139e-09 -0.000999993)
(-1.58299e-09 4.05642e-09 -0.000999994)
(-1.98432e-09 4.01363e-09 -0.000999994)
(-2.11938e-09 3.99909e-09 -0.000999995)
(-3.72998e-10 2.63317e-09 -0.000999992)
(-1.05969e-09 2.62525e-09 -0.000999992)
(-1.61751e-09 2.60795e-09 -0.000999993)
(-2.01734e-09 2.58661e-09 -0.000999993)
(-2.13714e-09 2.5652e-09 -0.000999994)
(-3.70723e-10 9.03052e-10 -0.000999991)
(-1.0571e-09 9.06312e-10 -0.000999992)
(-1.61876e-09 9.05427e-10 -0.000999992)
(-2.02325e-09 9.02201e-10 -0.000999993)
(-2.1465e-09 8.95824e-10 -0.000999993)
(-4.53509e-10 7.89963e-09 -0.000999995)
(-1.33193e-09 7.89105e-09 -0.000999995)
(-2.10901e-09 7.84106e-09 -0.000999996)
(-2.75578e-09 7.75661e-09 -0.000999997)
(-2.57442e-09 7.50265e-09 -0.000999998)
(-4.65493e-10 7.08521e-09 -0.000999993)
(-1.35846e-09 7.06791e-09 -0.000999993)
(-2.11557e-09 7.02662e-09 -0.000999994)
(-2.7026e-09 7.00484e-09 -0.000999994)
(-2.84129e-09 7.05284e-09 -0.000999995)
(-4.83885e-10 5.58763e-09 -0.000999991)
(-1.40419e-09 5.56998e-09 -0.000999991)
(-2.17261e-09 5.53017e-09 -0.000999992)
(-2.72956e-09 5.48306e-09 -0.000999992)
(-2.89553e-09 5.47745e-09 -0.000999993)
(-4.93358e-10 3.57786e-09 -0.000999989)
(-1.42654e-09 3.57756e-09 -0.00099999)
(-2.20273e-09 3.56265e-09 -0.00099999)
(-2.75511e-09 3.54114e-09 -0.000999991)
(-2.92423e-09 3.52785e-09 -0.000999992)
(-4.89887e-10 1.23187e-09 -0.000999988)
(-1.42359e-09 1.23672e-09 -0.000999989)
(-2.20513e-09 1.23458e-09 -0.000999989)
(-2.75914e-09 1.23044e-09 -0.00099999)
(-2.93266e-09 1.22555e-09 -0.000999991)
(-6.19869e-10 1.07637e-08 -0.000999994)
(-1.82291e-09 1.0767e-08 -0.000999994)
(-2.85111e-09 1.07223e-08 -0.000999995)
(-3.71735e-09 1.06774e-08 -0.000999996)
(-3.68631e-09 1.04065e-08 -0.000999997)
(-6.28711e-10 9.64104e-09 -0.00099999)
(-1.84799e-09 9.63647e-09 -0.000999991)
(-2.87255e-09 9.60006e-09 -0.000999992)
(-3.63391e-09 9.56702e-09 -0.000999993)
(-3.90075e-09 9.66195e-09 -0.000999994)
(-6.42145e-10 7.61409e-09 -0.000999988)
(-1.88241e-09 7.60626e-09 -0.000999988)
(-2.92128e-09 7.57786e-09 -0.000999989)
(-3.65547e-09 7.53981e-09 -0.00099999)
(-3.91386e-09 7.5474e-09 -0.000999991)
(-6.50507e-10 4.87833e-09 -0.000999986)
(-1.8987e-09 4.87549e-09 -0.000999986)
(-2.93933e-09 4.86876e-09 -0.000999987)
(-3.66406e-09 4.8603e-09 -0.000999988)
(-3.93906e-09 4.86612e-09 -0.000999989)
(-6.52774e-10 1.67782e-09 -0.000999985)
(-1.89779e-09 1.67745e-09 -0.000999985)
(-2.9313e-09 1.67851e-09 -0.000999986)
(-3.65117e-09 1.68031e-09 -0.000999987)
(-3.93711e-09 1.68475e-09 -0.000999988)
(-8.39823e-10 1.46557e-08 -0.000999992)
(-2.47294e-09 1.46641e-08 -0.000999992)
(-3.84933e-09 1.46306e-08 -0.000999993)
(-4.91836e-09 1.46342e-08 -0.000999995)
(-5.23085e-09 1.44978e-08 -0.000999996)
(-8.52222e-10 1.31529e-08 -0.000999987)
(-2.49959e-09 1.31532e-08 -0.000999988)
(-3.87098e-09 1.31332e-08 -0.000999989)
(-4.84117e-09 1.31171e-08 -0.00099999)
(-5.29023e-09 1.3209e-08 -0.000999992)
(-8.63709e-10 1.03989e-08 -0.000999984)
(-2.5179e-09 1.04e-08 -0.000999984)
(-3.88644e-09 1.03982e-08 -0.000999985)
(-4.84262e-09 1.03923e-08 -0.000999986)
(-5.27788e-09 1.04033e-08 -0.000999988)
(-8.70301e-10 6.65823e-09 -0.000999981)
(-2.52014e-09 6.6619e-09 -0.000999981)
(-3.87911e-09 6.67664e-09 -0.000999982)
(-4.83572e-09 6.6856e-09 -0.000999983)
(-5.29018e-09 6.69227e-09 -0.000999985)
(-8.70701e-10 2.28606e-09 -0.000999979)
(-2.50757e-09 2.28829e-09 -0.00099998)
(-3.85598e-09 2.29846e-09 -0.000999981)
(-4.81785e-09 2.30463e-09 -0.000999982)
(-5.2835e-09 2.30761e-09 -0.000999983)
(-1.14755e-09 1.99389e-08 -0.000999989)
(-3.35475e-09 1.99549e-08 -0.00099999)
(-5.20193e-09 1.99436e-08 -0.000999991)
(-6.52693e-09 1.99641e-08 -0.000999993)
(-7.14933e-09 1.99614e-08 -0.000999995)
(-1.15929e-09 1.79336e-08 -0.000999983)
(-3.36075e-09 1.79504e-08 -0.000999984)
(-5.18107e-09 1.79699e-08 -0.000999985)
(-6.47034e-09 1.79962e-08 -0.000999987)
(-7.14442e-09 1.80373e-08 -0.000999989)
(-1.16385e-09 1.42083e-08 -0.000999978)
(-3.35302e-09 1.42338e-08 -0.000999979)
(-5.15755e-09 1.42626e-08 -0.00099998)
(-6.45955e-09 1.428e-08 -0.000999982)
(-7.14075e-09 1.42752e-08 -0.000999984)
(-1.16005e-09 9.11315e-09 -0.000999974)
(-3.33359e-09 9.1422e-09 -0.000999975)
(-5.13547e-09 9.1686e-09 -0.000999976)
(-6.45712e-09 9.17269e-09 -0.000999978)
(-7.1507e-09 9.16089e-09 -0.00099998)
(-1.14951e-09 3.13349e-09 -0.000999972)
(-3.30885e-09 3.14771e-09 -0.000999973)
(-5.11812e-09 3.15824e-09 -0.000999974)
(-6.45509e-09 3.15612e-09 -0.000999976)
(-7.14549e-09 3.14872e-09 -0.000999978)
(-1.55514e-09 2.7149e-08 -0.000999986)
(-4.4968e-09 2.71869e-08 -0.000999987)
(-6.95395e-09 2.71909e-08 -0.000999988)
(-8.73493e-09 2.71963e-08 -0.000999991)
(-9.60236e-09 2.71857e-08 -0.000999994)
(-1.55647e-09 2.44692e-08 -0.000999977)
(-4.47868e-09 2.45198e-08 -0.000999978)
(-6.9121e-09 2.4558e-08 -0.00099998)
(-8.69979e-09 2.45881e-08 -0.000999982)
(-9.64016e-09 2.45949e-08 -0.000999985)
(-1.54988e-09 1.94302e-08 -0.00099997)
(-4.45516e-09 1.94859e-08 -0.000999971)
(-6.88758e-09 1.95127e-08 -0.000999973)
(-8.69807e-09 1.95128e-08 -0.000999975)
(-9.66842e-09 1.94964e-08 -0.000999978)
(-1.53674e-09 1.24956e-08 -0.000999965)
(-4.43325e-09 1.25417e-08 -0.000999966)
(-6.88604e-09 1.25452e-08 -0.000999968)
(-8.71531e-09 1.25213e-08 -0.00099997)
(-9.68889e-09 1.25012e-08 -0.000999973)
(-1.52409e-09 4.30689e-09 -0.000999962)
(-4.42129e-09 4.32472e-09 -0.000999963)
(-6.89592e-09 4.31914e-09 -0.000999965)
(-8.72568e-09 4.30291e-09 -0.000999967)
(-9.68093e-09 4.29326e-09 -0.00099997)
(-2.07348e-09 3.7011e-08 -0.000999981)
(-5.98748e-09 3.70712e-08 -0.000999982)
(-9.29572e-09 3.70683e-08 -0.000999984)
(-1.17605e-08 3.70527e-08 -0.000999987)
(-1.29899e-08 3.70092e-08 -0.000999991)
(-2.0727e-09 3.34107e-08 -0.000999969)
(-5.98243e-09 3.34812e-08 -0.00099997)
(-9.28932e-09 3.34863e-08 -0.000999973)
(-1.17514e-08 3.34744e-08 -0.000999976)
(-1.30467e-08 3.34723e-08 -0.00099998)
(-2.06492e-09 2.65546e-08 -0.000999959)
(-5.97625e-09 2.66167e-08 -0.000999961)
(-9.30508e-09 2.66017e-08 -0.000999963)
(-1.17745e-08 2.65614e-08 -0.000999966)
(-1.30947e-08 2.6538e-08 -0.00099997)
(-2.05964e-09 1.70921e-08 -0.000999952)
(-5.986e-09 1.71233e-08 -0.000999954)
(-9.34581e-09 1.70854e-08 -0.000999956)
(-1.1814e-08 1.70373e-08 -0.000999959)
(-1.31297e-08 1.70169e-08 -0.000999963)
(-2.06139e-09 5.89367e-09 -0.000999949)
(-6.00454e-09 5.89904e-09 -0.00099995)
(-9.37482e-09 5.87573e-09 -0.000999952)
(-1.18209e-08 5.85391e-09 -0.000999956)
(-1.31179e-08 5.84785e-09 -0.00099996)
(-2.78105e-09 5.04607e-08 -0.000999974)
(-8.07034e-09 5.05379e-08 -0.000999975)
(-1.25831e-08 5.05131e-08 -0.000999979)
(-1.59354e-08 5.04809e-08 -0.000999983)
(-1.77001e-08 5.04382e-08 -0.000999988)
(-2.78937e-09 4.55773e-08 -0.000999958)
(-8.09919e-09 4.56462e-08 -0.00099996)
(-1.2627e-08 4.56e-08 -0.000999963)
(-1.59596e-08 4.55408e-08 -0.000999968)
(-1.7741e-08 4.55164e-08 -0.000999973)
(-2.79639e-09 3.62136e-08 -0.000999945)
(-8.13522e-09 3.62569e-08 -0.000999947)
(-1.2692e-08 3.61943e-08 -0.00099995)
(-1.60191e-08 3.61221e-08 -0.000999955)
(-1.77982e-08 3.60771e-08 -0.00099996)
(-2.8127e-09 2.32899e-08 -0.000999935)
(-8.18743e-09 2.32956e-08 -0.000999937)
(-1.27633e-08 2.32342e-08 -0.00099994)
(-1.60753e-08 2.31798e-08 -0.000999945)
(-1.78465e-08 2.31472e-08 -0.000999951)
(-2.8283e-09 8.02235e-09 -0.00099993)
(-8.22028e-09 8.01639e-09 -0.000999932)
(-1.27856e-08 7.99028e-09 -0.000999935)
(-1.60761e-08 7.97216e-09 -0.00099994)
(-1.78399e-08 7.96106e-09 -0.000999946)
(-3.78668e-09 6.87725e-08 -0.000999964)
(-1.10152e-08 6.88643e-08 -0.000999966)
(-1.71734e-08 6.88022e-08 -0.000999971)
(-2.16807e-08 6.87191e-08 -0.000999977)
(-2.41026e-08 6.8641e-08 -0.000999985)
(-3.8073e-09 6.21039e-08 -0.000999943)
(-1.10767e-08 6.21681e-08 -0.000999945)
(-1.72656e-08 6.20814e-08 -0.00099995)
(-2.17727e-08 6.19782e-08 -0.000999956)
(-2.41904e-08 6.18924e-08 -0.000999964)
(-3.83705e-09 4.9314e-08 -0.000999925)
(-1.11569e-08 4.93428e-08 -0.000999927)
(-1.7368e-08 4.92533e-08 -0.000999932)
(-2.18698e-08 4.91624e-08 -0.000999938)
(-2.4272e-08 4.90838e-08 -0.000999946)
(-3.86896e-09 3.16914e-08 -0.000999912)
(-1.1231e-08 3.16968e-08 -0.000999914)
(-1.74481e-08 3.1637e-08 -0.000999919)
(-2.19402e-08 3.15812e-08 -0.000999925)
(-2.43387e-08 3.1518e-08 -0.000999933)
(-3.88262e-09 1.091e-08 -0.000999905)
(-1.1251e-08 1.09094e-08 -0.000999908)
(-1.74534e-08 1.08909e-08 -0.000999912)
(-2.1948e-08 1.08741e-08 -0.000999919)
(-2.43488e-08 1.08444e-08 -0.000999926)
(-5.18334e-09 9.37023e-08 -0.000999951)
(-1.50753e-08 9.38035e-08 -0.000999955)
(-2.34723e-08 9.36901e-08 -0.000999961)
(-2.95884e-08 9.35251e-08 -0.000999969)
(-3.27733e-08 9.3349e-08 -0.00099998)
(-5.22495e-09 8.45944e-08 -0.000999923)
(-1.51779e-08 8.46624e-08 -0.000999926)
(-2.36116e-08 8.45449e-08 -0.000999932)
(-2.9741e-08 8.44012e-08 -0.000999941)
(-3.2976e-08 8.42682e-08 -0.000999951)
(-5.27089e-09 6.71644e-08 -0.000999898)
(-1.52868e-08 6.72083e-08 -0.000999901)
(-2.37399e-08 6.71059e-08 -0.000999908)
(-2.98652e-08 6.69925e-08 -0.000999916)
(-3.31161e-08 6.68769e-08 -0.000999927)
(-5.30394e-09 4.31716e-08 -0.00099988)
(-1.53636e-08 4.32029e-08 -0.000999884)
(-2.38302e-08 4.31442e-08 -0.00099989)
(-2.99674e-08 4.30687e-08 -0.000999899)
(-3.32279e-08 4.29593e-08 -0.000999909)
(-5.30889e-09 1.48671e-08 -0.000999871)
(-1.53682e-08 1.48798e-08 -0.000999874)
(-2.38332e-08 1.48636e-08 -0.000999881)
(-2.99946e-08 1.48361e-08 -0.000999889)
(-3.32587e-08 1.47838e-08 -0.0009999)
(-7.10046e-09 1.27663e-07 -0.000999934)
(-2.06125e-08 1.2779e-07 -0.000999939)
(-3.2046e-08 1.27625e-07 -0.000999947)
(-4.04015e-08 1.27376e-07 -0.000999959)
(-4.45957e-08 1.27078e-07 -0.000999972)
(-7.15983e-09 1.15274e-07 -0.000999895)
(-2.07536e-08 1.15375e-07 -0.000999899)
(-3.22338e-08 1.15222e-07 -0.000999908)
(-4.05926e-08 1.15022e-07 -0.00099992)
(-4.49086e-08 1.1485e-07 -0.000999934)
(-7.21065e-09 9.15729e-08 -0.000999861)
(-2.0885e-08 9.16539e-08 -0.000999866)
(-3.24081e-08 9.152e-08 -0.000999874)
(-4.07733e-08 9.13484e-08 -0.000999886)
(-4.5167e-08 9.11644e-08 -0.0009999)
(-7.24607e-09 5.88934e-08 -0.000999837)
(-2.09795e-08 5.89471e-08 -0.000999842)
(-3.25433e-08 5.88627e-08 -0.00099985)
(-4.09446e-08 5.8735e-08 -0.000999862)
(-4.5367e-08 5.85693e-08 -0.000999876)
(-7.25122e-09 2.02888e-08 -0.000999824)
(-2.09893e-08 2.03079e-08 -0.000999829)
(-3.25648e-08 2.02808e-08 -0.000999837)
(-4.09914e-08 2.02312e-08 -0.000999849)
(-4.54179e-08 2.01627e-08 -0.000999863)
(-9.70452e-09 1.73999e-07 -0.000999911)
(-2.81065e-08 1.74176e-07 -0.000999917)
(-4.36394e-08 1.73924e-07 -0.000999928)
(-5.50051e-08 1.73552e-07 -0.000999944)
(-6.07439e-08 1.73103e-07 -0.000999962)
(-9.77409e-09 1.57208e-07 -0.000999857)
(-2.83124e-08 1.57356e-07 -0.000999863)
(-4.39615e-08 1.57103e-07 -0.000999875)
(-5.53527e-08 1.56754e-07 -0.000999891)
(-6.1165e-08 1.56413e-07 -0.00099991)
(-9.84393e-09 1.24954e-07 -0.000999811)
(-2.85117e-08 1.25054e-07 -0.000999817)
(-4.42535e-08 1.24835e-07 -0.000999829)
(-5.56947e-08 1.24537e-07 -0.000999845)
(-6.16203e-08 1.24196e-07 -0.000999864)
(-9.90199e-09 8.03821e-08 -0.000999778)
(-2.86671e-08 8.04385e-08 -0.000999784)
(-4.4484e-08 8.02931e-08 -0.000999796)
(-5.59867e-08 8.00757e-08 -0.000999812)
(-6.19593e-08 7.98216e-08 -0.000999832)
(-9.91594e-09 2.76938e-08 -0.000999761)
(-2.87011e-08 2.77128e-08 -0.000999767)
(-4.4541e-08 2.76624e-08 -0.000999779)
(-5.60639e-08 2.75809e-08 -0.000999795)
(-6.20485e-08 2.74884e-08 -0.000999814)
(-1.32016e-08 2.37232e-07 -0.000999878)
(-3.82493e-08 2.3743e-07 -0.000999887)
(-5.94001e-08 2.37006e-07 -0.000999902)
(-7.47484e-08 2.36434e-07 -0.000999924)
(-8.27386e-08 2.35801e-07 -0.000999949)
(-1.3325e-08 2.14489e-07 -0.000999805)
(-3.86219e-08 2.14631e-07 -0.000999813)
(-5.99786e-08 2.14185e-07 -0.000999829)
(-7.54388e-08 2.13574e-07 -0.000999851)
(-8.33491e-08 2.12859e-07 -0.000999877)
(-1.34519e-08 1.70534e-07 -0.000999743)
(-3.89621e-08 1.70618e-07 -0.000999751)
(-6.04725e-08 1.70255e-07 -0.000999767)
(-7.6074e-08 1.69747e-07 -0.00099979)
(-8.40832e-08 1.69118e-07 -0.000999815)
(-1.35507e-08 1.09726e-07 -0.000999697)
(-3.92212e-08 1.09778e-07 -0.000999706)
(-6.08572e-08 1.09531e-07 -0.000999722)
(-7.65692e-08 1.0917e-07 -0.000999745)
(-8.4636e-08 1.08748e-07 -0.000999771)
(-1.35754e-08 3.78094e-08 -0.000999674)
(-3.92946e-08 3.78295e-08 -0.000999682)
(-6.09785e-08 3.77398e-08 -0.000999698)
(-7.67177e-08 3.76068e-08 -0.000999721)
(-8.48049e-08 3.74604e-08 -0.000999747)
(-1.79757e-08 3.23431e-07 -0.000999834)
(-5.21594e-08 3.23616e-07 -0.000999846)
(-8.09978e-08 3.22963e-07 -0.000999867)
(-1.01668e-07 3.22089e-07 -0.000999897)
(-1.12551e-07 3.21163e-07 -0.000999931)
(-1.82001e-08 2.92622e-07 -0.000999735)
(-5.2753e-08 2.92725e-07 -0.000999746)
(-8.18654e-08 2.92045e-07 -0.000999768)
(-1.0279e-07 2.91082e-07 -0.000999798)
(-1.13571e-07 2.89858e-07 -0.000999833)
(-1.84051e-08 2.32792e-07 -0.000999649)
(-5.32912e-08 2.32854e-07 -0.000999661)
(-8.26624e-08 2.32269e-07 -0.000999683)
(-1.03856e-07 2.31427e-07 -0.000999713)
(-1.14714e-07 2.30365e-07 -0.000999749)
(-1.85593e-08 1.49873e-07 -0.000999587)
(-5.37121e-08 1.49911e-07 -0.000999599)
(-8.33021e-08 1.4949e-07 -0.000999621)
(-1.04685e-07 1.48892e-07 -0.000999652)
(-1.15609e-07 1.48196e-07 -0.000999688)
(-1.86053e-08 5.16639e-08 -0.000999554)
(-5.38608e-08 5.16792e-08 -0.000999566)
(-8.35427e-08 5.1521e-08 -0.000999589)
(-1.04962e-07 5.13017e-08 -0.000999619)
(-1.15911e-07 5.1067e-08 -0.000999656)
(-2.45633e-08 4.40997e-07 -0.000999775)
(-7.12293e-08 4.41196e-07 -0.000999791)
(-1.10455e-07 4.40211e-07 -0.00099982)
(-1.38438e-07 4.38813e-07 -0.00099986)
(-1.52928e-07 4.37284e-07 -0.000999907)
(-2.4883e-08 3.99367e-07 -0.000999639)
(-7.20781e-08 3.99457e-07 -0.000999655)
(-1.11742e-07 3.9841e-07 -0.000999684)
(-1.40136e-07 3.96881e-07 -0.000999725)
(-1.54716e-07 3.94995e-07 -0.000999773)
(-2.51961e-08 3.18056e-07 -0.000999522)
(-7.29414e-08 3.18062e-07 -0.000999538)
(-1.13061e-07 3.17076e-07 -0.000999568)
(-1.41853e-07 3.15682e-07 -0.00099961)
(-1.56538e-07 3.14e-07 -0.000999658)
(-2.54495e-08 2.0494e-07 -0.000999437)
(-7.36517e-08 2.04914e-07 -0.000999453)
(-1.14136e-07 2.04194e-07 -0.000999483)
(-1.43199e-07 2.03214e-07 -0.000999526)
(-1.57988e-07 2.02099e-07 -0.000999575)
(-2.5546e-08 7.06808e-08 -0.000999392)
(-7.39424e-08 7.06679e-08 -0.000999408)
(-1.14574e-07 7.03989e-08 -0.000999439)
(-1.43695e-07 7.00454e-08 -0.000999481)
(-1.58529e-07 6.96653e-08 -0.000999531)
(-3.35259e-08 6.0157e-07 -0.000999695)
(-9.71194e-08 6.01736e-07 -0.000999716)
(-1.50486e-07 6.00132e-07 -0.000999756)
(-1.8859e-07 5.97864e-07 -0.000999811)
(-2.07799e-07 5.95277e-07 -0.000999875)
(-3.40156e-08 5.45578e-07 -0.000999509)
(-9.85045e-08 5.45546e-07 -0.00099953)
(-1.52607e-07 5.43749e-07 -0.000999571)
(-1.91237e-07 5.41251e-07 -0.000999627)
(-2.10778e-07 5.38348e-07 -0.000999692)
(-3.4541e-08 4.35091e-07 -0.000999348)
(-9.99753e-08 4.34909e-07 -0.00099937)
(-1.54822e-07 4.33216e-07 -0.000999412)
(-1.93991e-07 4.30916e-07 -0.000999469)
(-2.13747e-07 4.28269e-07 -0.000999536)
(-3.49764e-08 2.80643e-07 -0.000999231)
(-1.01187e-07 2.80461e-07 -0.000999253)
(-1.56619e-07 2.79251e-07 -0.000999296)
(-1.96167e-07 2.77639e-07 -0.000999354)
(-2.16131e-07 2.75815e-07 -0.000999422)
(-3.5163e-08 9.68431e-08 -0.000999169)
(-1.01714e-07 9.67708e-08 -0.000999191)
(-1.57393e-07 9.63294e-08 -0.000999234)
(-1.97086e-07 9.57484e-08 -0.000999293)
(-2.17139e-07 9.509e-08 -0.000999361)
(-4.57137e-08 8.20929e-07 -0.000999587)
(-1.32408e-07 8.20884e-07 -0.000999616)
(-2.05062e-07 8.18269e-07 -0.000999671)
(-2.56737e-07 8.14687e-07 -0.000999745)
(-2.82295e-07 8.1049e-07 -0.000999831)
(-4.65704e-08 7.46055e-07 -0.000999332)
(-1.34794e-07 7.45638e-07 -0.000999362)
(-2.08576e-07 7.42577e-07 -0.000999418)
(-2.60999e-07 7.38487e-07 -0.000999494)
(-2.87079e-07 7.33821e-07 -0.000999583)
(-4.74662e-08 5.96071e-07 -0.000999111)
(-1.37281e-07 5.95497e-07 -0.000999141)
(-2.12269e-07 5.92635e-07 -0.000999199)
(-2.65493e-07 5.88793e-07 -0.000999278)
(-2.91982e-07 5.8444e-07 -0.000999369)
(-4.82027e-08 3.85046e-07 -0.000998949)
(-1.39329e-07 3.84573e-07 -0.00099898)
(-2.15306e-07 3.82525e-07 -0.000999039)
(-2.6917e-07 3.79771e-07 -0.00099912)
(-2.96023e-07 3.76621e-07 -0.000999213)
(-4.85402e-08 1.32978e-07 -0.000998863)
(-1.40278e-07 1.32797e-07 -0.000998894)
(-2.1673e-07 1.32051e-07 -0.000998954)
(-2.70937e-07 1.31039e-07 -0.000999036)
(-2.97931e-07 1.29855e-07 -0.00099913)
(-6.24782e-08 1.12065e-06 -0.000999442)
(-1.80791e-07 1.1202e-06 -0.000999482)
(-2.79446e-07 1.11603e-06 -0.000999557)
(-3.48994e-07 1.11035e-06 -0.000999658)
(-3.83004e-07 1.10373e-06 -0.000999774)
(-6.38976e-08 1.02139e-06 -0.000999092)
(-1.8471e-07 1.02028e-06 -0.000999133)
(-2.85211e-07 1.01518e-06 -0.00099921)
(-3.56031e-07 1.00836e-06 -0.000999315)
(-3.90713e-07 1.00057e-06 -0.000999435)
(-6.54014e-08 8.18282e-07 -0.000998788)
(-1.88902e-07 8.16959e-07 -0.00099883)
(-2.91447e-07 8.12059e-07 -0.00099891)
(-3.63602e-07 8.05482e-07 -0.000999018)
(-3.98961e-07 7.98013e-07 -0.000999143)
(-6.66618e-08 5.29721e-07 -0.000998562)
(-1.92431e-07 5.28653e-07 -0.000998605)
(-2.96723e-07 5.25078e-07 -0.000998688)
(-3.70044e-07 5.20263e-07 -0.0009988)
(-4.05946e-07 5.14749e-07 -0.000998929)
(-6.72887e-08 1.83157e-07 -0.000998442)
(-1.94198e-07 1.82745e-07 -0.000998486)
(-2.99381e-07 1.81425e-07 -0.00099857)
(-3.73313e-07 1.79642e-07 -0.000998684)
(-4.09437e-07 1.77584e-07 -0.000998815)
(-8.54952e-08 1.53054e-06 -0.000999249)
(-2.46976e-07 1.52933e-06 -0.000999304)
(-3.80707e-07 1.52254e-06 -0.000999406)
(-4.73969e-07 1.51336e-06 -0.000999543)
(-5.1869e-07 1.50293e-06 -0.0009997)
(-8.78326e-08 1.40075e-06 -0.000998768)
(-2.53482e-07 1.39827e-06 -0.000998824)
(-3.90334e-07 1.38956e-06 -0.000998931)
(-4.85645e-07 1.37799e-06 -0.000999074)
(-5.31316e-07 1.36487e-06 -0.000999237)
(-9.04378e-08 1.12655e-06 -0.000998345)
(-2.60743e-07 1.12366e-06 -0.000998404)
(-4.01092e-07 1.11507e-06 -0.000998516)
(-4.98659e-07 1.10366e-06 -0.000998666)
(-5.45392e-07 1.09077e-06 -0.000998837)
(-9.26767e-08 7.31462e-07 -0.000998029)
(-2.66995e-07 7.29152e-07 -0.00099809)
(-4.10384e-07 7.22808e-07 -0.000998207)
(-5.09907e-07 7.14383e-07 -0.000998364)
(-5.57437e-07 7.0491e-07 -0.000998542)
(-9.38651e-08 2.53322e-07 -0.00099786)
(-2.70295e-07 2.5243e-07 -0.000997923)
(-4.1525e-07 2.50081e-07 -0.000998042)
(-5.15733e-07 2.46972e-07 -0.000998203)
(-5.63639e-07 2.43496e-07 -0.000998384)
(-1.17036e-07 2.09153e-06 -0.000998993)
(-3.37554e-07 2.08865e-06 -0.000999068)
(-5.18626e-07 2.07737e-06 -0.000999208)
(-6.42951e-07 2.06235e-06 -0.000999393)
(-7.00549e-07 2.04551e-06 -0.000999604)
(-1.21076e-07 1.92541e-06 -0.00099833)
(-3.487e-07 1.92005e-06 -0.000998409)
(-5.34936e-07 1.9049e-06 -0.000998557)
(-6.62523e-07 1.885e-06 -0.000998753)
(-7.21709e-07 1.86274e-06 -0.000998974)
(-1.2574e-07 1.55704e-06 -0.000997739)
(-3.61574e-07 1.55094e-06 -0.000997823)
(-5.53818e-07 1.53566e-06 -0.000997981)
(-6.85111e-07 1.51561e-06 -0.00099819)
(-7.45903e-07 1.4934e-06 -0.000998425)
(-1.29831e-07 1.01525e-06 -0.000997293)
(-3.72854e-07 1.01044e-06 -0.000997381)
(-5.7034e-07 9.99078e-07 -0.000997548)
(-7.0473e-07 9.84198e-07 -0.000997769)
(-7.66694e-07 9.67885e-07 -0.000998016)
(-1.32076e-07 3.52407e-07 -0.000997052)
(-3.7899e-07 3.50572e-07 -0.000997143)
(-5.79251e-07 3.46371e-07 -0.000997315)
(-7.1521e-07 3.40881e-07 -0.000997542)
(-7.77734e-07 3.34895e-07 -0.000997796)
(-1.6045e-07 2.85965e-06 -0.00099866)
(-4.61863e-07 2.85341e-06 -0.000998763)
(-7.06073e-07 2.83437e-06 -0.000998954)
(-8.7003e-07 2.80931e-06 -0.000999204)
(-9.42651e-07 2.78176e-06 -0.000999484)
(-1.67586e-07 2.65484e-06 -0.000997742)
(-4.81287e-07 2.64366e-06 -0.000997853)
(-7.34264e-07 2.61689e-06 -0.000998059)
(-9.03445e-07 2.58189e-06 -0.000998328)
(-9.78531e-07 2.54383e-06 -0.000998627)
(-1.76152e-07 2.16394e-06 -0.000996908)
(-5.04581e-07 2.15131e-06 -0.00099703)
(-7.6804e-07 2.12369e-06 -0.000997254)
(-9.43087e-07 2.0877e-06 -0.000997547)
(-1.02041e-06 2.04924e-06 -0.00099787)
(-1.83835e-07 1.4194e-06 -0.000996269)
(-5.25329e-07 1.40949e-06 -0.0009964)
(-7.9796e-07 1.38884e-06 -0.000996641)
(-9.77817e-07 1.36193e-06 -0.000996956)
(-1.05658e-06 1.33359e-06 -0.0009973)
(-1.8815e-07 4.94249e-07 -0.00099592)
(-5.36863e-07 4.90503e-07 -0.000996057)
(-8.14525e-07 4.82885e-07 -0.000996308)
(-9.96892e-07 4.72927e-07 -0.000996636)
(-1.07622e-06 4.62522e-07 -0.00099699)
(-2.20153e-07 3.91152e-06 -0.000998236)
(-6.32535e-07 3.89844e-06 -0.000998378)
(-9.59892e-07 3.86568e-06 -0.000998641)
(-1.17285e-06 3.82284e-06 -0.000998973)
(-1.26219e-06 3.77844e-06 -0.000999342)
(-2.33112e-07 3.67653e-06 -0.000996962)
(-6.67169e-07 3.6534e-06 -0.000997119)
(-1.00982e-06 3.60527e-06 -0.000997409)
(-1.23042e-06 3.54207e-06 -0.000997777)
(-1.32315e-06 3.47727e-06 -0.000998176)
(-2.49402e-07 3.03085e-06 -0.000995768)
(-7.10271e-07 3.00448e-06 -0.000995947)
(-1.0715e-06 2.95394e-06 -0.000996271)
(-1.30086e-06 2.88754e-06 -0.000996687)
(-1.39621e-06 2.82115e-06 -0.000997126)
(-2.64379e-07 2.00442e-06 -0.000994834)
(-7.49262e-07 1.98368e-06 -0.000995035)
(-1.1269e-06 1.94592e-06 -0.00099539)
(-1.36309e-06 1.89576e-06 -0.00099585)
(-1.45906e-06 1.84713e-06 -0.000996322)
(-2.72979e-07 7.00893e-07 -0.000994319)
(-7.71173e-07 6.93086e-07 -0.000994533)
(-1.15802e-06 6.79279e-07 -0.000994904)
(-1.39777e-06 6.60673e-07 -0.00099539)
(-1.49344e-06 6.42968e-07 -0.000995879)
(-3.01472e-07 5.34955e-06 -0.000997724)
(-8.67311e-07 5.32231e-06 -0.000997913)
(-1.30191e-06 5.26542e-06 -0.000998284)
(-1.57064e-06 5.18954e-06 -0.000998712)
(-1.6787e-06 5.12109e-06 -0.000999187)
(-3.25991e-07 5.12251e-06 -0.00099594)
(-9.30334e-07 5.0738e-06 -0.000996163)
(-1.39253e-06 4.98697e-06 -0.000996578)
(-1.67079e-06 4.86838e-06 -0.000997081)