/*--------------------------------*- C++ -*----------------------------------*\
  =========                 |
  \\      /  F ield         | OpenFOAM: The Open Source CFD Toolbox
   \\    /   O peration     | Website:  https://openfoam.org
    \\  /    A nd           | Version:  9
     \\/     M anipulation  |
\*---------------------------------------------------------------------------*/
FoamFile
{
    format      ascii;
    class       surfaceScalarField;
    location    "4000";
    object      phi;
}
// * * * * * * * * * * * * * * * * * * * * * * * * * * * * * * * * * * * * * //

dimensions      [0 3 -1 0 0 0 0];

internalField   nonuniform List<scalar> 
1436
(
-509.897
-102.47
3.28337e+06
122.158
3.10259e+06
-286.569
3.18485e+06
3.19217e+06
-1485.9
-178.402
3.28504e+06
302.136
3.1008e+06
-1013.56
3.18569e+06
3.19146e+06
-1924.09
-506.74
3.28747e+06
471.992
3.0984e+06
-955.853
3.18614e+06
3.19098e+06
-3201.84
-612.766
3.29129e+06
736.617
3.09446e+06
-1848.27
3.18737e+06
3.18987e+06
-5514.31
-2281.45
3.29908e+06
2779.3
3.08617e+06
-533.326
3.18562e+06
3.19211e+06
-3874.97
375.696
3.30258e+06
588.472
3.0817e+06
-3713.9
3.18971e+06
3.18899e+06
395.262
6084.1
3.2961e+06
-4644.49
3.08674e+06
-10357.9
3.20615e+06
3.17399e+06
-1767.35
3021.29
3.29485e+06
-1414.61
3.08639e+06
-6340
3.21551e+06
3.16623e+06
-3618.59
3366.91
3.2951e+06
-748.755
3.08352e+06
-7526.23
3.2264e+06
3.15796e+06
-3915.03
3621.2
3.2954e+06
-1102.15
3.0807e+06
-8343.81
3.23836e+06
3.14851e+06
-7792.09
2149.79
3.30104e+06
1974.55
3.07093e+06
-7648.37
3.24816e+06
3.14284e+06
-11661.6
91.3974
3.31261e+06
4647.61
3.05462e+06
-5420.17
3.25367e+06
3.14207e+06
-10195.8
753.975
3.32205e+06
3959.15
3.04046e+06
-7017.81
3.26144e+06
3.13901e+06
-10902.3
872.874
3.33208e+06
3300.46
3.02626e+06
-7511.38
3.26982e+06
3.1348e+06
-10005.3
1616.93
3.34047e+06
4461.13
3.01179e+06
-7452.72
3.27889e+06
3.13181e+06
-9375.7
2958.57
3.34689e+06
7008.82
2.9954e+06
-7042.12
3.28889e+06
3.13177e+06
-8006.87
3164.63
3.35173e+06
5902.74
2.98149e+06
-6495.8
3.29855e+06
3.13118e+06
-5156.28
4669.17
3.35222e+06
2457.06
2.97388e+06
-7627.1
3.31084e+06
3.12601e+06
-1997.01
10157.8
3.34406e+06
-2996.05
2.97487e+06
-14769.4
3.33577e+06
3.10824e+06
-1354.37
11047.4
3.33436e+06
-1514.05
2.97503e+06
-14803
3.36162e+06
3.09193e+06
-4135.05
7083.1
3.33141e+06
4002
2.9669e+06
-7422.15
3.37612e+06
3.08851e+06
-4825.62
4386.81
3.33185e+06
6160.57
2.95591e+06
-2261.42
3.38277e+06
3.0924e+06
-6566.55
4568.68
3.33385e+06
4619.66
2.94472e+06
-7276.85
3.39462e+06
3.08975e+06
-6093.3
2965.18
3.33698e+06
6577.14
2.93205e+06
-3112.8
3.40069e+06
3.09321e+06
-4924.03
3715.48
3.33819e+06
10398.5
2.91673e+06
3190.27
3.40122e+06
3.1068e+06
-6500.94
1172.15
3.34352e+06
12629.4
2.89761e+06
5484.18
3.39691e+06
3.12491e+06
-6649.7
-3778.04
3.35394e+06
13191.3
2.87777e+06
4499.14
3.38864e+06
3.1426e+06
-7083.28
-2680.96
3.36371e+06
13431.9
2.85725e+06
9682.24
3.37628e+06
3.16572e+06
-9957.36
-580.623
3.37425e+06
15883.2
2.83142e+06
10664.7
3.36503e+06
3.19227e+06
-10509
-301.105
3.38506e+06
18849.7
2.80206e+06
8225.79
3.35651e+06
3.21934e+06
-13033
-350.92
3.39844e+06
20814.6
2.76822e+06
7119.01
3.34904e+06
3.24727e+06
-14887.6
-6075.54
3.4194e+06
15649.1
2.73768e+06
1360.67
3.34161e+06
3.26428e+06
-19652.2
-9305.37
3.44836e+06
16901.6
2.70113e+06
2159.73
3.33015e+06
3.28334e+06
-18002.9
-7498.94
3.47386e+06
12985.3
2.67014e+06
2735.61
3.31991e+06
3.29906e+06
-20794.7
-8636.46
3.50329e+06
13785.5
2.63557e+06
2521.3
3.30876e+06
3.31537e+06
-20220.5
-6453.58
3.52996e+06
16153.6
2.5992e+06
2528.82
3.29978e+06
3.33405e+06
-16870
-10055.5
3.55689e+06
16813.7
2.56551e+06
1083.75
3.28864e+06
3.35195e+06
-12185.1
-6443.23
3.57552e+06
15816.6
2.53751e+06
-268.322
3.28247e+06
3.3675e+06
-13502.7
298.89
3.58872e+06
14571.9
2.50944e+06
-754.133
3.28352e+06
3.38131e+06
-9134.65
7434.47
3.59042e+06
11506.3
2.4888e+06
-5562.33
3.29652e+06
3.38726e+06
-2531.53
11357.3
3.58159e+06
5488.75
2.48078e+06
-9038.62
3.31691e+06
3.38371e+06
-5766.25
9878.69
3.57748e+06
4841.5
2.47017e+06
-9932.1
3.33672e+06
3.37862e+06
-11228.3
9000.84
3.57971e+06
4632.11
2.45431e+06
-12605
3.35833e+06
3.37064e+06
-10848.1
7129.47
3.58343e+06
-231.242
2.44369e+06
-18556
3.38401e+06
3.35186e+06
-7902.58
11667.7
3.57966e+06
-3782.39
2.43957e+06
-23879.2
3.41956e+06
3.3242e+06
-1014.47
9305.21
3.57137e+06
-7961.97
2.44651e+06
-17890.7
3.44675e+06
3.29834e+06
3396.76
13857.2
3.55412e+06
-11300
2.46121e+06
-22948.2
3.48355e+06
3.26409e+06
10963.2
15853.2
3.5273e+06
-13065
2.48523e+06
-20905.3
3.52031e+06
3.23012e+06
9160.09
19963.1
3.49818e+06
-15881.4
2.51027e+06
-35646.7
3.57592e+06
3.1786e+06
938.288
21191.1
3.47605e+06
-18940
2.53015e+06
-42235.8
3.63934e+06
3.11742e+06
5316.57
22286.3
3.44845e+06
-19549.7
2.55501e+06
-36035
3.69766e+06
3.06184e+06
9728.74
23832.7
3.41489e+06
-17267.6
2.582e+06
-29267.9
3.75076e+06
3.0153e+06
17821
20801.3
3.37627e+06
-14400.5
2.61422e+06
-22208.9
3.79377e+06
2.9787e+06
17122.6
21041.6
3.3381e+06
-12370
2.64371e+06
-17537.2
3.83234e+06
2.94879e+06
16150.6
22131.8
3.29982e+06
-10209.6
2.67007e+06
-14583.8
3.86906e+06
2.924e+06
15354.1
18730.8
3.26574e+06
-7729.13
2.69315e+06
-10627.8
3.89842e+06
2.90564e+06
13698.7
13023
3.23902e+06
-7606.16
2.71446e+06
2491
3.90895e+06
2.90053e+06
17743.5
10623.1
3.21065e+06
-7242.47
2.73944e+06
3463.54
3.91611e+06
2.89675e+06
13209
9905.38
3.18754e+06
-5267.67
2.75792e+06
2527.62
3.92349e+06
2.89401e+06
9503.64
10236.8
3.1678e+06
-3830.49
2.77126e+06
142.991
3.93358e+06
2.89032e+06
8510.16
14645
3.14464e+06
-3266.82
2.78303e+06
-4888.13
3.95311e+06
2.88217e+06
5370.45
4692.41
3.13458e+06
-2595.86
2.791e+06
3159.29
3.95465e+06
2.88273e+06
1779.02
606.27
3.1322e+06
-1732.21
2.79451e+06
541.901
3.95471e+06
2.88154e+06
2666.65
10962.9
3.11857e+06
-865.531
2.79805e+06
-2842.2
3.96852e+06
2.87783e+06
2395.02
20063.9
3.09611e+06
-542.266
2.80099e+06
-13875.6
4.00246e+06
2.86342e+06
-2505.6
5685.6
3.09293e+06
1364.15
2.79712e+06
-13875.2
4.02203e+06
2.85091e+06
-5927.38
-9088.06
3.10794e+06
2980.55
2.78821e+06
-11936.7
4.02488e+06
2.84195e+06
-3814.27
-10324.1
3.12208e+06
1375.92
2.78303e+06
-7847.77
4.0224e+06
2.83548e+06
-4223.86
-13287.4
3.13959e+06
1175.79
2.77763e+06
4844.64
4.00427e+06
2.84149e+06
-1201.16
-285.369
3.14108e+06
3862.09
2.77257e+06
14435.5
3.98955e+06
2.85979e+06
5127.1
139.68
3.13581e+06
4488.49
2.77321e+06
23061.2
3.96663e+06
2.88734e+06
-5323.14
-411.798
3.14154e+06
6729.87
2.76115e+06
6835.11
3.95938e+06
2.9009e+06
-7807.24
-3381.23
3.15273e+06
10699.1
2.74265e+06
3907.31
3.9521e+06
2.91551e+06
15640.3
-5380.82
3.14247e+06
3173.98
2.75511e+06
6999.86
3.93972e+06
2.92568e+06
21266
-4578.78
3.12578e+06
-7915.25
2.7843e+06
9193.82
3.92594e+06
2.92696e+06
11807
-2484.37
3.11646e+06
-4914.09
2.80102e+06
9861.59
3.9136e+06
2.93191e+06
25578.2
-6230.79
3.09711e+06
-8618.44
2.83521e+06
11082.9
3.89628e+06
2.93437e+06
31624.2
-7874.13
3.07336e+06
-11285.9
2.87812e+06
16311
3.87209e+06
2.9394e+06
30049.5
-10985.6
3.05429e+06
-10558.8
2.91873e+06
17255.3
3.84385e+06
2.94609e+06
29981.8
-11969.5
3.03628e+06
-13094.7
2.9618e+06
22080.3
3.8098e+06
2.95508e+06
32680.9
-10723.4
3.01432e+06
-14450.4
3.00893e+06
30263.2
3.76881e+06
2.97089e+06
38799.2
-14539
2.99006e+06
-13972.1
3.0617e+06
31968.9
3.7223e+06
2.98889e+06
43868.7
-15799.9
2.96199e+06
-13434.5
3.119e+06
31715.5
3.67479e+06
3.00717e+06
43882.7
-14341.5
2.93245e+06
-13989.8
3.17687e+06
36387.1
3.62406e+06
3.02956e+06
47427.6
-16848.9
2.90187e+06
-3075.92
3.22738e+06
36878.9
3.57033e+06
3.06337e+06
48712.8
-13047.4
2.86621e+06
2902.52
3.27318e+06
45593.7
3.51169e+06
3.11186e+06
56496.8
-13227
2.82294e+06
11381.7
3.3183e+06
47204.7
3.45125e+06
3.17045e+06
61485.8
-14274
2.77573e+06
13590.9
3.3662e+06
53326
3.38366e+06
3.23737e+06
69781.1
-10692.9
2.71664e+06
18460.4
3.41752e+06
57434
3.31553e+06
3.31326e+06
74582
-6320.18
2.64838e+06
27475.8
3.46463e+06
75362.7
3.23385e+06
3.4161e+06
70153.9
4702.05
2.57352e+06
38510.3
3.49627e+06
72971.6
3.16558e+06
3.52758e+06
86149.6
17518.2
2.46986e+06
43453.4
3.53897e+06
89917.7
3.09318e+06
3.66095e+06
96090
16991.8
2.35677e+06
44341.7
3.59072e+06
102770
3.00741e+06
3.80807e+06
127057
39925.8
2.18979e+06
43580.2
3.6742e+06
96389.3
2.95095e+06
3.94804e+06
175511
57269.7
1.95701e+06
52477.5
3.79724e+06
136185
2.87204e+06
4.1367e+06
210250
62119.7
1.68465e+06
54667.9
3.95282e+06
126933
2.80723e+06
4.3183e+06
247269
86418
1.35096e+06
66731.9
4.13336e+06
151849
2.7418e+06
4.53688e+06
332878
126021
892063
74167.3
4.39207e+06
184654
2.68317e+06
4.7957e+06
434083
175309
282675
84043.6
4.74211e+06
205003
2.65348e+06
5.08475e+06
369947
246304
-333572
98166.8
5.01389e+06
202818
2.69696e+06
5.38574e+06
219286
243365
-796221
105551
5.12763e+06
222695
2.71763e+06
5.71398e+06
136682
265369
-1.19827e+06
141226
5.12308e+06
218572
2.76443e+06
6.07378e+06
95542.1
284604
-1.57841e+06
148687
5.06993e+06
225351
2.82367e+06
6.44782e+06
49527.4
328410
-1.95635e+06
165619
4.95383e+06
219258
2.93282e+06
6.8327e+06
6759.51
321461
-2.28457e+06
204488
4.7561e+06
180012
3.07426e+06
7.2172e+06
-73767.4
351291
-2.5621e+06
297940
4.38439e+06
175156
3.25039e+06
7.69029e+06
-71170.3
384083
-2.87501e+06
376913
3.9363e+06
160237
3.47423e+06
8.22744e+06
-176937
418052
-3.11613e+06
458288
3.30107e+06
151566
3.74072e+06
8.83729e+06
-235390
463783
-3.34452e+06
509646
2.55602e+06
118837
4.08566e+06
9.46578e+06
-601627
518840
-3.26174e+06
727337
1.22705e+06
82372.9
4.52212e+06
1.02755e+07
-1.13841e+06
565509
-2.68885e+06
613516
-524868
30851.8
5.05678e+06
1.09198e+07
-1.3132e+06
633145
-2.0088e+06
628712
-2.46677e+06
-56810.2
5.74674e+06
1.14917e+07
-1.63376e+06
697768
-1.07281e+06
686567
-4.78709e+06
-227781
6.67229e+06
1.19505e+07
-1.90206e+06
755753
73493.4
751678
-7.44082e+06
-400780
7.82883e+06
1.23014e+07
-2.1066e+06
768389
1.41171e+06
815846
-1.03633e+07
-568291
9.16552e+06
1.2549e+07
-2.2237e+06
725380
2.91003e+06
876239
-1.34632e+07
-649411
1.05403e+07
1.27758e+07
-2.38385e+06
756531
4.53735e+06
913711
-1.67608e+07
-766092
1.20629e+07
1.29234e+07
-2.44141e+06
727017
6.25175e+06
1.06066e+06
-2.02628e+07
-930237
1.37202e+07
1.30539e+07
-2.60615e+06
777635
8.08027e+06
1.23806e+06
-2.4107e+07
-1.11691e+06
1.56147e+07
1.3175e+07
-2.70351e+06
754362
1.00294e+07
1.32772e+06
-2.81383e+07
-1.27347e+06
1.76426e+07
1.32293e+07
-2.82821e+06
810321
1.20473e+07
1.53704e+06
-3.25035e+07
-1.39208e+06
1.9845e+07
1.33742e+07
-2.94137e+06
799061
1.41896e+07
1.75713e+06
-3.7202e+07
-1.61051e+06
2.22545e+07
1.35208e+07
-3.05101e+06
947556
1.62931e+07
1.96675e+06
-4.22198e+07
-1.85926e+06
2.50614e+07
1.36283e+07
-2.9961e+06
993542
1.82956e+07
2.17316e+06
-4.7389e+07
-2.00588e+06
2.80608e+07
1.37956e+07
-2.84732e+06
1.02226e+06
2.01207e+07
2.33217e+06
-5.25685e+07
-2.26786e+06
3.13509e+07
1.38599e+07
-2.52448e+06
1.02315e+06
2.1622e+07
2.34789e+06
-5.74409e+07
-2.25623e+06
3.46303e+07
1.39516e+07
-2.12541e+06
1.00888e+06
2.27386e+07
2.46335e+06
-6.20297e+07
-2.41981e+06
3.8059e+07
1.39951e+07
-1.58199e+06
1.01901e+06
2.33015e+07
2.326e+06
-6.59377e+07
-2.22986e+06
4.13078e+07
1.40913e+07
-923828
1.03673e+06
2.31886e+07
2.0615e+06
-6.8923e+07
-2.14382e+06
4.44884e+07
1.40089e+07
-287903
1.04294e+06
2.24336e+07
1.68191e+06
-7.08928e+07
-1.88184e+06
4.74132e+07
1.3809e+07
307571
1.08515e+06
2.10409e+07
1.04095e+06
-7.16262e+07
-1.69493e+06
5.01933e+07
1.3155e+07
437947
1.32332e+06
1.92796e+07
125054
-7.13133e+07
-1.39348e+06
5.29101e+07
1.18866e+07
638438
1.23277e+06
1.74084e+07
-740621
-6.99342e+07
-1.04373e+06
5.51866e+07
1.01022e+07
474677
1.66499e+06
1.52687e+07
-1.30818e+06
-6.81514e+07
-885274
5.77368e+07
7.90878e+06
446297
2.02226e+06
1.28002e+07
-1.69219e+06
-6.60129e+07
-633007
6.03921e+07
5.58358e+06
677136
2.43551e+06
9.68751e+06
-1.98219e+06
-6.33536e+07
-739655
6.35673e+07
2.86173e+06
1.06251e+06
2.97747e+06
5.64754e+06
-2.87712e+06
-5.94139e+07
-1.15068e+06
6.76954e+07
-1.16605e+06
2.02461e+06
2.60386e+06
1.01908e+06
-2.25571e+06
-5.51336e+07
-998481
7.12978e+07
-4.42023e+06
2.13057e+06
1.43507e+06
-2.54656e+06
-1.34429e+06
-5.16588e+07
-577266
7.33101e+07
-6.34178e+06
1.85582e+06
1.38695e+06
-5.78934e+06
-1.18889e+06
-4.8614e+07
-171348
7.48684e+07
-7.70205e+06
1.72313e+06
828046
-8.34051e+06
-1.26661e+06
-4.56243e+07
1.27647e+06
7.442e+07
-7.69219e+06
1.75553e+06
-524224
-9.57182e+06
-2.33194e+06
-4.15368e+07
2.21861e+06
7.16771e+07
-7.80552e+06
1.64425e+06
-1.63566e+06
-9.58041e+06
-2.61931e+06
-3.72733e+07
2.43072e+06
6.76107e+07
-7.9941e+06
1.60113e+06
-2.82422e+06
-8.35731e+06
-2.93264e+06
-3.27395e+07
2.42823e+06
6.23583e+07
-8.49851e+06
1.52138e+06
-3.3726e+06
-6.50609e+06
-2.44317e+06
-2.87749e+07
2.14237e+06
5.68433e+07
-8.7993e+06
1.4469e+06
-3.62359e+06
-4.32941e+06
-2.01205e+06
-2.5316e+07
1.98002e+06
5.12397e+07
-8.83133e+06
1.47883e+06
-3.60771e+06
-2.20054e+06
-1.66563e+06
-2.21715e+07
1.76766e+06
4.58644e+07
-8.72931e+06
1.36034e+06
-3.32337e+06
-237517
-1.45891e+06
-1.93523e+07
1.58279e+06
4.09582e+07
-8.60544e+06
1.25885e+06
-2.98983e+06
1.49346e+06
-1.16121e+06
-1.69322e+07
1.38312e+06
3.65852e+07
-8.38353e+06
1.1526e+06
-2.58923e+06
2.93009e+06
-941242
-1.48384e+07
1.23724e+06
3.27588e+07
-8.08754e+06
1.08048e+06
-2.20741e+06
4.05702e+06
-748659
-1.30092e+07
1.09686e+06
2.94545e+07
-7.73934e+06
1.02591e+06
-1.86708e+06
4.89819e+06
-655245
-1.13281e+07
1.01441e+06
2.6573e+07
-7.38018e+06
946932
-1.58007e+06
5.53134e+06
-544480
-9.83668e+06
934926
2.4058e+07
-6.98973e+06
915052
-1.34349e+06
5.95978e+06
-434465
-8.48716e+06
879076
2.18355e+07
-6.54511e+06
829252
-1.14942e+06
6.27995e+06
-402370
-7.25554e+06
821556
1.98645e+07
-6.12592e+06
813092
-991434
6.45829e+06
-303887
-6.13856e+06
770225
1.81028e+07
-5.65958e+06
737084
-859003
6.58021e+06
-287507
-5.11397e+06
718297
1.65255e+07
-5.22879e+06
718344
-748645
6.61052e+06
-221918
-4.1737e+06
668424
1.51085e+07
-4.78228e+06
667137
-657614
6.60099e+06
-195024
-3.31154e+06
619590
1.38313e+07
-4.35771e+06
638178
-581892
6.54471e+06
-154498
-2.51887e+06
572531
1.26768e+07
-3.93968e+06
600383
-517450
6.46177e+06
-123581
-1.79491e+06
527320
1.16321e+07
-3.53594e+06
568940
-461460
6.35429e+06
-92337.7
-1.13363e+06
484153
1.06864e+07
-3.14413e+06
536696
-412011
6.22961e+06
-61828.6
-535109
443087
9.83134e+06
-2.76287e+06
508558
-367887
6.08893e+06
-29053.5
2499.5
404039
9.05942e+06
-2.38789e+06
481918
-328278
5.93529e+06
13486.7
470928
366873
8.36426e+06
-2.00753e+06
453500
-292524
5.77431e+06
63083.1
861340
331378
7.74036e+06
-1.61307e+06
411579
-260254
5.62299e+06
62736.6
1.21018e+06
297248
7.18286e+06
-1.25309e+06
373970
-231043
5.48006e+06
57805.2
1.52634e+06
263698
6.68812e+06
-931579
344472
-204902
5.3405e+06
71263.3
1.79955e+06
230306
6.25291e+06
-630003
319054
-181091
5.20254e+06
113735
2.00488e+06
192536
5.87929e+06
-323721
287930
-160052
5.07466e+06
130458
2.16235e+06
160958
5.55828e+06
-32289.9
249842
-140241
4.96506e+06
101696
2.3105e+06
150215
5.26783e+06
219630
218215
-123962
4.87081e+06
73634.7
2.45508e+06
141473
5.00239e+06
434743
190152
-107855
4.78851e+06
65948.2
2.57929e+06
121624
4.77292e+06
622318
167642
-92986.5
4.71386e+06
46723.1
2.70021e+06
109550
4.57038e+06
778590
140762
-84642.7
4.65773e+06
73713
2.76726e+06
71205.2
4.41453e+06
923503
120552
-61341
4.59852e+06
64788.5
2.82302e+06
59468.8
4.29372e+06
1.04776e+06
105964
-55117.8
4.54767e+06
67979.8
2.861e+06
30164.6
4.20844e+06
1.14589e+06
62943.4
-51154.1
4.53588e+06
69585.5
2.85436e+06
7400.46
4.14989e+06
1.22287e+06
28267.9
-31847.1
93119.2
-25127.8
)
;

boundaryField
{
    inlet
    {
        type            calculated;
        value           nonuniform List<scalar> 4(4.53945e+06 4.14317e+06 2.78951e+06 1.29085e+06);
    }
    outlet
    {
        type            calculated;
        value           nonuniform List<scalar> 4(-3.28276e+06 -3.18467e+06 -3.10322e+06 -3.19233e+06);
    }
    repeat_boundary
    {
        type            calculated;
        value           uniform 0;
    }
}


// ************************************************************************* //
