/*--------------------------------*- C++ -*----------------------------------*\
| =========                 |                                                 |
| \\      /  F ield         | OpenFOAM: The Open Source CFD Toolbox           |
|  \\    /   O peration     | Version:  5.x                                   |
|   \\  /    A nd           | Web:      www.OpenFOAM.org                      |
|    \\/     M anipulation  |                                                 |
\*---------------------------------------------------------------------------*/
FoamFile
{
    version     2.0;
    format      ascii;
    class       volVectorField;
    location    "7000";
    object      stored_U;
}
// * * * * * * * * * * * * * * * * * * * * * * * * * * * * * * * * * * * * * //

dimensions      [0 1 -1 0 0 0 0];

internalField   nonuniform List<vector> 
180
(
(-2.154e-11 1.59907e-08 -0.0010001)
(-6.07093e-11 2.01699e-08 -0.0010001)
(-7.28478e-11 2.72541e-08 -0.00100011)
(-5.87782e-11 3.61444e-08 -0.00100011)
(-2.95242e-11 4.61489e-08 -0.00100011)
(1.36691e-11 5.69468e-08 -0.00100012)
(7.63593e-11 6.84561e-08 -0.00100012)
(1.65963e-10 8.07197e-08 -0.00100013)
(2.90515e-10 9.38389e-08 -0.00100014)
(4.58544e-10 1.07943e-07 -0.00100015)
(6.79432e-10 1.23179e-07 -0.00100016)
(9.6387e-10 1.39706e-07 -0.00100017)
(1.32407e-09 1.577e-07 -0.00100019)
(1.77291e-09 1.77351e-07 -0.0010002)
(2.32639e-09 1.98868e-07 -0.00100022)
(3.00364e-09 2.2248e-07 -0.00100024)
(3.82725e-09 2.4844e-07 -0.00100027)
(4.82374e-09 2.77025e-07 -0.00100029)
(6.02417e-09 3.08543e-07 -0.00100032)
(7.4649e-09 3.43334e-07 -0.00100036)
(9.18842e-09 3.81775e-07 -0.0010004)
(1.12444e-08 4.24281e-07 -0.00100044)
(1.36906e-08 4.71316e-07 -0.00100048)
(1.65948e-08 5.23393e-07 -0.00100054)
(2.00358e-08 5.81082e-07 -0.00100059)
(2.41053e-08 6.45017e-07 -0.00100066)
(2.89103e-08 7.15904e-07 -0.00100073)
(3.45754e-08 7.94526e-07 -0.00100081)
(4.12455e-08 8.81756e-07 -0.0010009)
(4.90891e-08 9.78568e-07 -0.001001)
(5.83024e-08 1.08605e-06 -0.00100111)
(6.91132e-08 1.2054e-06 -0.00100123)
(8.17863e-08 1.33796e-06 -0.00100137)
(9.66294e-08 1.48526e-06 -0.00100152)
(1.14e-07 1.64895e-06 -0.00100169)
(1.34312e-07 1.83091e-06 -0.00100188)
(1.58047e-07 2.03323e-06 -0.00100209)
(1.85764e-07 2.25825e-06 -0.00100232)
(2.1811e-07 2.50857e-06 -0.00100258)
(2.55836e-07 2.78713e-06 -0.00100288)
(2.99813e-07 3.09717e-06 -0.0010032)
(3.5105e-07 3.44237e-06 -0.00100357)
(4.10715e-07 3.82679e-06 -0.00100397)
(4.80165e-07 4.25504e-06 -0.00100443)
(5.60967e-07 4.73224e-06 -0.00100493)
(6.5494e-07 5.26414e-06 -0.0010055)
(7.64187e-07 5.8572e-06 -0.00100613)
(8.91146e-07 6.51865e-06 -0.00100684)
(1.03864e-06 7.25662e-06 -0.00100764)
(1.20992e-06 8.08022e-06 -0.00100852)
(1.40879e-06 8.99972e-06 -0.00100952)
(1.6396e-06 1.00266e-05 -0.00101063)
(1.90742e-06 1.11739e-05 -0.00101188)
(2.21811e-06 1.24561e-05 -0.00101329)
(2.57843e-06 1.38896e-05 -0.00101486)
(2.99624e-06 1.54929e-05 -0.00101662)
(3.4806e-06 1.72868e-05 -0.0010186)
(4.04201e-06 1.92947e-05 -0.00102083)
(4.6926e-06 2.15432e-05 -0.00102333)
(5.44641e-06 2.40621e-05 -0.00102614)
(6.31971e-06 2.68851e-05 -0.00102931)
(7.33127e-06 3.00502e-05 -0.00103287)
(8.50284e-06 3.36006e-05 -0.00103688)
(9.85956e-06 3.7585e-05 -0.0010414)
(1.14305e-05 4.20584e-05 -0.00104649)
(1.32492e-05 4.70834e-05 -0.00105224)
(1.53546e-05 5.27305e-05 -0.00105872)
(1.77916e-05 5.908e-05 -0.00106604)
(2.0612e-05 6.62225e-05 -0.00107431)
(2.38754e-05 7.42597e-05 -0.00108365)
(2.76493e-05 8.33022e-05 -0.00109423)
(3.20069e-05 9.3459e-05 -0.00110619)
(3.70159e-05 0.000104796 -0.00111965)
(4.26994e-05 0.000117221 -0.00113467)
(4.89295e-05 0.000130196 -0.00115182)
(5.5201e-05 0.000142195 -0.0011734)
(6.0272e-05 0.000149931 -0.00120103)
(6.18271e-05 0.000147836 -0.00121493)
(5.64051e-05 0.000127744 -0.00116407)
(3.98981e-05 8.21132e-05 -0.000912039)
(3.94915e-06 -1.70191e-06 -0.0035152)
(5.72466e-06 -3.8788e-06 -0.0001482)
(-0.000363471 0.000102858 -0.00409706)
(-2.77677e-05 -8.95472e-06 -0.000460493)
(-0.000433718 -0.000208513 -0.00406645)
(-1.43606e-05 -1.7626e-05 -0.000275572)
(-0.000727343 -0.000434583 -0.00429647)
(-0.000358902 -0.00023048 -0.00433678)
(-1.48884e-05 3.8888e-05 -0.000986397)
(0.000194065 0.000373554 -0.00486642)
(0.000205984 0.000110918 -0.00135813)
(0.000778171 -0.000365921 -0.00382763)
(2.19744e-05 1.63583e-05 -0.000146132)
(0.000458878 -0.000224943 -0.00472573)
(9.02343e-05 -0.000193969 -0.00275876)
(4.87423e-05 -9.97876e-05 -0.00245331)
(0.000243725 -8.70043e-05 -0.00369347)
(0.000192796 -8.91287e-05 -0.00266083)
(9.65217e-06 4.92353e-06 -0.00243975)
(-0.000231737 -7.10073e-05 -0.00389565)
(-0.000102645 -8.02949e-05 -0.00180378)
(-9.0101e-05 -0.000108297 -0.00345446)
(-0.000116978 -0.000148788 -0.00275431)
(-1.36292e-05 -2.35545e-05 -0.00112856)
(5.93493e-06 -7.66758e-06 -0.00183691)
(-3.55254e-05 -4.30671e-05 -0.00105423)
(-5.73878e-05 -6.23082e-05 -0.00106873)
(-6.19103e-05 -6.60871e-05 -0.00108838)
(-5.82763e-05 -6.22786e-05 -0.00108228)
(-5.17547e-05 -5.56733e-05 -0.00106826)
(-4.47532e-05 -4.84995e-05 -0.0010564)
(-3.82192e-05 -4.16972e-05 -0.00104714)
(-3.24465e-05 -3.56111e-05 -0.00103944)
(-2.74572e-05 -3.03071e-05 -0.00103287)
(-2.31797e-05 -2.57359e-05 -0.00102727)
(-1.95234e-05 -2.1814e-05 -0.00102252)
(-1.64028e-05 -1.84559e-05 -0.00101852)
(-1.37429e-05 -1.55843e-05 -0.00101514)
(-1.14783e-05 -1.31314e-05 -0.00101229)
(-9.5529e-06 -1.10383e-05 -0.0010099)
(-7.91828e-06 -9.25433e-06 -0.0010079)
(-6.53271e-06 -7.73563e-06 -0.00100623)
(-5.36038e-06 -6.44451e-06 -0.00100484)
(-4.37055e-06 -5.34851e-06 -0.00100368)
(-3.53691e-06 -4.41973e-06 -0.00100272)
(-2.83707e-06 -3.63427e-06 -0.00100193)
(-2.25211e-06 -2.97172e-06 -0.00100127)
(-1.76549e-06 -2.41441e-06 -0.00100074)
(-1.36217e-06 -1.94672e-06 -0.00100031)
(-1.02927e-06 -1.55526e-06 -0.000999966)
(-7.55863e-07 -1.22858e-06 -0.000999699)
(-5.32613e-07 -9.56905e-07 -0.000999493)
(-3.51603e-07 -7.31883e-07 -0.000999337)
(-2.06135e-07 -5.46408e-07 -0.000999222)
(-9.05089e-08 -3.94427e-07 -0.000999142)
(4.62756e-10 -2.70592e-07 -0.000999092)
(7.12593e-08 -1.70264e-07 -0.000999067)
(1.25472e-07 -8.9686e-08 -0.000999059)
(1.66081e-07 -2.56708e-08 -0.000999067)
(1.95709e-07 2.47443e-08 -0.000999087)
(2.16448e-07 6.39749e-08 -0.000999115)
(2.29986e-07 9.39789e-08 -0.000999149)
(2.37698e-07 1.1633e-07 -0.000999186)
(2.40745e-07 1.32383e-07 -0.000999225)
(2.4009e-07 1.4329e-07 -0.000999266)
(2.36542e-07 1.50021e-07 -0.000999307)
(2.3077e-07 1.53395e-07 -0.000999348)
(2.23326e-07 1.54096e-07 -0.000999389)
(2.14666e-07 1.52693e-07 -0.000999428)
(2.0516e-07 1.4966e-07 -0.000999466)
(1.95114e-07 1.4539e-07 -0.000999503)
(1.84772e-07 1.40206e-07 -0.000999538)
(1.74331e-07 1.34374e-07 -0.000999572)
(1.63948e-07 1.2811e-07 -0.000999604)
(1.53745e-07 1.2159e-07 -0.000999634)
(1.43817e-07 1.14955e-07 -0.000999662)
(1.34235e-07 1.08319e-07 -0.000999689)
(1.25051e-07 1.0177e-07 -0.000999714)
(1.16301e-07 9.53777e-08 -0.000999737)
(1.08009e-07 8.91935e-08 -0.000999759)
(1.00188e-07 8.32566e-08 -0.000999779)
(9.28426e-08 7.75947e-08 -0.000999798)
(8.5971e-08 7.22266e-08 -0.000999816)
(7.95665e-08 6.71637e-08 -0.000999832)
(7.36185e-08 6.24118e-08 -0.000999847)
(6.81139e-08 5.79719e-08 -0.000999861)
(6.30375e-08 5.38419e-08 -0.000999874)
(5.8373e-08 5.00167e-08 -0.000999886)
(5.41035e-08 4.64896e-08 -0.000999898)
(5.02121e-08 4.32523e-08 -0.000999908)
(4.66818e-08 4.02959e-08 -0.000999918)
(4.34963e-08 3.76106e-08 -0.000999927)
(4.06399e-08 3.51868e-08 -0.000999935)
(3.80975e-08 3.30144e-08 -0.000999943)
(3.58553e-08 3.10838e-08 -0.00099995)
(3.39014e-08 2.93869e-08 -0.000999957)
(3.22299e-08 2.7922e-08 -0.000999963)
(3.08427e-08 2.66962e-08 -0.000999969)
(2.98238e-08 2.57976e-08 -0.000999976)
(2.91587e-08 2.52028e-08 -0.000999981)
)
;

boundaryField
{
    inlet
    {
        type            calculated;
        value           uniform (2.91587e-08 2.52028e-08 -0.000999981);
    }
    outlet
    {
        type            calculated;
        value           uniform (-2.154e-11 1.59907e-08 -0.0010001);
    }
    repeat_boundary
    {
        type            calculated;
        value           nonuniform List<vector> 
360
(
(-2.154e-11 0 -0.0010001)
(-6.07093e-11 0 -0.0010001)
(-7.28478e-11 0 -0.00100011)
(-5.87782e-11 0 -0.00100011)
(-2.95242e-11 0 -0.00100011)
(1.36691e-11 0 -0.00100012)
(7.63593e-11 0 -0.00100012)
(1.65963e-10 0 -0.00100013)
(2.90515e-10 0 -0.00100014)
(4.58544e-10 0 -0.00100015)
(6.79432e-10 0 -0.00100016)
(9.6387e-10 0 -0.00100017)
(1.32407e-09 0 -0.00100019)
(1.77291e-09 0 -0.0010002)
(2.32639e-09 0 -0.00100022)
(3.00364e-09 0 -0.00100024)
(3.82725e-09 0 -0.00100027)
(4.82374e-09 0 -0.00100029)
(6.02417e-09 0 -0.00100032)
(7.4649e-09 0 -0.00100036)
(9.18842e-09 0 -0.0010004)
(1.12444e-08 0 -0.00100044)
(1.36906e-08 0 -0.00100048)
(1.65948e-08 0 -0.00100054)
(2.00358e-08 0 -0.00100059)
(2.41053e-08 0 -0.00100066)
(2.89103e-08 0 -0.00100073)
(3.45754e-08 0 -0.00100081)
(4.12455e-08 0 -0.0010009)
(4.90891e-08 0 -0.001001)
(5.83024e-08 0 -0.00100111)
(6.91132e-08 0 -0.00100123)
(8.17863e-08 0 -0.00100137)
(9.66294e-08 0 -0.00100152)
(1.14e-07 0 -0.00100169)
(1.34312e-07 0 -0.00100188)
(1.58047e-07 0 -0.00100209)
(1.85764e-07 0 -0.00100232)
(2.1811e-07 0 -0.00100258)
(2.55836e-07 0 -0.00100288)
(2.99813e-07 0 -0.0010032)
(3.5105e-07 0 -0.00100357)
(4.10715e-07 0 -0.00100397)
(4.80165e-07 0 -0.00100443)
(5.60967e-07 0 -0.00100493)
(6.5494e-07 0 -0.0010055)
(7.64187e-07 0 -0.00100613)
(8.91146e-07 0 -0.00100684)
(1.03864e-06 0 -0.00100764)
(1.20992e-06 0 -0.00100852)
(1.40879e-06 0 -0.00100952)
(1.6396e-06 0 -0.00101063)
(1.90742e-06 0 -0.00101188)
(2.21811e-06 0 -0.00101329)
(2.57843e-06 0 -0.00101486)
(2.99624e-06 0 -0.00101662)
(3.4806e-06 0 -0.0010186)
(4.04201e-06 0 -0.00102083)
(4.6926e-06 0 -0.00102333)
(5.44641e-06 0 -0.00102614)
(6.31971e-06 0 -0.00102931)
(7.33127e-06 0 -0.00103287)
(8.50284e-06 0 -0.00103688)
(9.85956e-06 0 -0.0010414)
(1.14305e-05 0 -0.00104649)
(1.32492e-05 0 -0.00105224)
(1.53546e-05 0 -0.00105872)
(1.77916e-05 0 -0.00106604)
(2.0612e-05 0 -0.00107431)
(2.38754e-05 0 -0.00108365)
(2.76493e-05 0 -0.00109423)
(3.20069e-05 0 -0.00110619)
(3.70159e-05 0 -0.00111965)
(4.26994e-05 0 -0.00113467)
(4.89295e-05 0 -0.00115182)
(5.5201e-05 0 -0.0011734)
(6.0272e-05 0 -0.00120103)
(6.18271e-05 0 -0.00121493)
(5.64051e-05 0 -0.00116407)
(3.98981e-05 0 -0.000912039)
(3.94915e-06 0 -0.0035152)
(5.72466e-06 0 -0.0001482)
(-0.000363471 0 -0.00409706)
(-2.77677e-05 0 -0.000460493)
(-0.000433718 0 -0.00406645)
(-1.43606e-05 0 -0.000275572)
(-0.000727343 0 -0.00429647)
(-0.000358902 0 -0.00433678)
(-1.48884e-05 0 -0.000986397)
(0.000194065 0 -0.00486642)
(0.000205984 0 -0.00135813)
(0.000778171 0 -0.00382763)
(2.19744e-05 0 -0.000146132)
(0.000458878 0 -0.00472573)
(9.02343e-05 0 -0.00275876)
(4.87423e-05 0 -0.00245331)
(0.000243725 0 -0.00369347)
(0.000192796 0 -0.00266083)
(9.65217e-06 0 -0.00243975)
(-0.000231737 0 -0.00389565)
(-0.000102645 0 -0.00180378)
(-9.0101e-05 0 -0.00345446)
(-0.000116978 0 -0.00275431)
(-1.36292e-05 0 -0.00112856)
(5.93493e-06 0 -0.00183691)
(-3.55254e-05 0 -0.00105423)
(-5.73878e-05 0 -0.00106873)
(-6.19103e-05 0 -0.00108838)
(-5.82763e-05 0 -0.00108228)
(-5.17547e-05 0 -0.00106826)
(-4.47532e-05 0 -0.0010564)
(-3.82192e-05 0 -0.00104714)
(-3.24465e-05 0 -0.00103944)
(-2.74572e-05 0 -0.00103287)
(-2.31797e-05 0 -0.00102727)
(-1.95234e-05 0 -0.00102252)
(-1.64028e-05 0 -0.00101852)
(-1.37429e-05 0 -0.00101514)
(-1.14783e-05 0 -0.00101229)
(-9.5529e-06 0 -0.0010099)
(-7.91828e-06 0 -0.0010079)
(-6.53271e-06 0 -0.00100623)
(-5.36038e-06 0 -0.00100484)
(-4.37055e-06 0 -0.00100368)
(-3.53691e-06 0 -0.00100272)
(-2.83707e-06 0 -0.00100193)
(-2.25211e-06 0 -0.00100127)
(-1.76549e-06 0 -0.00100074)
(-1.36217e-06 0 -0.00100031)
(-1.02927e-06 0 -0.000999966)
(-7.55863e-07 0 -0.000999699)
(-5.32613e-07 0 -0.000999493)
(-3.51603e-07 0 -0.000999337)
(-2.06135e-07 0 -0.000999222)
(-9.05089e-08 0 -0.000999142)
(4.62756e-10 0 -0.000999092)
(7.12593e-08 0 -0.000999067)
(1.25472e-07 0 -0.000999059)
(1.66081e-07 0 -0.000999067)
(1.95709e-07 0 -0.000999087)
(2.16448e-07 0 -0.000999115)
(2.29986e-07 0 -0.000999149)
(2.37698e-07 0 -0.000999186)
(2.40745e-07 0 -0.000999225)
(2.4009e-07 0 -0.000999266)
(2.36542e-07 0 -0.000999307)
(2.3077e-07 0 -0.000999348)
(2.23326e-07 0 -0.000999389)
(2.14666e-07 0 -0.000999428)
(2.0516e-07 0 -0.000999466)
(1.95114e-07 0 -0.000999503)
(1.84772e-07 0 -0.000999538)
(1.74331e-07 0 -0.000999572)
(1.63948e-07 0 -0.000999604)
(1.53745e-07 0 -0.000999634)
(1.43817e-07 0 -0.000999662)
(1.34235e-07 0 -0.000999689)
(1.25051e-07 0 -0.000999714)
(1.16301e-07 0 -0.000999737)
(1.08009e-07 0 -0.000999759)
(1.00188e-07 0 -0.000999779)
(9.28426e-08 0 -0.000999798)
(8.5971e-08 0 -0.000999816)
(7.95665e-08 0 -0.000999832)
(7.36185e-08 0 -0.000999847)
(6.81139e-08 0 -0.000999861)
(6.30375e-08 0 -0.000999874)
(5.8373e-08 0 -0.000999886)
(5.41035e-08 0 -0.000999898)
(5.02121e-08 0 -0.000999908)
(4.66818e-08 0 -0.000999918)
(4.34963e-08 0 -0.000999927)
(4.06399e-08 0 -0.000999935)
(3.80975e-08 0 -0.000999943)
(3.58553e-08 0 -0.00099995)
(3.39014e-08 0 -0.000999957)
(3.22299e-08 0 -0.000999963)
(3.08427e-08 0 -0.000999969)
(2.98238e-08 0 -0.000999976)
(2.91587e-08 0 -0.000999981)
(0 1.59907e-08 -0.0010001)
(0 2.01699e-08 -0.0010001)
(0 2.72541e-08 -0.00100011)
(0 3.61444e-08 -0.00100011)
(0 4.61489e-08 -0.00100011)
(0 5.69468e-08 -0.00100012)
(0 6.84561e-08 -0.00100012)
(0 8.07197e-08 -0.00100013)
(0 9.38389e-08 -0.00100014)
(0 1.07943e-07 -0.00100015)
(0 1.23179e-07 -0.00100016)
(0 1.39706e-07 -0.00100017)
(0 1.577e-07 -0.00100019)
(0 1.77351e-07 -0.0010002)
(0 1.98868e-07 -0.00100022)
(0 2.2248e-07 -0.00100024)
(0 2.4844e-07 -0.00100027)
(0 2.77025e-07 -0.00100029)
(0 3.08543e-07 -0.00100032)
(0 3.43334e-07 -0.00100036)
(0 3.81775e-07 -0.0010004)
(0 4.24281e-07 -0.00100044)
(0 4.71316e-07 -0.00100048)
(0 5.23393e-07 -0.00100054)
(0 5.81082e-07 -0.00100059)
(0 6.45017e-07 -0.00100066)
(0 7.15904e-07 -0.00100073)
(0 7.94526e-07 -0.00100081)
(0 8.81756e-07 -0.0010009)
(0 9.78568e-07 -0.001001)
(0 1.08605e-06 -0.00100111)
(0 1.2054e-06 -0.00100123)
(0 1.33796e-06 -0.00100137)
(0 1.48526e-06 -0.00100152)
(0 1.64895e-06 -0.00100169)
(0 1.83091e-06 -0.00100188)
(0 2.03323e-06 -0.00100209)
(0 2.25825e-06 -0.00100232)
(0 2.50857e-06 -0.00100258)
(0 2.78713e-06 -0.00100288)
(0 3.09717e-06 -0.0010032)
(0 3.44237e-06 -0.00100357)
(0 3.82679e-06 -0.00100397)
(0 4.25504e-06 -0.00100443)
(0 4.73224e-06 -0.00100493)
(0 5.26414e-06 -0.0010055)
(0 5.8572e-06 -0.00100613)
(0 6.51865e-06 -0.00100684)
(0 7.25662e-06 -0.00100764)
(0 8.08022e-06 -0.00100852)
(0 8.99972e-06 -0.00100952)
(0 1.00266e-05 -0.00101063)
(0 1.11739e-05 -0.00101188)
(0 1.24561e-05 -0.00101329)
(0 1.38896e-05 -0.00101486)
(0 1.54929e-05 -0.00101662)
(0 1.72868e-05 -0.0010186)
(0 1.92947e-05 -0.00102083)
(0 2.15432e-05 -0.00102333)
(0 2.40621e-05 -0.00102614)
(0 2.68851e-05 -0.00102931)
(0 3.00502e-05 -0.00103287)
(0 3.36006e-05 -0.00103688)
(0 3.7585e-05 -0.0010414)
(0 4.20584e-05 -0.00104649)
(0 4.70834e-05 -0.00105224)
(0 5.27305e-05 -0.00105872)
(0 5.908e-05 -0.00106604)
(0 6.62225e-05 -0.00107431)
(0 7.42597e-05 -0.00108365)
(0 8.33022e-05 -0.00109423)
(0 9.3459e-05 -0.00110619)
(0 0.000104796 -0.00111965)
(0 0.000117221 -0.00113467)
(0 0.000130196 -0.00115182)
(0 0.000142195 -0.0011734)
(0 0.000149931 -0.00120103)
(0 0.000147836 -0.00121493)
(0 0.000127744 -0.00116407)
(0 8.21132e-05 -0.000912039)
(0 -1.70191e-06 -0.0035152)
(0 -3.8788e-06 -0.0001482)
(0 0.000102858 -0.00409706)
(0 -8.95472e-06 -0.000460493)
(0 -0.000208513 -0.00406645)
(0 -1.7626e-05 -0.000275572)
(0 -0.000434583 -0.00429647)
(0 -0.00023048 -0.00433678)
(0 3.8888e-05 -0.000986397)
(0 0.000373554 -0.00486642)
(0 0.000110918 -0.00135813)
(0 -0.000365921 -0.00382763)
(0 1.63583e-05 -0.000146132)
(0 -0.000224943 -0.00472573)
(0 -0.000193969 -0.00275876)
(0 -9.97876e-05 -0.00245331)
(0 -8.70043e-05 -0.00369347)
(0 -8.91287e-05 -0.00266083)
(0 4.92353e-06 -0.00243975)
(0 -7.10073e-05 -0.00389565)
(0 -8.02949e-05 -0.00180378)
(0 -0.000108297 -0.00345446)
(0 -0.000148788 -0.00275431)
(0 -2.35545e-05 -0.00112856)
(0 -7.66758e-06 -0.00183691)
(0 -4.30671e-05 -0.00105423)
(0 -6.23082e-05 -0.00106873)
(0 -6.60871e-05 -0.00108838)
(0 -6.22786e-05 -0.00108228)
(0 -5.56733e-05 -0.00106826)
(0 -4.84995e-05 -0.0010564)
(0 -4.16972e-05 -0.00104714)
(0 -3.56111e-05 -0.00103944)
(0 -3.03071e-05 -0.00103287)
(0 -2.57359e-05 -0.00102727)
(0 -2.1814e-05 -0.00102252)
(0 -1.84559e-05 -0.00101852)
(0 -1.55843e-05 -0.00101514)
(0 -1.31314e-05 -0.00101229)
(0 -1.10383e-05 -0.0010099)
(0 -9.25433e-06 -0.0010079)
(0 -7.73563e-06 -0.00100623)
(0 -6.44451e-06 -0.00100484)
(0 -5.34851e-06 -0.00100368)
(0 -4.41973e-06 -0.00100272)
(0 -3.63427e-06 -0.00100193)
(0 -2.97172e-06 -0.00100127)
(0 -2.41441e-06 -0.00100074)
(0 -1.94672e-06 -0.00100031)
(0 -1.55526e-06 -0.000999966)
(0 -1.22858e-06 -0.000999699)
(0 -9.56905e-07 -0.000999493)
(0 -7.31883e-07 -0.000999337)
(0 -5.46408e-07 -0.000999222)
(0 -3.94427e-07 -0.000999142)
(0 -2.70592e-07 -0.000999092)
(0 -1.70264e-07 -0.000999067)
(0 -8.9686e-08 -0.000999059)
(0 -2.56708e-08 -0.000999067)
(0 2.47443e-08 -0.000999087)
(0 6.39749e-08 -0.000999115)
(0 9.39789e-08 -0.000999149)
(0 1.1633e-07 -0.000999186)
(0 1.32383e-07 -0.000999225)
(0 1.4329e-07 -0.000999266)
(0 1.50021e-07 -0.000999307)
(0 1.53395e-07 -0.000999348)
(0 1.54096e-07 -0.000999389)
(0 1.52693e-07 -0.000999428)
(0 1.4966e-07 -0.000999466)
(0 1.4539e-07 -0.000999503)
(0 1.40206e-07 -0.000999538)
(0 1.34374e-07 -0.000999572)
(0 1.2811e-07 -0.000999604)
(0 1.2159e-07 -0.000999634)
(0 1.14955e-07 -0.000999662)
(0 1.08319e-07 -0.000999689)
(0 1.0177e-07 -0.000999714)
(0 9.53777e-08 -0.000999737)
(0 8.91935e-08 -0.000999759)
(0 8.32566e-08 -0.000999779)
(0 7.75947e-08 -0.000999798)
(0 7.22266e-08 -0.000999816)
(0 6.71637e-08 -0.000999832)
(0 6.24118e-08 -0.000999847)
(0 5.79719e-08 -0.000999861)
(0 5.38419e-08 -0.000999874)
(0 5.00167e-08 -0.000999886)
(0 4.64896e-08 -0.000999898)
(0 4.32523e-08 -0.000999908)
(0 4.02959e-08 -0.000999918)
(0 3.76106e-08 -0.000999927)
(0 3.51868e-08 -0.000999935)
(0 3.30144e-08 -0.000999943)
(0 3.10838e-08 -0.00099995)
(0 2.93869e-08 -0.000999957)
(0 2.7922e-08 -0.000999963)
(0 2.66962e-08 -0.000999969)
(0 2.57976e-08 -0.000999976)
(0 2.52028e-08 -0.000999981)
)
;
    }
    procBoundary0to1
    {
        type            processor;
        value           nonuniform List<vector> 
180
(
(-2.15403e-11 1.48736e-08 -0.0010001)
(-6.07097e-11 1.86592e-08 -0.0010001)
(-7.28482e-11 2.51167e-08 -0.00100011)
(-5.87786e-11 3.32308e-08 -0.00100011)
(-2.95247e-11 4.23512e-08 -0.00100011)
(1.36685e-11 5.21677e-08 -0.00100012)
(7.63586e-11 6.25902e-08 -0.00100012)
(1.65962e-10 7.36438e-08 -0.00100013)
(2.90514e-10 8.54065e-08 -0.00100014)
(4.58543e-10 9.798e-08 -0.00100014)
(6.7943e-10 1.11479e-07 -0.00100015)
(9.63869e-10 1.26029e-07 -0.00100017)
(1.32407e-09 1.41763e-07 -0.00100018)
(1.77291e-09 1.58827e-07 -0.00100019)
(2.32638e-09 1.77377e-07 -0.00100021)
(3.00364e-09 1.97583e-07 -0.00100023)
(3.82725e-09 2.19628e-07 -0.00100025)
(4.82373e-09 2.43709e-07 -0.00100027)
(6.02416e-09 2.70044e-07 -0.0010003)
(7.46489e-09 2.98865e-07 -0.00100033)
(9.1884e-09 3.30427e-07 -0.00100036)
(1.12443e-08 3.65007e-07 -0.00100039)
(1.36906e-08 4.02907e-07 -0.00100043)
(1.65948e-08 4.44453e-07 -0.00100047)
(2.00357e-08 4.90003e-07 -0.00100052)
(2.41052e-08 5.39941e-07 -0.00100057)
(2.89102e-08 5.9469e-07 -0.00100062)
(3.45753e-08 6.54706e-07 -0.00100068)
(4.12453e-08 7.20484e-07 -0.00100075)
(4.90889e-08 7.92562e-07 -0.00100082)
(5.83021e-08 8.7152e-07 -0.0010009)
(6.91128e-08 9.57989e-07 -0.00100099)
(8.17858e-08 1.05265e-06 -0.00100108)
(9.66287e-08 1.15623e-06 -0.00100119)
(1.13999e-07 1.26953e-06 -0.0010013)
(1.34311e-07 1.3934e-06 -0.00100142)
(1.58045e-07 1.52875e-06 -0.00100156)
(1.85762e-07 1.67656e-06 -0.00100171)
(2.18107e-07 1.83788e-06 -0.00100186)
(2.55832e-07 2.01383e-06 -0.00100204)
(2.99807e-07 2.20559e-06 -0.00100222)
(3.51042e-07 2.41443e-06 -0.00100243)
(4.10705e-07 2.64168e-06 -0.00100265)
(4.80151e-07 2.88874e-06 -0.00100288)
(5.60949e-07 3.15708e-06 -0.00100314)
(6.54915e-07 3.44824e-06 -0.00100341)
(7.64154e-07 3.76378e-06 -0.00100371)
(8.91102e-07 4.10535e-06 -0.00100402)
(1.03858e-06 4.47459e-06 -0.00100436)
(1.20985e-06 4.87317e-06 -0.00100472)
(1.40868e-06 5.30273e-06 -0.0010051)
(1.63946e-06 5.7649e-06 -0.00100551)
(1.90723e-06 6.26117e-06 -0.00100594)
(2.21785e-06 6.79296e-06 -0.00100639)
(2.57809e-06 7.36145e-06 -0.00100686)
(2.99578e-06 7.9676e-06 -0.00100735)
(3.47998e-06 8.61199e-06 -0.00100785)
(4.04118e-06 9.29478e-06 -0.00100837)
(4.69148e-06 1.00155e-05 -0.00100889)
(5.44493e-06 1.07731e-05 -0.00100941)
(6.31772e-06 1.15653e-05 -0.00100993)
(7.3286e-06 1.2389e-05 -0.00101042)
(8.49927e-06 1.32397e-05 -0.00101088)
(9.85478e-06 1.4111e-05 -0.0010113)
(1.14241e-05 1.49947e-05 -0.00101164)
(1.32407e-05 1.588e-05 -0.00101189)
(1.53432e-05 1.67532e-05 -0.00101202)
(1.77763e-05 1.75971e-05 -0.001012)
(2.05915e-05 1.83904e-05 -0.00101177)
(2.38477e-05 1.91065e-05 -0.0010113)
(2.76114e-05 1.97122e-05 -0.00101053)
(3.19532e-05 2.01643e-05 -0.00100938)
(3.69354e-05 2.04016e-05 -0.00100771)
(4.25697e-05 2.03225e-05 -0.00100531)
(4.87092e-05 1.97393e-05 -0.00100248)
(5.48265e-05 1.83095e-05 -0.00100089)
(5.95847e-05 1.55626e-05 -0.00100108)
(6.09888e-05 1.1052e-05 -0.000986364)
(5.55332e-05 5.08479e-06 -0.000919168)
(3.92602e-05 -1.17012e-06 -0.000706061)
(3.24313e-06 -1.92898e-05 -0.00293145)
(4.24303e-06 1.43705e-05 -0.000125763)
(-0.000199723 0.000382692 -0.00354011)
(-8.08348e-05 0.000169218 -0.00248746)
(-6.28237e-05 4.20867e-06 -0.00113391)
(-0.000308856 0.000121614 -0.00473937)
(-7.86131e-05 1.06077e-05 -0.000451658)
(-0.000934101 -0.000326801 -0.00451849)
(-3.25797e-05 -2.74278e-05 -0.00029322)
(0.00063214 -0.000799357 -0.00375849)
(-2.13708e-05 -3.39584e-05 -0.000224094)
(0.000527718 -0.000479633 -0.00367106)
(0.000170997 -0.000230537 -0.00141356)
(0.00031157 -0.000648833 -0.0047509)
(3.33354e-05 -2.22732e-05 -0.000561951)
(9.86056e-05 -0.000336846 -0.00303348)
(0.000345221 -0.000607192 -0.00230275)
(1.32885e-05 -5.42297e-05 -0.000113984)
(2.83443e-05 -0.00010966 -0.00431575)
(-4.85283e-06 1.81271e-06 -0.00068614)
(-0.000190906 0.000189366 -0.00258657)
(-8.99e-05 0.000141492 -0.00122123)
(-0.000147332 -9.25854e-06 -0.00126122)
(-8.33351e-05 7.10669e-06 -0.00103054)
(-3.29404e-05 5.15485e-05 -0.000928811)
(-5.94162e-05 9.57515e-05 -0.000865125)
(-6.95326e-05 0.000115863 -0.000836141)
(-6.72792e-05 0.000118186 -0.000849238)
(-6.03958e-05 0.000111171 -0.00087096)
(-5.2574e-05 0.000100508 -0.000888928)
(-4.51045e-05 8.92147e-05 -0.000903545)
(-3.84041e-05 7.85839e-05 -0.000916166)
(-3.25637e-05 6.90265e-05 -0.000927236)
(-2.7539e-05 6.05835e-05 -0.000936888)
(-2.32388e-05 5.31704e-05 -0.000945267)
(-1.95665e-05 4.66735e-05 -0.000952534)
(-1.64343e-05 4.09815e-05 -0.00095884)
(-1.37658e-05 3.59941e-05 -0.000964311)
(-1.1495e-05 3.16231e-05 -0.000969057)
(-9.56507e-06 2.77912e-05 -0.000973175)
(-7.92711e-06 2.44309e-05 -0.000976748)
(-6.53911e-06 2.14834e-05 -0.000979849)
(-5.365e-06 1.88971e-05 -0.000982539)
(-4.37388e-06 1.66272e-05 -0.000984876)
(-3.53931e-06 1.46347e-05 -0.000986906)
(-2.83879e-06 1.28852e-05 -0.000988674)
(-2.25333e-06 1.13492e-05 -0.000990213)
(-1.76636e-06 1.00005e-05 -0.000991549)
(-1.36279e-06 8.81583e-06 -0.000992704)
(-1.02971e-06 7.77489e-06 -0.000993703)
(-7.56171e-07 6.85991e-06 -0.000994566)
(-5.32828e-07 6.05536e-06 -0.000995312)
(-3.51753e-07 5.34768e-06 -0.000995958)
(-2.06239e-07 4.72501e-06 -0.000996516)
(-9.05798e-08 4.177e-06 -0.000996998)
(4.14432e-10 3.69438e-06 -0.000997411)
(7.12266e-08 3.26904e-06 -0.000997765)
(1.2545e-07 2.89394e-06 -0.000998069)
(1.66067e-07 2.56296e-06 -0.000998331)
(1.95699e-07 2.27072e-06 -0.000998557)
(2.16441e-07 2.01257e-06 -0.000998752)
(2.29982e-07 1.78446e-06 -0.00099892)
(2.37695e-07 1.5828e-06 -0.000999066)
(2.40742e-07 1.40445e-06 -0.000999192)
(2.40089e-07 1.24667e-06 -0.000999301)
(2.36541e-07 1.10704e-06 -0.000999396)
(2.3077e-07 9.83417e-07 -0.000999478)
(2.23326e-07 8.73935e-07 -0.000999548)
(2.14665e-07 7.76943e-07 -0.000999609)
(2.0516e-07 6.90987e-07 -0.000999662)
(1.95113e-07 6.14786e-07 -0.000999708)
(1.84771e-07 5.47211e-07 -0.000999748)
(1.74331e-07 4.87265e-07 -0.000999782)
(1.63948e-07 4.34072e-07 -0.000999812)
(1.53745e-07 3.86857e-07 -0.000999838)
(1.43817e-07 3.44935e-07 -0.00099986)
(1.34235e-07 3.07703e-07 -0.000999879)
(1.25051e-07 2.74628e-07 -0.000999896)
(1.16301e-07 2.45241e-07 -0.00099991)
(1.08009e-07 2.19124e-07 -0.000999922)
(1.00188e-07 1.95912e-07 -0.000999933)
(9.28425e-08 1.7528e-07 -0.000999943)
(8.59709e-08 1.56942e-07 -0.000999951)
(7.95664e-08 1.40645e-07 -0.000999958)
(7.36185e-08 1.26164e-07 -0.000999964)
(6.81138e-08 1.13303e-07 -0.000999969)
(6.30374e-08 1.01886e-07 -0.000999973)
(5.83729e-08 9.17589e-08 -0.000999977)
(5.41035e-08 8.27864e-08 -0.000999981)
(5.02121e-08 7.48478e-08 -0.000999983)
(4.66818e-08 6.78373e-08 -0.000999986)
(4.34963e-08 6.16619e-08 -0.000999988)
(4.06399e-08 5.62399e-08 -0.00099999)
(3.80975e-08 5.15e-08 -0.000999991)
(3.58553e-08 4.73804e-08 -0.000999993)
(3.39014e-08 4.38282e-08 -0.000999994)
(3.22299e-08 4.08012e-08 -0.000999994)
(3.08427e-08 3.82984e-08 -0.000999995)
(2.98238e-08 3.63659e-08 -0.000999996)
(2.91586e-08 3.53991e-08 -0.000999996)
)
;
    }
    procBoundary0to2
    {
        type            processor;
        value           nonuniform List<vector> 
180
(
(-1.13863e-09 1.59906e-08 -0.000999905)
(-1.57141e-09 2.01698e-08 -0.000999903)
(-2.21021e-09 2.72539e-08 -0.0009999)
(-2.97243e-09 3.61443e-08 -0.000999897)
(-3.82716e-09 4.61487e-08 -0.000999892)
(-4.76533e-09 5.69465e-08 -0.000999886)
(-5.78957e-09 6.84559e-08 -0.000999878)
(-6.90992e-09 8.07194e-08 -0.000999869)
(-8.14184e-09 9.38385e-08 -0.000999859)
(-9.50448e-09 1.07943e-07 -0.000999847)
(-1.102e-08 1.23178e-07 -0.000999833)
(-1.27135e-08 1.39706e-07 -0.000999818)
(-1.46134e-08 1.577e-07 -0.0009998)
(-1.67517e-08 1.77351e-07 -0.000999781)
(-1.91645e-08 1.98867e-07 -0.000999759)
(-2.18932e-08 2.22479e-07 -0.000999734)
(-2.49843e-08 2.48438e-07 -0.000999707)
(-2.84913e-08 2.77023e-07 -0.000999676)
(-3.24748e-08 3.08541e-07 -0.000999642)
(-3.70041e-08 3.43332e-07 -0.000999605)
(-4.21584e-08 3.81771e-07 -0.000999563)
(-4.80283e-08 4.24277e-07 -0.000999516)
(-5.4717e-08 4.71311e-07 -0.000999464)
(-6.23431e-08 5.23387e-07 -0.000999406)
(-7.10419e-08 5.81075e-07 -0.000999342)
(-8.09684e-08 6.45008e-07 -0.00099927)
(-9.23001e-08 7.15892e-07 -0.000999191)
(-1.0524e-07 7.94512e-07 -0.000999102)
(-1.20022e-07 8.81739e-07 -0.000999004)
(-1.36912e-07 9.78547e-07 -0.000998894)
(-1.56215e-07 1.08602e-06 -0.000998772)
(-1.78283e-07 1.20536e-06 -0.000998636)
(-2.03516e-07 1.33792e-06 -0.000998485)
(-2.32377e-07 1.48521e-06 -0.000998317)
(-2.65391e-07 1.64888e-06 -0.000998129)
(-3.03166e-07 1.83083e-06 -0.00099792)
(-3.46397e-07 2.03313e-06 -0.000997687)
(-3.95879e-07 2.25813e-06 -0.000997427)
(-4.52529e-07 2.50843e-06 -0.000997137)
(-5.17395e-07 2.78694e-06 -0.000996814)
(-5.91682e-07 3.09694e-06 -0.000996453)
(-6.76773e-07 3.44208e-06 -0.00099605)
(-7.74255e-07 3.82644e-06 -0.0009956)
(-8.85949e-07 4.2546e-06 -0.000995098)
(-1.01395e-06 4.73168e-06 -0.000994537)
(-1.16066e-06 5.26345e-06 -0.000993909)
(-1.32884e-06 5.85633e-06 -0.000993208)
(-1.52165e-06 6.51756e-06 -0.000992424)
(-1.74275e-06 7.25526e-06 -0.000991546)
(-1.99631e-06 8.07852e-06 -0.000990564)
(-2.28715e-06 8.99759e-06 -0.000989463)
(-2.62078e-06 1.00239e-05 -0.000988231)
(-3.00357e-06 1.11705e-05 -0.00098685)
(-3.4428e-06 1.24518e-05 -0.000985301)
(-3.94687e-06 1.38843e-05 -0.000983564)
(-4.52543e-06 1.54862e-05 -0.000981615)
(-5.18958e-06 1.72784e-05 -0.000979428)
(-5.95207e-06 1.92841e-05 -0.000976971)
(-6.82758e-06 2.15299e-05 -0.00097421)
(-7.833e-06 2.40452e-05 -0.000971107)
(-8.98774e-06 2.68637e-05 -0.000967617)
(-1.03141e-05 3.00232e-05 -0.000963691)
(-1.18379e-05 3.35664e-05 -0.000959272)
(-1.35886e-05 3.75416e-05 -0.000954296)
(-1.56002e-05 4.20034e-05 -0.000948689)
(-1.79119e-05 4.70134e-05 -0.000942369)
(-2.05687e-05 5.26416e-05 -0.000935242)
(-2.36221e-05 5.89669e-05 -0.000927201)
(-2.71317e-05 6.60784e-05 -0.000918123)
(-3.11648e-05 7.40756e-05 -0.000907872)
(-3.57966e-05 8.30664e-05 -0.000896293)
(-4.11051e-05 9.31551e-05 -0.000883203)
(-4.71519e-05 0.000104402 -0.00086836)
(-5.39294e-05 0.000116706 -0.000851493)
(-6.1238e-05 0.000129528 -0.000832695)
(-6.845e-05 0.000141368 -0.000813181)
(-7.41168e-05 0.000149047 -0.000793928)
(-7.53393e-05 0.000147084 -0.000764806)
(-6.7203e-05 0.000127475 -0.000701258)
(-4.44128e-05 8.2091e-05 -0.000524697)
(-1.44621e-05 -2.80318e-06 -0.00199767)
(2.16791e-05 -9.75652e-06 -0.000143008)
(0.000132531 6.0741e-05 -0.00275973)
(1.79902e-05 -6.74828e-06 -0.000182048)
(-7.8898e-05 -7.29804e-05 -0.00325471)
(1.20902e-05 1.2528e-05 -0.000250215)
(-0.000120665 -0.000230772 -0.00307428)
(-0.000189565 -0.00019233 -0.00134934)
(-0.000391987 0.000172217 -0.00239041)
(-1.86341e-05 -4.12967e-05 -0.000217583)
(-0.000126632 0.000124569 -0.00454937)
(3.33946e-06 -5.32316e-05 -0.00100903)
(7.19696e-05 -0.000201323 -0.00227983)
(-0.000270283 -0.000190807 -0.00292266)
(6.47388e-05 -1.65462e-06 -3.65199e-05)
(-0.000146514 -0.000231677 -0.00344055)
(-1.99831e-05 3.9958e-06 -0.000668239)
(-3.2768e-05 -7.18791e-05 -0.0020014)
(-0.000183181 2.01076e-05 -0.00252388)
(2.69533e-05 1.82788e-05 -0.000179422)
(0.000125419 -0.000137985 -0.00286972)
(0.000116669 -7.4626e-05 -0.00102577)
(4.97924e-05 -0.000253766 -0.00118458)
(0.000102151 -0.000260243 -0.000873467)
(0.000111976 -0.000120767 -0.000771163)
(0.00013591 -0.000105363 -0.000821315)
(0.000140059 -9.27821e-05 -0.00082038)
(0.000132412 -7.96486e-05 -0.000838207)
(0.000119833 -6.7825e-05 -0.000859531)
(0.000106351 -5.78195e-05 -0.000878316)
(9.36718e-05 -4.93225e-05 -0.000894229)