/*--------------------------------*- C++ -*----------------------------------*\
| =========                 |                                                 |
| \\      /  F ield         | OpenFOAM: The Open Source CFD Toolbox           |
|  \\    /   O peration     | Version:  5.x                                   |
|   \\  /    A nd           | Web:      www.OpenFOAM.org                      |
|    \\/     M anipulation  |                                                 |
\*---------------------------------------------------------------------------*/
FoamFile
{
    version     2.0;
    format      ascii;
    class       surfaceScalarField;
    location    "0.02";
    object      phi;
}
// * * * * * * * * * * * * * * * * * * * * * * * * * * * * * * * * * * * * * //

dimensions      [0 3 -1 0 0 0 0];

internalField   nonuniform List<scalar> 
5825
(
-1.31808e-16
-2.70029e-17
-9.99999e-10
-1.12643e-16
-3.42133e-17
-9.99999e-10
-7.71962e-17
-3.86009e-17
-9.99999e-10
-3.67506e-17
-3.9436e-17
-9.99999e-10
-3.79973e-17
-9.99999e-10
-1.39479e-16
-3.72291e-17
-9.99999e-10
-1.17382e-16
-5.19718e-17
-9.99999e-10
-7.84336e-17
-6.32394e-17
-9.99999e-10
-3.54315e-17
-7.09722e-17
-9.99999e-10
-7.63391e-17
-9.99999e-10
-1.54201e-16
-6.38203e-17
-9.99999e-10
-1.28441e-16
-8.44664e-17
-9.99999e-10
-8.61859e-17
-9.9043e-17
-9.99999e-10
-4.08223e-17
-1.11493e-16
-9.99999e-10
-1.1949e-16
-1e-09
-1.7259e-16
-7.37937e-17
-9.99999e-10
-1.42284e-16
-1.07263e-16
-9.99999e-10
-9.86065e-17
-1.28885e-16
-1e-09
-4.88966e-17
-1.46598e-16
-1e-09
-1.54627e-16
-1e-09
-2.09076e-16
-9.99999e-10
-1.64137e-16
-9.99999e-10
-1.16191e-16
-1e-09
-5.77707e-17
-1e-09
-1e-09
-4.13979e-16
-7.22155e-17
-9.99998e-10
-3.4716e-16
-9.47312e-17
-9.99999e-10
-2.35811e-16
-1.03995e-16
-9.99999e-10
-1.12382e-16
-1.05469e-16
-9.99999e-10
-1.06403e-16
-9.99999e-10
-4.37944e-16
-1.44279e-16
-9.99998e-10
-3.58387e-16
-1.7408e-16
-9.99999e-10
-2.38615e-16
-1.98448e-16
-9.99999e-10
-1.13545e-16
-2.18701e-16
-9.99999e-10
-2.34407e-16
-9.99999e-10
-4.67431e-16
-2.45163e-16
-9.99999e-10
-3.8255e-16
-2.76535e-16
-9.99999e-10
-2.58927e-16
-3.06416e-16
-9.99999e-10
-1.29467e-16
-3.35947e-16
-1e-09
-3.5169e-16
-1e-09
-4.87458e-16
-3.2644e-16
-9.99999e-10
-4.11676e-16
-3.49146e-16
-9.99999e-10
-2.88601e-16
-3.81349e-16
-1e-09
-1.46027e-16
-4.16946e-16
-1e-09
-4.2445e-16
-1e-09
-5.33303e-16
-9.99999e-10
-4.61035e-16
-1e-09
-3.21909e-16
-1e-09
-1.54558e-16
-1e-09
-1e-09
-7.68856e-16
-1.48255e-16
-9.99998e-10
-6.27076e-16
-1.72253e-16
-9.99999e-10
-4.29237e-16
-1.7972e-16
-9.99999e-10
-2.13502e-16
-1.83846e-16
-9.99999e-10
-1.94298e-16
-9.99999e-10
-7.94681e-16
-3.28552e-16
-9.99998e-10
-6.38827e-16
-3.45467e-16
-9.99999e-10
-4.35856e-16
-3.71128e-16
-9.99999e-10
-2.24104e-16
-3.96897e-16
-9.99999e-10
-4.15049e-16
-1e-09
-8.09418e-16
-5.11915e-16
-9.99999e-10
-6.64625e-16
-5.1264e-16
-9.99999e-10
-4.61823e-16
-5.47257e-16
-9.99999e-10
-2.43118e-16
-5.78757e-16
-1e-09
-5.87594e-16
-1e-09
-8.15814e-16
-6.10133e-16
-9.99999e-10
-7.00049e-16
-6.20819e-16
-9.99999e-10
-4.94073e-16
-6.53625e-16
-1e-09
-2.54067e-16
-6.78331e-16
-1e-09
-6.69043e-16
-1e-09
-8.35226e-16
-9.99999e-10
-7.29762e-16
-1e-09
-5.10626e-16
-1e-09
-2.43278e-16
-1e-09
-1e-09
-1.17271e-15
-2.73343e-16
-9.99998e-10
-9.57944e-16
-2.83917e-16
-9.99999e-10
-6.73165e-16
-2.88505e-16
-9.99999e-10
-3.51527e-16
-2.9666e-16
-9.99999e-10
-3.12827e-16
-1e-09
-1.18671e-15
-5.60602e-16
-9.99998e-10
-9.67806e-16
-5.62693e-16
-9.99999e-10
-6.84743e-16
-5.85014e-16
-9.99999e-10
-3.68378e-16
-6.0588e-16
-1e-09
-6.14896e-16
-1e-09
-1.1881e-15
-8.07147e-16
-9.99999e-10
-9.89604e-16
-7.92784e-16
-9.99999e-10
-7.05673e-16
-8.22996e-16
-9.99999e-10
-3.79149e-16
-8.41122e-16
-1e-09
-8.35293e-16
-1e-09
-1.17741e-15
-9.80934e-16
-9.99999e-10
-1.01789e-15
-9.53401e-16
-9.99999e-10
-7.24166e-16
-9.64709e-16
-1e-09
-3.75794e-16
-9.61171e-16
-1e-09
-9.34995e-16
-1e-09
-1.15786e-15
-9.99999e-10
-1.01669e-15
-1e-09
-7.16586e-16
-1e-09
-3.50387e-16
-1e-09
-1e-09
-1.61731e-15
-4.25993e-16
-9.99998e-10
-1.35457e-15
-4.28895e-16
-9.99999e-10
-9.77727e-16
-4.36181e-16
-9.99999e-10
-5.21212e-16
-4.45759e-16
-9.99999e-10
-4.56472e-16
-1e-09
-1.62599e-15
-8.13369e-16
-9.99998e-10
-1.36737e-15
-8.19871e-16
-9.99999e-10
-9.90796e-16
-8.39803e-16
-9.99999e-10
-5.33658e-16
-8.48769e-16
-1e-09
-8.45993e-16
-1e-09
-1.63837e-15
-1.12971e-15
-9.99998e-10
-1.38582e-15
-1.12629e-15
-9.99999e-10
-9.99683e-16
-1.14763e-15
-1e-09
-5.32938e-16
-1.14939e-15
-1e-09
-1.13537e-15
-1e-09
-1.64805e-15
-1.34051e-15
-9.99999e-10
-1.40449e-15
-1.33312e-15
-9.99999e-10
-1.00189e-15
-1.32828e-15
-1e-09
-5.21308e-16
-1.30936e-15
-1e-09
-1.28099e-15
-1e-09
-1.61396e-15
-9.99999e-10
-1.38064e-15
-1e-09
-9.80033e-16
-1e-09
-4.94564e-16
-1e-09
-1e-09
-2.15802e-15
-5.99559e-16
-9.99998e-10
-1.85199e-15
-6.08941e-16
-9.99998e-10
-1.35345e-15
-6.22071e-16
-9.99999e-10
-7.1798e-16
-6.2912e-16
-9.99999e-10
-6.29251e-16
-1e-09
-2.17554e-15
-1.12753e-15
-9.99998e-10
-1.87025e-15
-1.14282e-15
-9.99999e-10
-1.36426e-15
-1.15732e-15
-9.99999e-10
-7.21511e-16
-1.15586e-15
-1e-09
-1.14799e-15
-1e-09
-2.19785e-15
-1.56882e-15
-9.99998e-10
-1.88265e-15
-1.56109e-15
-9.99999e-10
-1.36259e-15
-1.56745e-15
-1e-09
-7.16101e-16
-1.5613e-15
-1e-09
-1.55009e-15
-1e-09
-2.20107e-15
-1.83351e-15
-9.99999e-10
-1.88583e-15
-1.81955e-15
-1e-09
-1.3571e-15
-1.80707e-15
-1e-09
-7.07918e-16
-1.792e-15
-1e-09
-1.77821e-15
-1e-09
-2.16062e-15
-1e-09
-1.8407e-15
-1e-09
-1.3368e-15
-1e-09
-6.96408e-16
-1e-09
-1e-09
-2.89345e-15
-8.27389e-16
-9.99997e-10
-2.49571e-15
-8.45359e-16
-9.99998e-10
-1.82412e-15
-8.57909e-16
-9.99999e-10
-9.58509e-16
-8.62369e-16
-9.99999e-10
-8.56189e-16
-1e-09
-2.91881e-15
-1.57484e-15
-9.99997e-10
-2.51453e-15
-1.58169e-15
-9.99998e-10
-1.83316e-15
-1.58657e-15
-9.99999e-10
-9.56693e-16
-1.58301e-15
-1e-09
-1.57671e-15
-1e-09
-2.92883e-15
-2.20018e-15
-9.99998e-10
-2.51809e-15
-2.16155e-15
-9.99999e-10
-1.82946e-15
-2.15392e-15
-1e-09
-9.53826e-16
-2.15317e-15
-1e-09
-2.15168e-15
-1e-09
-2.89401e-15
-2.58223e-15
-9.99999e-10
-2.50979e-15
-2.53001e-15
-1e-09
-1.82963e-15
-2.50445e-15
-1e-09
-9.57399e-16
-2.50451e-15
-1e-09
-2.50997e-15
-1e-09
-2.8033e-15
-1e-09
-2.4512e-15
-1e-09
-1.82158e-15
-1e-09
-9.66761e-16
-1e-09
-1e-09
-3.9022e-15
-1.15569e-15
-9.99996e-10
-3.3396e-15
-1.16703e-15
-9.99997e-10
-2.43561e-15
-1.17334e-15
-9.99998e-10
-1.27595e-15
-1.17825e-15
-9.99999e-10
-1.16887e-15
-1e-09
-3.92189e-15
-2.19745e-15
-9.99996e-10
-3.35398e-15
-2.18788e-15
-9.99998e-10
-2.44629e-15
-2.18712e-15
-9.99999e-10
-1.27187e-15
-2.18822e-15
-1e-09
-2.18447e-15
-1e-09
-3.91167e-15
-3.03266e-15
-9.99997e-10
-3.35271e-15
-2.98631e-15
-9.99998e-10
-2.44734e-15
-2.983e-15
-1e-09
-1.27351e-15
-2.99609e-15
-1e-09
-3.00411e-15
-1e-09
-3.86453e-15
-3.59083e-15
-9.99998e-10
-3.34938e-15
-3.53162e-15
-1e-09
-2.46112e-15
-3.50582e-15
-1e-09
-1.28899e-15
-3.52178e-15
-1e-09
-3.53623e-15
-1e-09
-3.77507e-15
-9.99999e-10
-3.30857e-15
-1e-09
-2.4711e-15
-1e-09
-1.30986e-15
-1e-09
-1e-09
-5.25069e-15
-1.60809e-15
-9.99994e-10
-4.46908e-15
-1.60266e-15
-9.99996e-10
-3.25981e-15
-1.60381e-15
-9.99998e-10
-1.70926e-15
-1.60828e-15
-9.99999e-10
-1.59462e-15
-1e-09
-5.25704e-15
-3.02696e-15
-9.99995e-10
-4.48082e-15
-3.01761e-15
-9.99997e-10
-3.27234e-15
-3.01922e-15
-9.99998e-10
-1.70327e-15
-3.02482e-15
-1e-09
-3.02276e-15
-1e-09
-5.24816e-15
-4.12218e-15
-9.99996e-10
-4.48192e-15
-4.11764e-15
-9.99998e-10
-3.27809e-15
-4.13327e-15
-1e-09
-1.70843e-15
-4.15752e-15
-1e-09
-4.16856e-15
-1e-09
-5.24195e-15
-4.83858e-15
-9.99998e-10
-4.49716e-15
-4.8525e-15
-1e-09
-3.30317e-15
-4.86549e-15
-1e-09
-1.7292e-15
-4.89572e-15
-1e-09
-4.90656e-15
-1e-09
-5.21992e-15
-9.99999e-10
-4.49944e-15
-1e-09
-3.33137e-15
-1e-09
-1.75023e-15
-1e-09
-1e-09
-7.08005e-15
-2.20589e-15
-9.99992e-10
-6.0268e-15
-2.19156e-15
-9.99995e-10
-4.39659e-15
-2.18936e-15
-9.99997e-10
-2.30661e-15
-2.18906e-15
-9.99999e-10
-2.17386e-15
-1e-09
-7.08234e-15
-4.15696e-15
-9.99993e-10
-6.03872e-15
-4.15739e-15
-9.99996e-10
-4.40699e-15
-4.15861e-15
-9.99998e-10
-2.30151e-15
-4.16379e-15
-1e-09
-4.16193e-15
-1e-09
-7.08347e-15
-5.65908e-15
-9.99995e-10
-6.03882e-15
-5.68705e-15
-9.99997e-10
-4.41247e-15
-5.70762e-15
-1e-09
-2.30941e-15
-5.73053e-15
-1e-09
-5.73473e-15
-1e-09
-7.11306e-15
-6.59132e-15
-9.99997e-10
-6.05879e-15
-6.645e-15
-1e-09
-4.43625e-15
-6.68749e-15
-1e-09
-2.32666e-15
-6.72369e-15
-1e-09
-6.72481e-15
-1e-09
-7.14152e-15
-1e-09
-6.09035e-15
-1e-09
-4.46974e-15
-1e-09
-2.3429e-15
-1.00001e-09
-1.00001e-09
-9.63848e-15
-3.01391e-15
-9.9999e-10
-8.20566e-15
-3.00084e-15
-9.99993e-10
-5.9753e-15
-2.99014e-15
-9.99996e-10
-3.13617e-15
-2.98162e-15
-9.99999e-10
-2.96985e-15
-1e-09
-9.6475e-15
-5.73099e-15
-9.99991e-10
-8.21418e-15
-5.72568e-15
-9.99995e-10
-5.98089e-15
-5.71322e-15
-9.99998e-10
-3.13857e-15
-5.71122e-15
-1e-09
-5.70368e-15
-1e-09
-9.64231e-15
-7.84392e-15
-9.99993e-10
-8.20103e-15
-7.85433e-15
-9.99997e-10
-5.97893e-15
-7.85298e-15
-1e-09
-3.14466e-15
-7.85866e-15
-1e-09
-7.84513e-15
-1e-09
-9.65425e-15
-9.09305e-15
-9.99996e-10
-8.19968e-15
-9.15169e-15
-1e-09
-5.98467e-15
-9.18299e-15
-1e-09
-3.14947e-15
-9.1991e-15
-1e-09
-9.18155e-15
-1.00001e-09
-9.67447e-15
-1e-09
-8.21688e-15
-1e-09
-5.99782e-15
-1.00001e-09
-3.1532e-15
-1.00001e-09
-1.00001e-09
-1.32152e-14
-4.14055e-15
-9.99986e-10
-1.12328e-14
-4.11806e-15
-9.99991e-10
-8.16185e-15
-4.08943e-15
-9.99996e-10
-4.289e-15
-4.07183e-15
-9.99999e-10
-4.06311e-15
-1e-09
-1.32213e-14
-7.89544e-15
-9.99988e-10
-1.12306e-14
-7.86188e-15
-9.99993e-10
-8.16304e-15
-7.8248e-15
-9.99997e-10
-4.3005e-15
-7.80823e-15
-1e-09
-7.78539e-15
-1e-09
-1.31847e-14
-1.0817e-14
-9.99991e-10
-1.11941e-14
-1.07956e-14
-9.99996e-10
-8.14603e-15
-1.07611e-14
-1e-09
-4.29664e-15
-1.07387e-14
-1e-09
-1.06986e-14
-1e-09
-1.31578e-14
-1.258e-14
-9.99995e-10
-1.11604e-14
-1.26017e-14
-1e-09
-8.12267e-15
-1.25969e-14
-1e-09
-4.28208e-15
-1.25758e-14
-1.00001e-09
-1.25277e-14
-1.00001e-09
-1.31473e-14
-1e-09
-1.11503e-14
-1e-09
-8.10028e-15
-1.00001e-09
-4.26359e-15
-1.00001e-09
-1.00001e-09
-1.81306e-14
-5.69289e-15
-9.99982e-10
-1.53975e-14
-5.63861e-15
-9.99988e-10
-1.11794e-14
-5.58969e-15
-9.99994e-10
-5.88251e-15
-5.5635e-15
-9.99998e-10
-5.55056e-15
-1e-09
-1.81153e-14
-1.08156e-14
-9.99984e-10
-1.53839e-14
-1.07411e-14
-9.99991e-10
-1.11786e-14
-1.06777e-14
-9.99996e-10
-5.89674e-15
-1.06405e-14
-1e-09
-1.05959e-14
-1e-09
-1.80336e-14
-1.48054e-14
-9.99988e-10
-1.53219e-14
-1.47592e-14
-9.99994e-10
-1.11414e-14
-1.46899e-14
-1e-09
-5.87754e-15
-1.46341e-14
-1e-09
-1.45646e-14
-1.00001e-09
-1.79622e-14
-1.72786e-14
-9.99993e-10
-1.52537e-14
-1.72741e-14
-1e-09
-1.1085e-14
-1.7224e-14
-1.00001e-09
-5.84252e-15
-1.71626e-14
-1.00001e-09
-1.70797e-14
-1.00001e-09
-1.79056e-14
-1e-09
-1.52098e-14
-1.00001e-09
-1.10261e-14
-1.00001e-09
-5.79999e-15
-1.00002e-09
-1.00002e-09
-2.48492e-14
-7.77438e-15
-9.99975e-10
-2.11189e-14
-7.68667e-15
-9.99985e-10
-1.53403e-14
-7.62476e-15
-9.99993e-10
-8.07495e-15
-7.58972e-15
-9.99998e-10
-7.56393e-15
-1e-09
-2.48159e-14
-1.47327e-14
-9.99978e-10
-2.11043e-14
-1.46217e-14
-9.99987e-10
-1.53396e-14
-1.45338e-14
-9.99995e-10
-8.08456e-15
-1.4472e-14
-1e-09
-1.4405e-14
-1e-09
-2.47005e-14
-2.02023e-14
-9.99983e-10
-2.10179e-14
-2.01164e-14
-9.99993e-10
-1.52791e-14
-2.00068e-14
-1e-09
-8.05144e-15
-1.99153e-14
-1.00001e-09
-1.9817e-14
-1.00001e-09
-2.45941e-14
-2.36858e-14
-9.99991e-10
-2.09092e-14
-2.36064e-14
-1e-09
-1.51878e-14
-2.34985e-14
-1.00001e-09
-7.99893e-15
-2.33931e-14
-1.00001e-09
-2.32719e-14
-1.00002e-09
-2.44633e-14
-1e-09
-2.08092e-14
-1.00001e-09
-1.50859e-14
-1.00002e-09
-7.93249e-15
-1.00002e-09
-1.00003e-09
-3.40797e-14
-1.05579e-14
-9.99966e-10
-2.89958e-14
-1.04605e-14
-9.99979e-10
-2.10697e-14
-1.03893e-14
-9.9999e-10
-1.10831e-14
-1.03394e-14
-9.99998e-10
-1.02952e-14
-1e-09
-3.4058e-14
-2.00365e-14
-9.9997e-10
-2.89891e-14
-1.99008e-14
-9.99983e-10
-2.10669e-14
-1.97769e-14
-9.99994e-10
-1.10864e-14
-1.96818e-14
-1e-09
-1.95898e-14
-1.00001e-09
-3.39213e-14
-2.75609e-14
-9.99977e-10
-2.88668e-14
-2.74111e-14
-9.9999e-10
-2.09739e-14
-2.72393e-14
-1e-09
-1.10399e-14
-2.71011e-14
-1.00001e-09
-2.69652e-14
-1.00001e-09
-3.37674e-14
-3.24051e-14
-9.99988e-10
-2.86955e-14
-3.22234e-14
-1e-09
-2.08366e-14
-3.20317e-14
-1.00001e-09
-1.09658e-14
-3.1864e-14
-1.00002e-09
-3.16944e-14
-1.00002e-09
-3.35612e-14
-1e-09
-2.85046e-14
-1.00001e-09
-2.06707e-14
-1.00002e-09
-1.087e-14
-1.00003e-09
-1.00003e-09
-4.67827e-14
-1.43586e-14
-9.99954e-10
-3.98187e-14
-1.42547e-14
-9.99972e-10
-2.89273e-14
-1.41577e-14
-9.99987e-10
-1.52012e-14
-1.40801e-14
-9.99998e-10
-1.40128e-14
-1e-09
-4.67829e-14
-2.73197e-14
-9.9996e-10
-3.98107e-14
-2.71277e-14
-9.99977e-10
-2.89142e-14
-2.69343e-14
-9.99992e-10
-1.51992e-14
-2.67876e-14
-1e-09
-2.6654e-14
-1.00001e-09
-4.659e-14
-3.76452e-14
-9.9997e-10
-3.96193e-14
-3.7379e-14
-9.99987e-10
-2.87697e-14
-3.71008e-14
-1e-09
-1.51275e-14
-3.68872e-14
-1.00001e-09
-3.66903e-14
-1.00002e-09
-4.63196e-14
-4.42981e-14
-9.99984e-10
-3.93412e-14
-4.39505e-14
-1e-09
-2.85572e-14
-4.36226e-14
-1.00002e-09
-1.50154e-14
-4.3366e-14
-1.00003e-09
-4.31346e-14
-1.00003e-09
-4.59609e-14
-1e-09
-3.90147e-14
-1.00002e-09
-2.83019e-14
-1.00003e-09
-1.48834e-14
-1.00004e-09
-1.00005e-09
-6.41943e-14
-1.96107e-14
-9.99938e-10
-5.46203e-14
-1.94512e-14
-9.99962e-10
-3.96646e-14
-1.92943e-14
-9.99982e-10
-2.08323e-14
-1.91739e-14
-9.99997e-10
-1.90712e-14
-1.00001e-09
-6.41779e-14
-3.73463e-14
-9.99945e-10
-5.45856e-14
-3.70093e-14
-9.99969e-10
-3.96328e-14
-3.66988e-14
-9.9999e-10
-2.08196e-14
-3.64693e-14
-1e-09
-3.62651e-14
-1.00001e-09
-6.38384e-14
-5.14695e-14
-9.99959e-10
-5.42776e-14
-5.09791e-14
-9.99983e-10
-3.94056e-14
-5.05316e-14
-1e-09
-2.06998e-14
-5.02002e-14
-1.00002e-09
-4.99164e-14
-1.00003e-09
-6.33385e-14
-6.05693e-14
-9.99978e-10
-5.38303e-14
-5.99382e-14
-1e-09
-3.90755e-14
-5.9387e-14
-1.00002e-09
-2.05313e-14
-5.89985e-14
-1.00004e-09
-5.86792e-14
-1.00004e-09
-6.26965e-14
-1e-09
-5.32859e-14
-1.00002e-09
-3.86905e-14
-1.00004e-09
-2.03472e-14
-1.00006e-09
-1.00006e-09
-8.79787e-14
-2.68133e-14
-9.99916e-10
-7.48281e-14
-2.65326e-14
-9.99949e-10
-5.43351e-14
-2.62821e-14
-9.99977e-10
-2.85345e-14
-2.60984e-14
-9.99997e-10
-2.59378e-14
-1.00001e-09
-8.78948e-14
-5.10278e-14
-9.99926e-10
-7.47447e-14
-5.04654e-14
-9.99958e-10
-5.42734e-14
-4.99844e-14
-9.99986e-10
-2.8497e-14
-4.96278e-14
-1.00001e-09
-4.93258e-14
-1.00002e-09
-8.7332e-14
-7.02643e-14
-9.99944e-10
-7.42665e-14
-6.94678e-14
-9.99977e-10
-5.39196e-14
-6.87867e-14
-1e-09
-2.83097e-14
-6.8293e-14
-1.00002e-09
-6.78932e-14
-1.00004e-09
-8.65273e-14
-8.26538e-14
-9.9997e-10
-7.35856e-14
-8.16818e-14
-1e-09
-5.34273e-14
-8.08435e-14
-1.00003e-09
-2.80665e-14
-8.02665e-14
-1.00005e-09
-7.98074e-14
-1.00006e-09
-8.55407e-14
-1e-09
-7.27542e-14
-1.00003e-09
-5.28553e-14
-1.00006e-09
-2.77921e-14
-1.00008e-09
-1.00009e-09
-1.20493e-13
-3.66032e-14
-9.99885e-10
-1.02472e-13
-3.61525e-14
-9.9993e-10
-7.44181e-14
-3.57709e-14
-9.99969e-10
-3.90804e-14
-3.54873e-14
-9.99997e-10
-3.5247e-14
-1.00001e-09
-1.20311e-13
-6.96082e-14
-9.99899e-10
-1.02319e-13
-6.87517e-14
-9.99944e-10
-7.43016e-14
-6.80222e-14
-9.99982e-10
-3.9008e-14
-6.74828e-14
-1.00001e-09
-6.70534e-14
-1.00002e-09
-1.19458e-13
-9.57447e-14
-9.99924e-10
-1.01593e-13
-9.45735e-14
-9.99969e-10
-7.37658e-14
-9.35736e-14
-1.00001e-09
-3.87343e-14
-9.28537e-14
-1.00003e-09
-9.228e-14
-1.00005e-09
-1.18283e-13
-1.12499e-13
-9.99959e-10
-1.00593e-13
-1.11146e-13
-1e-09
-7.3049e-14
-1.09968e-13
-1.00004e-09
-3.83744e-14
-1.09129e-13
-1.00007e-09
-1.08456e-13
-1.00008e-09
-1.16913e-13
-1e-09
-9.94155e-14
-1.00004e-09
-7.22134e-14
-1.00008e-09
-3.79524e-14
-1.00011e-09
-1.00012e-09
-1.65061e-13
-4.99093e-14
-9.99844e-10
-1.40376e-13
-4.92229e-14
-9.99906e-10
-1.01952e-13
-4.86392e-14
-9.99958e-10
-5.35429e-14
-4.82043e-14
-9.99997e-10
-4.78641e-14
-1.00002e-09
-1.64741e-13
-9.48949e-14
-9.99862e-10
-1.40106e-13
-9.36002e-14
-9.99924e-10
-1.01745e-13
-9.24938e-14
-9.99976e-10
-5.34313e-14
-9.16913e-14
-1.00001e-09
-9.10727e-14
-1.00003e-09
-1.63448e-13
-1.30457e-13
-9.99897e-10
-1.39004e-13
-1.28709e-13
-9.99958e-10
-1.00948e-13
-1.27219e-13
-1.00001e-09
-5.30245e-14
-1.26145e-13
-1.00005e-09
-1.25299e-13
-1.00007e-09
-1.61694e-13
-1.5315e-13
-9.99945e-10
-1.37516e-13
-1.51154e-13
-1e-09
-9.98791e-14
-1.4944e-13
-1.00006e-09
-5.24701e-14
-1.48195e-13
-1.00009e-09
-1.47205e-13
-1.00011e-09
-1.59694e-13
-1e-09
-1.35804e-13
-1.00006e-09
-9.86365e-14
-1.00011e-09
-5.18206e-14
-1.00015e-09
-1.00017e-09
-2.26239e-13
-6.80398e-14
-9.99788e-10
-1.92404e-13
-6.69896e-14
-9.99873e-10
-1.39748e-13
-6.60913e-14
-9.99945e-10
-7.34125e-14
-6.54385e-14
-9.99997e-10
-6.49537e-14
-1.00003e-09
-2.25689e-13
-1.29355e-13
-9.99813e-10
-1.91935e-13
-1.27381e-13
-9.99897e-10
-1.39407e-13
-1.25704e-13
-9.99969e-10
-7.32389e-14
-1.24495e-13
-1.00002e-09
-1.23579e-13
-1.00005e-09
-2.23715e-13
-1.7783e-13
-9.9986e-10
-1.90265e-13
-1.7515e-13
-9.99943e-10
-1.38206e-13
-1.72876e-13
-1.00001e-09
-7.26116e-14
-1.71227e-13
-1.00007e-09
-1.6997e-13
-1.00009e-09
-2.21021e-13
-2.08717e-13
-9.99925e-10
-1.87994e-13
-2.0562e-13
-1.00001e-09
-1.36563e-13
-2.02975e-13
-1.00008e-09
-7.17505e-14
-2.01054e-13
-1.00013e-09
-1.99579e-13
-1.00015e-09
-2.17919e-13
-1e-09
-1.85358e-13
-1.00008e-09
-1.34647e-13
-1.00015e-09
-7.07392e-14
-1.0002e-09
-1.00023e-09
-3.10271e-13
-9.27743e-14
-9.99711e-10
-2.63901e-13
-9.11604e-14
-9.99828e-10
-1.91716e-13
-8.97905e-14
-9.99927e-10
-1.00746e-13
-8.88054e-14
-1e-09
-8.80871e-14
-1.00004e-09
-3.09343e-13
-1.76352e-13
-9.99745e-10
-2.63117e-13
-1.73347e-13
-9.99861e-10
-1.91157e-13
-1.70789e-13
-9.9996e-10
-1.00453e-13
-1.68926e-13
-1.00003e-09
-1.67556e-13
-1.00007e-09
-3.06344e-13
-2.42429e-13
-9.9981e-10
-2.60569e-13
-2.38315e-13
-9.99924e-10
-1.89306e-13
-2.34808e-13
-1.00002e-09
-9.94771e-14
-2.32246e-13
-1.00009e-09
-2.30363e-13
-1.00013e-09
-3.02221e-13
-2.84502e-13
-9.99899e-10
-2.57062e-13
-2.79691e-13
-1.00001e-09
-1.86751e-13
-2.75562e-13
-1.00011e-09
-9.81318e-14
-2.72552e-13
-1.00018e-09
-2.70336e-13
-1.00021e-09
-2.97386e-13
-1e-09
-2.52941e-13
-1.00011e-09
-1.8375e-13
-1.00021e-09
-9.65477e-14
-1.00027e-09
-1.00031e-09
-4.25879e-13
-1.26575e-13
-9.99606e-10
-3.62321e-13
-1.24093e-13
-9.99767e-10
-2.63283e-13
-1.21998e-13
-9.99904e-10
-1.38382e-13
-1.20472e-13
-1e-09
-1.19388e-13
-1.00006e-09
-4.2434e-13
-2.40557e-13
-9.99653e-10
-3.61025e-13
-2.35937e-13
-9.99813e-10
-2.62342e-13
-2.31984e-13
-9.99949e-10
-1.37882e-13
-2.29081e-13
-1.00005e-09
-2.27022e-13
-1.0001e-09
-4.19735e-13
-3.30562e-13
-9.99741e-10
-3.57082e-13
-3.24213e-13
-9.99899e-10
-2.59455e-13
-3.18773e-13
-1.00003e-09
-1.36359e-13
-3.14782e-13
-1.00013e-09
-3.11948e-13
-1.00018e-09
-4.13391e-13
-3.87737e-13
-9.99863e-10
-3.51639e-13
-3.80267e-13
-1.00002e-09
-2.55475e-13
-3.7386e-13
-1.00015e-09
-1.34254e-13
-3.69172e-13
-1.00024e-09
-3.65855e-13
-1.00029e-09
-4.05902e-13
-1.00001e-09
-3.45231e-13
-1.00015e-09
-2.508e-13
-1.00028e-09
-1.31796e-13
-1.00037e-09
-1.00042e-09
-5.8521e-13
-1.72826e-13
-9.99463e-10
-4.97998e-13
-1.69003e-13
-9.99685e-10
-3.61958e-13
-1.65749e-13
-9.99875e-10
-1.90273e-13
-1.63353e-13
-1.00001e-09
-1.61716e-13
-1.00009e-09
-5.82677e-13
-3.28351e-13
-9.99527e-10
-4.9584e-13
-3.21177e-13
-9.99747e-10
-3.60365e-13
-3.15017e-13
-9.99935e-10
-1.89433e-13
-3.10487e-13
-1.00007e-09
-3.07376e-13
-1.00014e-09
-5.75526e-13
-4.50889e-13
-9.99648e-10
-4.89692e-13
-4.41029e-13
-9.99865e-10
-3.55857e-13
-4.32574e-13
-1.00005e-09
-1.87051e-13
-4.26365e-13
-1.00018e-09
-4.22104e-13
-1.00025e-09
-5.65682e-13
-5.28343e-13
-9.99814e-10
-4.81235e-13
-5.16805e-13
-1.00003e-09
-3.49664e-13
-5.06898e-13
-1.0002e-09
-1.8378e-13
-4.99651e-13
-1.00034e-09
-4.9468e-13
-1.0004e-09
-5.54126e-13
-1.00001e-09
-4.71314e-13
-1.00021e-09
-3.42434e-13
-1.00039e-09
-1.79975e-13
-1.00051e-09
-1.00058e-09
-8.04994e-13
-2.36171e-13
-9.99268e-10
-6.85228e-13
-2.30261e-13
-9.99575e-10
-4.982e-13
-2.25169e-13
-9.99837e-10
-2.61967e-13
-2.21413e-13
-1.00003e-09
-2.18922e-13
-1.00013e-09
-8.00849e-13
-4.48462e-13
-9.99356e-10
-6.8164e-13
-4.37308e-13
-9.9966e-10
-4.95545e-13
-4.27704e-13
-9.99919e-10
-2.60563e-13
-4.20629e-13
-1.00011e-09
-4.15902e-13
-1.00021e-09
-7.89718e-13
-6.15263e-13
-9.99522e-10
-6.72052e-13
-5.99966e-13
-9.9982e-10
-4.885e-13
-5.86828e-13
-1.00007e-09
-2.56827e-13
-5.77171e-13
-1.00026e-09
-5.70728e-13
-1.00036e-09
-7.74432e-13
-7.20062e-13
-9.99749e-10
-6.58919e-13
-7.02239e-13
-1.00004e-09
-4.78864e-13
-6.86925e-13
-1.00028e-09
-2.51736e-13
-6.75701e-13
-1.00046e-09
-6.68207e-13
-1.00056e-09
-7.56597e-13
-1.00001e-09
-6.43583e-13
-1.00029e-09
-4.67663e-13
-1.00053e-09
-2.45826e-13
-1.0007e-09
-1.00079e-09
-1.10834e-12
-3.23057e-13
-9.99002e-10
-9.43929e-13
-3.13891e-13
-9.99426e-10
-6.86723e-13
-3.05931e-13
-9.99788e-10
-3.6129e-13
-3.00028e-13
-1.00005e-09
-2.96182e-13
-1.00019e-09
-1.10159e-12
-6.12995e-13
-9.99122e-10
-9.38031e-13
-5.95705e-13
-9.99541e-10
-6.82334e-13
-5.80736e-13
-9.999e-10
-3.58933e-13
-5.69634e-13
-1.00016e-09
-5.62383e-13
-1.0003e-09
-1.08431e-12
-8.40035e-13
-9.9935e-10
-9.23085e-13
-8.16389e-13
-9.9976e-10
-6.71273e-13
-7.95975e-13
-1.00011e-09
-3.53038e-13
-7.8089e-13
-1.00037e-09
-7.71057e-13
-1.0005e-09
-1.06065e-12
-9.81753e-13
-9.99662e-10
-9.02679e-13
-9.54175e-13
-1.00006e-09
-6.56221e-13
-9.30442e-13
-1.0004e-09
-3.45052e-13
-9.12964e-13
-1.00064e-09
-9.01585e-13
-1.00077e-09
-1.03306e-12
-1.00002e-09
-8.78936e-13
-1.0004e-09
-6.38782e-13
-1.00073e-09
-3.35832e-13
-1.00097e-09
-1.00109e-09
-1.52746e-12
-4.42495e-13
-9.98636e-10
-1.30211e-12
-4.28298e-13
-9.99223e-10
-9.4839e-13
-4.1583e-13
-9.99726e-10
-4.99405e-13
-4.06452e-13
-1.0001e-09
-4.00429e-13
-1.00029e-09
-1.51655e-12
-8.38879e-13
-9.98802e-10
-1.29247e-12
-8.1215e-13
-9.99382e-10
-9.41093e-13
-7.88748e-13
-9.99878e-10
-4.95433e-13
-7.71189e-13
-1.00024e-09
-7.59936e-13
-1.00044e-09
-1.48982e-12
-1.14792e-12
-9.99117e-10
-1.2691e-12
-1.11146e-12
-9.99682e-10
-9.23598e-13
-1.07969e-12
-1.00016e-09
-4.86038e-13
-1.05597e-12
-1.00052e-09
-1.04082e-12
-1.00071e-09
-1.4533e-12
-1.33914e-12
-9.99545e-10
-1.23732e-12
-1.29659e-12
-1.00009e-09
-8.99943e-13
-1.25974e-12
-1.00055e-09
-4.73412e-13
-1.2324e-12
-1.00089e-09
-1.21495e-12
-1.00107e-09
-1.41074e-12
-1.00004e-09
-1.2005e-12
-1.00056e-09
-8.72687e-13
-1.001e-09
-4.58906e-13
-1.00133e-09
-1.0015e-09
-2.10726e-12
-6.07273e-13
-9.98134e-10
-1.79933e-12
-5.85292e-13
-9.98945e-10
-1.31312e-12
-5.65595e-13
-9.99647e-10
-6.92563e-13
-5.5047e-13
-1.00017e-09
-5.40888e-13
-1.00044e-09
-2.08977e-12
-1.15001e-12
-9.98364e-10
-1.7835e-12
-1.10873e-12
-9.99165e-10
-1.30087e-12
-1.07192e-12
-9.99854e-10
-6.85809e-13
-1.04381e-12
-1.00036e-09
-1.02604e-12
-1.00064e-09
-2.04843e-12
-1.57074e-12
-9.988e-10
-1.74672e-12
-1.51463e-12
-9.99577e-10
-1.27287e-12
-1.46498e-12
-1.00025e-09
-6.70599e-13
-1.42737e-12
-1.00074e-09
-1.40363e-12
-1.001e-09
-1.9922e-12
-1.82782e-12
-9.9939e-10
-1.69707e-12
-1.76243e-12
-1.00014e-09
-1.23539e-12
-1.70515e-12
-1.00078e-09
-6.50344e-13
-1.66215e-12
-1.00124e-09
-1.63507e-12
-1.00149e-09
-1.92676e-12
-1.00007e-09
-1.63987e-12
-1.00078e-09
-1.19256e-12
-1.00139e-09
-6.27323e-13
-1.00183e-09
-1.00206e-09
-2.91003e-12
-8.35731e-13
-9.97438e-10
-2.49181e-12
-8.01607e-13
-9.98562e-10
-1.82474e-12
-7.70079e-13
-9.99544e-10
-9.651e-13
-7.45179e-13
-1.00028e-09
-7.29492e-13
-1.00068e-09
-2.88199e-12
-1.58054e-12
-9.9776e-10
-2.46558e-12
-1.51677e-12
-9.98866e-10
-1.80383e-12
-1.4583e-12
-9.99828e-10
-9.53338e-13
-1.41246e-12
-1.00055e-09
-1.3836e-12
-1.00094e-09
-2.81803e-12
-2.15359e-12
-9.98368e-10
-2.40713e-12
-2.06741e-12
-9.99438e-10
-1.7582e-12
-1.98936e-12
-1.00036e-09
-9.28041e-13
-1.92885e-12
-1.00105e-09
-1.8908e-12
-1.00142e-09
-2.73161e-12
-2.49754e-12
-9.99186e-10
-2.32911e-12
-2.39749e-12
-1.00021e-09
-1.69796e-12
-2.30829e-12
-1.00109e-09
-8.94849e-13
-2.24009e-12
-1.00174e-09
-2.19755e-12
-1.00208e-09
-2.63147e-12
-1.00012e-09
-2.24008e-12
-1.00109e-09
-1.63013e-12
-1.00192e-09
-8.57928e-13
-1.00252e-09
-1.00284e-09
-4.0216e-12
-1.15445e-12
-9.96469e-10
-3.46047e-12
-1.10126e-12
-9.98022e-10
-2.54937e-12
-1.04985e-12
-9.99405e-10
-1.3549e-12
-1.00761e-12
-1.00047e-09
-9.80825e-13
-1.00105e-09
-3.97654e-12
-2.18013e-12
-9.96922e-10
-3.4163e-12
-2.08157e-12
-9.98446e-10
-2.51274e-12
-1.98731e-12
-9.99794e-10
-1.33366e-12
-1.91045e-12
-1.00082e-09
-1.86162e-12
-1.00139e-09
-3.87748e-12
-2.96138e-12
-9.97776e-10
-3.32203e-12
-2.82944e-12
-9.99245e-10
-2.4363e-12
-2.7056e-12
-1.00053e-09
-1.28993e-12
-2.60622e-12
-1.0015e-09
-2.54343e-12
-1.00203e-09
-3.74505e-12
-3.41909e-12
-9.98919e-10
-3.19831e-12
-3.26701e-12
-1.00032e-09
-2.33756e-12
-3.12766e-12
-1.00153e-09
-1.23407e-12
-3.01819e-12
-1.00243e-09
-2.94986e-12
-1.00291e-09
-3.59282e-12
-1.00021e-09
-3.05936e-12
-1.00154e-09
-2.22891e-12
-1.00266e-09
-1.17367e-12
-1.00349e-09
-1.00393e-09
-5.55926e-12
-1.60262e-12
-9.95096e-10
-4.82392e-12
-1.51918e-12
-9.97238e-10
-3.59111e-12
-1.43304e-12
-9.99205e-10
-1.92428e-12
-1.35859e-12
-1.00078e-09
-1.31037e-12
-1.00167e-09
-5.48647e-12
-3.02288e-12
-9.9574e-10
-4.74766e-12
-2.87051e-12
-9.97833e-10
-3.5247e-12
-2.71515e-12
-9.99735e-10
-1.8842e-12
-2.58133e-12
-1.00124e-09
-2.49429e-12
-1.00209e-09
-5.33283e-12
-4.08951e-12
-9.96961e-10
-4.59216e-12
-3.88868e-12
-9.98968e-10
-3.39178e-12
-3.68947e-12
-1.00076e-09
-1.80479e-12
-3.52179e-12
-1.00215e-09
-3.41364e-12
-1.00291e-09
-5.13091e-12
-4.69646e-12
-9.98574e-10
-4.39335e-12
-4.46769e-12
-1.00048e-09
-3.22569e-12
-4.24907e-12
-1.00213e-09
-1.70704e-12
-4.0701e-12
-1.0034e-09
-3.95654e-12
-1.00407e-09
-4.90217e-12
-1.0004e-09
-4.17585e-12
-1.00219e-09
-3.04865e-12
-1.00372e-09
-1.60502e-12
-1.00486e-09
-1.00545e-09
-7.68135e-12
-2.2391e-12
-9.93105e-10
-6.76024e-12
-2.10637e-12
-9.96053e-10
-5.12357e-12
-1.9565e-12
-9.98885e-10
-2.78282e-12
-1.81948e-12
-1.0013e-09
-1.72767e-12
-1.00272e-09
-7.56205e-12
-4.22447e-12
-9.94029e-10
-6.62376e-12
-3.98827e-12
-9.9689e-10
-4.99862e-12
-3.72417e-12
-9.99592e-10
-2.70391e-12
-3.47985e-12
-1.00188e-09
-3.31353e-12
-1.00321e-09
-7.32297e-12
-5.68161e-12
-9.95821e-10
-6.35907e-12
-5.37805e-12
-9.98542e-10
-4.75615e-12
-5.05103e-12
-1.00103e-09
-2.55005e-12
-4.75856e-12
-1.00307e-09
-4.56132e-12
-1.00422e-09
-7.01706e-12
-6.49105e-12
-9.98122e-10
-6.03316e-12
-6.15287e-12
-1.00069e-09
-4.46772e-12
-5.8087e-12
-1.00294e-09
-2.37006e-12
-5.50901e-12
-1.00474e-09
-5.30989e-12
-1.00569e-09
-6.6807e-12
-1.00077e-09
-5.6923e-12
-1.00319e-09
-4.1727e-12
-1.00525e-09
-2.18832e-12
-1.00684e-09
-1.00759e-09
-1.06024e-11
-3.1531e-12
-9.90078e-10
-9.54451e-12
-2.93476e-12
-9.94176e-10
-7.45652e-12
-2.66011e-12
-9.98313e-10
-4.13711e-12
-2.39827e-12
-1.00222e-09
-2.2144e-12
-1.00465e-09
-1.03998e-11
-5.98016e-12
-9.91406e-10
-9.28826e-12
-5.60932e-12
-9.95327e-10
-7.21443e-12
-5.14243e-12
-9.99184e-10
-3.9769e-12
-4.67067e-12
-1.00284e-09
-4.32377e-12
-1.00508e-09
-1.00235e-11
-7.95607e-12
-9.94192e-10
-8.819e-12
-7.4989e-12
-9.97857e-10
-6.74536e-12
-6.94453e-12
-1.0013e-09
-3.65355e-12
-6.41754e-12
-1.00442e-09
-6.03319e-12
-1.00616e-09
-9.56129e-12
-9.08102e-12
-9.97461e-10
-8.2676e-12
-8.59342e-12
-1.00089e-09
-6.22865e-12
-8.05355e-12
-1.00387e-09
-3.30339e-12
-7.53843e-12
-1.00655e-09
-7.15654e-12
-1.00787e-09
-9.08653e-12
-1.00156e-09
-7.73882e-12
-1.00482e-09
-5.72493e-12
-1.00755e-09
-2.9456e-12
-1.00985e-09
-1.01062e-09
-1.46436e-11
-4.47354e-12
-9.85036e-10
-1.36103e-11
-4.08529e-12
-9.91124e-10
-1.11821e-11
-3.54205e-12
-9.97199e-10
-6.40066e-12
-3.03578e-12
-1.00396e-09
-2.6605e-12
-1.00839e-09
-1.42738e-11
-8.67116e-12
-9.86853e-10
-1.30963e-11
-8.05845e-12
-9.92531e-10
-1.07115e-11
-7.2011e-12
-9.9791e-10
-6.07739e-12
-6.23379e-12
-1.00428e-09
-5.43088e-12
-1.00838e-09
-1.3657e-11
-1.12199e-11
-9.91798e-10
-1.22295e-11
-1.0524e-11
-9.96819e-10
-9.73751e-12
-9.52463e-12
-1.00147e-09
-5.32722e-12
-8.56369e-12
-1.0065e-09
-7.77031e-12
-1.00915e-09
-1.29503e-11
-1.3028e-11
-9.96112e-10
-1.12399e-11
-1.23341e-11
-1.00079e-09
-8.7982e-12
-1.15098e-11
-1.00433e-09
-4.61659e-12
-1.06117e-11
-1.00868e-09
-9.76346e-12
-1.0105e-09
-1.23321e-11
-1.00333e-09
-1.04626e-11
-1.0078e-09
-7.92824e-12
-1.01124e-09
-3.76086e-12
-1.01514e-09
-1.01483e-09
-2.04696e-11
-6.32013e-12
-9.75488e-10
-1.96122e-11
-5.5531e-12
-9.86429e-10
-1.74983e-11
-4.41934e-12
-9.94894e-10
-1.0433e-11
-3.49116e-12
-1.00754e-09
-2.74187e-12
-1.01608e-09
-1.97135e-11
-1.32202e-11
-9.77224e-10
-1.84518e-11
-1.20195e-11
-9.87327e-10
-1.66397e-11
-1.04369e-11
-9.93705e-10
-9.85651e-12
-8.35049e-12
-1.0062e-09
-6.26319e-12
-1.01472e-09
-1.85773e-11
-1.56697e-11
-9.88414e-10
-1.68656e-11
-1.46144e-11
-9.95936e-10
-1.4425e-11
-1.2632e-11
-1.00172e-09
-7.87368e-12
-1.09757e-11
-1.01043e-09
-9.25919e-12
-1.01402e-09
-1.74668e-11
-1.97045e-11
-9.91582e-10
-1.48248e-11
-1.85733e-11
-9.99469e-10
-1.2767e-11
-1.74313e-11
-1.00159e-09
-6.4517e-12
-1.59275e-11
-1.01005e-09
-1.36435e-11
-1.01256e-09
-1.67847e-11
-1.00737e-09
-1.3936e-11
-1.01435e-09
-1.13142e-11
-1.01774e-09
-4.09395e-12
-1.02678e-09
-1.02008e-09
-2.95013e-11
-8.81174e-12
-9.5579e-10
-2.82141e-11
-7.32193e-12
-9.80394e-10
-2.89118e-11
-4.99115e-12
-9.89205e-10
-1.80514e-11
-3.36209e-12
-1.01504e-09
-1.76945e-12
-1.03236e-09
-2.77679e-11
-2.20417e-11
-9.54114e-10
-2.53036e-11
-1.88803e-11
-9.78232e-10
-2.7709e-11
-1.60282e-11
-9.80262e-10
-1.75199e-11
-1.14374e-11
-1.00831e-09
-5.84394e-12
-1.02816e-09
-2.54928e-11
-2.13526e-11
-9.85014e-10
-2.27993e-11
-2.0126e-11
-9.97384e-10
-2.20458e-11
-1.61017e-11
-1.0024e-09
-1.13831e-11
-1.3799e-11
-1.01873e-09
-9.15041e-12
-1.0221e-09
-2.37686e-11
-3.30353e-11
-9.74849e-10
-1.79958e-11
-2.99215e-11
-9.95446e-10
-1.94795e-11
-2.88381e-11
-9.87367e-10
-9.32011e-12
-2.65357e-11
-1.00747e-09
-1.9791e-11
-1.01124e-09
-2.36363e-11
-1.01626e-09
-1.80615e-11
-1.03168e-09
-1.69433e-11
-1.03016e-09
-2.61226e-12
-1.05548e-09
-1.02476e-09