/*--------------------------------*- C++ -*----------------------------------*\
| =========                 |                                                 |
| \\      /  F ield         | OpenFOAM: The Open Source CFD Toolbox           |
|  \\    /   O peration     | Version:  5.x                                   |
|   \\  /    A nd           | Web:      www.OpenFOAM.org                      |
|    \\/     M anipulation  |                                                 |
\*---------------------------------------------------------------------------*/
FoamFile
{
    version     2.0;
    format      ascii;
    class       volVectorField;
    location    "0.02";
    object      U;
}
// * * * * * * * * * * * * * * * * * * * * * * * * * * * * * * * * * * * * * //

dimensions      [0 1 -1 0 0 0 0];

internalField   nonuniform List<vector> 
2250
(
(-1.50883e-10 -1.35972e-11 -0.000999999)
(-1.22792e-10 -1.72541e-11 -0.000999999)
(-9.57677e-11 -1.96272e-11 -0.000999999)
(-5.7348e-11 -2.0004e-11 -0.000999999)
(-1.83296e-11 -1.92667e-11 -0.000999999)
(-1.56476e-10 -3.2225e-11 -0.000999999)
(-1.29108e-10 -4.34264e-11 -0.000999999)
(-9.87313e-11 -5.13807e-11 -0.000999999)
(-5.71258e-11 -5.56159e-11 -0.000999999)
(-1.76457e-11 -5.75652e-11 -0.000999999)
(-1.64389e-10 -5.02517e-11 -0.000999999)
(-1.42219e-10 -6.8463e-11 -0.000999999)
(-1.08165e-10 -8.13323e-11 -0.000999999)
(-6.37588e-11 -9.14443e-11 -0.000999999)
(-2.04076e-11 -9.81317e-11 -0.001)
(-1.70227e-10 -6.48366e-11 -0.000999999)
(-1.60195e-10 -9.56297e-11 -0.000999999)
(-1.21719e-10 -1.14786e-10 -0.001)
(-7.41145e-11 -1.30061e-10 -0.001)
(-2.44992e-11 -1.38547e-10 -0.001)
(-1.76063e-10 -1.10934e-10 -0.000999999)
(-1.92315e-10 -1.15445e-10 -0.000999999)
(-1.42603e-10 -1.24147e-10 -0.001)
(-8.77887e-11 -1.34498e-10 -0.001)
(-2.91181e-11 -1.39813e-10 -0.001)
(-4.58061e-10 -3.62136e-11 -0.000999998)
(-3.83416e-10 -4.77924e-11 -0.000999999)
(-2.94208e-10 -5.31055e-11 -0.000999999)
(-1.75023e-10 -5.40439e-11 -0.000999999)
(-5.60453e-11 -5.44434e-11 -0.000999999)
(-4.73879e-10 -1.08732e-10 -0.000999999)
(-4.01164e-10 -1.35422e-10 -0.000999999)
(-3.01084e-10 -1.52745e-10 -0.000999999)
(-1.76792e-10 -1.63802e-10 -0.000999999)
(-5.66372e-11 -1.7205e-10 -0.000999999)
(-4.91226e-10 -1.93728e-10 -0.000999999)
(-4.28242e-10 -2.25939e-10 -0.000999999)
(-3.232e-10 -2.53018e-10 -0.000999999)
(-1.95012e-10 -2.78108e-10 -0.000999999)
(-6.47139e-11 -2.9395e-10 -0.001)
(-5.03817e-10 -2.41003e-10 -0.000999999)
(-4.60464e-10 -3.06526e-10 -0.000999999)
(-3.53271e-10 -3.48349e-10 -0.001)
(-2.18301e-10 -3.80739e-10 -0.001)
(-7.30083e-11 -3.92678e-10 -0.001)
(-4.98818e-10 -3.3171e-10 -0.000999999)
(-5.35442e-10 -3.49348e-10 -0.001)
(-3.97421e-10 -3.73371e-10 -0.001)
(-2.40085e-10 -3.93404e-10 -0.001)
(-7.73739e-11 -3.9772e-10 -0.001)
(-8.1169e-10 -7.4282e-11 -0.000999998)
(-7.03819e-10 -8.69468e-11 -0.000999999)
(-5.32212e-10 -9.1762e-11 -0.000999999)
(-3.22984e-10 -9.45116e-11 -0.000999999)
(-1.06735e-10 -9.92748e-11 -0.000999999)
(-8.27848e-10 -2.3947e-10 -0.000999998)
(-7.22809e-10 -2.6074e-10 -0.000999999)
(-5.4087e-10 -2.78234e-10 -0.000999999)
(-3.31353e-10 -2.93818e-10 -0.000999999)
(-1.11935e-10 -3.07777e-10 -0.000999999)
(-8.41141e-10 -4.19479e-10 -0.000999999)
(-7.4404e-10 -4.2968e-10 -0.000999999)
(-5.66371e-10 -4.60529e-10 -0.000999999)
(-3.53774e-10 -4.89497e-10 -0.001)
(-1.21495e-10 -5.03366e-10 -0.001)
(-8.58992e-10 -5.72312e-10 -0.000999999)
(-7.63881e-10 -5.76174e-10 -0.000999999)
(-6.00719e-10 -6.10569e-10 -0.001)
(-3.75205e-10 -6.35775e-10 -0.001)
(-1.26769e-10 -6.34394e-10 -0.001)
(-9.18779e-10 -5.11343e-10 -0.000999999)
(-7.82298e-10 -6.15182e-10 -0.001)
(-6.25991e-10 -6.475e-10 -0.001)
(-3.7888e-10 -6.63108e-10 -0.001)
(-1.21387e-10 -6.57139e-10 -0.001)
(-1.20483e-09 -1.36985e-10 -0.000999998)
(-1.0756e-09 -1.43214e-10 -0.000999999)
(-8.20452e-10 -1.46833e-10 -0.000999999)
(-5.15133e-10 -1.51772e-10 -0.000999999)
(-1.7618e-10 -1.58965e-10 -0.000999999)
(-1.21215e-09 -4.19135e-10 -0.000999998)
(-1.08766e-09 -4.2635e-10 -0.000999999)
(-8.30663e-10 -4.41027e-10 -0.000999999)
(-5.28602e-10 -4.56217e-10 -0.000999999)
(-1.84023e-10 -4.68046e-10 -0.001)
(-1.21825e-09 -6.87574e-10 -0.000999999)
(-1.09966e-09 -6.81026e-10 -0.000999999)
(-8.51966e-10 -7.07367e-10 -0.000999999)
(-5.44085e-10 -7.26718e-10 -0.001)
(-1.89235e-10 -7.28731e-10 -0.001)
(-1.24254e-09 -9.31304e-10 -0.000999999)
(-1.10749e-09 -8.87371e-10 -0.000999999)
(-8.76404e-10 -9.0347e-10 -0.001)
(-5.51454e-10 -9.09079e-10 -0.001)
(-1.87476e-10 -8.92975e-10 -0.001)
(-1.36293e-09 -7.62243e-10 -0.000999999)
(-1.07187e-09 -9.17933e-10 -0.001)
(-8.73724e-10 -9.53495e-10 -0.001)
(-5.35445e-10 -9.61526e-10 -0.001)
(-1.74983e-10 -9.5059e-10 -0.001)
(-1.65287e-09 -2.13812e-10 -0.000999998)
(-1.50007e-09 -2.16036e-10 -0.000999999)
(-1.17277e-09 -2.20987e-10 -0.000999999)
(-7.53823e-10 -2.26403e-10 -0.000999999)
(-2.61421e-10 -2.30736e-10 -0.001)
(-1.65863e-09 -6.23406e-10 -0.000999998)
(-1.51026e-09 -6.28782e-10 -0.000999999)
(-1.1855e-09 -6.43609e-10 -0.000999999)
(-7.65526e-10 -6.53253e-10 -0.001)
(-2.66712e-10 -6.56374e-10 -0.001)
(-1.66826e-09 -9.76752e-10 -0.000999999)
(-1.5233e-09 -9.78116e-10 -0.000999999)
(-1.19963e-09 -9.98989e-10 -0.001)
(-7.69408e-10 -1.00413e-09 -0.001)
(-2.66355e-10 -9.96099e-10 -0.001)
(-1.69217e-09 -1.29589e-09 -0.000999999)
(-1.53262e-09 -1.24766e-09 -0.000999999)
(-1.21162e-09 -1.2491e-09 -0.001)
(-7.64654e-10 -1.23943e-09 -0.001)
(-2.60658e-10 -1.21873e-09 -0.001)
(-1.8217e-09 -1.17302e-09 -0.000999999)
(-1.47642e-09 -1.31764e-09 -0.001)
(-1.19143e-09 -1.33482e-09 -0.001)
(-7.41487e-10 -1.33464e-09 -0.001)
(-2.48075e-10 -1.3255e-09 -0.001)
(-2.21616e-09 -3.01061e-10 -0.000999998)
(-2.02361e-09 -3.06388e-10 -0.000999998)
(-1.61263e-09 -3.13624e-10 -0.000999999)
(-1.04243e-09 -3.17585e-10 -0.000999999)
(-3.60429e-10 -3.17117e-10 -0.001)
(-2.23298e-09 -8.69307e-10 -0.000999998)
(-2.04017e-09 -8.8214e-10 -0.000999999)
(-1.62702e-09 -8.96453e-10 -0.000999999)
(-1.04851e-09 -8.99365e-10 -0.001)
(-3.61231e-10 -8.95122e-10 -0.001)
(-2.25326e-09 -1.35493e-09 -0.000999998)
(-2.05468e-09 -1.35933e-09 -0.000999999)
(-1.63299e-09 -1.36998e-09 -0.001)
(-1.04487e-09 -1.36605e-09 -0.001)
(-3.58642e-10 -1.35702e-09 -0.001)
(-2.27118e-09 -1.79662e-09 -0.000999999)
(-2.05525e-09 -1.7174e-09 -0.001)
(-1.63376e-09 -1.70344e-09 -0.001)
(-1.03827e-09 -1.69117e-09 -0.001)
(-3.5489e-10 -1.67906e-09 -0.001)
(-2.39009e-09 -1.71438e-09 -0.001)
(-1.96165e-09 -1.85665e-09 -0.001)
(-1.60683e-09 -1.85492e-09 -0.001)
(-1.02383e-09 -1.85036e-09 -0.001)
(-3.49824e-10 -1.84756e-09 -0.001)
(-2.97676e-09 -4.15956e-10 -0.000999997)
(-2.71829e-09 -4.25141e-10 -0.000999998)
(-2.17464e-09 -4.31851e-10 -0.000999999)
(-1.40078e-09 -4.34354e-10 -0.000999999)
(-4.81254e-10 -4.31053e-10 -0.001)
(-3.00368e-09 -1.20989e-09 -0.000999997)
(-2.7395e-09 -1.22223e-09 -0.000999998)
(-2.18812e-09 -1.23111e-09 -0.000999999)
(-1.40359e-09 -1.23157e-09 -0.001)
(-4.7975e-10 -1.22539e-09 -0.001)
(-3.02466e-09 -1.89754e-09 -0.000999998)
(-2.74488e-09 -1.8821e-09 -0.000999999)
(-2.18835e-09 -1.88132e-09 -0.001)
(-1.40029e-09 -1.8793e-09 -0.001)
(-4.78451e-10 -1.87624e-09 -0.001)
(-3.03605e-09 -2.48548e-09 -0.000999999)
(-2.72332e-09 -2.38126e-09 -0.001)
(-2.18551e-09 -2.35194e-09 -0.001)
(-1.40233e-09 -2.34891e-09 -0.001)
(-4.8038e-10 -2.35123e-09 -0.001)
(-3.1708e-09 -2.42154e-09 -0.001)
(-2.61126e-09 -2.57527e-09 -0.001)
(-2.15608e-09 -2.58056e-09 -0.001)
(-1.40428e-09 -2.58404e-09 -0.001)
(-4.8537e-10 -2.59093e-09 -0.001)
(-4.01441e-09 -5.81188e-10 -0.000999996)
(-3.6514e-09 -5.86856e-10 -0.000999997)
(-2.9086e-09 -5.90338e-10 -0.000999998)
(-1.86885e-09 -5.92846e-10 -0.000999999)
(-6.408e-10 -5.88098e-10 -0.001)
(-4.03567e-09 -1.68838e-09 -0.000999997)
(-3.66766e-09 -1.6895e-09 -0.000999998)
(-2.92027e-09 -1.6924e-09 -0.000999999)
(-1.87137e-09 -1.69528e-09 -0.001)
(-6.38423e-10 -1.68903e-09 -0.001)
(-4.04167e-09 -2.63062e-09 -0.000999997)
(-3.66261e-09 -2.60316e-09 -0.000999999)
(-2.92016e-09 -2.60155e-09 -0.001)
(-1.8725e-09 -2.60888e-09 -0.001)
(-6.39122e-10 -2.61206e-09 -0.001)
(-4.04917e-09 -3.36967e-09 -0.000999998)
(-3.6387e-09 -3.29503e-09 -0.001)
(-2.92617e-09 -3.27429e-09 -0.001)
(-1.88714e-09 -3.28682e-09 -0.001)
(-6.46726e-10 -3.29871e-09 -0.001)
(-4.17913e-09 -3.45352e-09 -0.000999999)
(-3.56723e-09 -3.56232e-09 -0.001)
(-2.91205e-09 -3.58938e-09 -0.001)
(-1.9035e-09 -3.61024e-09 -0.001)
(-6.57444e-10 -3.62522e-09 -0.001)
(-5.41953e-09 -8.0812e-10 -0.000999995)
(-4.9003e-09 -8.0557e-10 -0.000999997)
(-3.89343e-09 -8.06473e-10 -0.000999998)
(-2.50244e-09 -8.08868e-10 -0.000999999)
(-8.5867e-10 -8.02214e-10 -0.001)
(-5.42676e-09 -2.33371e-09 -0.000999996)
(-4.90819e-09 -2.32671e-09 -0.000999997)
(-3.90433e-09 -2.32829e-09 -0.000999999)
(-2.50459e-09 -2.33331e-09 -0.001)
(-8.55223e-10 -2.32606e-09 -0.001)
(-5.41756e-09 -3.59895e-09 -0.000999997)
(-4.90454e-09 -3.59165e-09 -0.000999998)
(-3.90778e-09 -3.60065e-09 -0.001)
(-2.50974e-09 -3.61577e-09 -0.001)
(-8.57656e-10 -3.62152e-09 -0.001)
(-5.41264e-09 -4.54554e-09 -0.000999998)
(-4.91004e-09 -4.52788e-09 -0.001)
(-3.92869e-09 -4.53724e-09 -0.001)
(-2.53274e-09 -4.56414e-09 -0.001)
(-8.68071e-10 -4.57672e-09 -0.001)
(-5.49649e-09 -4.91664e-09 -0.000999999)
(-4.89625e-09 -4.95666e-09 -0.001)
(-3.94418e-09 -4.98325e-09 -0.001)
(-2.55832e-09 -5.01285e-09 -0.001)
(-8.79137e-10 -5.02744e-09 -0.001)
(-7.33908e-09 -1.1083e-09 -0.000999993)
(-6.60793e-09 -1.10169e-09 -0.000999996)
(-5.2513e-09 -1.10093e-09 -0.000999997)
(-3.37656e-09 -1.10089e-09 -0.000999999)
(-1.15938e-09 -1.09356e-09 -0.001)
(-7.34137e-09 -3.2043e-09 -0.000999994)
(-6.61341e-09 -3.19784e-09 -0.000999996)
(-5.26074e-09 -3.19754e-09 -0.000999998)
(-3.37786e-09 -3.19991e-09 -0.001)
(-1.15639e-09 -3.19234e-09 -0.001)
(-7.3292e-09 -4.94296e-09 -0.000999995)
(-6.6142e-09 -4.95688e-09 -0.000999998)
(-5.26382e-09 -4.96849e-09 -0.001)
(-3.38432e-09 -4.98275e-09 -0.001)
(-1.1603e-09 -4.98559e-09 -0.001)
(-7.30913e-09 -6.19921e-09 -0.000999997)
(-6.63914e-09 -6.22079e-09 -0.001)
(-5.28694e-09 -6.24789e-09 -0.001)
(-3.40496e-09 -6.2772e-09 -0.001)
(-1.16897e-09 -6.28249e-09 -0.001)
(-7.30875e-09 -6.90661e-09 -0.000999999)
(-6.66289e-09 -6.88358e-09 -0.001)
(-5.32042e-09 -6.89163e-09 -0.001)
(-3.43138e-09 -6.9154e-09 -0.001)
(-1.17782e-09 -6.91986e-09 -0.00100001)
(-9.99939e-09 -1.51521e-09 -0.000999991)
(-8.99576e-09 -1.50905e-09 -0.000999994)
(-7.14464e-09 -1.50385e-09 -0.000999997)
(-4.59069e-09 -1.49969e-09 -0.000999999)
(-1.57721e-09 -1.49456e-09 -0.001)
(-1.00039e-08 -4.40524e-09 -0.000999992)
(-9.00185e-09 -4.39629e-09 -0.000999995)
(-7.14917e-09 -4.38466e-09 -0.000999998)
(-4.59321e-09 -4.37941e-09 -0.001)
(-1.578e-09 -4.37155e-09 -0.001)
(-9.98646e-09 -6.83477e-09 -0.000999994)
(-8.9929e-09 -6.83911e-09 -0.000999997)
(-7.14198e-09 -6.83321e-09 -0.001)
(-4.59526e-09 -6.83526e-09 -0.001)
(-1.58094e-09 -6.82682e-09 -0.001)
(-9.94942e-09 -8.57722e-09 -0.000999997)
(-9.00057e-09 -8.57418e-09 -0.001)
(-7.14575e-09 -8.58531e-09 -0.001)
(-4.60053e-09 -8.59638e-09 -0.001)
(-1.58296e-09 -8.58378e-09 -0.00100001)
(-9.9059e-09 -9.54871e-09 -0.001)
(-9.00099e-09 -9.50574e-09 -0.001)
(-7.16445e-09 -9.49171e-09 -0.00100001)
(-4.6108e-09 -9.49876e-09 -0.00100001)
(-1.58514e-09 -9.48497e-09 -0.00100001)
(-1.36885e-08 -2.08281e-09 -0.000999988)
(-1.23232e-08 -2.07165e-09 -0.000999992)
(-9.77179e-09 -2.05736e-09 -0.000999996)
(-6.27428e-09 -2.04889e-09 -0.000999999)
(-2.15777e-09 -2.04571e-09 -0.001)
(-1.36874e-08 -6.06455e-09 -0.000999989)
(-1.23215e-08 -6.03628e-09 -0.000999994)
(-9.768e-09 -6.00324e-09 -0.000999997)
(-6.2788e-09 -5.98647e-09 -0.001)
(-2.16271e-09 -5.973e-09 -0.001)
(-1.36443e-08 -9.42572e-09 -0.000999992)
(-1.22861e-08 -9.3984e-09 -0.000999996)
(-9.74141e-09 -9.3628e-09 -0.001)
(-6.26823e-09 -9.34302e-09 -0.001)
(-2.1602e-09 -9.31415e-09 -0.001)
(-1.35793e-08 -1.17998e-08 -0.000999996)
(-1.2259e-08 -1.17922e-08 -0.001)
(-9.71321e-09 -1.17698e-08 -0.001)
(-6.24891e-09 -1.17479e-08 -0.00100001)
(-2.15224e-09 -1.17074e-08 -0.00100001)
(-1.34646e-08 -1.31983e-08 -0.001)
(-1.22561e-08 -1.30765e-08 -0.001)
(-9.69747e-09 -1.30311e-08 -0.00100001)
(-6.22913e-09 -1.30076e-08 -0.00100001)
(-2.1427e-09 -1.2967e-08 -0.00100001)
(-1.87632e-08 -2.865e-09 -0.000999984)
(-1.68974e-08 -2.83734e-09 -0.00099999)
(-1.33917e-08 -2.81285e-09 -0.000999995)
(-8.59884e-09 -2.80014e-09 -0.000999999)
(-2.95971e-09 -2.79458e-09 -0.001)
(-1.87471e-08 -8.31967e-09 -0.000999986)
(-1.68778e-08 -8.25382e-09 -0.000999992)
(-1.33804e-08 -8.19746e-09 -0.000999997)
(-8.60267e-09 -8.16604e-09 -0.001)
(-2.96526e-09 -8.13947e-09 -0.001)
(-1.86687e-08 -1.29093e-08 -0.000999989)
(-1.68084e-08 -1.28473e-08 -0.000999995)
(-1.33305e-08 -1.27799e-08 -0.001)
(-8.57392e-09 -1.27326e-08 -0.001)
(-2.95492e-09 -1.26792e-08 -0.00100001)
(-1.85757e-08 -1.61569e-08 -0.000999994)
(-1.67489e-08 -1.61388e-08 -0.001)
(-1.32665e-08 -1.6079e-08 -0.001)
(-8.52751e-09 -1.60207e-08 -0.00100001)
(-2.93696e-09 -1.59497e-08 -0.00100001)
(-1.83841e-08 -1.81087e-08 -0.001)
(-1.67305e-08 -1.79269e-08 -0.00100001)
(-1.32129e-08 -1.7836e-08 -0.00100001)
(-8.4764e-09 -1.77705e-08 -0.00100001)
(-2.91529e-09 -1.76958e-08 -0.00100002)
(-2.57182e-08 -3.91318e-09 -0.000999979)
(-2.3165e-08 -3.86836e-09 -0.000999987)
(-1.83729e-08 -3.8372e-09 -0.000999993)
(-1.18012e-08 -3.81949e-09 -0.000999998)
(-4.06266e-09 -3.80721e-09 -0.001)
(-2.56912e-08 -1.13432e-08 -0.000999981)
(-2.31336e-08 -1.12418e-08 -0.000999989)
(-1.83595e-08 -1.11665e-08 -0.000999996)
(-1.18015e-08 -1.11176e-08 -0.001)
(-4.06558e-09 -1.1074e-08 -0.001)
(-2.55829e-08 -1.76044e-08 -0.000999986)
(-2.30338e-08 -1.75025e-08 -0.000999994)
(-1.8285e-08 -1.74023e-08 -0.001)
(-1.17538e-08 -1.73245e-08 -0.00100001)
(-4.04873e-09 -1.72474e-08 -0.00100001)
(-2.54674e-08 -2.20958e-08 -0.000999992)
(-2.29322e-08 -2.20301e-08 -0.001)
(-1.81826e-08 -2.19202e-08 -0.00100001)
(-1.16813e-08 -2.18219e-08 -0.00100001)
(-4.0225e-09 -2.17195e-08 -0.00100001)
(-2.52331e-08 -2.46831e-08 -0.001)
(-2.28582e-08 -2.44803e-08 -0.00100001)
(-1.80774e-08 -2.43422e-08 -0.00100001)
(-1.15965e-08 -2.42315e-08 -0.00100002)
(-3.98917e-09 -2.41188e-08 -0.00100002)
(-3.52688e-08 -5.31402e-09 -0.000999971)
(-3.17862e-08 -5.26452e-09 -0.000999982)
(-2.52305e-08 -5.2282e-09 -0.000999991)
(-1.62054e-08 -5.20246e-09 -0.000999998)
(-5.57649e-09 -5.1815e-09 -0.001)
(-3.52426e-08 -1.54194e-08 -0.000999974)
(-3.17615e-08 -1.53011e-08 -0.000999985)
(-2.52171e-08 -1.52023e-08 -0.000999995)
(-1.62001e-08 -1.51288e-08 -0.001)
(-5.57628e-09 -1.50651e-08 -0.00100001)
(-3.50969e-08 -2.39833e-08 -0.00099998)
(-3.16313e-08 -2.38388e-08 -0.000999992)
(-2.51081e-08 -2.36893e-08 -0.001)
(-1.61299e-08 -2.35718e-08 -0.00100001)
(-5.55322e-09 -2.34654e-08 -0.00100001)
(-3.49212e-08 -3.0219e-08 -0.000999989)
(-3.14684e-08 -3.00516e-08 -0.001)
(-2.49516e-08 -2.98675e-08 -0.00100001)
(-1.60235e-08 -2.97137e-08 -0.00100002)
(-5.51628e-09 -2.95703e-08 -0.00100002)
(-3.4663e-08 -3.36288e-08 -0.001)
(-3.12799e-08 -3.33748e-08 -0.00100001)
(-2.47712e-08 -3.31639e-08 -0.00100002)
(-1.58917e-08 -3.29951e-08 -0.00100003)
(-5.4681e-09 -3.28359e-08 -0.00100003)
(-4.83935e-08 -7.22712e-09 -0.00099996)
(-4.36438e-08 -7.17419e-09 -0.000999976)
(-3.46447e-08 -7.12443e-09 -0.000999988)
(-2.22425e-08 -7.0848e-09 -0.000999998)
(-7.64972e-09 -7.05322e-09 -0.001)
(-4.83683e-08 -2.1008e-08 -0.000999965)
(-4.3625e-08 -2.08573e-08 -0.00099998)
(-3.4622e-08 -2.07099e-08 -0.000999993)
(-2.22279e-08 -2.05966e-08 -0.001)
(-7.64652e-09 -2.05025e-08 -0.00100001)
(-4.81476e-08 -3.27373e-08 -0.000999974)
(-4.34311e-08 -3.25052e-08 -0.000999989)
(-3.44524e-08 -3.22669e-08 -0.001)
(-2.21193e-08 -3.20856e-08 -0.00100001)
(-7.61081e-09 -3.19303e-08 -0.00100002)
(-4.78394e-08 -4.12948e-08 -0.000999986)
(-4.31559e-08 -4.09863e-08 -0.001)
(-3.42045e-08 -4.06811e-08 -0.00100001)
(-2.19558e-08 -4.04436e-08 -0.00100002)
(-7.55449e-09 -4.02409e-08 -0.00100003)
(-4.74311e-08 -4.59155e-08 -0.001)
(-4.28174e-08 -4.55008e-08 -0.00100001)
(-3.3911e-08 -4.51547e-08 -0.00100003)
(-2.17598e-08 -4.48912e-08 -0.00100004)
(-7.48769e-09 -4.46657e-08 -0.00100004)
(-6.63772e-08 -9.87126e-09 -0.000999946)
(-5.98809e-08 -9.78989e-09 -0.000999967)
(-4.75159e-08 -9.70995e-09 -0.000999985)
(-3.04948e-08 -9.64907e-09 -0.000999997)
(-1.04849e-08 -9.60063e-09 -0.001)
(-6.63286e-08 -2.87122e-08 -0.000999952)
(-5.98344e-08 -2.84595e-08 -0.000999973)
(-4.74665e-08 -2.82228e-08 -0.000999991)
(-3.0463e-08 -2.80461e-08 -0.001)
(-1.04752e-08 -2.79009e-08 -0.00100001)
(-6.59736e-08 -4.47603e-08 -0.000999964)
(-5.95085e-08 -4.43415e-08 -0.000999985)
(-4.71962e-08 -4.39583e-08 -0.001)
(-3.02883e-08 -4.36753e-08 -0.00100002)
(-1.04152e-08 -4.34441e-08 -0.00100002)
(-6.5469e-08 -5.64544e-08 -0.000999981)
(-5.90342e-08 -5.58953e-08 -0.001)
(-4.6803e-08 -5.53941e-08 -0.00100002)
(-3.00367e-08 -5.50309e-08 -0.00100003)
(-1.03304e-08 -5.47447e-08 -0.00100004)
(-6.48376e-08 -6.25911e-08 -0.001)
(-5.84482e-08 -6.19758e-08 -0.00100002)
(-4.63335e-08 -6.14434e-08 -0.00100004)
(-2.97486e-08 -6.1049e-08 -0.00100005)
(-1.02374e-08 -6.0731e-08 -0.00100006)
(-9.09579e-08 -1.34976e-08 -0.000999927)
(-8.20557e-08 -1.33548e-08 -0.000999955)
(-6.50953e-08 -1.3228e-08 -0.00099998)
(-4.17751e-08 -1.31352e-08 -0.000999997)
(-1.43627e-08 -1.30588e-08 -0.00100001)
(-9.08428e-08 -3.92416e-08 -0.000999936)
(-8.19431e-08 -3.88143e-08 -0.000999964)
(-6.50007e-08 -3.84443e-08 -0.000999988)
(-4.17117e-08 -3.81714e-08 -0.00100001)
(-1.43392e-08 -3.79509e-08 -0.00100001)
(-9.02751e-08 -6.11289e-08 -0.000999952)
(-8.14184e-08 -6.04426e-08 -0.00099998)
(-6.45805e-08 -5.98555e-08 -0.001)
(-4.1439e-08 -5.94259e-08 -0.00100002)
(-1.42451e-08 -5.90917e-08 -0.00100003)
(-8.94934e-08 -7.70569e-08 -0.000999974)
(-8.06722e-08 -7.61697e-08 -0.001)
(-6.39878e-08 -7.54058e-08 -0.00100003)
(-4.10679e-08 -7.48663e-08 -0.00100004)
(-1.41227e-08 -7.44579e-08 -0.00100005)
(-8.86008e-08 -8.52391e-08 -0.001)
(-7.97674e-08 -8.43409e-08 -0.00100003)
(-6.32794e-08 -8.35597e-08 -0.00100005)
(-4.06406e-08 -8.29898e-08 -0.00100007)
(-1.39845e-08 -8.25417e-08 -0.00100008)
(-1.24578e-07 -1.84265e-08 -0.000999901)
(-1.12379e-07 -1.81982e-08 -0.00099994)
(-8.91519e-08 -1.80053e-08 -0.000999973)
(-5.72186e-08 -1.78622e-08 -0.000999997)
(-1.96724e-08 -1.77471e-08 -0.00100001)
(-1.24356e-07 -5.35453e-08 -0.000999912)
(-1.12172e-07 -5.28844e-08 -0.000999951)
(-8.89867e-08 -5.23226e-08 -0.000999984)
(-5.71048e-08 -5.19067e-08 -0.00100001)
(-1.96296e-08 -5.15858e-08 -0.00100002)
(-1.23475e-07 -8.3335e-08 -0.000999934)
(-1.11375e-07 -8.23115e-08 -0.000999973)
(-8.83494e-08 -8.14385e-08 -0.00100001)
(-5.66966e-08 -8.08027e-08 -0.00100003)
(-1.94919e-08 -8.03236e-08 -0.00100004)
(-1.22268e-07 -1.0495e-07 -0.000999965)
(-1.10279e-07 -1.03675e-07 -0.001)
(-8.74831e-08 -1.02576e-07 -0.00100003)
(-5.61533e-08 -1.01789e-07 -0.00100006)
(-1.93109e-08 -1.01195e-07 -0.00100007)
(-1.20903e-07 -1.16198e-07 -0.001)
(-1.09001e-07 -1.14787e-07 -0.00100004)
(-8.64666e-08 -1.13606e-07 -0.00100007)
(-5.55189e-08 -1.12756e-07 -0.00100009)
(-1.90985e-08 -1.12106e-07 -0.0010001)
(-1.70659e-07 -2.51258e-08 -0.000999865)
(-1.53949e-07 -2.4779e-08 -0.000999918)
(-1.22137e-07 -2.44843e-08 -0.000999964)
(-7.83945e-08 -2.42645e-08 -0.000999997)
(-2.69542e-08 -2.41007e-08 -0.00100001)
(-1.7028e-07 -7.30038e-08 -0.000999881)
(-1.53601e-07 -7.20028e-08 -0.000999934)
(-1.21856e-07 -7.11486e-08 -0.000999979)
(-7.82081e-08 -7.05229e-08 -0.00100001)
(-2.6889e-08 -7.00618e-08 -0.00100003)
(-1.68946e-07 -1.13576e-07 -0.000999911)
(-1.52393e-07 -1.12039e-07 -0.000999963)
(-1.20897e-07 -1.10729e-07 -0.00100001)
(-7.76007e-08 -1.09782e-07 -0.00100004)
(-2.66846e-08 -1.0908e-07 -0.00100006)
(-1.67109e-07 -1.42931e-07 -0.000999952)
(-1.50758e-07 -1.41047e-07 -0.001)
(-1.19606e-07 -1.39429e-07 -0.00100005)
(-7.67818e-08 -1.38257e-07 -0.00100008)
(-2.6406e-08 -1.37378e-07 -0.0010001)
(-1.64945e-07 -1.58381e-07 -0.001)
(-1.48891e-07 -1.562e-07 -0.00100005)
(-1.18112e-07 -1.54391e-07 -0.00100009)
(-7.58267e-08 -1.53085e-07 -0.00100013)
(-2.60795e-08 -1.52115e-07 -0.00100014)
(-2.33913e-07 -3.42546e-08 -0.000999816)
(-2.11013e-07 -3.37246e-08 -0.000999889)
(-1.67417e-07 -3.32709e-08 -0.000999952)
(-1.07472e-07 -3.29406e-08 -0.000999997)
(-3.69585e-08 -3.27065e-08 -0.00100002)
(-2.33275e-07 -9.95211e-08 -0.000999838)
(-2.1043e-07 -9.79932e-08 -0.000999911)
(-1.66952e-07 -9.66916e-08 -0.000999973)
(-1.07176e-07 -9.57503e-08 -0.00100002)
(-3.68589e-08 -9.50745e-08 -0.00100004)
(-2.3125e-07 -1.54826e-07 -0.000999879)
(-2.08592e-07 -1.52476e-07 -0.000999951)
(-1.65501e-07 -1.5048e-07 -0.00100001)
(-1.06254e-07 -1.49037e-07 -0.00100006)
(-3.65437e-08 -1.47992e-07 -0.00100008)
(-2.28477e-07 -1.94807e-07 -0.000999935)
(-2.06089e-07 -1.91905e-07 -0.00100001)
(-1.63523e-07 -1.89424e-07 -0.00100007)
(-1.04991e-07 -1.8762e-07 -0.00100011)
(-3.61106e-08 -1.86305e-07 -0.00100013)
(-2.25174e-07 -2.15732e-07 -0.001)
(-2.03209e-07 -2.12439e-07 -0.00100007)
(-1.61222e-07 -2.09678e-07 -0.00100013)
(-1.03512e-07 -2.07663e-07 -0.00100017)
(-3.56018e-08 -2.06201e-07 -0.0010002)
(-3.20824e-07 -4.67097e-08 -0.00099975)
(-2.89414e-07 -4.5895e-08 -0.000999851)
(-2.29655e-07 -4.52025e-08 -0.000999936)
(-1.4746e-07 -4.47044e-08 -0.000999998)
(-5.07218e-08 -4.43569e-08 -0.00100003)
(-3.19761e-07 -1.35692e-07 -0.000999779)
(-2.88455e-07 -1.33359e-07 -0.000999879)
(-2.289e-07 -1.31374e-07 -0.000999964)
(-1.46982e-07 -1.29935e-07 -0.00100003)
(-5.05578e-08 -1.28923e-07 -0.00100006)
(-3.16652e-07 -2.11082e-07 -0.000999835)
(-2.85655e-07 -2.07487e-07 -0.000999934)
(-2.26679e-07 -2.04424e-07 -0.00100002)
(-1.45555e-07 -2.02191e-07 -0.00100008)
(-5.00664e-08 -2.00617e-07 -0.00100011)
(-3.12398e-07 -2.65573e-07 -0.000999912)
(-2.81806e-07 -2.61076e-07 -0.00100001)
(-2.23617e-07 -2.57224e-07 -0.00100009)
(-1.43586e-07 -2.5441e-07 -0.00100015)
(-4.93889e-08 -2.52427e-07 -0.00100018)
(-3.07357e-07 -2.93894e-07 -0.001)
(-2.77307e-07 -2.88839e-07 -0.0010001)
(-2.20021e-07 -2.84571e-07 -0.00100018)
(-1.4127e-07 -2.8145e-07 -0.00100024)
(-4.85913e-08 -2.79254e-07 -0.00100027)
(-4.40395e-07 -6.37316e-08 -0.000999659)
(-3.97308e-07 -6.24782e-08 -0.000999798)
(-3.15348e-07 -6.14191e-08 -0.000999916)
(-2.02531e-07 -6.06483e-08 -0.001)
(-6.96748e-08 -6.01221e-08 -0.00100005)
(-4.38663e-07 -1.85118e-07 -0.000999699)
(-3.95744e-07 -1.81529e-07 -0.000999837)
(-3.14114e-07 -1.78473e-07 -0.000999954)
(-2.01736e-07 -1.76235e-07 -0.00100004)
(-6.93992e-08 -1.74706e-07 -0.00100008)
(-4.33863e-07 -2.87879e-07 -0.000999776)
(-3.91429e-07 -2.82341e-07 -0.000999912)
(-3.10667e-07 -2.77599e-07 -0.00100003)
(-1.99509e-07 -2.74119e-07 -0.00100011)
(-6.86315e-08 -2.7174e-07 -0.00100016)
(-4.27262e-07 -3.62054e-07 -0.000999881)
(-3.85477e-07 -3.55073e-07 -0.00100001)
(-3.0591e-07 -3.49092e-07 -0.00100013)
(-1.96436e-07 -3.4471e-07 -0.00100021)
(-6.7571e-08 -3.41722e-07 -0.00100025)
(-4.19469e-07 -4.0041e-07 -0.001)
(-3.78467e-07 -3.92592e-07 -0.00100013)
(-3.00315e-07 -3.85956e-07 -0.00100024)
(-1.92835e-07 -3.81114e-07 -0.00100032)
(-6.63343e-08 -3.77829e-07 -0.00100037)
(-6.0511e-07 -8.70257e-08 -0.000999536)
(-5.46028e-07 -8.50949e-08 -0.000999727)
(-4.33495e-07 -8.34515e-08 -0.00099989)
(-2.78467e-07 -8.22412e-08 -0.00100001)
(-9.58088e-08 -8.14424e-08 -0.00100007)
(-6.02313e-07 -2.52725e-07 -0.000999591)
(-5.43478e-07 -2.47169e-07 -0.00099978)
(-4.31458e-07 -2.42412e-07 -0.000999942)
(-2.77145e-07 -2.38911e-07 -0.00100006)
(-9.53522e-08 -2.36591e-07 -0.00100012)
(-5.94893e-07 -3.92802e-07 -0.000999695)
(-5.36764e-07 -3.84203e-07 -0.000999882)
(-4.26078e-07 -3.76827e-07 -0.00100004)
(-2.73663e-07 -3.71404e-07 -0.00100016)
(-9.41508e-08 -3.67805e-07 -0.00100022)
(-5.84666e-07 -4.93621e-07 -0.000999839)
(-5.2752e-07 -4.82795e-07 -0.00100002)
(-4.18683e-07 -4.7352e-07 -0.00100018)
(-2.68884e-07 -4.66728e-07 -0.00100029)
(-9.2503e-08 -4.62226e-07 -0.00100035)
(-5.7265e-07 -5.45405e-07 -0.00100001)
(-5.16662e-07 -5.33373e-07 -0.00100018)
(-4.10025e-07 -5.23097e-07 -0.00100033)
(-2.63315e-07 -5.15604e-07 -0.00100044)
(-9.05884e-08 -5.10663e-07 -0.0010005)
(-8.3224e-07 -1.18934e-07 -0.000999367)
(-7.51218e-07 -1.1595e-07 -0.000999631)
(-5.96586e-07 -1.13378e-07 -0.000999856)
(-3.83352e-07 -1.1148e-07 -0.00100002)
(-1.31922e-07 -1.10259e-07 -0.00100011)
(-8.27719e-07 -3.45268e-07 -0.000999443)
(-7.47065e-07 -3.36646e-07 -0.000999704)
(-5.93233e-07 -3.29218e-07 -0.000999927)
(-3.81171e-07 -3.2374e-07 -0.00100009)
(-1.31169e-07 -3.20199e-07 -0.00100018)
(-8.16234e-07 -5.36242e-07 -0.000999586)
(-7.36605e-07 -5.22889e-07 -0.000999842)
(-5.84832e-07 -5.11409e-07 -0.00100006)
(-3.75722e-07 -5.02958e-07 -0.00100022)
(-1.29285e-07 -4.97485e-07 -0.0010003)
(-8.00425e-07 -6.7316e-07 -0.000999782)
(-7.22254e-07 -6.56414e-07 -0.00100003)
(-5.73335e-07 -6.42039e-07 -0.00100024)
(-3.68282e-07 -6.31499e-07 -0.0010004)
(-1.26718e-07 -6.24676e-07 -0.00100048)
(-7.81903e-07 -7.42899e-07 -0.00100001)
(-7.05484e-07 -7.24357e-07 -0.00100025)
(-5.59936e-07 -7.08482e-07 -0.00100046)
(-3.59643e-07 -6.96872e-07 -0.00100061)
(-1.23739e-07 -6.89383e-07 -0.00100068)
(-1.14569e-06 -1.62712e-07 -0.000999137)
(-1.03458e-06 -1.58082e-07 -0.000999502)
(-8.221e-07 -1.54059e-07 -0.000999813)
(-5.28578e-07 -1.51074e-07 -0.00100004)
(-1.81969e-07 -1.49183e-07 -0.00100016)
(-1.1384e-06 -4.7212e-07 -0.000999241)
(-1.02784e-06 -4.58747e-07 -0.000999601)
(-8.16622e-07 -4.47151e-07 -0.000999909)
(-5.24986e-07 -4.38549e-07 -0.00100013)
(-1.80717e-07 -4.33086e-07 -0.00100025)
(-1.12064e-06 -7.32574e-07 -0.000999438)
(-1.01158e-06 -7.11901e-07 -0.00099979)
(-8.03481e-07 -6.94032e-07 -0.00100009)
(-5.16411e-07 -6.80803e-07 -0.00100031)
(-1.77739e-07 -6.72399e-07 -0.00100043)
(-1.09626e-06 -9.18427e-07 -0.000999706)
(-9.89333e-07 -8.92556e-07 -0.00100005)
(-7.85569e-07 -8.70257e-07 -0.00100034)
(-5.04761e-07 -8.53816e-07 -0.00100055)
(-1.73705e-07 -8.4339e-07 -0.00100066)
(-1.06769e-06 -1.01202e-06 -0.00100002)
(-9.63409e-07 -9.83404e-07 -0.00100035)
(-7.64768e-07 -9.58862e-07 -0.00100063)
(-4.91289e-07 -9.40833e-07 -0.00100083)
(-1.6905e-07 -9.29425e-07 -0.00100094)
(-1.57859e-06 -2.22907e-07 -0.000998822)
(-1.42647e-06 -2.15731e-07 -0.000999326)
(-1.13472e-06 -2.09425e-07 -0.000999757)
(-7.30351e-07 -2.04681e-07 -0.00100007)
(-2.51593e-07 -2.01708e-07 -0.00100024)
(-1.56695e-06 -6.46394e-07 -0.000998965)
(-1.41562e-06 -6.25694e-07 -0.000999463)
(-1.12577e-06 -6.07544e-07 -0.000999889)
(-7.24392e-07 -5.93911e-07 -0.0010002)
(-2.49495e-07 -5.85369e-07 -0.00100037)
(-1.53958e-06 -1.00182e-06 -0.000999236)
(-1.39032e-06 -9.69901e-07 -0.000999721)
(-1.10511e-06 -9.42019e-07 -0.00100014)
(-7.10773e-07 -9.21156e-07 -0.00100044)
(-2.44739e-07 -9.08114e-07 -0.0010006)
(-1.50211e-06 -1.25389e-06 -0.000999604)
(-1.35586e-06 -1.21401e-06 -0.00100007)
(-1.07709e-06 -1.17936e-06 -0.00100047)
(-6.92403e-07 -1.15358e-06 -0.00100077)
(-2.38351e-07 -1.13749e-06 -0.00100092)
(-1.45821e-06 -1.37873e-06 -0.00100003)
(-1.31579e-06 -1.33469e-06 -0.00100048)
(-1.0447e-06 -1.29671e-06 -0.00100086)
(-6.71272e-07 -1.26863e-06 -0.00100114)
(-2.31015e-07 -1.25114e-06 -0.00100129)
(-2.17691e-06 -3.05983e-07 -0.00099839)
(-1.9695e-06 -2.94861e-07 -0.000999087)
(-1.56959e-06 -2.84889e-07 -0.000999687)
(-1.01209e-06 -2.7723e-07 -0.00100013)
(-3.49037e-07 -2.72472e-07 -0.00100037)
(-2.15848e-06 -8.86652e-07 -0.000998587)
(-1.95201e-06 -8.54631e-07 -0.000999275)
(-1.55483e-06 -8.26015e-07 -0.000999866)
(-1.00208e-06 -8.04109e-07 -0.0010003)
(-3.45479e-07 -7.90518e-07 -0.00100053)
(-2.11639e-06 -1.37215e-06 -0.000998961)
(-1.91257e-06 -1.32293e-06 -0.00099963)
(-1.52204e-06 -1.27921e-06 -0.0010002)
(-9.80152e-07 -1.24597e-06 -0.00100063)
(-3.3776e-07 -1.22539e-06 -0.00100085)
(-2.05896e-06 -1.71364e-06 -0.000999469)
(-1.85913e-06 -1.65231e-06 -0.00100011)
(-1.47795e-06 -1.59831e-06 -0.00100066)
(-9.50866e-07 -1.55758e-06 -0.00100107)
(-3.27492e-07 -1.53243e-06 -0.00100128)
(-1.99181e-06 -1.87882e-06 -0.00100005)
(-1.79724e-06 -1.81119e-06 -0.00100067)
(-1.42737e-06 -1.75232e-06 -0.00100119)
(-9.17496e-07 -1.70837e-06 -0.00100157)
(-3.1583e-07 -1.68135e-06 -0.00100177)
(-3.00391e-06 -4.21207e-07 -0.000997793)
(-2.72341e-06 -4.03921e-07 -0.000998757)
(-2.17738e-06 -3.87936e-07 -0.000999596)
(-1.40849e-06 -3.75301e-07 -0.00100022)
(-4.86702e-07 -3.67466e-07 -0.00100056)
(-2.97492e-06 -1.21947e-06 -0.000998067)
(-2.69507e-06 -1.16987e-06 -0.000999017)
(-2.1527e-06 -1.12424e-06 -0.000999841)
(-1.39133e-06 -1.08833e-06 -0.00100045)
(-4.80518e-07 -1.06608e-06 -0.00100078)
(-2.91043e-06 -1.88367e-06 -0.000998587)
(-2.63327e-06 -1.80784e-06 -0.000999509)
(-2.09993e-06 -1.73875e-06 -0.0010003)
(-1.35522e-06 -1.6849e-06 -0.00100089)
(-4.67632e-07 -1.65157e-06 -0.0010012)
(-2.82282e-06 -2.34564e-06 -0.000999289)
(-2.55024e-06 -2.25162e-06 -0.00100017)
(-2.02988e-06 -2.16714e-06 -0.00100093)
(-1.30771e-06 -2.10209e-06 -0.00100149)
(-4.50747e-07 -2.06205e-06 -0.00100178)
(-2.72065e-06 -2.56172e-06 -0.00100009)
(-2.45476e-06 -2.45815e-06 -0.00100093)
(-1.95047e-06 -2.36674e-06 -0.00100165)
(-1.25452e-06 -2.29751e-06 -0.00100217)
(-4.31997e-07 -2.25533e-06 -0.00100244)
(-4.1455e-06 -5.82018e-07 -0.000996963)
(-3.77229e-06 -5.55025e-07 -0.000998297)
(-3.03282e-06 -5.28898e-07 -0.000999475)
(-1.97282e-06 -5.07415e-07 -0.00100037)
(-6.84044e-07 -4.93964e-07 -0.00100086)
(-4.10018e-06 -1.68349e-06 -0.000997348)
(-3.72592e-06 -1.6065e-06 -0.000998659)
(-2.99062e-06 -1.53248e-06 -0.000999811)
(-1.94243e-06 -1.47191e-06 -0.00100068)
(-6.72869e-07 -1.43392e-06 -0.00100116)
(-4.00204e-06 -2.5944e-06 -0.000998077)
(-3.62827e-06 -2.47777e-06 -0.000999343)
(-2.90387e-06 -2.36728e-06 -0.00100045)
(-1.88099e-06 -2.2779e-06 -0.00100127)
(-6.50457e-07 -2.22203e-06 -0.00100172)
(-3.86966e-06 -3.21863e-06 -0.000999055)
(-3.49892e-06 -3.07525e-06 -0.00100026)
(-2.79091e-06 -2.94227e-06 -0.0010013)
(-1.80206e-06 -2.83664e-06 -0.00100208)
(-6.21889e-07 -2.77124e-06 -0.00100248)
(-3.71606e-06 -3.49611e-06 -0.00100016)
(-3.35191e-06 -3.33844e-06 -0.00100131)