# vtk DataFile Version 4.0
Generated by LIGGGHTS
ASCII
DATASET POLYDATA
POINTS 393 float
-2.86983 -4.36089 11.9936 0.518694 -4.21969 11.4363 4.05029 -4.01541 11.89 
-3.65082 -3.38597 11.8562 -1.26131 -3.54452 12.0243 1.56005 -3.14157 11.8447 
2.61323 -3.5425 12.0478 0.125219 -1.56383 11.9581 3.28485 -1.98368 11.4295 
4.21745 -1.00374 11.5429 -3.87717 -0.318466 12.0124 -0.701993 0.927345 11.8259 
4.19726 0.746026 11.4343 2.99367 1.87399 11.7711 -4.13001 2.146 11.5088 
-2.309 2.44513 11.7995 0.395978 2.61026 11.5382 1.38855 2.27547 11.927 
-0.596854 3.06914 11.78 -3.14569 4.01572 11.4704 0.729734 4.13758 11.672 
-4.39245 -4.31447 12.7638 3.03478 -4.49976 12.6504 -2.71486 -3.18942 12.3983 
0.605086 -3.76811 12.8561 -3.92389 -2.5619 12.939 -1.84548 -2.19817 12.9086 
-0.100007 -2.85847 12.5576 0.836093 -2.30748 12.2152 4.23459 -2.97601 12.9055 
-3.81459 -1.32984 12.4221 1.3991 -1.3347 12.2138 2.79938 -1.95575 12.823 
4.16598 -1.88368 12.3683 -2.8515 -0.799255 12.0815 -1.94206 -0.920279 12.8473 
-0.855993 -0.949301 12.2055 0.759117 -0.326288 12.1732 1.95486 -0.442233 12.1098 
-2.85263 0.237872 12.555 -0.0347712 0.405222 12.8078 1.76398 0.540026 12.8413 
3.09254 0.403266 12.4422 -4.27519 1.05596 12.2639 -3.4893 1.95614 12.8037 
-1.95773 1.36012 12.2206 -0.934762 1.98212 12.6551 0.514418 1.71901 12.605 
2.39064 1.34563 12.9715 4.13347 1.60038 12.4126 3.68684 2.73017 12.2469 
-4.47419 3.23216 12.3082 -2.78063 3.83223 12.9397 -1.3863 3.05908 12.9578 
1.74452 3.23358 12.6421 2.94782 3.67894 12.1649 4.23345 3.65417 12.3181 
-4.06013 4.41318 12.5986 -0.962804 4.0532 12.3933 1.76649 4.40925 12.9136 
-3.01497 -4.13065 14.0101 -1.42728 -4.47504 13.2795 1.40285 -4.2589 13.4061 
4.14917 -4.41997 13.6256 -2.2072 -3.38691 13.7016 2.04912 -3.19568 13.7156 
-1.08131 -2.35817 14.0034 0.0781902 -2.09929 13.5666 1.26818 -2.0897 13.6667 
4.31104 -2.10559 14.0877 -4.38409 -1.17765 13.7029 -0.209631 -1.18784 14.0652 
3.228 -1.20132 13.6925 -3.55099 -0.38615 13.7662 0.686705 -0.293569 14.0785 
4.00029 -0.0375416 13.1053 -1.86357 0.389249 13.3785 -4.44297 1.86753 13.8022 
-2.68747 1.31159 13.8918 1.38148 1.20338 13.9996 4.03519 1.02386 13.7595 
0.654154 2.06521 14.0671 2.2394 2.53911 13.9279 3.53921 2.0775 13.6427 
-2.22986 3.07703 13.8042 -1.53567 3.87775 14.0454 0.472306 3.0418 13.1143 
2.88647 3.99065 14.0283 4.05386 3.87726 14.1101 0.779639 4.19225 14.0929 
-1.10306 -4.23406 14.927 0.46025 -4.14651 14.379 2.13184 -4.1476 14.4074 
-4.09316 -3.64865 14.148 -0.614913 -3.30174 14.4132 0.864229 -3.20229 14.2167 
3.76628 -3.31576 14.1538 -4.34298 -2.5901 14.3427 -3.24202 -2.54816 14.1752 
2.89036 -2.63637 14.2518 -3.38313 -1.3672 14.4362 -1.59297 -1.16854 14.3515 
2.16409 -1.37035 14.4105 -2.57339 -0.565158 14.2189 -0.455917 -0.2236 14.4952 
1.69999 -0.0513624 14.3036 2.80176 -0.036423 14.5064 3.87494 -0.472461 14.4353 
-4.45589 0.828845 14.3243 -3.45904 0.503094 14.481 -1.1372 0.903847 14.4895 
0.35725 1.04419 14.3844 2.3348 1.28732 14.4807 4.04343 1.74673 15.0974 
-3.41856 2.69744 14.2249 -1.40783 2.30095 14.1636 -0.282212 2.39552 14.5656 
3.16957 2.9705 14.5029 4.19628 2.74924 14.1736 -3.40423 3.82202 14.3605 
-0.531973 3.94857 14.1746 1.81472 3.93507 14.3701 -4.37972 4.14117 14.3646 
-4.40534 -4.44547 15.2971 -2.71248 -4.12826 15.6969 -3.65275 -3.58305 15.8284 
-1.62063 -3.15841 15.384 -0.189913 -3.86751 15.6685 1.08292 -3.79961 15.7559 
2.98124 -3.71561 15.3036 4.13444 -3.71435 15.5334 -4.46703 -2.97179 15.8315 
-2.879 -2.78606 15.7641 -0.71201 -2.08566 15.2776 0.311035 -2.73112 15.838 
1.3659 -2.82923 15.6451 2.44337 -2.34665 15.8432 4.14164 -2.21447 15.5598 
-4.09201 -1.89406 15.8324 -2.50451 -1.84749 15.5591 -0.274688 -1.15929 15.5095 
1.33953 -1.25795 15.6547 3.13643 -1.18467 15.6241 -3.86606 -0.560827 15.3649 
-2.08673 -0.157003 15.6815 -1.17899 -0.717647 15.5439 2.1624 -0.442815 15.5341 
-4.16463 0.61736 15.6898 -0.423074 0.487533 15.5452 0.581922 0.345406 15.8683 
1.79385 0.490052 15.6279 3.09982 0.856622 15.8745 4.46022 0.0576785 15.6437 
-3.71291 1.48262 15.1974 -2.19277 1.24584 15.2293 -0.660258 1.80028 15.6296 
1.21839 1.54541 15.6332 2.97278 1.80676 15.3826 -4.0787 2.92142 15.6404 
-3.20377 2.34284 15.8085 -1.67784 2.88772 15.4899 0.4333 2.30249 15.8018 
2.09837 2.41592 15.361 -4.41229 3.98901 15.7949 -2.33235 3.72421 15.1937 
0.108077 3.6926 15.359 1.29856 3.01013 15.8363 2.88194 3.90461 15.5711 
4.28804 3.27578 15.4277 -3.06268 4.41706 15.461 -1.11972 4.22412 15.6381 
1.19471 4.32354 15.7684 4.27642 4.36265 15.6559 -3.42976 -4.2455 17.1931 
-1.62651 -4.33285 16.3597 1.02704 -4.45466 17.1644 2.62946 -4.24514 17.0174 
-3.30001 -3.25171 17.0203 -1.83322 -3.18341 17.1194 -0.545713 -3.85504 17.1173 
0.501731 -3.57654 16.8616 1.91078 -3.19628 16.6805 3.57133 -3.14799 17.1854 
4.46733 -3.64532 16.9313 -4.46464 -2.16021 17.0109 -2.34618 -2.1473 17.131 
-1.4656 -2.12735 16.4069 -0.690634 -2.80793 16.3765 0.908524 -2.40029 16.8205 
4.38433 -2.36736 16.8531 -4.04965 -1.06631 16.6505 -3.50469 -1.83685 17.145 
-2.52748 -1.00118 17.0554 -0.535139 -1.54067 16.7231 1.83383 -1.54707 16.8717 
3.01137 -1.43991 17.1542 4.05553 -1.02814 16.8987 -4.22803 -0.15766 17.1796 
-1.32146 -0.760165 17.1549 0.044931 -0.728519 16.6424 1.08036 -0.645759 17.1058 
-3.12872 0.68349 16.6681 -1.49487 0.842463 16.3734 -1.96062 0.0488463 16.9699 
-0.521165 0.150845 16.9534 1.84003 0.0355093 17.1336 3.21694 0.417552 17.1378 
4.40565 0.826357 17.0655 -4.09358 1.52853 17.0906 -1.71034 1.78066 16.7998 
-0.526029 1.14437 16.6809 0.529071 1.38381 17.0761 2.58886 1.51818 16.7584 
-2.58522 2.26172 17.0149 -0.191308 2.43527 16.8761 1.39294 2.4173 17.0177 
3.20144 2.76346 16.9747 4.34336 2.56541 16.993 -4.41814 3.41137 16.9817 
-3.44119 3.12284 16.8721 -2.36372 3.72735 16.7747 -1.28861 3.036 17.1005 
-0.474659 3.91307 16.7798 1.12095 3.93384 17.0527 -3.55439 4.27696 16.7671 
2.60934 4.15439 16.8522 4.17896 4.23781 17.1383 -4.37031 -4.4062 17.7238 
-2.33781 -4.12823 17.3839 4.41589 -4.38604 18.0073 0.3214 -3.78122 18.1562 
1.27539 -3.3641 17.9579 -1.02252 -2.69312 17.5918 0.0178133 -2.74125 17.8966 
2.54534 -2.20802 17.8193 4.43031 -2.65651 18.2277 -4.44824 -1.92366 18.211 
-1.40755 -1.72813 17.854 0.368357 -1.81727 17.5793 1.74095 -1.14548 18.142 
3.66797 -1.8367 18.0431 0.481229 -0.678517 18.2273 -4.44502 0.758801 17.7714 
0.760613 0.950757 18.1424 -3.31937 1.1027 18.1607 -2.40884 1.88238 18.1874 
-1.24652 1.51684 18.0317 1.64763 1.64862 18.0382 3.95473 1.86453 18.1994 
-3.6579 3.347 18.0438 -0.385313 3.3515 17.9496 2.65935 3.15365 18.1386 
4.25973 3.28708 17.9712 -2.88926 4.46792 18.186 -1.62506 4.45534 18.1265 
1.61631 4.48099 18.0695 3.28209 4.16793 17.7872 -3.59979 -4.41508 18.9543 
-1.80024 -4.46971 18.3576 -0.775399 -4.15253 18.3498 0.804985 -4.24466 19.0506 
3.06524 -4.32246 18.9821 -4.2242 -3.15793 18.3552 -3.18857 -3.60472 18.3291 
2.48525 -3.57702 18.2809 3.58601 -3.54007 18.3344 -2.88228 -2.46864 18.3786 
-1.82161 -2.97696 18.3527 -0.775582 -2.76034 18.7635 0.679281 -2.94409 18.9366 
1.40503 -2.21404 18.3386 2.32293 -2.63878 18.8676 -3.21558 -1.22702 18.3734 
-2.21844 -1.03305 18.3295 -1.24359 -1.8959 18.988 -0.372403 -1.55137 18.3725 
0.66852 -1.62627 19.1543 2.88346 -1.02821 18.2771 4.38205 -1.17805 19.0354 
-4.38262 -0.177783 19.1629 -3.54522 -0.195935 18.3673 -0.601509 -0.576258 18.3066 
3.67122 -0.487347 19.1826 4.35246 -0.211247 18.3322 -4.40959 0.925727 18.9584 
-2.31378 0.652999 18.3595 -0.841943 0.456573 18.276 1.96681 0.0325421 18.3862 
3.0628 0.224778 18.3788 -2.06966 1.68966 19.2336 2.78233 1.34625 18.3719 
-3.98285 2.22176 18.273 -2.7768 2.46104 19.1457 -1.15405 2.54523 19.2049 
-0.566183 2.27159 18.3549 0.391698 2.75651 18.3188 2.31165 2.37456 18.7825 
-1.86415 3.37671 18.2683 -0.447028 3.88061 19.2331 1.49947 3.08015 18.3708 
2.3398 3.82474 18.9242 -4.41774 4.04246 18.3724 0.0833131 4.3604 18.2941 
0.930522 4.04386 19.0985 3.12572 4.45244 18.9512 -0.85346 -4.1805 19.4513 
4.03388 -4.21531 19.4289 -4.32603 -3.98923 19.747 -4.35477 -3.05111 20.2533 
-3.48488 -3.25631 19.4488 -2.17539 -3.71592 19.4406 0.799384 -3.46943 20.0398 
1.69894 -3.60086 19.3386 2.39312 -3.01955 20.1692 3.11526 -3.20989 19.4119 
4.32106 -3.38831 20.0264 -4.16905 -2.49172 19.367 -3.18021 -2.24953 19.8818 
-1.88402 -2.64915 19.4215 0.976034 -2.05343 20.1239 3.19324 -2.19311 19.3471 
4.48247 -2.5268 19.3775 -3.78897 -1.50652 19.273 -2.88885 -1.03354 19.4076 
-0.313578 -1.89941 19.4647 2.12786 -1.28646 19.4769 3.72085 -1.33456 20.1602 
-1.5851 -0.422284 19.4588 -0.436688 -0.470933 19.4865 0.755108 -0.667197 19.4567 
1.64267 -0.45296 20.0726 2.82579 -0.602224 20.2177 -4.33231 0.190842 20.2194 
-2.53071 0.283738 19.8554 -1.46158 0.722843 19.3324 0.357497 0.259719 19.4567 
2.42508 0.0147207 19.4666 4.36993 0.909648 19.4592 -3.24464 1.22741 19.3753 
-0.620382 1.313 20.0915 0.04762 1.9025 19.285 1.29846 1.12127 19.4268 
3.17868 1.40398 19.4844 -4.32849 2.90663 19.4403 -3.379 2.1075 20.2741 
-1.95629 2.58724 20.169 1.05612 2.78433 19.3126 3.7623 2.62725 19.2619 
-4.14876 3.90627 19.4495 -3.00324 3.42397 19.3362 -1.61394 3.75724 19.3553 
3.8801 3.79753 19.3902 -3.12006 4.31446 19.8534 -1.98134 4.42807 20.1646 
1.51994 4.31202 20.275 -3.34954 -4.17827 20.4941 -1.73938 -4.4346 20.3091 
-0.256302 -4.17273 20.3075 2.02427 -4.30468 20.315 -2.59005 -3.2489 20.3585 
-1.1686 -3.61115 20.3481 3.26142 -3.83697 20.3968 -2.09569 -2.36953 20.3863 
-0.472379 -2.86622 20.2922 4.173 -2.46078 20.4931 -3.85608 -1.61052 20.3016 
-1.52978 -1.46293 20.3858 2.71109 -1.77727 20.4052 -3.57366 -0.635516 20.2973 
-2.45996 -0.626045 20.3377 -0.0363289 -0.775526 20.4124 3.74685 -0.133939 20.435 
-3.21135 0.670472 20.4837 -1.1372 0.195211 20.3007 1.58336 0.710768 20.3542 
-4.40258 1.97099 20.4158 -2.37532 1.40719 20.475 0.48654 1.32164 20.4745 
2.6109 1.12611 20.3557 3.72086 1.24635 20.4362 -0.881744 2.24874 20.3737 
0.370273 2.4239 20.4872 1.53612 2.0476 20.3741 3.17697 2.31605 20.4029 
4.40482 2.68381 20.428 -3.07709 3.14068 20.4927 -1.46544 3.53388 20.4808 
-0.198769 3.57494 20.4212 1.18611 3.19338 20.4178 2.53301 3.29267 20.3179 
-4.00985 4.19393 20.4398 3.20946 4.48323 20.4344 4.34974 4.22652 20.2992 

VERTICES 393 786
1 0 
1 1 
1 2 
1 3 
1 4 
1 5 
1 6 
1 7 
1 8 
1 9 
1 10 
1 11 
1 12 
1 13 
1 14 
1 15 
1 16 
1 17 
1 18 
1 19 
1 20 
1 21 
1 22 
1 23 
1 24 
1 25 
1 26 
1 27 
1 28 
1 29 
1 30 
1 31 
1 32 
1 33 
1 34 
1 35 
1 36 
1 37 
1 38 
1 39 
1 40 
1 41 
1 42 
1 43 
1 44 
1 45 
1 46 
1 47 
1 48 
1 49 
1 50 
1 51 
1 52 
1 53 
1 54 
1 55 
1 56 
1 57 
1 58 
1 59 
1 60 
1 61 
1 62 
1 63 
1 64 
1 65 
1 66 
1 67 
1 68 
1 69 
1 70 
1 71 
1 72 
1 73 
1 74 
1 75 
1 76 
1 77 
1 78 
1 79 
1 80 
1 81 
1 82 
1 83 
1 84 
1 85 
1 86 
1 87 
1 88 
1 89 
1 90 
1 91 
1 92 
1 93 
1 94 
1 95 
1 96 
1 97 
1 98 
1 99 
1 100 
1 101 
1 102 
1 103 
1 104 
1 105 
1 106 
1 107 
1 108 
1 109 
1 110 
1 111 
1 112 
1 113 
1 114 
1 115 
1 116 
1 117 
1 118 
1 119 
1 120 
1 121 
1 122 
1 123 
1 124 
1 125 
1 126 
1 127 
1 128 
1 129 
1 130 
1 131 
1 132 
1 133 
1 134 
1 135 
1 136 
1 137 
1 138 
1 139 
1 140 
1 141 
1 142 
1 143 
1 144 
1 145 
1 146 
1 147 
1 148 
1 149 
1 150 
1 151 
1 152 
1 153 
1 154 
1 155 
1 156 
1 157 
1 158 
1 159 
1 160 
1 161 
1 162 
1 163 
1 164 
1 165 
1 166 
1 167 
1 168 
1 169 
1 170 
1 171 
1 172 
1 173 
1 174 
1 175 
1 176 
1 177 
1 178 
1 179 
1 180 
1 181 
1 182 
1 183 
1 184 
1 185 
1 186 
1 187 
1 188 
1 189 
1 190 
1 191 
1 192 
1 193 
1 194 
1 195 
1 196 
1 197 
1 198 
1 199 
1 200 
1 201 
1 202 
1 203 
1 204 
1 205 
1 206 
1 207 
1 208 
1 209 
1 210 
1 211 
1 212 
1 213 
1 214 
1 215 
1 216 
1 217 
1 218 
1 219 
1 220 
1 221 
1 222 
1 223 
1 224 
1 225 
1 226 
1 227 
1 228 
1 229 
1 230 
1 231 
1 232 
1 233 
1 234 
1 235 
1 236 
1 237 
1 238 
1 239 
1 240 
1 241 
1 242 
1 243 
1 244 
1 245 
1 246 
1 247 
1 248 
1 249 
1 250 
1 251 
1 252 
1 253 
1 254 
1 255 
1 256 
1 257 
1 258 
1 259 
1 260 
1 261 
1 262 
1 263 
1 264 
1 265 
1 266 
1 267 
1 268 
1 269 
1 270 
1 271 
1 272 
1 273 
1 274 
1 275 
1 276 
1 277 
1 278 
1 279 
1 280 
1 281 
1 282 
1 283 
1 284 
1 285 
1 286 
1 287 
1 288 
1 289 
1 290 
1 291 
1 292 
1 293 
1 294 
1 295 
1 296 
1 297 
1 298 
1 299 
1 300 
1 301 
1 302 
1 303 
1 304 
1 305 
1 306 
1 307 
1 308 
1 309 
1 310 
1 311 
1 312 
1 313 
1 314 
1 315 
1 316 
1 317 
1 318 
1 319 
1 320 
1 321 
1 322 
1 323 
1 324 
1 325 
1 326 
1 327 
1 328 
1 329 
1 330 
1 331 
1 332 
1 333 
1 334 
1 335 
1 336 
1 337 
1 338 
1 339 
1 340 
1 341 
1 342 
1 343 
1 344 
1 345 
1 346 
1 347 
1 348 
1 349 
1 350 
1 351 
1 352 
1 353 
1 354 
1 355 
1 356 
1 357 
1 358 
1 359 
1 360 
1 361 
1 362 
1 363 
1 364 
1 365 
1 366 
1 367 
1 368 
1 369 
1 370 
1 371 
1 372 
1 373 
1 374 
1 375 
1 376 
1 377 
1 378 
1 379 
1 380 
1 381 
1 382 
1 383 
1 384 
1 385 
1 386 
1 387 
1 388 
1 389 
1 390 
1 391 
1 392 

POINT_DATA 393
FIELD FieldData 7
id 1 393 int
17 50 29 60 7 28 51 18 14 
43 54 42 46 47 52 8 13 6 
34 57 39 48 31 12 23 49 45 
11 56 24 27 22 59 20 15 19 
1 26 4 37 16 35 2 33 3 
21 25 55 53 36 41 9 10 40 
44 5 38 58 32 30 62 88 115 
112 69 93 104 83 102 109 67 85 
78 65 98 114 80 68 71 119 97 
74 63 95 118 111 96 72 76 75 
126 106 89 120 77 100 64 103 79 
70 99 61 82 117 105 91 86 66 
101 108 73 113 110 128 94 84 122 
92 81 87 90 116 107 161 151 127 
129 148 168 136 123 166 172 132 140 
157 160 135 164 155 147 150 159 139 
143 169 158 167 125 124 171 137 130 
153 133 146 131 163 134 142 121 173 
138 162 152 144 154 149 170 165 141 
156 145 189 214 221 198 194 210 195 
199 213 197 205 212 225 174 220 180 
223 224 217 191 204 207 179 196 208 
184 227 177 190 187 216 188 181 215 
193 176 203 226 218 186 183 200 201 
175 211 219 222 185 182 206 209 178 
202 192 260 284 231 255 253 248 249 
241 282 234 283 285 279 247 230 271 
238 265 259 232 239 236 252 276 235 
278 263 267 268 242 291 244 281 320 
316 262 280 245 233 272 266 303 289 
228 318 274 264 324 254 298 269 313 
295 258 257 309 270 304 250 277 273 
256 299 261 243 314 315 246 240 297 
229 290 275 327 251 237 307 332 310 
336 346 389 333 321 343 322 339 319 
344 288 375 312 342 287 302 335 323 
330 305 354 317 337 329 355 383 373 
359 308 301 334 331 326 393 311 294 
300 296 353 374 286 293 292 325 328 
306 376 382 365 349 380 377 364 350 
348 341 384 371 356 370 360 391 368 
358 378 369 338 361 387 379 372 347 
367 352 366 362 340 388 385 390 381 
345 392 357 363 351 386 
type 1 393 int
1 1 1 1 1 1 1 1 1 
1 1 1 1 1 1 1 1 1 
1 1 1 1 1 1 1 1 1 
1 1 1 1 1 1 1 1 1 
1 1 1 1 1 1 1 1 1 
1 1 1 1 1 1 1 1 1 
1 1 1 1 1 1 1 1 1 
1 1 1 1 1 1 1 1 1 
1 1 1 1 1 1 1 1 1 
1 1 1 1 1 1 1 1 1 
1 1 1 1 1 1 1 1 1 
1 1 1 1 1 1 1 1 1 
1 1 1 1 1 1 1 1 1 
1 1 1 1 1 1 1 1 1 
1 1 1 1 1 1 1 1 1 
1 1 1 1 1 1 1 1 1 
1 1 1 1 1 1 1 1 1 
1 1 1 1 1 1 1 1 1 
1 1 1 1 1 1 1 1 1 
1 1 1 1 1 1 1 1 1 
1 1 1 1 1 1 1 1 1 
1 1 1 1 1 1 1 1 1 
1 1 1 1 1 1 1 1 1 
1 1 1 1 1 1 1 1 1 
1 1 1 1 1 1 1 1 1 
1 1 1 1 1 1 1 1 1 
1 1 1 1 1 1 1 1 1 
1 1 1 1 1 1 1 1 1 
1 1 1 1 1 1 1 1 1 
1 1 1 1 1 1 1 1 1 
1 1 1 1 1 1 1 1 1 
1 1 1 1 1 1 1 1 1 
1 1 1 1 1 1 1 1 1 
1 1 1 1 1 1 1 1 1 
1 1 1 1 1 1 1 1 1 
1 1 1 1 1 1 1 1 1 
1 1 1 1 1 1 1 1 1 
1 1 1 1 1 1 1 1 1 
1 1 1 1 1 1 1 1 1 
1 1 1 1 1 1 1 1 1 
1 1 1 1 1 1 1 1 1 
1 1 1 1 1 1 1 1 1 
1 1 1 1 1 1 1 1 1 
1 1 1 1 1 1 
i 3 393 int
0 0 0 0 0 0 0 0 0 
0 0 0 0 0 0 0 0 0 
0 0 0 0 0 0 0 0 0 
0 0 0 0 0 0 0 0 0 
0 0 0 0 0 0 0 0 0 
0 0 0 0 0 0 0 0 0 
0 0 0 0 0 0 0 0 0 
0 0 0 0 0 0 0 0 0 
0 0 0 0 0 0 0 0 0 
0 0 0 0 0 0 0 0 0 
0 0 0 0 0 0 0 0 0 
0 0 0 0 0 0 0 0 0 
0 0 0 0 0 0 0 0 0 
0 0 0 0 0 0 0 0 0 
0 0 0 0 0 0 0 0 0 
0 0 0 0 0 0 0 0 0 
0 0 0 0 0 0 0 0 0 
0 0 0 0 0 0 0 0 0 
0 0 0 0 0 0 0 0 0 
0 0 0 0 0 0 0 0 0 
0 0 0 0 0 0 0 0 0 
0 0 0 0 0 0 0 0 0 
0 0 0 0 0 0 0 0 0 
0 0 0 0 0 0 0 0 0 
0 0 0 0 0 0 0 0 0 
0 0 0 0 0 0 0 0 0 
0 0 0 0 0 0 0 0 0 
0 0 0 0 0 0 0 0 0 
0 0 0 0 0 0 0 0 0 
0 0 0 0 0 0 0 0 0 
0 0 0 0 0 0 0 0 0 
0 0 0 0 0 0 0 0 0 
0 0 0 0 0 0 0 0 0 
0 0 0 0 0 0 0 0 0 
0 0 0 0 0 0 0 0 0 
0 0 0 0 0 0 0 0 0 
0 0 0 0 0 0 0 0 0 
0 0 0 0 0 0 0 0 0 
0 0 0 0 0 0 0 0 0 
0 0 0 0 0 0 0 0 0 
0 0 0 0 0 0 0 0 0 
0 0 0 0 0 0 0 0 0 
0 0 0 0 0 0 0 0 0 
0 0 0 0 0 0 0 0 0 
0 0 0 0 0 0 0 0 0 
0 0 0 0 0 0 0 0 0 
0 0 0 0 0 0 0 0 0 
0 0 0 0 0 0 0 0 0 
0 0 0 0 0 0 0 0 0 
0 0 0 0 0 0 0 0 0 
0 0 0 0 0 0 0 0 0 
0 0 0 0 0 0 0 0 0 
0 0 0 0 0 0 0 0 0 
0 0 0 0 0 0 0 0 0 
0 0 0 0 0 0 0 0 0 
0 0 0 0 0 0 0 0 0 
0 0 0 0 0 0 0 0 0 
0 0 0 0 0 0 0 0 0 
0 0 0 0 0 0 0 0 0 
0 0 0 0 0 0 0 0 0 
0 0 0 0 0 0 0 0 0 
0 0 0 0 0 0 0 0 0 
0 0 0 0 0 0 0 0 0 
0 0 0 0 0 0 0 0 0 
0 0 0 0 0 0 0 0 0 
0 0 0 0 0 0 0 0 0 
0 0 0 0 0 0 0 0 0 
0 0 0 0 0 0 0 0 0 
0 0 0 0 0 0 0 0 0 
0 0 0 0 0 0 0 0 0 
0 0 0 0 0 0 0 0 0 
0 0 0 0 0 0 0 0 0 
0 0 0 0 0 0 0 0 0 
0 0 0 0 0 0 0 0 0 
0 0 0 0 0 0 0 0 0 
0 0 0 0 0 0 0 0 0 
0 0 0 0 0 0 0 0 0 
0 0 0 0 0 0 0 0 0 
0 0 0 0 0 0 0 0 0 
0 0 0 0 0 0 0 0 0 
0 0 0 0 0 0 0 0 0 
0 0 0 0 0 0 0 0 0 
0 0 0 0 0 0 0 0 0 
0 0 0 0 0 0 0 0 0 
0 0 0 0 0 0 0 0 0 
0 0 0 0 0 0 0 0 0 
0 0 0 0 0 0 0 0 0 
0 0 0 0 0 0 0 0 0 
0 0 0 0 0 0 0 0 0 
0 0 0 0 0 0 0 0 0 
0 0 0 0 0 0 0 0 0 
0 0 0 0 0 0 0 0 0 
0 0 0 0 0 0 0 0 0 
0 0 0 0 0 0 0 0 0 
0 0 0 0 0 0 0 0 0 
0 0 0 0 0 0 0 0 0 
0 0 0 0 0 0 0 0 0 
0 0 0 0 0 0 0 0 0 
0 0 0 0 0 0 0 0 0 
0 0 0 0 0 0 0 0 0 
0 0 0 0 0 0 0 0 0 
0 0 0 0 0 0 0 0 0 
0 0 0 0 0 0 0 0 0 
0 0 0 0 0 0 0 0 0 
0 0 0 0 0 0 0 0 0 
0 0 0 0 0 0 0 0 0 
0 0 0 0 0 0 0 0 0 
0 0 0 0 0 0 0 0 0 
0 0 0 0 0 0 0 0 0 
0 0 0 0 0 0 0 0 0 
0 0 0 0 0 0 0 0 0 
0 0 0 0 0 0 0 0 0 
0 0 0 0 0 0 0 0 0 
0 0 0 0 0 0 0 0 0 
0 0 0 0 0 0 0 0 0 
0 0 0 0 0 0 0 0 0 
0 0 0 0 0 0 0 0 0 
0 0 0 0 0 0 0 0 0 
0 0 0 0 0 0 0 0 0 
0 0 0 0 0 0 0 0 0 
0 0 0 0 0 0 0 0 0 
0 0 0 0 0 0 0 0 0 
0 0 0 0 0 0 0 0 0 
0 0 0 0 0 0 0 0 0 
0 0 0 0 0 0 0 0 0 
0 0 0 0 0 0 0 0 0 
0 0 0 0 0 0 0 0 0 
0 0 0 0 0 0 0 0 0 
0 0 0 0 0 0 0 0 0 
0 0 0 0 0 0 0 0 0 
0 0 0 0 0 0 0 0 0 

v 3 393 double
0 0 -0.0160339 0 0 -0.0163713 0 0 -0.0160972 
0 0 -0.0161178 0 0 -0.0160151 0 0 -0.0161247 
0 0 -0.0160007 0 0 -0.0160556 0 0 -0.0163754 
0 0 -0.0163073 0 0 -0.0160224 0 0 -0.0161362 
0 0 -0.0163725 0 0 -0.0161695 0 0 -0.0163278 
0 0 -0.0161522 0 0 -0.0163101 0 0 -0.0160746 
0 0 -0.0161641 0 0 -0.0163508 0 0 -0.0162295 
0 0 -0.0155556 0 0 -0.0156269 0 0 -0.0157843 
0 0 -0.0154972 0 0 -0.0154446 0 0 -0.0154639 
0 0 -0.015685 0 0 -0.0158977 0 0 -0.0154659 
0 0 -0.0157695 0 0 -0.0158986 0 0 -0.0155182 
0 0 -0.015803 0 0 -0.01598 0 0 -0.0155028 
0 0 -0.0159037 0 0 -0.0159236 0 0 -0.0159627 
0 0 -0.0156866 0 0 -0.0155278 0 0 -0.0155066 
0 0 -0.015757 0 0 -0.0158676 0 0 -0.0155303 
0 0 -0.0158944 0 0 -0.0156239 0 0 -0.0156553 
0 0 -0.015424 0 0 -0.0157755 0 0 -0.0158782 
0 0 -0.0158402 0 0 -0.0154442 0 0 -0.0154326 
0 0 -0.0156321 0 0 -0.0159287 0 0 -0.0158342 
0 0 -0.0156593 0 0 -0.0157875 0 0 -0.0154608 
0 0 -0.0147486 0 0 -0.0152268 0 0 -0.015145 
0 0 -0.0150022 0 0 -0.0149524 0 0 -0.0149432 
0 0 -0.0147531 0 0 -0.0150407 0 0 -0.0149753 
0 0 -0.0146969 0 0 -0.0149515 0 0 -0.014712 
0 0 -0.0149584 0 0 -0.01491 0 0 -0.0147031 
0 0 -0.0153387 0 0 -0.0151629 0 0 -0.0148863 
0 0 -0.0148271 0 0 -0.0147556 0 0 -0.0149144 
0 0 -0.0147106 0 0 -0.0148032 0 0 -0.014991 
0 0 -0.0148849 0 0 -0.0147251 0 0 -0.0153329 
0 0 -0.0147365 0 0 -0.014682 0 0 -0.0146934 
0 0 -0.0141255 0 0 -0.0145012 0 0 -0.0144819 
0 0 -0.0146567 0 0 -0.014478 0 0 -0.0146106 
0 0 -0.0146527 0 0 -0.0145257 0 0 -0.0146384 
0 0 -0.0145869 0 0 -0.0144624 0 0 -0.0145198 
0 0 -0.0144799 0 0 -0.0146091 0 0 -0.0144224 
0 0 -0.0145521 0 0 -0.0144147 0 0 -0.014463 
0 0 -0.0145382 0 0 -0.014432 0 0 -0.0144262 
0 0 -0.0144975 0 0 -0.0144322 0 0 -0.0140067 
0 0 -0.0146051 0 0 -0.0146462 0 0 -0.0143743 
0 0 -0.0144171 0 0 -0.0146395 0 0 -0.0145136 
0 0 -0.0146388 0 0 -0.0145072 0 0 -0.0145109 
0 0 -0.0138662 0 0 -0.0135804 0 0 -0.0134851 
0 0 -0.0138046 0 0 -0.0136009 0 0 -0.0135377 
0 0 -0.0138616 0 0 -0.013698 0 0 -0.0134828 
0 0 -0.0135317 0 0 -0.01388 0 0 -0.0134781 
0 0 -0.0136178 0 0 -0.0134743 0 0 -0.0136791 
0 0 -0.0134821 0 0 -0.0136796 0 0 -0.0137151 
0 0 -0.0136108 0 0 -0.0136329 0 0 -0.0138181 
0 0 -0.0135915 0 0 -0.0136905 0 0 -0.0136974 
0 0 -0.0135855 0 0 -0.0136895 0 0 -0.013456 
0 0 -0.0136301 0 0 -0.0134515 0 0 -0.0136188 
0 0 -0.0139365 0 0 -0.013914 0 0 -0.0136289 
0 0 -0.0136263 0 0 -0.0138055 0 0 -0.0136211 
0 0 -0.0134996 0 0 -0.0137291 0 0 -0.0135044 
0 0 -0.0138208 0 0 -0.0135094 0 0 -0.0139392 
0 0 -0.0138223 0 0 -0.0134794 0 0 -0.013671 
0 0 -0.0137735 0 0 -0.0137497 0 0 -0.0136228 
0 0 -0.0135286 0 0 -0.0136099 0 0 -0.0124527 
0 0 -0.0130928 0 0 -0.0124753 0 0 -0.0125904 
0 0 -0.0125881 0 0 -0.0125107 0 0 -0.0125123 
0 0 -0.0127112 0 0 -0.0128502 0 0 -0.0124588 
0 0 -0.0126573 0 0 -0.0125955 0 0 -0.0125016 
0 0 -0.0130574 0 0 -0.0130802 0 0 -0.0127429 
0 0 -0.0127178 0 0 -0.0128731 0 0 -0.0124906 
0 0 -0.0125608 0 0 -0.0128177 0 0 -0.0127034 
0 0 -0.0124834 0 0 -0.0126825 0 0 -0.0124634 
0 0 -0.0124829 0 0 -0.0128793 0 0 -0.0125213 
0 0 -0.0128597 0 0 -0.0130825 0 0 -0.0126274 
0 0 -0.0126402 0 0 -0.0124995 0 0 -0.0124963 
0 0 -0.0125529 0 0 -0.0125333 0 0 -0.0127588 
0 0 -0.01285 0 0 -0.0125446 0 0 -0.0127906 
0 0 -0.0125923 0 0 -0.0127001 0 0 -0.0125902 
0 0 -0.0126236 0 0 -0.0126094 0 0 -0.0126182 
0 0 -0.0127031 0 0 -0.0127781 0 0 -0.0125255 
0 0 -0.0127742 0 0 -0.0125629 0 0 -0.0127839 
0 0 -0.0127185 0 0 -0.0124959 0 0 -0.0120275 
0 0 -0.0123015 0 0 -0.0117939 0 0 -0.0116694 
0 0 -0.0118349 0 0 -0.0121346 0 0 -0.0118856 
0 0 -0.0119493 0 0 -0.0116091 0 0 -0.0116232 
0 0 -0.0119207 0 0 -0.0121447 0 0 -0.0116813 
0 0 -0.0117641 0 0 -0.0116095 0 0 -0.0119885 
0 0 -0.011681 0 0 -0.0116657 0 0 -0.0116432 
0 0 -0.0117736 0 0 -0.0117682 0 0 -0.011633 
0 0 -0.0117635 0 0 -0.0118418 0 0 -0.0116842 
0 0 -0.0118239 0 0 -0.0116443 0 0 -0.0116943 
0 0 -0.0117421 0 0 -0.0119756 0 0 -0.010978 
0 0 -0.0114989 0 0 -0.0115055 0 0 -0.0108916 
0 0 -0.0109532 0 0 -0.0115009 0 0 -0.0115231 
0 0 -0.0115642 0 0 -0.0115186 0 0 -0.0114809 
0 0 -0.011503 0 0 -0.0111472 0 0 -0.0109938 
0 0 -0.0115151 0 0 -0.0110552 0 0 -0.0114854 
0 0 -0.0115229 0 0 -0.0109479 0 0 -0.0114862 
0 0 -0.0107978 0 0 -0.0115674 0 0 -0.0109052 
0 0 -0.01079 0 0 -0.0114906 0 0 -0.0115423 
0 0 -0.010772 0 0 -0.0115205 0 0 -0.0109744 
0 0 -0.0114973 0 0 -0.0115683 0 0 -0.0114744 
0 0 -0.0114808 0 0 -0.0107255 0 0 -0.0114867 
0 0 -0.0115708 0 0 -0.0108056 0 0 -0.0107517 
0 0 -0.0115012 0 0 -0.0115319 0 0 -0.0111305 
0 0 -0.0115748 0 0 -0.010726 0 0 -0.0114875 
0 0 -0.0110049 0 0 -0.0114863 0 0 -0.0115529 
0 0 -0.0108483 0 0 -0.0109808 0 0 -0.0105246 
0 0 -0.0105454 0 0 -0.0102452 -0 -0 -0.01 
0 0 -0.0105268 0 0 -0.0105345 -0 -0 -0.01 
0 0 -0.0106291 -0 -0 -0.01 0 0 -0.0105612 
-0 -0 -0.01 0 0 -0.0106029 0 0 -0.0101152 
0 0 -0.0105523 -0 -0 -0.01 0 0 -0.0106212 
0 0 -0.0105931 0 0 -0.0106895 0 0 -0.0105651 
0 0 -0.010512 0 0 -0.0105007 -0 -0 -0.01 
0 0 -0.0105175 0 0 -0.0104916 0 0 -0.0105195 
-0 -0 -0.01 -0 -0 -0.01 -0 -0 -0.01 
0 0 -0.0101409 0 0 -0.0106348 0 0 -0.0105195 
0 0 -0.0105103 0 0 -0.0105172 0 0 -0.0105951 
-0 -0 -0.01 0 0 -0.0106784 0 0 -0.0105473 
0 0 -0.0104937 0 0 -0.0105348 -0 -0 -0.01 
-0 -0 -0.01 0 0 -0.010653 0 0 -0.0106996 
0 0 -0.0105263 0 0 -0.0106313 0 0 -0.0106137 
0 0 -0.0105814 0 0 -0.0101428 -0 -0 -0.01 
-0 -0 -0.01 -0 -0 -0.01 -0 -0 -0.01 
-0 -0 -0.01 -0 -0 -0.01 -0 -0 -0.01 
-0 -0 -0.01 -0 -0 -0.01 -0 -0 -0.01 
-0 -0 -0.01 -0 -0 -0.01 -0 -0 -0.01 
-0 -0 -0.01 -0 -0 -0.01 -0 -0 -0.01 
-0 -0 -0.01 -0 -0 -0.01 -0 -0 -0.01 
-0 -0 -0.01 -0 -0 -0.01 -0 -0 -0.01 
-0 -0 -0.01 -0 -0 -0.01 -0 -0 -0.01 
-0 -0 -0.01 -0 -0 -0.01 -0 -0 -0.01 
-0 -0 -0.01 -0 -0 -0.01 -0 -0 -0.01 
-0 -0 -0.01 -0 -0 -0.01 -0 -0 -0.01 
-0 -0 -0.01 -0 -0 -0.01 -0 -0 -0.01 
-0 -0 -0.01 -0 -0 -0.01 -0 -0 -0.01 

f 3 393 double
0 0 -1.28413e-05 0 0 -1.28413e-05 0 0 -1.28413e-05 
0 0 -1.28413e-05 0 0 -1.28413e-05 0 0 -1.28413e-05 
0 0 -1.28413e-05 0 0 -1.28413e-05 0 0 -1.28413e-05 
0 0 -1.28413e-05 0 0 -1.28413e-05 0 0 -1.28413e-05 
0 0 -1.28413e-05 0 0 -1.28413e-05 0 0 -1.28413e-05 
0 0 -1.28413e-05 0 0 -1.28413e-05 0 0 -1.28413e-05 
0 0 -1.28413e-05 0 0 -1.28413e-05 0 0 -1.28413e-05 
0 0 -1.28413e-05 0 0 -1.28413e-05 0 0 -1.28413e-05 
0 0 -1.28413e-05 0 0 -1.28413e-05 0 0 -1.28413e-05 
0 0 -1.28413e-05 0 0 -1.28413e-05 0 0 -1.28413e-05 
0 0 -1.28413e-05 0 0 -1.28413e-05 0 0 -1.28413e-05 
0 0 -1.28413e-05 0 0 -1.28413e-05 0 0 -1.28413e-05 
0 0 -1.28413e-05 0 0 -1.28413e-05 0 0 -1.28413e-05 
0 0 -1.28413e-05 0 0 -1.28413e-05 0 0 -1.28413e-05 
0 0 -1.28413e-05 0 0 -1.28413e-05 0 0 -1.28413e-05 
0 0 -1.28413e-05 0 0 -1.28413e-05 0 0 -1.28413e-05 
0 0 -1.28413e-05 0 0 -1.28413e-05 0 0 -1.28413e-05 
0 0 -1.28413e-05 0 0 -1.28413e-05 0 0 -1.28413e-05 
0 0 -1.28413e-05 0 0 -1.28413e-05 0 0 -1.28413e-05 
0 0 -1.28413e-05 0 0 -1.28413e-05 0 0 -1.28413e-05 
0 0 -1.28413e-05 0 0 -1.28413e-05 0 0 -1.28413e-05 
0 0 -1.28413e-05 0 0 -1.28413e-05 0 0 -1.28413e-05 
0 0 -1.28413e-05 0 0 -1.28413e-05 0 0 -1.28413e-05 
0 0 -1.28413e-05 0 0 -1.28413e-05 0 0 -1.28413e-05 
0 0 -1.28413e-05 0 0 -1.28413e-05 0 0 -1.28413e-05 
0 0 -1.28413e-05 0 0 -1.28413e-05 0 0 -1.28413e-05 
0 0 -1.28413e-05 0 0 -1.28413e-05 0 0 -1.28413e-05 
0 0 -1.28413e-05 0 0 -1.28413e-05 0 0 -1.28413e-05 
0 0 -1.28413e-05 0 0 -1.28413e-05 0 0 -1.28413e-05 
0 0 -1.28413e-05 0 0 -1.28413e-05 0 0 -1.28413e-05 
0 0 -1.28413e-05 0 0 -1.28413e-05 0 0 -1.28413e-05 
0 0 -1.28413e-05 0 0 -1.28413e-05 0 0 -1.28413e-05 
0 0 -1.28413e-05 0 0 -1.28413e-05 0 0 -1.28413e-05 
0 0 -1.28413e-05 0 0 -1.28413e-05 0 0 -1.28413e-05 
0 0 -1.28413e-05 0 0 -1.28413e-05 0 0 -1.28413e-05 
0 0 -1.28413e-05 0 0 -1.28413e-05 0 0 -1.28413e-05 
0 0 -1.28413e-05 0 0 -1.28413e-05 0 0 -1.28413e-05 
0 0 -1.28413e-05 0 0 -1.28413e-05 0 0 -1.28413e-05 
0 0 -1.28413e-05 0 0 -1.28413e-05 0 0 -1.28413e-05 
0 0 -1.28413e-05 0 0 -1.28413e-05 0 0 -1.28413e-05 
0 0 -1.28413e-05 0 0 -1.28413e-05 0 0 -1.28413e-05 
0 0 -1.28413e-05 0 0 -1.28413e-05 0 0 -1.28413e-05 
0 0 -1.28413e-05 0 0 -1.28413e-05 0 0 -1.28413e-05 
0 0 -1.28413e-05 0 0 -1.28413e-05 0 0 -1.28413e-05 
0 0 -1.28413e-05 0 0 -1.28413e-05 0 0 -1.28413e-05 
0 0 -1.28413e-05 0 0 -1.28413e-05 0 0 -1.28413e-05 
0 0 -1.28413e-05 0 0 -1.28413e-05 0 0 -1.28413e-05 
0 0 -1.28413e-05 0 0 -1.28413e-05 0 0 -1.28413e-05 
0 0 -1.28413e-05 0 0 -1.28413e-05 0 0 -1.28413e-05 
0 0 -1.28413e-05 0 0 -1.28413e-05 0 0 -1.28413e-05 
0 0 -1.28413e-05 0 0 -1.28413e-05 0 0 -1.28413e-05 
0 0 -1.28413e-05 0 0 -1.28413e-05 0 0 -1.28413e-05 
0 0 -1.28413e-05 0 0 -1.28413e-05 0 0 -1.28413e-05 
0 0 -1.28413e-05 0 0 -1.28413e-05 0 0 -1.28413e-05 
0 0 -1.28413e-05 0 0 -1.28413e-05 0 0 -1.28413e-05 
0 0 -1.28413e-05 0 0 -1.28413e-05 0 0 -1.28413e-05 
0 0 -1.28413e-05 0 0 -1.28413e-05 0 0 -1.28413e-05 
0 0 -1.28413e-05 0 0 -1.28413e-05 0 0 -1.28413e-05 
0 0 -1.28413e-05 0 0 -1.28413e-05 0 0 -1.28413e-05 
0 0 -1.28413e-05 0 0 -1.28413e-05 0 0 -1.28413e-05 
0 0 -1.28413e-05 0 0 -1.28413e-05 0 0 -1.28413e-05 
0 0 -1.28413e-05 0 0 -1.28413e-05 0 0 -1.28413e-05 
0 0 -1.28413e-05 0 0 -1.28413e-05 0 0 -1.28413e-05 
0 0 -1.28413e-05 0 0 -1.28413e-05 0 0 -1.28413e-05 
0 0 -1.28413e-05 0 0 -1.28413e-05 0 0 -1.28413e-05 
0 0 -1.28413e-05 0 0 -1.28413e-05 0 0 -1.28413e-05 
0 0 -1.28413e-05 0 0 -1.28413e-05 0 0 -1.28413e-05 
0 0 -1.28413e-05 0 0 -1.28413e-05 0 0 -1.28413e-05 
0 0 -1.28413e-05 0 0 -1.28413e-05 0 0 -1.28413e-05 
0 0 -1.28413e-05 0 0 -1.28413e-05 0 0 -1.28413e-05 
0 0 -1.28413e-05 0 0 -1.28413e-05 0 0 -1.28413e-05 
0 0 -1.28413e-05 0 0 -1.28413e-05 0 0 -1.28413e-05 
0 0 -1.28413e-05 0 0 -1.28413e-05 0 0 -1.28413e-05 
0 0 -1.28413e-05 0 0 -1.28413e-05 0 0 -1.28413e-05 
0 0 -1.28413e-05 0 0 -1.28413e-05 0 0 -1.28413e-05 
0 0 -1.28413e-05 0 0 -1.28413e-05 0 0 -1.28413e-05 
0 0 -1.28413e-05 0 0 -1.28413e-05 0 0 -1.28413e-05 
0 0 -1.28413e-05 0 0 -1.28413e-05 0 0 -1.28413e-05 
0 0 -1.28413e-05 0 0 -1.28413e-05 0 0 -1.28413e-05 
0 0 -1.28413e-05 0 0 -1.28413e-05 0 0 -1.28413e-05 
0 0 -1.28413e-05 0 0 -1.28413e-05 0 0 -1.28413e-05 
0 0 -1.28413e-05 0 0 -1.28413e-05 0 0 -1.28413e-05 
0 0 -1.28413e-05 0 0 -1.28413e-05 0 0 -1.28413e-05 
0 0 -1.28413e-05 0 0 -1.28413e-05 0 0 -1.28413e-05 
0 0 -1.28413e-05 0 0 -1.28413e-05 0 0 -1.28413e-05 
0 0 -1.28413e-05 0 0 -1.28413e-05 0 0 -1.28413e-05 
0 0 -1.28413e-05 0 0 -1.28413e-05 0 0 -1.28413e-05 
0 0 -1.28413e-05 0 0 -1.28413e-05 0 0 -1.28413e-05 
0 0 -1.28413e-05 0 0 -1.28413e-05 0 0 -1.28413e-05 
0 0 -1.28413e-05 0 0 -1.28413e-05 0 0 -1.28413e-05 
0 0 -1.28413e-05 0 0 -1.28413e-05 0 0 -1.28413e-05 
0 0 -1.28413e-05 0 0 -1.28413e-05 0 0 -1.28413e-05 
0 0 -1.28413e-05 0 0 -1.28413e-05 0 0 -1.28413e-05 
0 0 -1.28413e-05 0 0 -1.28413e-05 0 0 -1.28413e-05 
0 0 -1.28413e-05 0 0 -1.28413e-05 0 0 -1.28413e-05 
0 0 -1.28413e-05 0 0 -1.28413e-05 0 0 -1.28413e-05 
0 0 -1.28413e-05 0 0 -1.28413e-05 0 0 -1.28413e-05 
0 0 -1.28413e-05 0 0 -1.28413e-05 0 0 -1.28413e-05 
0 0 -1.28413e-05 0 0 -1.28413e-05 0 0 -1.28413e-05 
0 0 -1.28413e-05 0 0 -1.28413e-05 0 0 -1.28413e-05 
0 0 -1.28413e-05 0 0 -1.28413e-05 0 0 -1.28413e-05 
0 0 -1.28413e-05 0 0 -1.28413e-05 0 0 -1.28413e-05 
0 0 -1.28413e-05 0 0 -1.28413e-05 0 0 0 
0 0 -1.28413e-05 0 0 -1.28413e-05 0 0 0 
0 0 -1.28413e-05 0 0 0 0 0 -1.28413e-05 
0 0 0 0 0 -1.28413e-05 0 0 -1.28413e-05 
0 0 -1.28413e-05 0 0 0 0 0 -1.28413e-05 
0 0 -1.28413e-05 0 0 -1.28413e-05 0 0 -1.28413e-05 
0 0 -1.28413e-05 0 0 -1.28413e-05 0 0 0 
0 0 -1.28413e-05 0 0 -1.28413e-05 0 0 -1.28413e-05 
0 0 0 0 0 0 0 0 0 
0 0 -1.28413e-05 0 0 -1.28413e-05 0 0 -1.28413e-05 
0 0 -1.28413e-05 0 0 -1.28413e-05 0 0 -1.28413e-05 
0 0 0 0 0 -1.28413e-05 0 0 -1.28413e-05 
0 0 -1.28413e-05 0 0 -1.28413e-05 0 0 0 
0 0 0 0 0 -1.28413e-05 0 0 -1.28413e-05 
0 0 -1.28413e-05 0 0 -1.28413e-05 0 0 -1.28413e-05 
0 0 -1.28413e-05 0 0 -1.28413e-05 0 0 0 
0 0 0 0 0 0 0 0 0 
0 0 0 0 0 0 0 0 0 
0 0 0 0 0 0 0 0 0 
0 0 0 0 0 0 0 0 0 
0 0 0 0 0 0 0 0 0 
0 0 0 0 0 0 0 0 0 
0 0 0 0 0 0 0 0 0 
0 0 0 0 0 0 0 0 0 
0 0 0 0 0 0 0 0 0 
0 0 0 0 0 0 0 0 0 
0 0 0 0 0 0 0 0 0 
0 0 0 0 0 0 0 0 0 
0 0 0 0 0 0 0 0 0 

radius 1 393 double
0.5 0.5 0.5 0.5 0.5 0.5 0.5 0.5 0.5 
0.5 0.5 0.5 0.5 0.5 0.5 0.5 0.5 0.5 
0.5 0.5 0.5 0.5 0.5 0.5 0.5 0.5 0.5 
0.5 0.5 0.5 0.5 0.5 0.5 0.5 0.5 0.5 
0.5 0.5 0.5 0.5 0.5 0.5 0.5 0.5 0.5 