FoamFile
{version 2.0; format ascii;class vectorField; location 0;object  v;}
43
(
( 1.51085e-05 -5.3746e-07 8.31572e-05 )  
( 2.59156e-05 -2.80525e-05 -4.75377e-06 )  
( -4.28071e-05 -1.15593e-05 1.62301e-05 )  
( 7.84461e-05 -7.7792e-05 0.00038325 )  
( 1.03591e-05 3.17351e-05 6.5428e-05 )  
( 7.77187e-05 4.06505e-05 2.8294e-05 )  
( 0.00016609 8.93548e-06 0.000128121 )  
( 5.3504e-05 -1.60204e-05 4.99051e-05 )  
( 3.00605e-05 1.8587e-05 8.67759e-05 )  
( 3.79113e-05 3.75192e-05 7.56415e-05 )  
( 1.87423e-05 -1.15123e-05 0.000118637 )  
( 3.13307e-05 3.52208e-06 0.000144105 )  
( 9.46659e-05 -9.32382e-05 0.000113011 )  
( 2.07834e-06 4.15128e-05 9.17631e-05 )  
( 8.87229e-05 3.91631e-05 -5.57446e-06 )  
( -1.11554e-05 1.80873e-05 0.000118765 )  
( 0.000106359 -0.000100242 0.000161463 )  
( 0.000127632 2.15104e-05 9.08906e-05 )  
( 4.98318e-05 -6.59369e-05 3.3505e-05 )  
( 0.000103314 -5.33827e-05 9.5221e-06 )  
( 2.64611e-05 3.913e-06 9.63069e-05 )  
( 1.23518e-05 -3.8795e-06 9.94968e-05 )  
( -7.99156e-05 -2.4397e-05 -0.000179666 )  
( -6.87914e-05 6.81209e-05 5.1949e-05 )  
( -0.000105033 0.000186968 -6.81812e-05 )  
( -0.000116263 9.3137e-05 9.36679e-05 )  
( -1.18627e-05 0.000119964 -0.000245673 )  
( -6.63399e-05 2.75293e-05 -5.07469e-05 )  
( 6.59598e-05 -3.989e-06 -0.000212552 )  
( -8.70659e-06 6.94717e-05 5.64252e-06 )  
( -0.000138462 -9.19905e-05 5.60171e-05 )  
( 3.91228e-05 0.00013651 -0.000237528 )  
( 1.64429e-05 7.66831e-05 -0.000346978 )  
( -4.50756e-05 1.95929e-05 -0.000158474 )  
( 5.41749e-05 4.82541e-05 -0.000284164 )  
( 2.65389e-05 -6.37446e-05 -0.000547442 )  
( 1.79301e-05 8.09815e-05 -0.000432183 )  
( 0.00014161 -1.94188e-05 -0.000476948 )  
( 0.000127786 -8.482e-05 -0.000468638 )  
( 4.7688e-05 0.000219883 -0.000553059 )  
( 6.76391e-05 0.000248193 -0.000772876 )  
( 0.000199789 7.08519e-05 -0.00048839 )  
( 0.000179199 0.000258252 -0.000572993 )  
)
