FoamFile
{version 2.0; format ascii;class vectorField; location 0;object  v;}
43
(
( 8.64852e-05 3.67283e-05 0.000170131 )  
( 2.43282e-05 -8.56958e-06 3.2929e-05 )  
( 2.86986e-05 6.94955e-05 9.38298e-05 )  
( 5.34039e-05 -3.30681e-05 8.21955e-06 )  
( 4.51089e-05 2.16261e-05 0.000139241 )  
( 0.000130465 6.05997e-05 0.000182766 )  
( 0.000193357 4.1999e-05 0.00033904 )  
( 6.1885e-05 5.50102e-05 0.000150721 )  
( 9.36263e-05 9.07213e-05 0.00023829 )  
( 0.000128541 8.54339e-05 0.00029392 )  
( 6.93905e-05 -1.67265e-05 0.000274512 )  
( 0.000227181 -1.38396e-05 0.000504987 )  
( 9.86752e-05 4.56946e-05 0.000233193 )  
( -3.94635e-05 -0.000125634 0.000286058 )  
( 7.46943e-05 4.15475e-06 0.000293252 )  
( -0.000118111 -7.22703e-06 0.000378427 )  
( 0.000162897 0.000240489 0.000311928 )  
( -0.000278348 -2.39452e-05 0.000772461 )  
( 2.25394e-05 1.35049e-05 0.000485899 )  
( -8.88021e-05 -2.01392e-05 0.000324766 )  
( -0.000154709 -0.000121977 0.000553496 )  
( -0.000111453 -0.000187702 0.000535016 )  
( -0.000114039 -7.04055e-05 0.000313299 )  
( -3.46984e-05 0.000113527 0.000232152 )  
( -0.000132364 3.44249e-05 0.00036139 )  
( -0.000145523 2.01736e-05 0.000294238 )  
( -8.15836e-05 6.34692e-05 0.000246515 )  
( -0.000152693 -3.57048e-05 0.000342906 )  
( -0.000103083 6.29835e-05 0.000441524 )  
( 5.16886e-05 5.8833e-05 0.000459242 )  
( -7.74092e-07 0.00020679 0.000403919 )  
( 1.31795e-05 7.89244e-05 0.000284737 )  
( -6.05412e-05 -3.27595e-06 0.000353861 )  
( -0.000205525 -7.64108e-05 0.000229585 )  
( -2.0999e-05 3.87845e-05 0.000396237 )  
( 2.56641e-05 3.64267e-05 0.000139324 )  
( -6.09892e-05 3.81026e-05 0.000306165 )  
( -8.76199e-05 0.00011929 0.000360539 )  
( 3.51617e-05 0.000155177 0.00034881 )  
( -0.00010175 -3.6138e-05 0.000253034 )  
( -0.000105108 -2.80968e-05 0.000400341 )  
( -0.000141288 -8.18559e-05 0.000263874 )  
( -0.000183372 -0.000191546 0.000136042 )  
)
