/*--------------------------------*- C++ -*----------------------------------*\
| =========                 |                                                 |
| \\      /  F ield         | OpenFOAM: The Open Source CFD Toolbox           |
|  \\    /   O peration     | Version:  5.x                                   |
|   \\  /    A nd           | Web:      www.OpenFOAM.org                      |
|    \\/     M anipulation  |                                                 |
\*---------------------------------------------------------------------------*/
FoamFile
{
    version     2.0;
    format      ascii;
    class       volScalarField;
    location    "1000";
    object      p;
}
// * * * * * * * * * * * * * * * * * * * * * * * * * * * * * * * * * * * * * //

dimensions      [0 2 -2 0 0 0 0];

internalField   nonuniform List<scalar> 
90
(
-0.010475
-0.0354124
-0.0475497
-0.0624589
-0.0765705
-0.0911251
-0.105424
-0.119566
-0.134037
-0.149099
-0.164563
-0.180294
-0.195931
-0.211355
-0.227119
-0.243628
-0.260731
-0.2783
-0.296521
-0.315565
-0.335023
-0.354654
-0.374636
-0.394986
-0.415648
-0.436364
-0.457335
-0.479115
-0.501916
-0.525698
-0.550286
-0.575704
-0.602092
-0.629197
-0.65694
-0.685381
-0.714454
-0.744254
-0.774802
-0.806056
-0.837618
-0.869775
-0.902956
-0.936827
-0.970943
-1.00542
-1.04083
-1.07742
-1.11528
-1.15427
-1.19416
-1.23512
-1.27695
-1.31958
-1.36315
-1.40749
-1.45256
-1.49851
-1.54507
-1.59233
-1.6405
-1.68928
-1.7388
-1.78883
-1.8387
-1.88868
-1.93897
-1.98969
-2.04098
-2.09293
-2.14564
-2.19914
-2.2535
-2.30873
-2.36488
-2.42195
-2.47998
-2.53898
-2.59896
-2.65996
-2.72201
-2.78518
-2.84938
-2.91436
-2.98011
-3.04842
-3.12215
-3.19777
-3.25415
-3.25511
)
;

boundaryField
{
    inlet
    {
        type            zeroGradient;
    }
    outlet
    {
        type            fixedValue;
        value           uniform 0;
    }
    repeat_boundary
    {
        type            zeroGradient;
    }
    procBoundary1to0
    {
        type            processor;
        value           nonuniform List<scalar> 
90
(
-0.00647383
-0.0204002
-0.03471
-0.0488626
-0.0651812
-0.0834534
-0.0983046
-0.102415
-0.106551
-0.124689
-0.145635
-0.168844
-0.18784
-0.195097
-0.194961
-0.21136
-0.234133
-0.247131
-0.261971
-0.289909
-0.315657
-0.333257
-0.351672
-0.370123
-0.389251
-0.404458
-0.4109
-0.422118
-0.447819
-0.480237
-0.503517
-0.528953
-0.563931
-0.590722
-0.617208
-0.642449
-0.667847
-0.693996
-0.725233
-0.765908
-0.789734
-0.804149
-0.84048
-0.886204
-0.9157
-0.932837
-0.954532
-0.993594
-1.04179
-1.07827
-1.11622
-1.16634
-1.20444
-1.24396
-1.29709
-1.33753
-1.37974
-1.43644
-1.47976
-1.52522
-1.58642
-1.63445
-1.68519
-1.7527
-1.8018
-1.83689
-1.87635
-1.9171
-1.96025
-2.00532
-2.05216
-2.10052
-2.15028
-2.20134
-2.25362
-2.30707
-2.36166
-2.41737
-2.47419
-2.53212
-2.59119
-2.65146
-2.71295
-2.77552
-2.83891
-2.90401
-2.97339
-3.04697
-3.11106
-3.13276
)
;
    }
    procBoundary1to3
    {
        type            processor;
        value           nonuniform List<scalar> 
90
(
-0.00409101
-0.0222117
-0.0353802
-0.0509349
-0.0655772
-0.0808818
-0.0961371
-0.111651
-0.127347
-0.143311
-0.159519
-0.175932
-0.19253
-0.209324
-0.226384
-0.243787
-0.261589
-0.279822
-0.298517
-0.317699
-0.337355
-0.357457
-0.377994
-0.398956
-0.420339
-0.442153
-0.464452
-0.487325
-0.51086
-0.53512
-0.560133
-0.585919
-0.612502
-0.639869
-0.667997
-0.696871
-0.726473
-0.756801
-0.787856
-0.81963
-0.852088
-0.885217
-0.919025
-0.953501
-0.988632
-1.02445
-1.06102
-1.09845
-1.13679
-1.17606
-1.21626
-1.2574
-1.29944
-1.34236
-1.38615
-1.43078
-1.47622
-1.52246
-1.56946
-1.61722
-1.66572
-1.71494
-1.76485
-1.8154
-1.86651
-1.91813
-1.97027
-2.02293
-2.07614
-2.12994
-2.18436
-2.23945
-2.29523
-2.35174
-2.40898
-2.46697
-2.52572
-2.58522
-2.64547
-2.70646
-2.76819
-2.83062
-2.89357
-2.9568
-3.02048
-3.08627
-3.15708
-3.23243
-3.29696
-3.31372
)
;
    }
}


// ************************************************************************* //
