/*--------------------------------*- C++ -*----------------------------------*\
| =========                 |                                                 |
| \\      /  F ield         | OpenFOAM: The Open Source CFD Toolbox           |
|  \\    /   O peration     | Version:  5.x                                   |
|   \\  /    A nd           | Web:      www.OpenFOAM.org                      |
|    \\/     M anipulation  |                                                 |
\*---------------------------------------------------------------------------*/
FoamFile
{
    version     2.0;
    format      ascii;
    class       volVectorField;
    location    "1000";
    object      U;
}
// * * * * * * * * * * * * * * * * * * * * * * * * * * * * * * * * * * * * * //

dimensions      [0 1 -1 0 0 0 0];

internalField   nonuniform List<vector> 
90
(
(0.0583319 -0.0012328 -4.51178)
(0.0603605 -0.000679705 -4.49481)
(0.0605792 -2.0117e-05 -4.48763)
(0.0611844 0.000546698 -4.47673)
(0.0616695 0.00108104 -4.46712)
(0.0622309 0.00159634 -4.45711)
(0.0628213 0.00208385 -4.44732)
(0.0636201 0.00254375 -4.43741)
(0.0644498 0.00297354 -4.42759)
(0.0649446 0.0033752 -4.41775)
(0.065268 0.00375089 -4.40804)
(0.0656806 0.00411114 -4.39843)
(0.0663894 0.00447229 -4.38882)
(0.0673036 0.0048357 -4.37915)
(0.0681129 0.00518362 -4.36944)
(0.0686592 0.0055133 -4.35974)
(0.0691755 0.00583033 -4.35006)
(0.0698753 0.00614198 -4.3404)
(0.0707464 0.00645898 -4.33078)
(0.0715488 0.00678266 -4.32114)
(0.0723658 0.00710283 -4.31152)
(0.0733211 0.00742228 -4.30183)
(0.0742233 0.00773649 -4.29215)
(0.0750198 0.00804004 -4.28244)
(0.0757244 0.00834872 -4.27275)
(0.0765223 0.0086606 -4.26301)
(0.0773781 0.00898033 -4.25325)
(0.0781653 0.00930597 -4.24346)
(0.0788656 0.00962912 -4.23369)
(0.0795099 0.00994916 -4.22395)
(0.0804383 0.0102773 -4.21421)
(0.0815541 0.0106241 -4.20452)
(0.0825704 0.0109723 -4.19478)
(0.0837088 0.0113224 -4.18499)
(0.0848212 0.011667 -4.17521)
(0.0857186 0.0120002 -4.16535)
(0.0865634 0.0123385 -4.15555)
(0.0877307 0.012674 -4.14571)
(0.0889991 0.0130367 -4.13592)
(0.0901399 0.0134114 -4.12603)
(0.0913929 0.0137693 -4.11605)
(0.0925142 0.0141053 -4.10608)
(0.0933414 0.0144362 -4.09612)
(0.0942776 0.0147703 -4.08617)
(0.0955138 0.0151062 -4.0762)
(0.0967421 0.0154485 -4.06619)
(0.0977943 0.0157786 -4.05613)
(0.0987732 0.0161022 -4.04609)
(0.0996596 0.016415 -4.03608)
(0.100707 0.0167196 -4.02609)
(0.101927 0.0170392 -4.01617)
(0.102948 0.0173508 -4.00622)
(0.104127 0.0176586 -3.99626)
(0.105467 0.017979 -3.98638)
(0.106579 0.0182906 -3.97644)
(0.107894 0.0186026 -3.96649)
(0.109339 0.0189238 -3.95659)
(0.110557 0.0192332 -3.94665)
(0.112092 0.0195454 -3.93666)
(0.113669 0.0198652 -3.92671)
(0.115039 0.0201698 -3.91673)
(0.116893 0.0204735 -3.90669)
(0.11891 0.0207965 -3.89666)
(0.120661 0.0211161 -3.88651)
(0.122763 0.0214276 -3.87621)
(0.125024 0.0217204 -3.8658)
(0.127066 0.0219952 -3.85522)
(0.129014 0.0222445 -3.84453)
(0.130876 0.0224667 -3.83375)
(0.132677 0.0226623 -3.8229)
(0.134428 0.0228312 -3.812)
(0.136145 0.0229747 -3.80104)
(0.137834 0.0230942 -3.79005)
(0.139504 0.0231913 -3.77902)
(0.14116 0.023268 -3.76796)
(0.142805 0.0233263 -3.75687)
(0.144443 0.0233689 -3.74577)
(0.146077 0.0233987 -3.73465)
(0.147708 0.0234192 -3.72351)
(0.149339 0.0234346 -3.71237)
(0.150971 0.0234503 -3.70123)
(0.152607 0.0234726 -3.69011)
(0.154248 0.0235105 -3.67899)
(0.155902 0.0235753 -3.66784)
(0.157577 0.0236784 -3.65654)
(0.159289 0.0238295 -3.64557)
(0.160989 0.0240434 -3.63536)
(0.162628 0.0243363 -3.62604)
(0.164333 0.0245891 -3.61325)
(0.165593 0.0245514 -3.59748)
)
;

boundaryField
{
    inlet
    {
        type            zeroGradient;
    }
    outlet
    {
        type            zeroGradient;
    }
    repeat_boundary
    {
        type            slip;
    }
    procBoundary1to0
    {
        type            processor;
        value           nonuniform List<vector> 
90
(
(0.0312461 -0.0269293 -5.70729)
(0.0312931 -0.027386 -5.70726)
(0.0311437 -0.0277163 -5.70697)
(0.0308897 -0.028227 -5.70677)
(0.0308664 -0.0284141 -5.70649)
(0.0309338 -0.0285298 -5.70637)
(0.0310939 -0.0285216 -5.70617)
(0.0314898 -0.0284536 -5.70378)
(0.0310553 -0.028243 -5.70579)
(0.0307414 -0.0285224 -5.705)
(0.0304471 -0.0288911 -5.7046)
(0.030321 -0.0291681 -5.70459)
(0.030585 -0.0291732 -5.70415)
(0.031128 -0.0289749 -5.70188)
(0.0310368 -0.0288431 -5.70251)
(0.0307865 -0.0288346 -5.70359)
(0.0306859 -0.0290863 -5.70276)
(0.0306159 -0.0295659 -5.70056)
(0.0304571 -0.0293652 -5.70221)
(0.0302957 -0.0296814 -5.7016)
(0.0304552 -0.0297711 -5.70098)
(0.0309109 -0.0298469 -5.69922)
(0.030541 -0.029907 -5.701)
(0.0307455 -0.0301227 -5.69829)
(0.0303216 -0.0303521 -5.70066)
(0.0304931 -0.0307153 -5.69728)
(0.0305133 -0.0307574 -5.69812)
(0.0304281 -0.0309368 -5.6972)
(0.0302524 -0.0310457 -5.69808)
(0.0300742 -0.0315024 -5.69706)
(0.0300033 -0.0321961 -5.69455)
(0.0300518 -0.0320065 -5.69604)
(0.03009 -0.0322668 -5.69497)
(0.0303048 -0.0327174 -5.69241)
(0.0302113 -0.0326506 -5.6942)
(0.0303048 -0.0331142 -5.69065)
(0.0298993 -0.0333689 -5.69266)
(0.0298098 -0.0340558 -5.68876)
(0.0299317 -0.0339451 -5.69065)
(0.0301373 -0.034111 -5.68938)
(0.0302733 -0.034702 -5.68581)
(0.0302376 -0.0345961 -5.68617)
(0.0299587 -0.0347965 -5.68684)
(0.0296931 -0.0354226 -5.68567)
(0.0297188 -0.0361789 -5.68193)
(0.0297777 -0.036257 -5.68226)
(0.0296663 -0.0365858 -5.68056)
(0.0295342 -0.0367283 -5.68096)
(0.0292171 -0.0373945 -5.67933)
(0.0288508 -0.0384974 -5.67531)
(0.0287532 -0.0385207 -5.67653)
(0.0285636 -0.039068 -5.67456)
(0.0283698 -0.0400411 -5.66987)
(0.028225 -0.0401135 -5.67105)
(0.0281134 -0.0406185 -5.66874)
(0.0280546 -0.0415282 -5.66352)
(0.0278763 -0.0416358 -5.66472)
(0.0278079 -0.0421406 -5.662)
(0.027982 -0.042913 -5.65643)
(0.0278255 -0.0430025 -5.65758)
(0.0276635 -0.0436424 -5.6546)
(0.0281339 -0.0442354 -5.64873)
(0.0280308 -0.0442667 -5.64982)
(0.0284711 -0.044388 -5.6472)
(0.0296882 -0.0443959 -5.64117)
(0.0296137 -0.0444995 -5.64118)
(0.0297902 -0.044682 -5.63837)
(0.0297899 -0.0449462 -5.63639)
(0.0297394 -0.0452786 -5.6342)
(0.0296354 -0.0456482 -5.6321)
(0.0294853 -0.0460538 -5.62993)
(0.0292999 -0.0464801 -5.62774)
(0.029084 -0.0469201 -5.62548)
(0.0288426 -0.0473655 -5.62315)
(0.028579 -0.0478088 -5.62073)
(0.0282961 -0.0482419 -5.61823)
(0.0279961 -0.048656 -5.61563)
(0.0276808 -0.049041 -5.61293)
(0.0273519 -0.0493849 -5.61012)
(0.0270109 -0.0496738 -5.60722)
(0.0266588 -0.0498904 -5.60422)
(0.0262967 -0.0500112 -5.60113)
(0.0259258 -0.0500052 -5.59796)
(0.0255498 -0.0498444 -5.59472)
(0.025173 -0.0495036 -5.59133)
(0.0247972 -0.048983 -5.58797)
(0.0243906 -0.0480863 -5.58493)
(0.0239382 -0.0463214 -5.5825)
(0.0235158 -0.043831 -5.57889)
(0.0233947 -0.0430175 -5.57315)
)
;
    }
    procBoundary1to3
    {
        type            processor;
        value           nonuniform List<vector> 
90
(
(0.076423 -0.00935508 -5.13222)
(0.079274 -0.00883368 -5.11724)
(0.0791555 -0.00808204 -5.10959)
(0.0803459 -0.00747666 -5.09853)
(0.0807336 -0.0068662 -5.08911)
(0.081455 -0.00630723 -5.07898)
(0.0819428 -0.00576407 -5.06924)
(0.0825162 -0.00525174 -5.05942)
(0.0830186 -0.00476269 -5.04973)
(0.0835381 -0.00430439 -5.0401)
(0.084037 -0.00387017 -5.03056)
(0.0845564 -0.0034531 -5.02111)
(0.0851049 -0.00303517 -5.01176)
(0.0856937 -0.00262038 -5.00248)
(0.0863017 -0.0022209 -4.99328)
(0.0869307 -0.00183336 -4.98415)
(0.0875818 -0.00145143 -4.97509)
(0.0882617 -0.00106934 -4.96611)
(0.0889837 -0.000679952 -4.95719)
(0.0897438 -0.000286668 -4.94833)
(0.0905376 0.000109114 -4.93952)
(0.0913643 0.000506832 -4.93076)
(0.0922217 0.000903821 -4.92204)
(0.0931101 0.00130061 -4.91336)
(0.0940283 0.00170255 -4.90471)
(0.094984 0.00211726 -4.89608)
(0.0959735 0.0025411 -4.88747)
(0.0969874 0.00297145 -4.87888)
(0.0980305 0.00341219 -4.87029)
(0.0990995 0.00386159 -4.86172)
(0.100202 0.00432633 -4.85315)
(0.101352 0.00481118 -4.8446)
(0.102535 0.00530735 -4.83604)
(0.103748 0.00581211 -4.82748)
(0.10499 0.00632347 -4.81892)
(0.106257 0.00683752 -4.81035)
(0.107545 0.00735837 -4.80177)
(0.108874 0.00790262 -4.79319)
(0.11025 0.00847198 -4.7846)
(0.111649 0.00904943 -4.77599)
(0.113068 0.00963187 -4.76736)
(0.114506 0.010218 -4.75871)
(0.11596 0.0108084 -4.75005)
(0.11744 0.011413 -4.74138)
(0.118955 0.0120337 -4.7327)
(0.120498 0.0126657 -4.724)
(0.122054 0.0133049 -4.71528)
(0.123631 0.013955 -4.70655)
(0.125227 0.0146139 -4.69782)
(0.126844 0.0152847 -4.68909)
(0.128499 0.0159758 -4.68036)
(0.130186 0.0166818 -4.67163)
(0.131901 0.0174042 -4.66291)
(0.133659 0.0181485 -4.65419)
(0.135453 0.0189098 -4.64547)
(0.13728 0.0196896 -4.63674)
(0.139152 0.0204931 -4.62802)
(0.141064 0.0213142 -4.6193)
(0.143012 0.0221572 -4.61057)
(0.145014 0.0230271 -4.60183)
(0.147051 0.023912 -4.59309)
(0.149138 0.0248243 -4.58435)
(0.15129 0.0257711 -4.5756)
(0.153489 0.026738 -4.56683)
(0.15573 0.0277255 -4.55804)
(0.15801 0.0287324 -4.54923)
(0.160315 0.0297558 -4.54039)
(0.162636 0.0307912 -4.53153)
(0.16497 0.0318391 -4.52266)
(0.167315 0.0329013 -4.51377)
(0.169669 0.033979 -4.50489)
(0.17203 0.0350751 -4.49602)
(0.174398 0.0361921 -4.48716)
(0.176771 0.0373332 -4.47833)
(0.179146 0.0385016 -4.46954)
(0.181519 0.0397009 -4.46079)
(0.183884 0.040935 -4.4521)
(0.186234 0.0422083 -4.44346)
(0.188559 0.0435256 -4.4349)
(0.190847 0.0448925 -4.42642)
(0.193082 0.0463154 -4.41803)
(0.195239 0.0478018 -4.40976)
(0.197288 0.0493609 -4.40159)
(0.199205 0.0510043 -4.39351)
(0.200966 0.0527429 -4.38552)
(0.202599 0.0545927 -4.37779)
(0.203856 0.0565849 -4.37064)
(0.204087 0.058728 -4.3645)
(0.20343 0.0609336 -4.35682)
(0.203802 0.062152 -4.34672)
)
;
    }
}


// ************************************************************************* //
