/*--------------------------------*- C++ -*----------------------------------*\
| =========                 |                                                 |
| \\      /  F ield         | OpenFOAM: The Open Source CFD Toolbox           |
|  \\    /   O peration     | Version:  5.x                                   |
|   \\  /    A nd           | Web:      www.OpenFOAM.org                      |
|    \\/     M anipulation  |                                                 |
\*---------------------------------------------------------------------------*/
FoamFile
{
    version     2.0;
    format      ascii;
    class       volScalarField;
    location    "2000";
    object      p;
}
// * * * * * * * * * * * * * * * * * * * * * * * * * * * * * * * * * * * * * //

dimensions      [0 2 -2 0 0 0 0];

internalField   nonuniform List<scalar> 
180
(
1.1547e-07
3.17868e-07
4.94095e-07
6.75853e-07
8.62935e-07
1.0572e-06
1.25968e-06
1.47116e-06
1.69223e-06
1.92329e-06
2.16454e-06
2.41604e-06
2.67766e-06
2.94916e-06
3.23022e-06
3.52035e-06
3.81906e-06
4.12608e-06
4.44087e-06
4.76293e-06
5.09193e-06
5.42766e-06
5.77006e-06
6.11921e-06
6.47535e-06
6.83886e-06
7.21023e-06
7.59001e-06
7.97881e-06
8.37725e-06
8.78598e-06
9.20557e-06
9.63655e-06
1.00793e-05
1.05342e-05
1.10013e-05
1.14808e-05
1.19727e-05
1.24771e-05
1.29943e-05
1.35247e-05
1.40689e-05
1.46281e-05
1.5204e-05
1.57987e-05
1.64153e-05
1.70575e-05
1.773e-05
1.84384e-05
1.91894e-05
1.99907e-05
2.0851e-05
2.17804e-05
2.27899e-05
2.38921e-05
2.51012e-05
2.64333e-05
2.79067e-05
2.95428e-05
3.13661e-05
3.34052e-05
3.56922e-05
3.82638e-05
4.11616e-05
4.44324e-05
4.81282e-05
5.23061e-05
5.70269e-05
6.23539e-05
6.83494e-05
7.50706e-05
8.25638e-05
9.0855e-05
9.99251e-05
0.000109647
0.000119835
0.000131137
0.000147413
0.000158441
-0.000206773
-0.00016144
0.00676922
0.0491061
0.0949213
0.149147
0.211594
0.266362
0.35778
0.475473
0.581819
0.75715
0.971659
1.16508
1.36895
1.62035
1.93688
2.30761
2.64484
2.98209
3.37861
3.71574
3.99962
4.26478
4.37967
4.39571
4.39616
4.39581
4.39549
4.39521
4.39497
4.39475
4.39456
4.39439
4.39424
4.39411
4.39399
4.39389
4.3938
4.39372
4.39365
4.39359
4.39353
4.39349
4.39344
4.39341
4.39338
4.39335
4.39332
4.3933
4.39328
4.39326
4.39325
4.39324
4.39323
4.39322
4.39321
4.3932
4.39319
4.39319
4.39318
4.39318
4.39317
4.39317
4.39317
4.39317
4.39316
4.39316
4.39316
4.39316
4.39316
4.39316
4.39316
4.39315
4.39315
4.39315
4.39315
4.39315
4.39315
4.39315
4.39315
4.39315
4.39315
4.39315
4.39315
4.39315
4.39315
4.39315
4.39315
4.39315
4.39315
4.39315
4.39315
4.39315
4.39315
4.39315
4.39315
4.39315
4.39315
4.39315
4.39315
)
;

boundaryField
{
    inlet
    {
        type            zeroGradient;
    }
    outlet
    {
        type            fixedValue;
        value           uniform 0;
    }
    repeat_boundary
    {
        type            zeroGradient;
    }
    procBoundary3to1
    {
        type            processor;
        value           nonuniform List<scalar> 
180
(
1.80271e-07
4.91636e-07
7.56648e-07
1.02503e-06
1.29162e-06
1.55747e-06
1.82156e-06
2.08299e-06
2.34088e-06
2.59453e-06
2.84334e-06
3.08689e-06
3.32499e-06
3.55766e-06
3.78518e-06
4.00801e-06
4.22734e-06
4.44495e-06
4.66262e-06
4.88255e-06
5.10747e-06
5.34041e-06
5.58484e-06
5.84466e-06
6.12418e-06
6.42809e-06
6.76139e-06
7.12943e-06
7.53789e-06
7.99273e-06
8.50024e-06
9.06704e-06
9.7001e-06
1.04069e-05
1.11952e-05
1.20738e-05
1.30521e-05
1.41404e-05
1.53506e-05
1.66957e-05
1.81909e-05
1.98536e-05
2.17038e-05
2.37646e-05
2.60629e-05
2.86296e-05
3.15008e-05
3.47182e-05
3.83299e-05
4.23914e-05
4.69662e-05
5.21275e-05
5.79587e-05
6.45551e-05
7.20254e-05
8.0493e-05
9.00984e-05
0.000101001
0.00011338
0.000127439
0.000143406
0.000161534
0.000182102
0.000205446
0.00023195
0.00026205
0.000296245
0.000335103
0.000379274
0.000429504
0.000486644
0.000551673
0.00062572
0.000710117
0.0008064
0.000916231
0.00104171
0.00118781
0.00135145
0.00137884
0.00207711
0.00938362
0.0605546
0.114556
0.170347
0.233531
0.328134
0.42916
0.536702
0.694811
0.879569
1.10207
1.36121
1.62419
1.8982
2.18089
2.48399
2.78869
3.06103
3.35903
3.66353
3.95637
4.25401
4.36759
4.38349
4.38524
4.38619
4.38708
4.38787
4.38855
4.38915
4.38967
4.39012
4.39052
4.39086
4.39116
4.39142
4.39165
4.39185
4.39202
4.39217
4.3923
4.39241
4.3925
4.39259
4.39266
4.39272
4.39278
4.39283
4.39287
4.39291
4.39294
4.39296
4.39299
4.39301
4.39303
4.39304
4.39306
4.39307
4.39308
4.39309
4.3931
4.3931
4.39311
4.39311
4.39312
4.39312
4.39313
4.39313
4.39313
4.39313
4.39314
4.39314
4.39314
4.39314
4.39314
4.39314
4.39315
4.39315
4.39315
4.39315
4.39315
4.39315
4.39315
4.39315
4.39315
4.39315
4.39315
4.39315
4.39315
4.39315
4.39315
4.39315
4.39315
4.39315
4.39315
4.39315
4.39315
4.39315
4.39315
)
;
    }
    procBoundary3to2
    {
        type            processor;
        value           nonuniform List<scalar> 
180
(
1.71902e-07
4.66352e-07
7.13923e-07
9.63986e-07
1.21098e-06
1.45554e-06
1.69616e-06
1.93146e-06
2.1601e-06
2.38078e-06
2.59229e-06
2.7935e-06
2.9834e-06
3.16112e-06
3.32592e-06
3.47722e-06
3.61462e-06
3.73788e-06
3.84691e-06
3.94178e-06
4.02264e-06
4.08967e-06
4.14305e-06
4.18287e-06
4.209e-06
4.22105e-06
4.21829e-06
4.1995e-06
4.16282e-06
4.10563e-06
4.02435e-06
3.9143e-06
3.76957e-06
3.58284e-06
3.34523e-06
3.04613e-06
2.67303e-06
2.21123e-06
1.6437e-06
9.50808e-07
1.1007e-07
-9.04116e-07
-2.12082e-06
-3.57298e-06
-5.29786e-06
-7.3376e-06
-9.73991e-06
-1.25588e-05
-1.58556e-05
-1.97001e-05
-2.41716e-05
-2.93608e-05
-3.53718e-05
-4.23237e-05
-5.03541e-05
-5.9619e-05
-7.02953e-05
-8.25811e-05
-9.66959e-05
-0.000112875
-0.00013135
-0.000152369
-0.000176257
-0.000203371
-0.000234105
-0.000268893
-0.000308207
-0.000352561
-0.000402508
-0.00045864
-0.00052158
-0.000592012
-0.00067081
-0.000758887
-0.000857232
-0.000966987
-0.00108903
-0.00121928
-0.0013336
-0.00187529
-0.00228302
-0.00160935
0.00909323
0.0361355
0.0753016
0.124195
0.196885
0.283761
0.409061
0.598594
0.800148
1.01339
1.2438
1.47748
1.75783
2.12637
2.49165
2.8101
3.1075
3.4045
3.71377
4.00259
4.26638
4.3886
4.40006
4.39924
4.39843
4.39779
4.39721
4.39671
4.39627
4.39589
4.39555
4.39525
4.39499
4.39476
4.39456
4.39439
4.39424
4.3941
4.39398
4.39388
4.39379
4.39371
4.39364
4.39358
4.39352
4.39348
4.39344
4.3934
4.39337
4.39334
4.39332
4.3933
4.39328
4.39326
4.39325
4.39324
4.39322
4.39322
4.39321
4.3932
4.39319
4.39319
4.39318
4.39318
4.39318
4.39317
4.39317
4.39317
4.39316
4.39316
4.39316
4.39316
4.39316
4.39316
4.39316
4.39316
4.39316
4.39316
4.39316
4.39315
4.39315
4.39315
4.39315
4.39315
4.39315
4.39315
4.39315
4.39315
4.39315
4.39315
4.39315
4.39315
4.39315
4.39315
4.39315
4.39315
4.39315
4.39315
)
;
    }
}


// ************************************************************************* //
