/*--------------------------------*- C++ -*----------------------------------*\
| =========                 |                                                 |
| \\      /  F ield         | OpenFOAM: The Open Source CFD Toolbox           |
|  \\    /   O peration     | Version:  5.x                                   |
|   \\  /    A nd           | Web:      www.OpenFOAM.org                      |
|    \\/     M anipulation  |                                                 |
\*---------------------------------------------------------------------------*/
FoamFile
{
    version     2.0;
    format      ascii;
    class       surfaceScalarField;
    location    "900";
    object      phi;
}
// * * * * * * * * * * * * * * * * * * * * * * * * * * * * * * * * * * * * * //

dimensions      [0 3 -1 0 0 0 0];

internalField   nonuniform List<scalar> 
89
(
-0.025001
-0.025001
-0.0250012
-0.0250013
-0.0250016
-0.0250019
-0.0250023
-0.0250028
-0.0250035
-0.0250043
-0.0250053
-0.0250066
-0.0250083
-0.0250104
-0.0250131
-0.0250165
-0.0250208
-0.0250262
-0.0250332
-0.0250421
-0.0250535
-0.025068
-0.0250867
-0.0251106
-0.0251414
-0.025181
-0.0252321
-0.0252982
-0.0253836
-0.0254942
-0.0256377
-0.0258242
-0.0260671
-0.0263845
-0.0267999
-0.0273088
-0.0278738
-0.0283845
-0.0288004
-0.02756
-0.0275928
-0.0281065
-0.0285273
-0.028779
-0.0287841
-0.0286303
-0.0282613
-0.0275784
-0.0271268
-0.0268838
-0.0265985
-0.026362
-0.0259752
-0.0259206
-0.0256078
-0.0253908
-0.0252468
-0.0251476
-0.0250795
-0.0250335
-0.025003
-0.0249844
-0.0249735
-0.0249679
-0.0249658
-0.024966
-0.0249675
-0.0249699
-0.0249727
-0.0249756
-0.0249785
-0.0249812
-0.0249837
-0.024986
-0.0249881
-0.0249899
-0.0249915
-0.0249929
-0.0249941
-0.0249952
-0.0249961
-0.0249968
-0.0249975
-0.024998
-0.0249984
-0.0249988
-0.0249991
-0.0249993
-0.0249995
)
;

boundaryField
{
    inlet
    {
        type            calculated;
        value           uniform -0.0249996;
    }
    outlet
    {
        type            calculated;
        value           uniform 0.0250009;
    }
    repeat_boundary
    {
        type            calculated;
        value           uniform 0;
    }
    procBoundary2to0
    {
        type            processor;
        value           nonuniform List<scalar> 
90
(
3.07887e-08
5.61703e-08
8.70015e-08
1.21751e-07
1.61611e-07
2.08433e-07
2.64574e-07
3.32999e-07
4.17438e-07
5.22587e-07
6.54353e-07
8.2017e-07
1.02942e-06
1.29396e-06
1.62878e-06
2.0534e-06
2.59275e-06
3.27885e-06
4.15297e-06
5.26846e-06
6.69431e-06
8.51989e-06
1.08611e-05
1.38684e-05
1.77372e-05
2.27215e-05
2.91524e-05
3.74613e-05
4.82119e-05
6.21426e-05
8.02206e-05
0.000103717
0.000134375
0.000174828
0.000227764
0.000277767
0.000305516
0.000266436
0.000225527
-0.000735498
1.92989e-05
0.000309319
0.000188387
0.000221977
0.000211927
6.97949e-05
-0.000201695
-0.000503554
-0.000365025
-4.85828e-05
-7.37661e-05
-0.000125033
-0.000213155
-0.000197997
-0.000209105
-0.000138714
-9.53409e-05
-6.94002e-05
-5.08145e-05
-3.70076e-05
-2.67888e-05
-1.92752e-05
-1.37653e-05
-9.74047e-06
-6.81452e-06
-4.69974e-06
-3.18205e-06
-2.10235e-06
-1.34255e-06
-8.15207e-07
-4.56068e-07
-2.19512e-07
-6.58126e-08
5.35827e-08
1.35985e-07
1.65113e-07
1.66267e-07
1.50297e-07
1.4362e-07
1.37078e-07
1.29395e-07
1.21303e-07
1.13524e-07
1.06466e-07
1.00262e-07
9.48722e-08
9.02885e-08
8.65152e-08
8.31856e-08
8.12838e-08
)
;
    }
    procBoundary2to3
    {
        type            processor;
        value           nonuniform List<scalar> 
90
(
2.01846e-08
3.50832e-08
5.34188e-08
7.41281e-08
9.79224e-08
1.2601e-07
1.5991e-07
2.01579e-07
2.53554e-07
3.19074e-07
4.02315e-07
5.08614e-07
6.4479e-07
8.19594e-07
1.0443e-06
1.33347e-06
1.70606e-06
2.18674e-06
2.80773e-06
3.6112e-06
4.65244e-06
6.00366e-06
7.7587e-06
1.00408e-05
1.30125e-05
1.68869e-05
2.19438e-05
2.85511e-05
3.71928e-05
4.85076e-05
6.33394e-05
8.28114e-05
0.000108476
0.000142633
0.00018765
0.00023119
0.000259499
0.000244268
0.00019044
-0.000504841
1.34797e-05
0.000204458
0.000232445
2.96339e-05
-0.000206819
-0.000223449
-0.000167245
-0.000179262
-8.66412e-05
-0.000194468
-0.000211426
-0.000111419
-0.000173592
0.000143497
-0.000103677
-7.83851e-05
-4.86651e-05
-2.97531e-05
-1.73527e-05
-8.95014e-06
-3.70894e-06
7.38132e-07
2.88972e-06
4.13384e-06
4.72118e-06
4.87792e-06
4.76295e-06
4.48752e-06
4.12602e-06
3.7262e-06
3.31825e-06
2.92101e-06
2.54519e-06
2.19707e-06
1.88262e-06
1.60453e-06
1.36222e-06
1.15337e-06
9.74651e-07
8.22956e-07
6.95213e-07
5.88425e-07
4.99762e-07
4.26611e-07
3.66615e-07
3.17652e-07
2.777e-07
2.44704e-07
2.17862e-07
2.05968e-07
)
;
    }
}


// ************************************************************************* //
