/*--------------------------------*- C++ -*----------------------------------*\
  =========                 |
  \\      /  F ield         | OpenFOAM: The Open Source CFD Toolbox
   \\    /   O peration     | Website:  https://openfoam.org
    \\  /    A nd           | Version:  9
     \\/     M anipulation  |
\*---------------------------------------------------------------------------*/
FoamFile
{
    format      ascii;
    class       surfaceScalarField;
    location    "2000";
    object      phi;
}
// * * * * * * * * * * * * * * * * * * * * * * * * * * * * * * * * * * * * * //

dimensions      [0 3 -1 0 0 0 0];

internalField   nonuniform List<scalar> 
1436
(
-8.31779e-06
0.000161118
-250.026
0.000154551
-250.026
-8.95848e-06
-249.992
-249.994
-8.62435e-07
0.00030263
-250.026
0.000291921
-250.026
2.12311e-06
-249.991
-249.993
2.87841e-06
0.000487504
-250.026
0.000469495
-250.026
7.05037e-06
-249.991
-249.993
5.72085e-06
0.000686513
-250.027
0.000660138
-250.027
1.01551e-05
-249.99
-249.992
8.97316e-06
0.000895029
-250.028
0.000859442
-250.028
1.24735e-05
-249.989
-249.991
1.3084e-05
0.00111411
-250.029
0.00106841
-250.029
1.3979e-05
-249.988
-249.99
1.8343e-05
0.00134612
-250.031
0.00128908
-250.03
1.43122e-05
-249.987
-249.989
2.49827e-05
0.00159372
-250.032
0.00152383
-250.032
1.2932e-05
-249.985
-249.988
3.32374e-05
0.00185978
-250.034
0.00177516
-250.033
9.10647e-06
-249.983
-249.986
4.33486e-05
0.00214743
-250.037
0.00204577
-250.035
1.87689e-06
-249.981
-249.984
5.55679e-05
0.00246006
-250.039
0.00233851
-250.037
-9.61201e-06
-249.979
-249.982
7.01611e-05
0.00280138
-250.042
0.00265642
-250.04
-1.45721e-05
-249.976
-249.979
8.74131e-05
0.00317535
-250.045
0.00300292
-250.043
-2.10284e-05
-249.973
-249.976
0.00010763
0.00358632
-250.049
0.0033817
-250.046
-2.91853e-05
-249.969
-249.973
0.00013739
0.00403905
-250.054
0.00379679
-250.05
-3.92847e-05
-249.965
-249.969
0.00017425
0.00453886
-250.058
0.00425257
-250.054
-5.16115e-05
-249.96
-249.965
0.000217381
0.00509163
-250.064
0.00475378
-250.058
-6.65047e-05
-249.955
-249.961
0.000267538
0.00570385
-250.07
0.00530566
-250.063
-8.43701e-05
-249.949
-249.956
0.00032559
0.00638274
-250.077
0.00591392
-250.069
-0.000105695
-249.943
-249.95
0.000392541
0.00713631
-250.085
0.00658488
-250.075
-0.000131066
-249.935
-249.944
0.000469565
0.00797342
-250.093
0.00732544
-250.082
-0.000161189
-249.927
-249.937
0.000558027
0.00890396
-250.103
0.00814325
-250.089
-0.000196916
-249.918
-249.929
0.000659521
0.00993893
-250.113
0.00904667
-250.097
-0.000239268
-249.908
-249.92
0.000775898
0.0110905
-250.126
0.0100449
-250.107
-0.000289472
-249.896
-249.911
0.000909308
0.0123724
-250.139
0.0111482
-250.117
-0.000348996
-249.883
-249.9
0.00106323
0.0137998
-250.154
0.0123677
-250.128
-0.000419591
-249.869
-249.888
0.0012538
0.0153896
-250.171
0.0137157
-250.14
-0.000503345
-249.853
-249.875
0.00147262
0.0171608
-250.19
0.0152057
-250.154
-0.000602733
-249.835
-249.861
0.00172416
0.0191346
-250.211
0.0168524
-250.169
-0.000720684
-249.815
-249.845
0.00201344
0.0213347
-250.234
0.0186721
-250.186
-0.000860647
-249.793
-249.827
0.00234619
0.0237877
-250.26
0.0206825
-250.204
-0.00102668
-249.768
-249.808
0.00272895
0.0265232
-250.29
0.0229031
-250.224
-0.00122353
-249.741
-249.786
0.00316925
0.0295745
-250.323
0.0253554
-250.246
-0.00145676
-249.709
-249.762
0.00367573
0.0329788
-250.36
0.0280625
-250.271
-0.00173282
-249.675
-249.736
0.0042583
0.0367776
-250.401
0.0310502
-250.297
-0.00205926
-249.636
-249.707
0.00492834
0.0410176
-250.447
0.0343464
-250.327
-0.0024448
-249.592
-249.676
0.00570269
0.0457512
-250.498
0.0379815
-250.359
-0.00289965
-249.544
-249.641
0.00660382
0.0510369
-250.556
0.0419888
-250.394
-0.00343649
-249.489
-249.602
0.00763743
0.0569406
-250.621
0.0464044
-250.433
-0.0040702
-249.428
-249.56
0.00882451
0.0635361
-250.693
0.0512675
-250.476
-0.00477753
-249.36
-249.514
0.0101949
0.0709061
-250.775
0.0566212
-250.522
-0.00552688
-249.283
-249.463
0.0117711
0.0791422
-250.866
0.0625131
-250.573
-0.00640112
-249.198
-249.407
0.0135836
0.0883473
-250.968
0.0689948
-250.628
-0.00742357
-249.102
-249.345
0.0156712
0.0986371
-251.082
0.0761222
-250.689
-0.00862209
-248.995
-249.278
0.0180716
0.110141
-251.21
0.0839563
-250.754
-0.01003
-248.874
-249.204
0.020834
0.123005
-251.354
0.0925625
-250.826
-0.0116869
-248.74
-249.123
0.0240123
0.137391
-251.516
0.102012
-250.904
-0.0136401
-248.589
-249.035
0.0276679
0.153484
-251.697
0.112381
-250.989
-0.0159458
-248.419
-248.939
0.0318723
0.17149
-251.9
0.123751
-251.081
-0.018671
-248.229
-248.834
0.0367076
0.19164
-252.129
0.13621
-251.18
-0.0218952
-248.016
-248.719
0.0422711
0.214197
-252.385
0.14985
-251.288
-0.025713
-247.776
-248.595
0.0486692
0.239454
-252.673
0.16477
-251.404
-0.030237
-247.506
-248.461
0.0560272
0.267742
-252.997
0.181075
-251.529
-0.0356008
-247.203
-248.315
0.0644909
0.299435
-253.361
0.198873
-251.664
-0.0419637
-246.861
-248.158
0.0742247
0.334953
-253.77
0.218278
-251.808
-0.049515
-246.477
-247.989
0.0854198
0.374771
-254.23
0.239414
-251.962
-0.0584802
-246.044
-247.808
0.0982971
0.419426
-254.748
0.262418
-252.126
-0.069128
-245.555
-247.615
0.113109
0.469521
-255.331
0.287423
-252.3
-0.0817779
-245.004
-247.409
0.130148
0.525742
-255.987
0.31456
-252.484
-0.0968109
-244.381
-247.192
0.149751
0.58886
-256.725
0.343963
-252.679
-0.114681
-243.678
-246.962
0.172304
0.659753
-257.557
0.375762
-252.882
-0.135928
-242.882
-246.722
0.198258
0.739459
-258.495
0.41008
-253.094
-0.161185
-241.982
-246.473
0.228127
0.829157
-259.552
0.44703
-253.313
-0.191023
-240.961
-246.217
0.262512
0.930169
-260.745
0.486707
-253.537
-0.226211
-239.805
-245.957
0.302103
1.04401
-262.091
0.529189
-253.764
-0.267706
-238.493
-245.695
0.347704
1.17242
-263.611
0.57452
-253.991
-0.316634
-237.004
-245.437
0.400247
1.31737
-265.328
0.622708
-254.213
-0.374324
-235.312
-245.189
0.460811
1.48116
-267.27
0.673704
-254.426
-0.442338
-233.389
-244.957
0.530654
1.66643
-269.467
0.727389
-254.623
-0.522516
-231.2
-244.752
0.611239
1.87622
-271.955
0.783554
-254.795
-0.617024
-228.707
-244.586
0.704271
2.11405
-274.773
0.841871
-254.933
-0.728418
-225.864
-244.472
0.811739
2.38404
-277.968
0.901861
-255.023
-0.859706
-222.62
-244.43
0.935972
2.69096
-281.595
0.962855
-255.05
-1.01443
-218.915
-244.482
1.07969
3.04036
-285.715
1.02393
-254.994
-1.19674
-214.678
-244.654
1.24607
3.43856
-290.4
1.08375
-254.832
-1.41148
-209.828
-244.982
1.43854
3.8921
-295.73
1.14011
-254.533
-1.66391
-204.272
-245.506
1.65962
4.40268
-301.793
1.1895
-254.063
-1.95624
-197.913
-246.272
1.90221
4.93275
-308.627
1.22524
-253.386
-2.26491
-190.715
-247.312
2.10795
5.28772
-316.023
1.21878
-252.497
-2.45548
-182.972
-248.548
1.9792
4.90034
-322.902
1.10054
-251.618
-2.12255
-175.949
-249.57
0.268805
1.08755
-324.258
0.107881
-251.457
-0.4712
-174.39
-249.933
0.0409328
0.000988667
-324.3
-0.0370913
-251.379
0.202155
-174.591
-249.768
-6.167
4.28534
-322.419
9.62137
-267.167
-0.0489694
-170.257
-240.196
-1.31881
0.272516
-321.372
0.898682
-269.385
0.428405
-170.413
-238.869
-4.53951
-2.91396
-313.919
-1.02195
-272.902
-2.48743
-170.839
-242.378
-1.86013
-0.300196
-311.759
0.36832
-275.131
0.432265
-171.572
-241.578
-5.49349
-5.34672
-300.918
-0.200066
-280.424
-0.666287
-176.252
-242.444
-9.0628
-2.6334
-289.222
-6.54398
-282.943
-6.23711
-172.648
-255.225
-0.0791164
1.88748
-291.031
-1.53379
-281.488
-7.48674
-163.274
-264.246
9.11526
2.43275
-302.579
-7.99748
-264.376
-0.927609
-159.914
-273.171
1.79992
0.0330036
-304.412
-7.06886
-255.507
-2.61412
-157.267
-282.854
11.9181
-6.07394
-310.256
-6.26962
-237.319
3.10641
-166.447
-286.017
1.08503
-1.69784
-309.643
-2.13462
-234.099
1.20206
-169.347
-286.95
5.51543
-4.23804
-310.92
-7.86583
-220.718
-2.48697
-171.098
-297.302
1.00746
-1.27461
-310.653
-7.92109
-211.79
-0.576914
-171.796
-305.8
1.17236
-3.37338
-308.452
-2.21858
-208.399
-0.327217
-174.842
-308.346
6.21754
-1.18076
-313.489
-15.1607
-187.02
-0.041441
-175.981
-323.548
1.53074
-1.79896
-313.221
-0.143147
-185.346
-0.123812
-177.656
-323.815
0.039387
-0.141207
-313.119
-3.25114
-182.056
-4.74551
-173.052
-331.812
-2.36475
-0.303497
-310.451
1.01344
-185.434
-0.620691
-172.735
-331.419
-2.50083
-2.04366
-305.906
5.54251
-193.477
4.84804
-179.626
-321.029
-2.16666
-2.25096
-301.489
1.7831
-197.427
0.970871
-182.848
-318.275
-3.18867
-5.47234
-292.828
-0.825707
-199.79
1.4818
-189.802
-317.619
-0.785283
-3.65922
-288.383
-0.81285
-199.762
3.61998
-197.081
-314.812
-1.42235
-2.29755
-284.664
1.23035
-202.415
3.71033
-203.089
-309.871
-2.24431
-2.42697
-279.992
2.97117
-207.63
3.82891
-209.345
-303.071
-2.23383
-2.23114
-275.527
3.22311
-213.087
3.40777
-214.984
-296.44
-1.93078
-1.9515
-271.645
2.9452
-217.963
2.97181
-219.907
-290.523
-1.64808
-1.66551
-268.332
2.59645
-222.207
2.58266
-224.155
-285.344
-1.4095
-1.41412
-265.508
2.27325
-225.89
2.24316
-227.812
-280.827
-1.20603
-1.19908
-263.103
1.98822
-229.084
1.94821
-230.959
-276.891
-1.03137
-1.0158
-261.056
1.73891
-231.854
1.69195
-233.667
-273.46
-0.881362
-0.859809
-259.314
1.52111
-234.256
1.46929
-235.996
-270.47
-0.75262
-0.727236
-257.834
1.33085
-236.34
1.2758
-237.998
-267.863
-0.642191
-0.614749
-256.577
1.16463
-238.146
1.10769
-239.721
-265.591
-0.547523
-0.519501
-255.51
1.01938
-239.713
0.961643
-241.202
-263.609
-0.466416
-0.439083
-254.605
0.892452
-241.072
0.834774
-242.475
-261.882
-0.39698
-0.371491
-253.836
0.781505
-242.25
0.724586
-243.571
-260.376
-0.33759
-0.315111
-253.184
0.684512
-243.272
0.628909
-244.515
-259.063
-0.286852
-0.265107
-252.632
0.599701
-244.158
0.545867
-245.326
-257.917
-0.243549
-0.219365
-252.169
0.525526
-244.927
0.473809
-246.019
-256.917
-0.206604
-0.18098
-251.781
0.460641
-245.594
0.411275
-246.611
-256.045
-0.175097
-0.148839
-251.457
0.403871
-246.173
0.356998
-247.116
-255.284
-0.148239
-0.122004
-251.186
0.354189
-246.675
0.309883
-247.548
-254.62
-0.125353
-0.0996964
-250.961
0.310702
-247.111
0.268979
-247.916
-254.04
-0.105862
-0.0812837
-250.774
0.272627
-247.489
0.233462
-248.231
-253.534
-0.0892721
-0.0662926
-250.618
0.239283
-247.817
0.202622
-248.499
-253.092
-0.0751629
-0.0544728
-250.489
0.210074
-248.102
0.175841
-248.729
-252.706
-0.0631809
-0.0460714
-250.379
0.18448
-248.349
0.152594
-248.928
-252.369
-0.0530368
-0.0369642
-250.289
0.162046
-248.564
0.132435
-249.097
-252.074
-0.0444614
-0.0291948
-250.215
0.142376
-248.75
0.114958
-249.24
-251.817
-0.0372223
-0.0227834
-250.155
0.125124
-248.912
0.099807
-249.363
-251.592
-0.0311211
-0.0175182
-250.106
0.109987
-249.053
0.0866733
-249.466
-251.395
-0.0259888
-0.0132191
-250.067
0.0967025
-249.175
0.0752902
-249.555
-251.223
-0.0216814
-0.00948959
-250.036
0.0850396
-249.282
0.0654264
-249.629
-251.072
-0.0180741
-0.00590913
-250.012
0.0747977
-249.374
0.0568793
-249.692
-250.941
-0.0150554
-0.00326513
-249.993
0.0658012
-249.455
0.0494678
-249.744
-250.825
-0.0125332
-0.00128172
-249.979
0.0578968
-249.525
0.0430379
-249.788
-250.724
-0.0104305
0.000207759
-249.969
0.0509504
-249.586
0.0374573
-249.825
-250.636
-0.0086831
0.00131674
-249.961
0.0448448
-249.639
0.0326122
-249.856
-250.558
-0.00723669
0.00212793
-249.956
0.0394775
-249.685
0.0284045
-249.881
-250.49
-0.00604551
0.00275958
-249.953
0.0347587
-249.726
0.0247492
-249.903
-250.431
-0.00507327
0.00321608
-249.951
0.03061
-249.761
0.0215728
-249.921
-250.378
-0.00429168
0.00350579
-249.95
0.0269628
-249.792
0.0188115
-249.936
-250.332
-0.00345957
0.00366371
-249.95
0.0237574
-249.819
0.0164102
-249.948
-250.292
-0.00275807
0.00371956
-249.951
0.0209395
-249.842
0.0143212
-249.959
-250.257
-0.0021812
0.00369899
-249.953
0.0184614
-249.862
0.0125031
-249.967
-250.226
-0.00170839
0.00362032
-249.955
0.0162816
-249.88
0.0109201
-249.974
-250.199
-0.00132229
0.00349911
-249.957
0.0143636
-249.895
0.00954152
-249.98
-250.175
-0.00100831
0.00334814
-249.959
0.0126755
-249.908
0.00834041
-249.984
-250.154
-0.000754159
0.00317764
-249.962
0.0111893
-249.92
0.00729356
-249.988
-250.135
-0.000549558
0.00299307
-249.964
0.0098807
-249.93
0.00638085
-249.991
-250.119
-0.000385862
0.0028061
-249.966
0.00872812
-249.939
0.0055848
-249.993
-250.105
-0.000255857
0.0026181
-249.969
0.00771275
-249.947
0.0048903
-249.995
-250.092
-0.000153517
0.00243515
-249.971
0.00681809
-249.953
0.00428421
-249.997
-250.081
-7.38291e-05
0.00225641
-249.973
0.00602967
-249.959
0.00375513
-249.998
-250.071
-1.26162e-05
0.00208407
-249.975
0.00533477
-249.964
0.00329317
-249.999
-250.063
3.35907e-05
0.0019199
-249.977
0.00472225
-249.969
0.00288972
-250
-250.055
6.76667e-05
0.00176438
-249.979
0.00418233
-249.972
0.0025373
-250
-250.049
9.19899e-05
0.0016181
-249.981
0.00370641
-249.976
0.00222943
-250.001
-250.043
0.000108523
0.00148134
-249.983
0.00328695
-249.979
0.00196043
-250.001
-250.038
0.000118883
0.0013542
-249.984
0.00291731
-249.981
0.0017254
-250.001
-250.033
0.000124396
0.00123659
-249.986
0.0025917
-249.984
0.00152006
-250.001
-250.029
0.000126153
0.0011283
-249.987
0.00230502
-249.986
0.00134069
-250.001
-250.025
0.000125041
0.00102903
-249.988
0.0020528
-249.987
0.00118406
-250.001
-250.022
0.000121791
0.000938451
-249.99
0.00183112
-249.989
0.00104738
-250.001
-250.019
0.000117002
0.000856174
-249.991
0.00163657
-249.99
0.000928204
-250.001
-250.017
0.000113226
0.000781806
-249.992
0.00146613
-249.992
0.000824445
-250.001
-250.015
0.000112802
0.000714968
-249.993
0.00131716
-249.993
0.000734275
-250.001
-250.013
0.00011014
0.000655301
-249.993
0.00118734
-249.994
0.000656117
-250.001
-250.011
0.000106155
0.000602443
-249.994
0.00107468
-249.995
0.000588607
-250.001
-250.01
0.000101502
0.000556058
-249.995
0.000977453
-249.995
0.000530567
-250.001
-250.008
9.66576e-05
0.000515814
-249.996
0.000894194
-249.996
0.000480994
-250.001
-250.007
9.19661e-05
0.00048139
-249.996
0.000823652
-249.997
0.000439041
-250.001
-250.006
8.76711e-05
0.000452508
-249.997
0.000764781
-249.997
0.000404011
-250
-250.005
8.3922e-05
0.000428903
-249.998
0.000716735
-249.998
0.00037534
-250
-250.004
8.07211e-05
0.000410266
-249.998
0.00067891
-249.998
0.000352603
-250
-250.003
7.82072e-05
0.000396473
-249.999
0.000650653
-249.999
0.000335386
-250
-250.002
7.57145e-05
0.000386349
-249.999
0.000631697
-249.999
0.000323956
-250
-250.001
7.24249e-05
0.000383372
0.000633625
0.000325614
)
;

boundaryField
{
    inlet
    {
        type            calculated;
        value           uniform -250;
    }
    outlet
    {
        type            calculated;
        value           nonuniform List<scalar> 4(250.025 249.992 250.025 249.994);
    }
    repeat_boundary
    {
        type            calculated;
        value           uniform 0;
    }
}


// ************************************************************************* //
