/*--------------------------------*- C++ -*----------------------------------*\
| =========                 |                                                 |
| \\      /  F ield         | OpenFOAM: The Open Source CFD Toolbox           |
|  \\    /   O peration     | Version:  5.x                                   |
|   \\  /    A nd           | Web:      www.OpenFOAM.org                      |
|    \\/     M anipulation  |                                                 |
\*---------------------------------------------------------------------------*/
FoamFile
{
    version     2.0;
    format      ascii;
    class       surfaceScalarField;
    location    "7000";
    object      phi;
}
// * * * * * * * * * * * * * * * * * * * * * * * * * * * * * * * * * * * * * //

dimensions      [0 3 -1 0 0 0 0];

internalField   nonuniform List<scalar> 
179
(
1.62728e+07
1.62494e+07
1.62277e+07
1.61982e+07
1.61889e+07
1.61862e+07
1.62074e+07
1.62659e+07
1.63357e+07
1.63726e+07
1.6384e+07
1.64212e+07
1.64508e+07
1.65107e+07
1.65599e+07
1.65763e+07
1.65975e+07
1.65951e+07
1.65838e+07
1.65747e+07
1.65816e+07
1.65773e+07
1.6559e+07
1.65325e+07
1.65035e+07
1.64883e+07
1.64959e+07
1.65006e+07
1.65057e+07
1.65419e+07
1.65899e+07
1.66259e+07
1.6711e+07
1.67868e+07
1.68512e+07
1.69237e+07
1.6994e+07
1.70557e+07
1.7113e+07
1.71457e+07
1.71845e+07
1.72147e+07
1.72483e+07
1.72992e+07
1.73391e+07
1.73715e+07
1.74003e+07
1.74166e+07
1.74085e+07
1.73948e+07
1.73816e+07
1.73973e+07
1.74212e+07
1.74576e+07
1.75063e+07
1.75656e+07
1.7611e+07
1.76485e+07
1.76925e+07
1.77559e+07
1.78245e+07
1.79006e+07
1.80236e+07
1.81443e+07
1.82666e+07
1.8368e+07
1.84326e+07
1.84615e+07
1.84695e+07
1.8464e+07
1.84612e+07
1.83943e+07
1.82754e+07
1.81656e+07
1.80494e+07
1.78964e+07
1.77324e+07
1.7623e+07
1.75247e+07
1.74047e+07
1.73023e+07
1.72032e+07
1.71123e+07
1.70107e+07
1.69094e+07
1.68082e+07
1.67035e+07
1.65922e+07
1.64765e+07
1.63502e+07
1.62154e+07
1.60659e+07
1.59008e+07
1.57163e+07
1.55079e+07
1.52707e+07
1.49932e+07
1.47027e+07
1.43918e+07
1.40868e+07
1.371e+07
1.34304e+07
1.28928e+07
1.2407e+07
1.16611e+07
1.09071e+07
1.02866e+07
9.91939e+06
9.6937e+06
9.45855e+06
9.28009e+06
9.25471e+06
8.92828e+06
8.47732e+06
8.11845e+06
7.5897e+06
6.99956e+06
6.34554e+06
5.77923e+06
5.23719e+06
4.69128e+06
4.19569e+06
3.76342e+06
3.31314e+06
2.75424e+06
2.24546e+06
1.65407e+06
1.01177e+06
415803
-246548
-849745
-1.53464e+06
-2.27582e+06
-3.02269e+06
-3.88175e+06
-4.57643e+06
-5.2227e+06
-5.73178e+06
-6.19596e+06
-6.50291e+06
-6.70853e+06
-6.79494e+06
-6.7491e+06
-6.58293e+06
-6.29059e+06
-5.89094e+06
-5.37764e+06
-4.75924e+06
-4.03433e+06
-3.21665e+06
-2.31337e+06
-1.32297e+06
-302712
723805
1.71754e+06
2.64958e+06
3.44597e+06
4.17264e+06
4.62282e+06
4.80808e+06
4.78491e+06
4.52685e+06
4.08701e+06
3.63772e+06
3.05358e+06
2.45554e+06
1.87154e+06
1.46824e+06
1.12148e+06
1.15571e+06
1.43185e+06
1.93643e+06
2.578e+06
3.20697e+06
3.90936e+06
4.54738e+06
5.26005e+06
6.07017e+06
6.82504e+06
)
;

boundaryField
{
    inlet
    {
        type            calculated;
        value           uniform 7.25526e+06;
    }
    outlet
    {
        type            calculated;
        value           uniform -1.6282e+07;
    }
    repeat_boundary
    {
        type            calculated;
        value           uniform 0;
    }
    procBoundary1to0
    {
        type            processor;
        value           nonuniform List<scalar> 
180
(
5530.63
18039.6
14866.4
23782.3
2308.05
-4913.97
-13449.5
-30926.7
-28824
-21460.7
-13521.3
-30873.7
-11002.7
-14933
-11776.5
-3905.56
-15114.3
7234.46
16492.2
12424.7
-3658.7
-3634.99
-1480.03
1676.66
34.1423
-4588.19
-11886
-3513.38
-10139.4
-45501.6
-43915.8
-25487.2
-52156.3
-36578.6
-32690.6
-28608.3
-29408.1
-29462.9
-34272.1
-19659.3
-15053.1
-6902.91
-16236.2
-26412.7
-11648.3
-7014.22
-205.335
1985.22
-264.714
4121.11
4495.84
-23545.5
-29569.1
-39143.9
-53476.6
-66358
-54018
-56708.6
-67938.6
-79745.7
-89304.9
-86519.1
-108975
-106029
-126759
-129741
-95885.6
-77228.1
-58440.4
-54397
-45345.9
-16964.6
11829.3
37354.2
51464.2
83578.1
99703.1
83585.7
111034
131069
131136
140657
117543
115859
105367
96710
92161
89673.6
86739.5
87510.6
87284.6
90702.8
94104
100039
107654
117206
130385
145812
170909
183587
244510
237246
366189
368394
459980
394086
282042
144037
74246.4
94765.6
82086.5
37547.1
184701
240434
191212
274275
299895
328703
282449
270492
269573
244011
210814
221249
276397
250909
295526
323467
297487
337241
306405
354455
384379
385351
448886
364988
340349
266964
244948
168519
117041
63141.4
-877.517
-51121.7
-107920
-146564
-192883
-229906
-269066
-293352
-314158
-338198
-315156
-282963
-237756
-200609
-147619
-153415
-28720.9
74251.9
180305
256266
309321
293785
357353
359483
346230
243931
224727
33912
-95495.6
-190532
-258143
-212345
-264385
-179045
-281126
-308724
-299077
-127244
)
;
    }
    procBoundary1to3
    {
        type            processor;
        value           nonuniform List<scalar> 
180
(
3656.28
5366.53
6839.06
5690.78
6972.18
7585.82
-7657.54
-27624
-41001.1
-15444.6
2180.58
-6369.15
-18629
-44947.1
-37429.2
-12490.6
-6045.79
-4878.73
-5159.75
-3339.06
-3203.12
7863.65
19814
24865.7
28936.8
19775.1
4346.69
-1219.12
4977.76
9394.34
-4090.02
-10501.7
-32966.8
-39203
-31783.8
-43841.4
-40864.8
-32316.6
-23038
-12952.5
-23803.6
-23328
-17302.9
-24499.3
-28236.5
-25412.8
-28551.6
-18345.9
8432.45
9514.82
8770.91
7814.84
5683.12
2705.21
4798.25
7003.98
8651.32
19259.6
23911.2
16287.8
20760.8
10404.6
-14037
-14647.7
4467.65
28345.1
31226.9
48334.4
50498.4
59898
48075.9
83919.2
107089
72389.6
64725.1
69467.5
64257.9
25798.1
-12739.2
-11062.9
-28718.7
-41514.8
-26670.4
-14249.7
-4025.7
4484.41
12515.8
21574.2
28962.9
38779.9
47534.5
58837.4
70969.5
84477.5
100716
119992
147149
144634
140013
121426
132326
42300.4
171399
117407
286009
359882
338445
223180
151443
140381
96380.9
-12166.4
141729
210520
167665
254474
290234
325321
283856
271548
276344
251577
221459
229022
282501
257880
295857
318833
298472
325110
296793
330438
356804
361517
410169
329697
305923
242110
219237
138437
88574.9
23266.4
-44953.4
-115050
-184417
-253088
-320419
-388496
-455844
-524328
-589118
-652206
-705101
-743553
-755983
-731429
-648766
-573259
-421464
-259510
-157127
1786.33
130524
155507
226781
238564
237763
159363
122041
-68143.2
-180651
-314042
-383426
-416627
-438006
-458967
-431552
-501389
-455793
-302982
)
;
    }
}


// ************************************************************************* //
