/*--------------------------------*- C++ -*----------------------------------*\
| =========                 |                                                 |
| \\      /  F ield         | OpenFOAM: The Open Source CFD Toolbox           |
|  \\    /   O peration     | Version:  5.x                                   |
|   \\  /    A nd           | Web:      www.OpenFOAM.org                      |
|    \\/     M anipulation  |                                                 |
\*---------------------------------------------------------------------------*/
FoamFile
{
    version     2.0;
    format      ascii;
    class       volVectorField;
    location    "7000";
    object      U;
}
// * * * * * * * * * * * * * * * * * * * * * * * * * * * * * * * * * * * * * //

dimensions      [0 1 -1 0 0 0 0];

internalField   nonuniform List<vector> 
180
(
(-0.143696 0.137585 61.8509)
(-0.424337 0.174495 68.2521)
(-0.301658 0.219466 66.0355)
(-0.250955 0.247159 63.7733)
(0.123653 0.0839306 65.1321)
(-0.531041 0.501225 62.0999)
(0.369335 0.212634 66.105)
(1.16285 -0.648498 65.9459)
(1.37324 -1.46686 65.2797)
(0.677453 -1.1064 67.1771)
(-0.27726 0.156163 61.9922)
(0.305985 0.0220678 66.5393)
(0.384332 -0.0817833 66.4993)
(1.3474 -1.33212 65.9305)
(1.73991 -2.2354 66.3902)
(0.120856 -0.782663 65.8362)
(-0.0962337 -0.573664 66.6007)
(-0.363608 -0.35877 66.3425)
(-0.708337 -0.118455 68.2295)
(-0.528823 -0.0206218 62.7192)
(-0.0489552 -0.0709272 66.9485)
(0.272614 0.195117 67.3307)
(0.444459 0.551464 66.84)
(0.194437 0.754668 65.5498)
(0.044588 0.919358 68.3602)
(-0.0703873 0.599305 61.8922)
(0.148488 0.0747795 66.6741)
(-0.0512037 -0.295363 67.2941)
(1.08002 0.219829 66.4103)
(2.51678 0.836101 65.21)
(1.09627 -0.137485 68.6795)
(0.616806 -0.398752 62.6084)
(1.45033 -1.19641 67.4322)
(1.56932 -1.57809 69.0118)
(1.40904 -1.11742 65.924)
(1.84316 -1.25311 67.08)
(1.53552 -1.62882 68.7504)
(1.60814 -1.60389 68.0937)
(1.72613 -1.56399 70.2527)
(0.611071 -1.14756 64.5854)
(0.534422 -1.29455 69.5603)
(0.455248 -1.4049 69.8277)
(0.86053 -1.06335 69.2643)
(1.28388 -0.861606 69.6494)
(0.438215 -1.33342 67.7734)
(0.421231 -1.35256 69.6289)
(0.306149 -1.42874 69.9174)
(0.231787 -1.26858 69.8491)
(0.159081 -0.822037 69.5119)
(-0.168911 -0.502675 71.9357)
(-0.393844 -0.0710159 65.0754)
(0.468446 -0.0599476 70.3241)
(0.982413 0.0342787 70.933)
(1.56405 -0.336912 70.5956)
(2.0729 -0.61875 68.5208)
(2.408 -0.359849 71.1701)
(2.67536 -0.140621 71.9605)
(1.55934 0.269251 66.6041)
(2.66583 0.525016 71.2614)
(2.98163 0.54269 72.0956)
(4.13718 0.772731 74.2373)
(4.32361 0.275987 65.7188)
(3.9887 -0.520613 73.6609)
(4.02378 -0.684288 72.9554)
(5.07977 -0.0329983 73.6377)
(6.38076 0.744159 72.5701)
(5.57323 0.649022 73.8494)
(5.4198 1.01216 76.2385)
(4.2046 1.2865 69.4097)
(4.08584 1.37322 74.3161)
(4.03133 1.18233 75.0826)
(3.00727 2.58288 76.8337)
(1.10856 3.30627 68.4739)
(0.29359 2.35721 73.7325)
(-0.418642 2.00375 73.7221)
(-1.67676 2.32517 74.1887)
(-2.58959 2.09983 70.5824)
(-1.77522 0.806203 64.5169)
(-3.162 -0.182488 72.8429)
(-4.83206 -0.715445 74.685)
(-4.52519 -1.10849 66.2092)
(-4.48682 -1.72401 70.1906)
(-3.50594 -0.870398 68.4159)
(-3.49106 -0.446685 67.666)
(-3.1978 -0.0519078 67.7749)
(-2.97898 0.260395 67.5404)
(-3.00805 0.568355 67.0384)
(-3.07833 0.902202 66.5727)
(-3.14319 1.21003 66.1779)
(-3.31678 1.60362 65.6273)
(-3.50995 1.96606 65.182)
(-3.77405 2.42037 64.531)
(-4.13916 2.89155 63.9968)
(-4.48524 3.43617 63.1965)
(-5.06804 4.07566 62.5118)
(-5.48047 4.79647 61.5728)
(-6.40868 5.70781 60.4664)
(-6.93492 6.64364 59.7743)
(-8.6847 7.71558 57.2671)
(-8.61234 7.48564 58.8808)
(-13.0716 10.5249 51.0373)
(-11.6095 7.83773 59.3876)
(-19.1906 13.9138 47.5077)
(-16.6441 8.50386 53.657)
(-18.3348 11.5327 52.2379)
(-9.88278 11.705 41.8424)
(1.19697 6.86605 39.8303)
(13.5972 -4.80089 41.9373)
(20.5379 -12.71 30.8305)
(19.8003 -14.4388 44.2102)
(24.9311 -23.7415 41.6723)
(31.8752 -36.4631 34.583)
(24.0402 -28.8066 42.6352)
(23.6257 -28.0583 35.1512)
(27.682 -32.2442 23.0807)
(23.7247 -28.2319 35.3627)
(24.4878 -28.4737 32.3042)
(26.5865 -30.2768 31.3938)
(31.8961 -35.7128 20.1979)
(33.1147 -37.2581 20.5511)
(34.0926 -38.3102 20.3457)
(36.5124 -40.8687 17.0835)
(39.7062 -44.2406 12.4138)
(38.9798 -43.7982 14.5712)
(37.0687 -42.0903 20.1998)
(38.8237 -43.7008 -2.49979)
(36.3366 -41.7737 16.7471)
(36.2919 -41.6156 7.88544)
(37.5084 -42.5618 -5.06598)
(35.9472 -41.4799 7.14296)
(37.6713 -43.0627 -11.2774)
(34.5649 -40.6362 2.94721)
(33.9443 -39.8726 -4.9497)
(32.2886 -37.9791 -20.5549)
(27.4756 -34.104 -9.7619)
(33.7954 -40.008 -13.162)
(36.66 -42.4602 -14.3476)
(37.9155 -43.1375 -31.758)
(35.1892 -40.7856 -21.8806)
(36.7352 -42.2968 -26.5351)
(34.9611 -40.4406 -26.5926)
(33.5165 -38.9889 -27.4227)
(32.0553 -37.4768 -27.0035)
(30.532 -35.9786 -26.9433)
(28.9522 -34.3888 -25.7043)
(27.5462 -32.9536 -24.5876)
(26.2935 -31.4995 -22.421)
(25.4734 -30.3663 -20.5561)
(24.8177 -29.301 -17.468)
(24.4185 -28.6061 -14.6686)
(24.0055 -27.9697 -10.8926)
(23.7628 -27.8523 -7.29213)
(23.7093 -27.9745 -3.01886)
(23.9086 -28.2916 0.981568)
(23.9374 -28.4539 4.89433)
(25.0229 -28.1545 8.22979)
(25.9503 -26.5926 8.64061)
(29.637 -27.2854 19.6578)
(24.3457 -25.3315 21.6342)
(19.0627 -23.2749 19.6903)
(15.0858 -26.8524 10.0782)
(11.627 -23.7457 26.5125)
(10.7688 -22.7365 19.4698)
(12.2046 -23.8513 6.83331)
(8.26535 -20.8356 16.5925)
(8.72181 -20.7983 12.3385)
(10.3813 -21.2598 9.46865)
(13.9507 -23.5255 2.31654)
(11.7678 -21.018 10.5099)
(17.3268 -26.2497 0.141331)
(16.4662 -24.7054 4.12376)
(15.4365 -24.3408 6.65589)
(14.4114 -22.35 8.47731)
(11.0275 -20.323 15.0067)
(11.2888 -20.7815 12.825)
(6.2744 -17.1264 17.0666)
(4.54052 -13.4194 21.6621)
(4.9843 -16.6266 20.7914)
(5.83584 -17.6397 25.3721)
(-1.69286 -10.3985 29.1913)
)
;

boundaryField
{
    inlet
    {
        type            zeroGradient;
    }
    outlet
    {
        type            zeroGradient;
    }
    repeat_boundary
    {
        type            slip;
    }
    procBoundary1to0
    {
        type            processor;
        value           nonuniform List<vector> 
180
(
(-0.144892 -0.0746207 63.6078)
(-0.433477 -0.0579752 72.8256)
(-0.308253 -0.0606551 65.5768)
(-0.775516 -0.0416229 68.9375)
(-0.421059 -0.0311799 69.0586)
(-0.0431059 0.0370112 69.9316)
(-0.557601 0.0362056 64.0921)
(0.457943 -0.822148 68.8031)
(0.630083 -1.13177 69.2484)
(0.754229 -1.25282 68.0711)
(0.832366 -0.975669 68.3025)
(0.769759 -0.576736 69.4553)
(0.00389803 -0.655162 64.4267)
(-0.303352 -1.57679 68.9143)
(-0.718406 -1.79532 69.355)
(0.193094 -1.87046 68.5378)
(1.26399 -1.88207 68.517)
(-0.208636 -1.62826 68.3374)
(-0.550703 -1.56165 68.9537)
(-0.691717 -1.382 68.9366)
(-0.629292 -1.24222 69.7717)
(-0.554513 -1.07627 67.9339)
(-0.640267 -0.901763 69.1722)
(-0.5094 -0.55312 69.5191)
(-0.271606 -0.102481 69.3157)
(-0.0805079 0.220521 70.7343)
(-0.0843352 0.349899 65.3298)
(-0.211368 -0.209525 69.395)
(-0.411974 -0.645307 69.9292)
(0.859734 -0.0587857 69.2033)
(2.0929 0.892801 67.9319)
(0.887516 0.108737 68.438)
(1.17353 0.221936 70.3831)
(0.766367 0.439022 63.442)
(0.706731 -0.275764 71.0368)
(0.152896 -0.489536 65.4223)
(0.668461 -1.0116 68.3118)
(0.778033 -0.83424 68.0982)
(0.933531 -0.298423 70.1908)
(0.814215 -0.825454 63.2617)
(0.170813 -0.420848 69.0364)
(-0.0980627 -0.747098 67.3086)
(0.358546 0.0584316 67.6825)
(0.77991 0.98086 67.2354)
(0.260084 0.541563 68.2529)
(-0.0733065 0.0782131 64.1065)
(-0.287662 -0.0367304 67.1471)
(-0.281003 -0.150176 67.3586)
(-0.111944 0.530434 66.8159)
(-0.185708 1.26823 66.0125)
(-0.365212 0.415133 66.3239)
(-0.0363824 0.40161 66.0492)
(0.250963 0.391338 66.0506)
(0.54845 0.390989 65.6571)
(1.15733 0.423203 65.3974)
(1.77818 0.61926 66.3308)
(0.866722 0.34672 62.456)
(1.41185 0.577466 65.4067)
(0.838521 -0.0727177 64.3335)
(1.95096 0.606863 63.2306)
(2.19946 0.28381 62.863)
(1.90243 -0.111816 60.9377)
(2.56097 -0.713076 62.4868)
(3.22006 -0.781895 63.6256)
(4.10047 -0.201133 60.8991)
(3.34093 -0.556707 59.822)
(1.94167 -0.966149 60.4941)
(1.09058 -0.957126 60.2546)
(0.721327 -0.866061 59.9404)
(0.469521 -0.740466 59.8233)
(0.0269517 -0.551242 59.6777)
(-0.573259 -0.333657 59.5933)
(-0.987672 -0.121857 59.6148)
(-1.33577 0.0558088 59.7232)
(-1.94128 0.205996 59.8881)
(-2.50623 0.315517 60.1353)
(-2.99433 0.395142 60.4699)
(-2.8014 0.465621 60.8225)
(-2.76414 0.523436 61.1544)
(-3.06632 0.579848 61.5636)
(-3.37408 0.645387 62.0517)
(-3.28154 0.6965 62.5496)
(-3.36233 0.74534 62.9876)
(-3.37683 0.771418 63.3736)
(-3.31988 0.786802 63.7698)
(-3.27487 0.81463 64.0579)
(-3.26195 0.813694 64.3709)
(-3.34974 0.89003 64.6027)
(-3.38392 0.897637 64.8795)
(-3.58806 1.04302 65.0626)
(-3.67682 1.07446 65.3306)
(-3.9741 1.28665 65.4696)
(-4.15894 1.33567 65.7682)
(-4.55681 1.62471 65.86)
(-4.84691 1.63461 66.2485)
(-5.45035 2.0551 66.2825)
(-5.82849 1.80335 66.891)
(-6.75507 2.38724 66.7899)
(-7.31058 1.87007 67.9188)
(-8.54426 2.71279 67.7136)
(-9.46499 2.48513 69.097)
(-10.9265 3.10808 69.5292)
(-12.557 3.5316 70.8709)
(-16.2824 5.02588 71.3074)
(-19.5794 7.0724 72.9035)
(-22.4605 8.73425 74.9193)
(-25.2751 9.9868 75.3326)
(-27.2234 10.1937 75.8894)
(-29.2126 10.2459 75.3207)
(-31.1866 10.2871 75.4546)
(-32.7461 9.60135 74.9134)
(-34.6478 9.55022 75.0179)
(-37.0464 10.1287 74.4593)
(-39.1038 10.3079 74.9455)
(-41.1363 10.8012 75.0513)
(-43.3225 11.2922 75.4561)
(-45.186 12.1149 75.6111)
(-46.9489 12.4285 76.0962)
(-48.77 13.3505 76.4657)
(-50.257 13.617 76.5921)
(-51.9018 14.6006 76.7793)
(-53.1323 14.8034 76.692)
(-54.6621 15.681 76.664)
(-55.8052 15.9005 76.4033)
(-57.059 16.6092 76.4049)
(-58.0233 16.7224 76.2225)
(-58.857 17.06 76.1566)
(-59.3202 16.7554 76.1932)
(-59.8534 16.4352 75.8355)
(-60.6329 15.7111 76.0436)
(-61.1888 14.7212 75.3455)
(-61.5984 13.3401 75.4465)
(-61.6985 12.0245 75.2133)
(-61.6249 10.2707 75.1075)
(-61.4919 9.01093 75.276)
(-60.0026 7.40115 75.4272)
(-57.9892 6.1773 75.4697)
(-55.6616 4.87643 75.4301)
(-52.512 3.96294 75.1637)
(-49.0939 3.1079 75.0728)
(-44.3954 2.33585 74.5395)
(-39.7004 1.41374 74.1695)
(-33.9903 0.458452 73.379)
(-29.1002 -0.630345 72.7669)
(-23.4298 -1.63179 71.6382)
(-19.2292 -2.72572 71.0899)
(-14.4212 -3.86361 69.3884)
(-10.9938 -4.64219 66.8576)
(-8.46238 -5.65757 69.0294)
(-6.21981 -6.27447 69.107)
(-4.25701 -6.40364 63.6706)
(-2.8575 -6.17639 62.372)
(-4.1774 -6.10436 61.5828)
(-6.78834 -5.93712 60.0353)
(-10.3181 -5.76101 58.5746)
(-14.4408 -5.36671 57.2965)
(-18.4144 -5.0469 55.7506)
(-21.9325 -4.65597 54.5176)
(-24.9313 -4.43139 52.952)
(-27.5933 -4.31535 51.9845)
(-30.0758 -4.50572 50.6359)
(-31.9464 -5.14786 50.1442)
(-33.3371 -6.20272 49.0211)
(-34.2432 -8.0781 48.6593)
(-34.8841 -10.1903 47.5095)
(-34.5768 -13.1462 47.6309)
(-33.2765 -15.2406 46.8822)
(-29.6907 -16.9842 47.3878)
(-22.7612 -17.4853 46.2672)
(-13.1461 -17.7286 47.6417)
(-2.0143 -18.5878 46.6481)
(7.95068 -20.2839 47.9064)
(17.2354 -24.1146 46.7978)
(23.1543 -25.4 49.9984)
(29.7394 -33.4 46.897)
(26.4346 -22.1664 55.2269)
(28.2741 -25.9314 52.9132)
(27.4935 -24.0009 55.0538)
(26.8332 -26.9557 54.2842)
(22.9001 -17.4035 58.6192)
)
;
    }
    procBoundary1to3
    {
        type            processor;
        value           nonuniform List<vector> 
180
(
(0.06963 0.136185 62.8501)
(-0.186243 0.172405 69.5488)
(-0.0117729 0.232783 66.5891)
(0.111144 0.0967863 66.2854)
(-0.120662 0.330019 63.0933)
(0.815915 0.394374 67.4169)
(1.37632 -0.0848337 67.4817)
(1.24635 -0.908076 66.351)
(0.571899 -1.21957 67.742)
(0.44699 0.0910375 63.4783)
(0.681178 0.333239 66.9716)
(0.889697 0.217949 67.1185)
(1.08541 -0.77544 66.5905)
(1.19815 -1.67502 67.061)
(1.0162 -0.389895 65.747)
(0.90119 -0.0715471 66.013)
(0.911162 0.0899092 66.856)
(0.922768 -0.0538604 66.8947)
(0.808579 -0.30492 67.0919)
(0.494463 -0.0641723 67.2577)
(0.24471 0.0334489 64.5254)
(0.566445 0.189322 66.8032)
(0.977066 0.513315 67.7962)
(1.23123 0.731531 67.3974)
(1.13956 0.942729 67.336)
(0.841247 0.908387 67.2737)
(0.770718 0.726707 67.6793)
(0.747426 0.600731 67.7742)
(0.711949 0.455786 67.7836)
(0.681203 0.165068 68.564)
(0.364903 -0.0962519 66.8929)
(0.448272 -0.223817 68.0434)
(0.332705 -0.601525 68.3056)
(0.547817 -0.818784 69.6679)
(0.0883189 -0.96564 64.544)
(-0.124468 -1.48759 71.1615)
(-0.828451 -1.46063 63.3439)
(-0.601171 -1.31816 70.4684)
(-0.327404 -0.729648 64.54)
(-0.226582 -0.399309 67.4651)
(0.186014 -0.640579 67.3424)
(0.0515331 -0.270546 66.8309)
(0.311361 -0.15444 66.4439)
(-0.911841 -0.954163 68.0327)
(-1.03869 -0.939592 62.4308)
(-1.32622 -0.910339 66.3178)
(-1.32365 -1.00494 68.5107)
(-0.970839 -0.525401 61.9598)
(-0.579184 0.364714 65.0498)
(0.0110082 0.42667 66.6468)
(-0.285013 0.571483 65.3193)
(-0.413208 1.0401 63.8378)
(0.428047 0.80453 67.1788)
(0.418164 0.613799 62.5588)
(1.08175 0.708382 65.4905)
(1.25404 0.628636 67.3524)
(0.692482 0.379951 63.153)
(1.44762 0.663517 64.9782)
(1.97305 1.14721 67.1106)
(2.49356 0.821938 66.8047)
(3.35692 0.829247 66.5068)
(3.01466 0.731177 66.3114)
(3.48236 0.267145 68.4027)
(3.07323 -0.0932161 67.8823)
(2.52762 0.061588 65.0646)
(4.00001 0.451612 69.4749)
(5.20862 0.927233 70.6021)
(7.27175 2.00734 72.4692)
(5.63023 2.21255 66.0822)
(5.87288 2.16066 72.8489)
(5.63478 2.05844 73.1015)
(6.41976 3.49405 73.394)
(7.33181 5.01601 72.8908)
(5.19299 3.6161 74.366)
(4.19319 3.38953 74.3741)
(3.01279 3.26476 76.2992)
(0.961174 3.0278 72.3078)
(-0.798066 2.35077 75.0824)
(-2.34476 1.53507 78.0479)
(-2.79489 0.861924 68.8494)
(-5.92772 -0.0159802 76.9064)
(-5.09096 -0.218753 72.1647)
(-5.18512 -0.286565 70.2716)
(-4.26299 0.210429 70.6129)
(-3.5435 0.590717 70.4441)
(-3.34287 0.935134 69.7567)
(-3.0536 1.22841 69.4019)
(-2.83565 1.5829 69.0681)
(-2.60791 1.82508 68.808)
(-2.46393 2.17404 68.6644)
(-2.33395 2.45883 68.4656)
(-2.27107 2.84899 68.5547)
(-2.26753 3.26526 68.2898)
(-2.26642 3.70646 68.806)
(-2.5691 4.2295 68.0227)
(-1.82556 4.94647 69.9462)
(-2.87831 6.04614 65.4996)
(-1.84054 5.41338 71.5037)
(-0.223597 4.86661 71.8302)
(1.95237 4.87065 71.1051)
(2.14536 4.10113 71.3745)
(0.282287 1.91739 72.6194)
(-2.27862 4.22512 71.7281)
(-7.49875 8.80426 70.7076)
(-10.8079 14.9562 71.1419)
(-12.4848 20.2091 72.6)
(-12.47 24.5938 72.8631)
(-12.1892 27.4462 73.2192)
(-11.1429 29.9797 72.9749)
(-10.6335 32.4339 72.6806)
(-9.39712 34.1032 72.7055)
(-8.71991 36.5377 71.8633)
(-8.72588 39.3347 71.6594)
(-7.96721 41.7188 71.1947)
(-7.59674 43.9426 71.9541)
(-7.09541 46.3435 71.5911)
(-6.69078 48.4636 72.4532)
(-6.08455 50.4714 72.5288)
(-5.5219 52.7955 73.6889)
(-4.76488 54.5722 73.6621)
(-3.94853 56.7629 74.805)
(-2.90707 58.2062 74.7605)
(-1.69666 60.1765 75.9118)
(-0.43603 61.3481 75.8601)
(0.988515 62.8284 77.2602)
(2.41131 63.6 77.4489)
(3.93163 64.5272 78.8967)
(5.50978 64.6817 79.5382)
(7.18855 65.2271 80.6228)
(9.02004 65.6608 81.6984)
(10.8791 66.0896 82.2378)
(13.2144 66.1382 83.4429)
(15.066 66.1234 84.076)
(17.633 65.8439 85.2442)
(19.1856 65.5978 86.0065)
(21.4263 64.0879 87.3279)
(22.6006 62.1791 87.9384)
(24.079 59.7607 88.8121)
(24.5452 56.8704 89.248)
(24.9961 53.0167 89.7278)
(24.8796 48.3161 89.9044)
(24.6231 42.661 89.8364)
(24.1252 36.5177 89.5024)
(23.5096 30.0559 89.0254)
(22.9068 23.3981 88.1035)
(22.3063 16.81 87.1561)
(21.8889 10.1707 85.5885)
(21.5851 3.68821 84.1228)
(21.5322 -2.7618 81.9453)
(21.6934 -9.02026 79.8894)
(22.1004 -14.9754 77.0932)
(22.7964 -20.3281 74.3508)
(23.8025 -24.6126 71.0341)
(25.2939 -27.491 67.8087)
(27.2824 -28.3059 64.1791)
(29.9983 -26.4394 60.8548)
(33.0931 -22.0606 57.6167)
(36.2439 -15.0671 54.8287)
(39.1038 -6.35328 52.5706)
(41.1371 3.95563 51.0771)
(41.7911 14.4363 50.1917)
(40.8166 23.3321 49.7173)
(38.1793 30.5677 49.7232)
(34.9101 34.6836 50.1718)
(31.624 37.2963 50.9193)
(27.6765 37.8949 53.6275)
(25.2834 37.9229 52.6324)
(23.4329 34.4179 54.935)
(24.2793 27.3165 56.0735)
(25.5525 17.5695 58.633)
(28.1275 7.28386 59.2031)
(29.5326 -4.47655 61.7684)
(30.9791 -14.0186 62.2762)
(29.8215 -24.05 64.0808)
(28.4859 -29.5103 64.8894)
(23.9817 -34.8409 65.5146)
(19.8329 -33.9376 66.8779)
(13.2631 -31.9823 67.9635)
(7.98713 -29.1453 66.2248)
(-0.110786 -25.7768 66.4611)
)
;
    }
}


// ************************************************************************* //
