FoamFile
{version 2.0; format ascii;class vectorField; location 0;object  v;}
350
(
( 2.55693e-06 1.19318e-06 -1.18395e-05 )  
( 3.80201e-06 9.09524e-07 -1.83599e-05 )  
( 1.86611e-06 -1.62572e-06 -1.72302e-05 )  
( 4.88643e-07 1.00447e-06 -1.10458e-05 )  
( -5.04714e-06 -1.95027e-06 -2.08629e-05 )  
( -1.10634e-06 2.25783e-07 -1.74132e-05 )  
( -6.89167e-07 1.32067e-06 -1.69918e-05 )  
( 1.18819e-06 -2.71566e-09 -1.86468e-05 )  
( 2.82005e-06 -6.47591e-07 -1.23088e-05 )  
( -2.77518e-06 -7.87777e-07 -1.96242e-05 )  
( -1.79605e-06 4.59999e-08 -1.97678e-05 )  
( -3.51073e-06 1.17562e-06 -1.6747e-05 )  
( -1.98151e-06 -3.37219e-06 -1.66416e-05 )  
( 1.96775e-07 -3.15146e-07 -1.44078e-05 )  
( -3.45099e-06 -3.04194e-07 -1.83625e-05 )  
( -2.69587e-06 -2.3385e-07 -1.74282e-05 )  
( 4.6511e-07 -2.45176e-06 -9.0016e-06 )  
( 7.23895e-06 -3.78353e-06 -1.76097e-05 )  
( 5.71919e-06 -5.73729e-07 -2.56158e-05 )  
( -7.62482e-06 -5.64514e-06 -3.91484e-05 )  
( 3.49864e-07 3.99197e-07 -1.25224e-05 )  
( -1.09301e-05 -1.00158e-05 -1.70552e-05 )  
( -7.77889e-06 -8.53205e-06 -2.74743e-05 )  
( -1.68757e-06 -1.63856e-06 -1.68741e-05 )  
( 2.50669e-06 6.32831e-06 -4.0248e-05 )  
( -9.09268e-07 -1.54595e-05 -5.00724e-06 )  
( -2.64542e-06 1.19445e-06 -3.75559e-05 )  
( -1.47217e-06 -1.26319e-06 -1.01957e-05 )  
( -3.69525e-06 -3.97172e-06 -5.04874e-05 )  
( -3.91441e-06 9.12619e-07 -3.31112e-05 )  
( 6.01404e-06 -7.22501e-08 -3.61272e-05 )  
( -6.25518e-06 -2.41249e-06 -3.63115e-05 )  
( -4.52645e-06 -7.89369e-07 -3.40723e-05 )  
( -9.21336e-06 2.75718e-06 -2.05479e-05 )  
( 9.76405e-07 -3.39901e-06 -2.98115e-05 )  
( -5.21855e-06 2.01864e-06 -2.53215e-05 )  
( -1.21784e-06 -9.80805e-06 -3.27691e-05 )  
( -6.93995e-07 -3.76145e-06 -3.01722e-05 )  
( -1.8226e-06 -1.26771e-06 -4.00457e-05 )  
( -3.84699e-06 -2.2101e-06 -3.88361e-05 )  
( 1.25794e-07 2.81353e-07 -2.83755e-05 )  
( -5.52146e-06 3.09808e-06 -3.31489e-05 )  
( -3.06047e-06 -2.4261e-05 -1.18587e-05 )  
( -5.13405e-06 -1.45693e-07 -5.28374e-05 )  
( 6.19202e-06 -5.46782e-06 -5.60371e-05 )  
( -7.82928e-06 3.60132e-06 -5.33687e-05 )  
( -4.99066e-06 -8.18143e-06 -5.16084e-05 )  
( -6.12438e-06 3.7062e-06 -2.41646e-05 )  
( -2.67409e-06 6.14125e-06 -6.11436e-05 )  
( -4.87372e-06 -5.24476e-06 -1.73959e-05 )  
( 2.49835e-06 1.68809e-06 -5.01776e-05 )  
( -5.96702e-06 3.02727e-07 -2.91274e-05 )  
( -8.92527e-06 -1.58718e-06 -5.49045e-05 )  
( 2.51993e-06 -9.33626e-07 -4.60718e-05 )  
( 4.30085e-06 -1.07663e-05 -3.53641e-05 )  
( -1.43303e-06 -1.68637e-06 -4.36186e-05 )  
( 6.11245e-07 -2.64684e-07 -5.59075e-05 )  
( -4.67129e-06 3.32978e-06 -5.92987e-05 )  
( -3.33189e-06 4.89361e-07 -5.18639e-05 )  
( -9.85322e-06 -3.65476e-06 -5.93171e-05 )  
( -1.10928e-05 -1.21993e-06 -5.16884e-05 )  
( -1.13218e-05 -2.87966e-07 -6.56942e-05 )  
( -1.78626e-06 4.9523e-06 -5.95166e-05 )  
( -4.47892e-07 4.74264e-07 -4.00083e-05 )  
( -9.74043e-06 -5.31965e-06 -5.61863e-05 )  
( -8.06871e-06 3.95134e-06 -6.50839e-05 )  
( -7.5293e-06 4.69812e-06 -5.98905e-05 )  
( -4.20437e-06 -9.54855e-09 -6.06529e-05 )  
( -6.07347e-06 -6.24886e-06 -5.59575e-05 )  
( -3.83692e-06 -1.60018e-06 -3.78849e-05 )  
( -2.13541e-07 1.85603e-06 -5.7604e-05 )  
( -7.64712e-06 2.21674e-06 -6.31143e-05 )  
( -5.22761e-06 1.81831e-06 -5.88234e-05 )  
( -9.00581e-06 -1.48675e-06 -7.356e-05 )  
( -3.46527e-06 -3.80323e-06 -6.50081e-05 )  
( -8.45997e-06 -4.15308e-06 -6.1995e-05 )  
( -8.06241e-06 -1.24346e-06 -7.64937e-05 )  
( -6.63448e-06 2.09858e-06 -7.8981e-05 )  
( 1.59043e-05 -2.39554e-05 -2.55788e-05 )  
( -3.04627e-06 1.67377e-06 -7.09786e-05 )  
( -1.44035e-05 1.28589e-06 -7.44648e-05 )  
( -4.67952e-06 1.55891e-06 -5.62647e-05 )  
( -9.25627e-06 2.71675e-07 -7.78398e-05 )  
( -6.95906e-06 1.97507e-06 -7.47091e-05 )  
( -4.13194e-06 -2.62696e-06 -6.94572e-05 )  
( 2.11284e-06 1.29879e-05 -7.74962e-05 )  
( -7.54957e-06 -5.25322e-06 -8.68339e-05 )  
( -7.65845e-06 -1.67269e-06 -8.38538e-05 )  
( -4.19886e-06 9.05673e-07 -7.22101e-05 )  
( -6.09947e-06 8.91419e-06 -8.05483e-05 )  
( -4.32514e-06 -4.09431e-07 -7.06719e-05 )  
( -3.22326e-06 -1.01448e-05 -7.10704e-05 )  
( -1.2894e-05 -1.14674e-06 -8.3581e-05 )  
( -5.99404e-06 -1.79521e-08 -7.09286e-05 )  
( -1.22344e-05 -2.70844e-06 -8.06121e-05 )  
( -4.59152e-07 -7.94301e-07 -7.2936e-05 )  
( -9.26535e-06 -1.03462e-06 -8.88047e-05 )  
( -2.24267e-06 -3.10266e-06 -7.95833e-05 )  
( -7.57541e-06 -3.36899e-06 -8.81463e-05 )  
( -8.38637e-06 3.71315e-06 -8.73541e-05 )  
( 2.88449e-06 8.04464e-07 -8.92899e-05 )  
( -1.70773e-05 -1.07487e-06 -6.86588e-05 )  
( -9.90064e-06 -6.81458e-07 -9.28045e-05 )  
( 6.02816e-06 -1.61027e-05 -8.05502e-05 )  
( 5.46672e-06 -1.35601e-06 -9.39051e-05 )  
( -1.35484e-06 9.06638e-06 -7.63868e-05 )  
( -6.36021e-06 1.81747e-07 -7.51151e-05 )  
( -1.38163e-06 2.09444e-06 -8.37267e-05 )  
( -1.29257e-05 -3.63255e-06 -8.89232e-05 )  
( 1.62097e-05 2.97892e-05 -9.28869e-05 )  
( -7.86587e-06 -4.13434e-06 -0.000106992 )  
( -3.5598e-07 -7.76213e-06 -8.92677e-05 )  
( -5.17407e-06 -3.71746e-06 -9.98838e-05 )  
( -8.82615e-06 -3.74794e-06 -8.77808e-05 )  
( -7.67876e-06 1.84367e-06 -0.000100917 )  
( -1.03926e-05 -1.54476e-06 -0.000107212 )  
( -5.0302e-06 -1.64944e-06 -9.56992e-05 )  
( -8.93801e-06 3.18141e-07 -9.71583e-05 )  
( -1.31432e-06 -2.38626e-06 -0.000101064 )  
( 5.51203e-07 6.54981e-06 -9.60682e-05 )  
( 5.07806e-08 -3.28492e-06 -9.53358e-05 )  
( -1.36458e-05 1.46359e-07 -9.38724e-05 )  
( 2.93324e-06 -2.23126e-06 -9.25828e-05 )  
( -1.20741e-06 -5.02688e-06 -9.01177e-05 )  
( -6.00739e-06 -6.15607e-07 -9.78033e-05 )  
( -7.77305e-06 -3.33815e-07 -9.388e-05 )  
( 9.46654e-07 5.02919e-06 -9.12833e-05 )  
( -3.34438e-06 -3.55716e-06 -8.56872e-05 )  
( -6.15273e-06 4.99223e-07 -0.000105722 )  
( -5.36423e-06 -2.0932e-06 -0.000110637 )  
( 7.48055e-06 -7.1432e-06 -0.000106239 )  
( -8.85688e-07 -3.44261e-06 -0.000105578 )  
( -3.45526e-06 4.43449e-06 -9.79334e-05 )  
( -3.86304e-06 -3.25782e-06 -0.000105814 )  
( -6.35692e-06 -6.60748e-06 -9.95056e-05 )  
( 7.31329e-06 -4.00797e-06 -0.000109755 )  
( -4.69197e-06 -5.55505e-06 -0.000109539 )  
( -1.11002e-05 7.64057e-06 -0.000109946 )  
( 2.35813e-06 -6.72346e-06 -0.000110065 )  
( 4.08395e-07 -2.05645e-06 -0.000100712 )  
( -8.71864e-06 -2.89115e-06 -0.000108502 )  
( 2.46696e-06 -7.7434e-06 -0.000100968 )  
( -2.64434e-06 -1.14769e-06 -0.000111718 )  
( -9.74497e-06 5.7698e-08 -0.000117942 )  
( -7.01127e-06 5.49594e-07 -0.000108247 )  
( 3.58964e-07 -3.85619e-06 -0.000116735 )  
( -1.36245e-06 -3.8088e-06 -0.000115777 )  
( -1.68064e-07 -6.0335e-06 -0.000113555 )  
( -9.40556e-06 -1.03062e-07 -0.000119479 )  
( -1.67845e-06 -5.22339e-06 -0.000121329 )  
( -3.01089e-06 -1.87482e-06 -0.000112185 )  
( -1.50591e-07 -2.25179e-06 -0.000108144 )  
( -4.78415e-08 -5.04173e-06 -0.000125274 )  
( -1.15905e-05 -5.9218e-06 -0.000112851 )  
( -1.07442e-05 -1.85148e-06 -0.000119505 )  
( -2.81741e-06 3.815e-07 -0.000109818 )  
( 9.16658e-07 -6.76537e-06 -0.000116553 )  
( 2.53292e-06 -7.84405e-06 -0.000123566 )  
( -1.20609e-05 -7.89349e-06 -0.000125109 )  
( -5.01e-06 -9.92938e-06 -0.000120258 )  
( 1.29066e-06 -9.82995e-06 -0.000129156 )  
( -4.4413e-06 -7.10173e-06 -0.000127244 )  
( 2.58371e-06 -1.03352e-05 -0.000127072 )  
( 4.27797e-06 -7.76107e-06 -0.000120585 )  
( -1.93012e-06 -6.84207e-06 -0.000118574 )  
( -2.01021e-06 -6.41068e-06 -0.000126448 )  
( 1.68066e-06 -5.2627e-06 -0.00012245 )  
( -1.38656e-06 -2.56846e-06 -0.000123601 )  
( 5.20024e-10 -6.45121e-06 -0.000114454 )  
( -7.30087e-06 -7.86702e-06 -0.000125408 )  
( -3.14263e-08 -7.32387e-06 -0.000128906 )  
( -5.28508e-07 -5.89514e-06 -0.000118729 )  
( -4.23326e-06 -1.64125e-07 -0.000124905 )  
( 4.71378e-06 -5.69565e-06 -0.000125706 )  
( -1.47865e-05 -9.84448e-06 -0.00012651 )  
( 8.8581e-07 -4.84346e-06 -0.000114032 )  
( 4.69117e-06 -1.6322e-05 -0.000133431 )  
( 3.80072e-06 -1.28921e-05 -0.000138021 )  
( 1.64555e-07 -9.38302e-07 -0.000126952 )  
( 2.59593e-07 -8.1389e-06 -0.000127625 )  
( -3.67663e-07 -7.30441e-06 -0.000137778 )  
( -6.94668e-07 -8.54704e-06 -0.000135097 )  
( 1.03382e-06 -9.07555e-06 -0.000135958 )  
( -5.59056e-06 -4.36195e-06 -0.000120954 )  
( 2.17217e-06 -1.36509e-05 -0.000137786 )  
( 2.73579e-06 -1.126e-05 -0.000128614 )  
( -4.43517e-06 -4.53223e-06 -0.00012637 )  
( -7.71157e-08 -1.07077e-05 -0.000137204 )  
( 2.02057e-06 -1.06734e-05 -0.000137429 )  
( 1.05877e-06 -9.14035e-06 -0.000133788 )  
( -9.87621e-06 -1.29007e-05 -0.000122801 )  
( 7.98388e-07 -3.75879e-06 -0.000146888 )  
( -1.38862e-06 -1.06484e-05 -0.000134369 )  
( -4.62312e-06 -8.3239e-06 -0.000136145 )  
( 5.79528e-07 -9.26339e-06 -0.000128295 )  
( -7.91536e-06 -4.19157e-06 -0.000134418 )  
( -5.6613e-06 -1.06288e-05 -0.000138363 )  
( 4.67974e-06 -1.39708e-05 -0.000133815 )  
( -7.78786e-06 -1.20384e-05 -0.000147943 )  
( -6.77489e-07 -1.08222e-05 -0.000140452 )  
( 1.2845e-06 -6.18385e-06 -0.000132276 )  
( 2.06797e-06 -1.14982e-05 -0.000143226 )  
( 3.36913e-06 -7.01382e-06 -0.000135515 )  
( -8.0633e-06 -1.05811e-05 -0.000140754 )  
( -6.46731e-06 -3.39392e-06 -0.000136688 )  
( 1.90964e-06 -1.05482e-05 -0.000143766 )  
( 1.6002e-06 -6.9193e-06 -0.000137103 )  
( -6.74878e-07 -3.23236e-06 -0.000130334 )  
( 3.44334e-08 -8.02223e-06 -0.000132119 )  
( 2.19765e-06 -1.71265e-06 -0.000140147 )  
( 1.30927e-06 -9.32071e-06 -0.00013856 )  
( 2.94516e-06 -4.90294e-06 -0.000140242 )  
( -7.179e-06 -5.61716e-06 -0.000142925 )  
( -2.96652e-06 -9.66112e-06 -0.000142456 )  
( 2.82835e-06 -1.09561e-05 -0.000141075 )  
( 2.07609e-06 -1.23321e-05 -0.000142703 )  
( -8.9841e-07 -5.7161e-06 -0.000145958 )  
( 2.63529e-06 -1.27774e-05 -0.000139232 )  
( 1.19228e-06 -6.10412e-06 -0.000137212 )  
( 1.55286e-06 -9.13095e-06 -0.000143804 )  
( -4.4146e-07 -8.84828e-06 -0.000146678 )  
( 5.07411e-06 -6.44662e-06 -0.000142351 )  
( -5.09274e-06 -7.46271e-06 -0.000145008 )  
( -6.5359e-06 -8.64166e-06 -0.000143603 )  
( 2.86826e-06 -1.07222e-05 -0.000147335 )  
( -1.04976e-05 -1.04482e-05 -0.000154269 )  
( -7.91894e-06 -4.66418e-06 -0.000148283 )  
( 3.56605e-06 -1.28698e-05 -0.000142504 )  
( -3.68748e-06 -9.38441e-06 -0.000148706 )  
( 1.9667e-06 -1.11782e-05 -0.00014201 )  
( -9.66055e-06 -6.60076e-06 -0.00015307 )  
( 9.15606e-07 -1.00737e-05 -0.000146731 )  
( -9.08936e-07 -2.48954e-06 -0.000143341 )  
( -2.32363e-07 -3.46669e-06 -0.00014605 )  
( 3.06174e-06 -8.37237e-06 -0.000142644 )  
( 2.85115e-06 -1.0196e-05 -0.000143305 )  
( -3.39338e-06 -1.03572e-05 -0.000139954 )  
( 2.72437e-06 -1.20378e-05 -0.000136755 )  
( 1.42758e-06 -1.09443e-05 -0.000147895 )  
( -3.10798e-06 -4.08378e-06 -0.000152725 )  
( -1.78122e-06 -9.07481e-06 -0.000149339 )  
( 3.50318e-06 -1.04638e-05 -0.000146457 )  
( 3.50524e-06 -7.79753e-06 -0.000148467 )  
( 3.34884e-06 -1.01142e-05 -0.000144706 )  
( -2.77775e-07 -9.6068e-06 -0.000147521 )  
( 1.37157e-06 -2.90429e-06 -0.000148176 )  
( 7.68528e-07 -6.80182e-06 -0.000144399 )  
( 2.49685e-06 -1.22407e-05 -0.000152537 )  
( 1.80952e-06 -1.01744e-05 -0.000146999 )  
( -2.80687e-06 -9.35243e-06 -0.000147772 )  
( -4.18131e-06 -1.00137e-05 -0.000163917 )  
( 1.00381e-06 -1.19323e-05 -0.000145814 )  
( 2.83651e-06 -9.58306e-06 -0.000144175 )  
( 3.47874e-06 -1.27323e-05 -0.000148118 )  
( -2.6109e-06 -9.15883e-06 -0.000152441 )  
( -1.36414e-06 -2.53646e-06 -0.000147164 )  
( -1.70035e-06 -1.1346e-05 -0.00015198 )  
( -1.8249e-06 -3.25257e-06 -0.000151308 )  
( -2.91095e-06 -1.02358e-05 -0.000153039 )  
( -1.08884e-06 -3.6494e-06 -0.000152312 )  
( -2.38072e-06 -6.61169e-06 -0.000150362 )  
( 6.07241e-06 -9.93089e-06 -0.000145503 )  
( -7.01368e-06 -1.27685e-06 -0.000150119 )  
( -5.98589e-06 -1.06878e-05 -0.000161823 )  
( 1.05387e-06 -1.18313e-05 -0.000151423 )  
( 3.53799e-06 -1.11739e-06 -0.000158254 )  
( 2.569e-06 -1.23792e-05 -0.000144802 )  
( -5.78895e-06 -5.4176e-06 -0.000155796 )  
( 2.62783e-06 -8.79726e-06 -0.00014832 )  
( -1.1638e-06 -5.35495e-06 -0.000159154 )  
( 6.33155e-06 -3.01312e-05 -0.000142918 )  
( 4.34505e-06 -5.80378e-06 -0.000154294 )  
( 9.1477e-07 -4.1685e-06 -0.000153577 )  
( 1.30434e-06 -4.02033e-06 -0.000148477 )  
( 5.32722e-07 -1.15094e-05 -0.000144924 )  
( -4.48339e-07 -4.66999e-06 -0.000151769 )  
( -2.03161e-06 -6.40005e-06 -0.000147389 )  
( -2.18572e-06 -7.39885e-07 -0.000155467 )  
( -6.47354e-06 -1.74012e-05 -0.000171044 )  
( -3.20492e-07 -1.14113e-05 -0.000146915 )  
( 4.4279e-06 -7.85284e-06 -0.000150296 )  
( 5.3394e-06 -5.9262e-06 -0.000147649 )  
( 6.12681e-06 -9.82349e-06 -0.000165554 )  
( 8.34909e-06 -1.22048e-06 -0.000160221 )  
( 3.36769e-06 -1.33339e-05 -0.000149945 )  
( 3.00163e-06 -8.60287e-06 -0.000144636 )  
( -2.6351e-06 -7.0292e-07 -0.000147527 )  
( 6.18319e-06 3.33527e-07 -0.000152893 )  
( -1.70811e-05 4.04765e-07 -0.000154147 )  
( 9.41642e-06 -2.41658e-05 -0.000161277 )  
( 4.72829e-06 -1.21402e-05 -0.000159368 )  
( 4.94697e-06 -1.15848e-05 -0.000146068 )  
( -3.46127e-06 1.99245e-06 -0.000147567 )  
( -5.67414e-06 -7.01496e-07 -0.000154958 )  
( -7.48249e-05 2.22616e-05 -0.000143193 )  
( 8.6468e-06 7.83461e-07 -0.000150523 )  
( 7.58064e-06 -2.18991e-05 -0.000169956 )  
( 9.05007e-06 -2.76934e-05 -0.000150836 )  
( -3.77287e-05 6.40187e-06 -0.000151106 )  
( 8.50432e-06 1.8631e-06 -0.000156534 )  
( 1.56275e-05 -9.75071e-06 -0.000138479 )  
( -2.79992e-06 -8.13595e-07 -0.000148661 )  
( 1.08457e-05 -1.4251e-05 -0.000143741 )  
( 7.481e-06 -7.22519e-06 -0.000153339 )  
( -3.6008e-06 -1.88158e-05 -0.000151809 )  
( 9.33647e-06 -5.11231e-06 -0.000147895 )  
( -7.20372e-06 1.30533e-06 -0.00014293 )  
( 6.05191e-06 -1.27436e-05 -0.000170017 )  
( 1.35053e-05 1.44294e-06 -0.00015198 )  
( -8.40861e-06 2.46805e-06 -0.000153985 )  
( -4.14202e-06 -2.31969e-06 -0.000153551 )  
( 2.38895e-06 -3.32035e-06 -0.000159679 )  
( 3.83807e-05 4.56237e-06 -0.00015914 )  
( 2.67614e-05 -3.37349e-06 -0.000148328 )  
( 1.06703e-05 -9.89702e-06 -0.000154677 )  
( 4.28535e-06 -2.24277e-05 -0.000150024 )  
( 1.45602e-05 -2.13862e-05 -0.000155915 )  
( 2.49514e-06 -1.31458e-05 -0.000176936 )  
( 9.01385e-06 -1.4791e-05 -0.000150009 )  
( 9.00925e-06 -1.04045e-05 -0.00015044 )  
( 2.2022e-05 3.4256e-06 -0.000150294 )  
( -2.36612e-05 1.35144e-05 -0.000162584 )  
( 6.72404e-06 -1.84318e-05 -0.000150353 )  
( 1.73292e-05 -3.10332e-06 -0.000200014 )  
( 1.02297e-05 5.61605e-06 -0.000156614 )  
( -2.17108e-06 -2.52635e-06 -0.00015933 )  
( 4.72735e-06 7.81488e-06 -0.000166822 )  
( 3.2212e-05 -1.83995e-05 -0.000147285 )  
( 2.31566e-05 1.05488e-05 -0.000163047 )  
( 2.16548e-06 1.65286e-06 -0.000172993 )  
( -1.27772e-05 7.65766e-06 -0.000145619 )  
( 7.31317e-06 -1.44732e-06 -0.000161618 )  
( 2.18961e-05 -1.76091e-05 -0.000171271 )  
( -3.79563e-06 -1.93119e-05 -0.000176339 )  
( 1.64732e-05 1.74175e-07 -0.000165067 )  
( 3.55201e-05 1.13649e-05 -0.000190899 )  
( -8.75673e-05 -6.80131e-05 -0.00022673 )  
( 5.71415e-05 2.67795e-06 -0.000188017 )  
( 7.93466e-06 7.86679e-06 -0.000140486 )  
( 1.80357e-05 -5.13268e-05 -0.00015941 )  
( -7.6547e-05 4.58706e-05 -0.000163683 )  
( 3.04038e-06 1.43934e-06 -0.00017125 )  
( 2.7659e-05 -2.97939e-05 -0.000147444 )  
( -1.90471e-05 -2.02173e-06 -0.000154025 )  
( 1.78098e-05 1.94246e-05 -0.000178323 )  
( 2.21538e-05 -2.96424e-05 -0.000191594 )  
( -5.53223e-06 5.11442e-07 -0.000153095 )  
( 1.25404e-05 -1.30676e-05 -0.00016514 )  
( 5.08445e-06 -1.84129e-05 -0.000156162 )  
( 1.74812e-05 -5.42722e-06 -0.000162068 )  
)
