/*--------------------------------*- C++ -*----------------------------------*\
  =========                 |
  \\      /  F ield         | OpenFOAM: The Open Source CFD Toolbox
   \\    /   O peration     | Website:  https://openfoam.org
    \\  /    A nd           | Version:  9
     \\/     M anipulation  |
\*---------------------------------------------------------------------------*/
FoamFile
{
    format      ascii;
    class       surfaceScalarField;
    location    "1000";
    object      phi;
}
// * * * * * * * * * * * * * * * * * * * * * * * * * * * * * * * * * * * * * //

dimensions      [0 3 -1 0 0 0 0];

internalField   nonuniform List<scalar> 
1436
(
3.00324e-05
6.17237e-05
-249.982
-7.54738e-05
-249.976
-0.000107302
-249.969
-249.993
0.000103134
0.000175299
-249.982
-0.000209894
-249.976
-0.000283397
-249.969
-249.993
0.00017695
0.000296266
-249.982
-0.000355418
-249.976
-0.000476844
-249.969
-249.994
0.00024683
0.000415449
-249.981
-0.000500055
-249.977
-0.000671671
-249.97
-249.994
0.000306185
0.000525767
-249.98
-0.000637388
-249.978
-0.000861265
-249.97
-249.993
0.000353461
0.000626352
-249.979
-0.000766775
-249.979
-0.00104567
-249.97
-249.993
0.000385404
0.000714447
-249.978
-0.000885879
-249.98
-0.00122324
-249.97
-249.993
0.000399097
0.000787659
-249.977
-0.000992696
-249.981
-0.00139276
-249.971
-249.993
0.000391861
0.000843849
-249.975
-0.00108549
-249.982
-0.0015533
-249.971
-249.992
0.000361283
0.000881158
-249.973
-0.00116286
-249.983
-0.00170437
-249.971
-249.992
0.000305222
0.000898031
-249.971
-0.00122374
-249.985
-0.00184588
-249.971
-249.992
0.000221991
0.000893234
-249.969
-0.001268
-249.986
-0.00197827
-249.972
-249.992
0.000120313
0.000865888
-249.966
-0.00129485
-249.988
-0.00210142
-249.972
-249.992
-2.55284e-05
0.000815532
-249.964
-0.00130453
-249.989
-0.00221716
-249.971
-249.992
-0.000209403
0.000742119
-249.961
-0.00129767
-249.991
-0.00232731
-249.971
-249.993
-0.000426829
0.000645694
-249.958
-0.00127538
-249.993
-0.00243672
-249.971
-249.993
-0.000677368
0.000526928
-249.956
-0.00123922
-249.995
-0.00254654
-249.97
-249.994
-0.000961912
0.000386805
-249.953
-0.00119126
-249.997
-0.00266085
-249.969
-249.996
-0.00128089
0.000226676
-249.95
-0.00113401
-249.999
-0.00278424
-249.968
-249.998
-0.00163444
4.82423e-05
-249.947
-0.00107041
-250.001
-0.00292196
-249.967
-250.001
-0.00202255
-0.00014416
-249.944
-0.00100379
-250.003
-0.00307993
-249.965
-250.004
-0.00244516
-0.000345178
-249.94
-0.000937757
-250.006
-0.00326471
-249.963
-250.007
-0.00290217
-0.000556873
-249.937
-0.000876132
-250.008
-0.00348354
-249.961
-250.012
-0.00339365
-0.000776781
-249.933
-0.000822788
-250.011
-0.00374428
-249.958
-250.017
-0.00391995
-0.00100251
-249.93
-0.000781481
-250.013
-0.00405533
-249.954
-250.023
-0.00448184
-0.00123186
-249.926
-0.000755602
-250.016
-0.00442559
-249.95
-250.03
-0.00508066
-0.00146297
-249.921
-0.000752146
-250.019
-0.00486441
-249.946
-250.037
-0.0057185
-0.00169448
-249.916
-0.000780639
-250.023
-0.00538154
-249.94
-250.046
-0.00639828
-0.00192568
-249.91
-0.000849505
-250.026
-0.00598717
-249.934
-250.056
-0.0071239
-0.0021567
-249.904
-0.000969539
-250.03
-0.00669188
-249.927
-250.066
-0.00790037
-0.00238872
-249.897
-0.0011556
-250.034
-0.00750669
-249.92
-250.078
-0.00873389
-0.00262413
-249.888
-0.00142977
-250.039
-0.00844312
-249.911
-250.091
-0.00963184
-0.0028668
-249.879
-0.00182757
-250.044
-0.00951339
-249.901
-250.105
-0.0106027
-0.00309855
-249.868
-0.00241118
-250.049
-0.0107307
-249.891
-250.121
-0.0116552
-0.0033217
-249.855
-0.00309211
-250.054
-0.0121101
-249.879
-250.138
-0.0127996
-0.00355467
-249.841
-0.00375278
-250.06
-0.0136678
-249.866
-250.158
-0.014049
-0.0038041
-249.825
-0.0045348
-250.067
-0.0154198
-249.851
-250.18
-0.015418
-0.00407812
-249.806
-0.00545223
-250.074
-0.0173836
-249.835
-250.204
-0.0169226
-0.00438649
-249.786
-0.00652143
-250.082
-0.0195784
-249.818
-250.23
-0.0185804
-0.00474066
-249.763
-0.00776161
-250.091
-0.0220256
-249.798
-250.26
-0.0204104
-0.00515386
-249.737
-0.00919548
-250.101
-0.0247488
-249.777
-250.294
-0.0224329
-0.00564122
-249.708
-0.0108501
-250.111
-0.0277749
-249.754
-250.331
-0.0246694
-0.0062199
-249.675
-0.0127577
-250.122
-0.0311339
-249.728
-250.374
-0.0271422
-0.00690928
-249.639
-0.014957
-250.134
-0.03486
-249.7
-250.422
-0.0298748
-0.00773119
-249.599
-0.0174942
-250.147
-0.0389918
-249.669
-250.476
-0.032891
-0.0087102
-249.555
-0.0204244
-250.16
-0.0435735
-249.635
-250.537
-0.036215
-0.00987402
-249.506
-0.0238137
-250.174
-0.048655
-249.598
-250.607
-0.0398711
-0.011254
-249.452
-0.0277404
-250.188
-0.0542931
-249.557
-250.686
-0.0438832
-0.0128857
-249.393
-0.0322978
-250.202
-0.0605523
-249.511
-250.776
-0.0482745
-0.0148097
-249.327
-0.0375965
-250.215
-0.0675055
-249.461
-250.879
-0.0530673
-0.0170724
-249.254
-0.0437671
-250.227
-0.0752352
-249.405
-250.995
-0.058282
-0.0197271
-249.173
-0.0509641
-250.236
-0.0838345
-249.344
-251.127
-0.0639368
-0.022835
-249.084
-0.0593691
-250.243
-0.093408
-249.275
-251.278
-0.070047
-0.0264667
-248.986
-0.0691962
-250.247
-0.104073
-249.2
-251.449
-0.076624
-0.0307072
-248.877
-0.0806968
-250.244
-0.115963
-249.117
-251.644
-0.0836739
-0.0356772
-248.756
-0.0941656
-250.235
-0.129223
-249.025
-251.866
-0.0911966
-0.0415164
-248.623
-0.109949
-250.218
-0.14402
-248.923
-252.119
-0.0991839
-0.0484014
-248.475
-0.128451
-250.189
-0.160538
-248.812
-252.408
-0.107617
-0.0565701
-248.31
-0.150148
-250.147
-0.178983
-248.689
-252.737
-0.116464
-0.0663737
-248.128
-0.175596
-250.087
-0.199584
-248.556
-253.112
-0.125677
-0.0783852
-247.924
-0.205444
-250.007
-0.222598
-248.411
-253.54
-0.135189
-0.0924145
-247.697
-0.240457
-249.9
-0.248311
-248.254
-254.03
-0.144906
-0.108452
-247.445
-0.281529
-249.763
-0.27704
-248.084
-254.589
-0.154703
-0.127348
-247.164
-0.328478
-249.587
-0.309143
-247.901
-255.228
-0.164422
-0.149621
-246.851
-0.382632
-249.368
-0.345008
-247.704
-255.957
-0.173868
-0.175882
-246.503
-0.445953
-249.095
-0.385061
-247.494
-256.789
-0.182783
-0.206854
-246.114
-0.519966
-248.757
-0.429774
-247.27
-257.74
-0.190869
-0.243387
-245.681
-0.606456
-248.341
-0.479675
-247.033
-258.827
-0.197871
-0.286483
-245.198
-0.707509
-247.831
-0.535351
-246.784
-260.071
-0.203464
-0.33732
-244.659
-0.825559
-247.21
-0.597451
-246.524
-261.495
-0.207385
-0.397188
-244.055
-0.963453
-246.455
-0.666701
-246.256
-263.126
-0.209737
-0.4644
-243.382
-1.12451
-245.542
-0.743903
-245.978
-264.995
-0.209253
-0.54372
-242.63
-1.31259
-244.441
-0.829962
-245.693
-267.138
-0.202488
-0.637198
-241.791
-1.53223
-243.114
-0.925882
-245.407
-269.597
-0.189609
-0.747238
-240.855
-1.78876
-241.519
-1.03283
-245.124
-272.419
-0.168941
-0.87625
-239.809
-2.08779
-239.601
-1.15227
-244.85
-275.658
-0.138235
-1.02873
-238.645
-2.437
-237.309
-1.28431
-244.599
-279.38
-0.0921595
-1.21401
-237.335
-2.84205
-234.558
-1.42091
-244.392
-283.641
0.00984329
-1.46114
-235.885
-3.27023
-231.281
-1.46508
-244.391
-288.376
0.519862
-1.48073
-234.926
-3.69218
-227.076
-1.26175
-244.611
-293.329
0.551744
0.447478
-235.925
-0.939541
-225.584
-0.0601482
-244.102
-294.328
0.591034
-2.53361
-233.981
-1.73288
-223.259
1.63855
-248.274
-294.421
0.956451
-0.40542
-234.531
-1.15177
-221.151
0.378056
-249.056
-295.193
0.90306
-0.247698
-235.187
0.0933006
-220.342
0.153087
-249.456
-294.947
0.509526
-0.29127
-235.405
-1.53451
-218.297
-0.338704
-249.409
-296.82
0.553681
-1.42915
-234.529
-4.50082
-213.242
-2.70332
-248.134
-304.024
0.759609
-2.7683
-232.521
-0.886475
-211.596
-0.941423
-249.961
-305.852
-0.0642268
-3.55654
-228.9
2.33561
-213.995
2.97774
-256.494
-300.539
0.796002
-2.47756
-227.218
2.65084
-215.85
2.51804
-261.49
-295.37
-0.314398
-1.38774
-225.516
3.67883
-219.843
3.31825
-266.196
-288.373
-0.0134353
0.00218844
-225.505
2.23723
-222.094
1.46001
-267.654
-284.675
0.135674
0.105328
-225.746
0.634379
-222.593
2.04247
-269.591
-281.999
1.74497
0.353235
-227.844
-0.871862
-219.976
0.691557
-269.93
-282.179
3.23798
0.696126
-231.779
-1.69804
-215.041
0.0123607
-269.247
-283.865
2.21253
0.570237
-234.562
-2.26581
-210.563
-0.520218
-268.157
-286.651
1.44182
1.27661
-237.28
-2.6456
-206.476
-1.18999
-265.691
-290.487
0.308732
2.0059
-239.595
-1.67928
-204.489
-1.82915
-261.857
-293.996
-0.633266
1.53351
-240.496
-0.615698
-204.508
-1.86786
-258.456
-296.479
-1.72278
1.33298
-240.106
2.13926
-208.371
-1.57419
-255.551
-295.915
-1.95634
0.142162
-238.292
4.61512
-214.943
0.976762
-256.386
-290.323
-2.76595
-0.700311
-234.825
5.93199
-223.642
1.50836
-258.595
-282.883
-2.97143
1.39587
-233.252
5.56999
-232.183
3.28452
-260.484
-274.029
-2.4362
8.57497
-239.388
3.14768
-237.765
2.77386
-254.686
-268.109
0.0391634
4.87709
-244.303
4.04263
-241.764
6.09552
-255.905
-257.97
-0.718884
5.30155
-248.885
3.38007
-245.863
3.72536
-254.331
-250.866
-0.854998
1.39493
-249.416
1.886
-248.6
0.537631
-253.475
-248.441
-0.624199
0.840743
-249.636
1.32567
-250.552
-0.0441768
-252.59
-247.157
-0.443246
0.652838
-249.843
0.947166
-251.944
-0.128563
-251.815
-246.342
-0.311844
0.521708
-250.054
0.664377
-252.923
-0.153518
-251.144
-245.832
-0.21281
0.411324
-250.255
0.44364
-253.584
-0.163814
-250.575
-245.556
-0.144032
0.316777
-250.43
0.272185
-254.004
-0.16477
-250.098
-245.451
-0.0895283
0.236433
-250.579
0.14041
-254.237
-0.159394
-249.706
-245.472
-0.0475232
0.168838
-250.702
0.0403303
-254.328
-0.149953
-249.391
-245.584
-0.0159486
0.11256
-250.799
-0.0345199
-254.312
-0.138043
-249.144
-245.758
0.00721317
0.0662241
-250.873
-0.0893669
-254.217
-0.12486
-248.955
-245.973
0.0237264
0.028539
-250.925
-0.128427
-254.066
-0.111251
-248.817
-246.213
0.0349047
-0.00168469
-250.958
-0.155099
-253.877
-0.0977968
-248.722
-246.465
0.0419634
-0.0255265
-250.973
-0.171911
-253.664
-0.0848835
-248.664
-246.721
0.0460007
-0.0439547
-250.974
-0.180714
-253.438
-0.0727496
-248.636
-246.974
0.0477295
-0.0578297
-250.963
-0.183938
-253.207
-0.0615262
-248.634
-247.219
0.0478954
-0.0679066
-250.943
-0.182971
-252.978
-0.0532043
-248.65
-247.455
0.0469937
-0.0748397
-250.915
-0.178923
-252.753
-0.0455913
-248.681
-247.68
0.0453454
-0.0791954
-250.882
-0.172669
-252.537
-0.0386886
-248.724
-247.891
0.0432006
-0.0814601
-250.844
-0.164898
-252.332
-0.0325081
-248.775
-248.09
0.0407511
-0.0820487
-250.804
-0.156147
-252.137
-0.027035
-248.833
-248.274
0.038142
-0.0813136
-250.762
-0.146831
-251.955
-0.0222361
-248.895
-248.444
0.03548
-0.0795521
-250.719
-0.137268
-251.785
-0.0180663
-248.959
-248.601
0.0328423
-0.077013
-250.676
-0.127698
-251.626
-0.014474
-249.023
-248.744
0.030282
-0.073904
-250.632
-0.118297
-251.479
-0.0114041
-249.088
-248.874
0.0278341
-0.0703969
-250.589
-0.109191
-251.344
-0.00880078
-249.15
-248.991
0.0255199
-0.0666324
-250.547
-0.10047
-251.218
-0.00660932
-249.211
-249.097
0.0233503
-0.0627254
-250.505
-0.0921908
-251.103
-0.00477722
-249.269
-249.191
0.0213296
-0.0587682
-250.464
-0.0843864
-250.996
-0.00339875
-249.324
-249.276
0.0194566
-0.0548333
-250.425
-0.0770736
-250.899
-0.00284399
-249.375
-249.352
0.0177264
-0.0509735
-250.387
-0.0702588
-250.809
-0.00206961
-249.422
-249.42
0.0161314
-0.0472307
-250.351
-0.0639356
-250.728
-0.001261
-249.467
-249.48
0.0146626
-0.0435995
-250.317
-0.0580892
-250.653
-0.000511187
-249.508
-249.533
0.0133109
-0.0399819
-250.285
-0.0526752
-250.585
0.000141375
-249.546
-249.58
0.0120675
-0.036642
-250.255
-0.0475187
-250.524
0.00068735
-249.582
-249.622
0.0109233
-0.03356
-250.228
-0.0428654
-250.469
0.00113014
-249.615
-249.659
0.00987012
-0.0307183
-250.203
-0.0386566
-250.419
0.00148092
-249.646
-249.692
0.00890046
-0.0281006
-250.181
-0.0348432
-250.375
0.00175288
-249.675
-249.722
0.00800746
-0.0256921
-250.161
-0.0313839
-250.336
0.0019588
-249.703
-249.75
0.00718474
-0.0234788
-250.143
-0.0282439
-250.3
0.00211006
-249.729
-249.774
0.00642788
-0.0214471
-250.128
-0.0253933
-250.269
0.00221623
-249.753
-249.797
0.00573321
-0.019584
-250.115
-0.0228063
-250.242
0.0022851
-249.776
-249.818
0.00509764
-0.0178766
-250.103
-0.0204601
-250.217
0.00232284
-249.798
-249.838
0.00451852
-0.0163125
-250.094
-0.0183351
-250.196
0.00233409
-249.818
-249.856
0.00399342
-0.0148797
-250.086
-0.0164133
-250.177
0.00232172
-249.836
-249.873
0.00352009
-0.0135669
-250.079
-0.0146786
-250.16
0.00228887
-249.853
-249.888
0.00309626
-0.0123633
-250.073
-0.0131164
-250.145
0.00223809
-249.869
-249.903
0.00271956
-0.0112589
-250.067
-0.0117129
-250.132
0.00217144
-249.883
-249.915
0.00238746
-0.0102444
-250.062
-0.0104552
-250.119
0.00209072
-249.896
-249.927
0.00209722
-0.0093104
-250.058
-0.00933137
-250.108
0.00199766
-249.907
-249.937
0.00184585
-0.00845002
-250.054
-0.00832982
-250.097
0.00189397
-249.917
-249.945
0.00163017
-0.00765736
-250.049
-0.00743964
-250.087
0.00178147
-249.926
-249.953
0.00144681
-0.00692727
-250.045
-0.00665038
-250.078
0.00166211
-249.933
-249.959
0.00129224
-0.00625525
-250.04
-0.00595212
-250.069
0.00153791
-249.939
-249.963
0.0011629
-0.00563747
-250.035
-0.00533541
-250.06
0.00141124
-249.944
-249.967
0.00105521
-0.00507065
-250.03
-0.00479135
-250.052
0.0012862
-249.948
-249.969
0.000965712
-0.00455199
-250.025
-0.00431159
-250.044
0.00116661
-249.951
-249.971
0.000891124
-0.00407901
-250.02
-0.00388838
-250.036
0.00104847
-249.953
-249.972
0.000828418
-0.00364955
-250.015
-0.0035146
-250.029
0.000935589
-249.955
-249.972
0.000774871
-0.00326159
-250.01
-0.00318379
-250.023
0.000830389
-249.957
-249.972
0.000728098
-0.00291319
-250.005
-0.00289016
-250.017
0.0007343
-249.958
-249.972
0.000686026
-0.00260243
-250.001
-0.0026286
-250.011
0.000648311
-249.959
-249.971
0.000646869
-0.00232734
-249.997
-0.0023947
-250.006
0.000572948
-249.96
-249.971
0.000609071
-0.00208586
-249.993
-0.00218465
-250.002
0.000508299
-249.961
-249.97
0.000571306
-0.00187581
-249.99
-0.00199531
-249.999
0.000454075
-249.963
-249.97
0.000532495
-0.00169491
-249.988
-0.00182415
-249.996
0.000409683
-249.965
-249.971
0.000491789
-0.00154079
-249.986
-0.0016692
-249.994
0.000374297
-249.967
-249.971
0.00044845
-0.00141104
-249.986
-0.00152902
-249.993
0.000346875
-249.969
-249.973
0.000401542
-0.00130329
-249.986
-0.00140267
-249.992
0.000326132
-249.972
-249.975
0.000354541
-0.00121528
-249.986
-0.00128957
-249.992
0.000311066
-249.975
-249.977
0.000320516
-0.00114473
-249.987
-0.0011896
-249.993
0.000305234
-249.979
-249.98
0.000310586
-0.00108958
-249.989
-0.00110295
-249.994
0.000309879
-249.982
-249.983
0.000313586
-0.00104795
-249.991
-0.00103004
-249.995
0.00031098
-249.986
-249.987
0.000297127
-0.00101637
-249.994
-0.000973341
-249.997
0.000311814
-249.991
-249.991
0.000280365
-0.000998575
-249.997
-0.000928235
-249.998
0.000316725
-249.995
-249.995
0.000273806
-0.00100281
-0.000917514
0.000323269
)
;

boundaryField
{
    inlet
    {
        type            calculated;
        value           nonuniform List<scalar> 4(-250 -249.999 -250 -250);
    }
    outlet
    {
        type            calculated;
        value           nonuniform List<scalar> 4(249.981 249.969 249.976 249.993);
    }
    repeat_boundary
    {
        type            calculated;
        value           uniform 0;
    }
}


// ************************************************************************* //
