/*--------------------------------*- C++ -*----------------------------------*\
| =========                 |                                                 |
| \\      /  F ield         | OpenFOAM: The Open Source CFD Toolbox           |
|  \\    /   O peration     | Version:  5.x                                   |
|   \\  /    A nd           | Web:      www.OpenFOAM.org                      |
|    \\/     M anipulation  |                                                 |
\*---------------------------------------------------------------------------*/
FoamFile
{
    version     2.0;
    format      ascii;
    class       surfaceScalarField;
    location    "6000";
    object      phi;
}
// * * * * * * * * * * * * * * * * * * * * * * * * * * * * * * * * * * * * * //

dimensions      [0 3 -1 0 0 0 0];

internalField   nonuniform List<scalar> 
179
(
1.04721e+07
1.04663e+07
1.04628e+07
1.04593e+07
1.04552e+07
1.04506e+07
1.04445e+07
1.04387e+07
1.04336e+07
1.04269e+07
1.04211e+07
1.04157e+07
1.04116e+07
1.04083e+07
1.04036e+07
1.04031e+07
1.04025e+07
1.04043e+07
1.04045e+07
1.0401e+07
1.03969e+07
1.03933e+07
1.03896e+07
1.03872e+07
1.03849e+07
1.03826e+07
1.03829e+07
1.03873e+07
1.03947e+07
1.04006e+07
1.04034e+07
1.04099e+07
1.04175e+07
1.04298e+07
1.04402e+07
1.04507e+07
1.04613e+07
1.04719e+07
1.04841e+07
1.04995e+07
1.05149e+07
1.05301e+07
1.05463e+07
1.05616e+07
1.05747e+07
1.05873e+07
1.05989e+07
1.06097e+07
1.062e+07
1.06269e+07
1.06337e+07
1.06382e+07
1.06453e+07
1.06541e+07
1.06634e+07
1.06729e+07
1.06824e+07
1.06897e+07
1.06952e+07
1.06975e+07
1.06981e+07
1.0698e+07
1.06966e+07
1.06955e+07
1.06923e+07
1.06869e+07
1.06788e+07
1.06667e+07
1.06535e+07
1.06366e+07
1.0618e+07
1.05951e+07
1.05611e+07
1.05226e+07
1.04785e+07
1.04316e+07
1.03814e+07
1.03232e+07
1.02585e+07
1.01831e+07
1.00999e+07
1.00089e+07
9.9067e+06
9.79312e+06
9.66931e+06
9.53337e+06
9.38034e+06
9.22223e+06
9.04404e+06
8.85809e+06
8.64788e+06
8.42803e+06
8.15988e+06
7.87757e+06
7.56661e+06
7.21899e+06
6.84174e+06
6.43214e+06
5.96304e+06
5.44605e+06
4.8526e+06
4.15144e+06
3.3605e+06
2.24578e+06
1.03658e+06
-1.76404e+06
-5.08718e+06
-8.03169e+06
-1.06598e+07
-1.29281e+07
-1.48036e+07
-1.62921e+07
-1.74202e+07
-1.8225e+07
-1.87578e+07
-1.90829e+07
-1.92698e+07
-1.93971e+07
-1.95183e+07
-1.96948e+07
-1.99596e+07
-2.03091e+07
-2.07372e+07
-2.11529e+07
-2.15784e+07
-2.19743e+07
-2.24026e+07
-2.28128e+07
-2.32131e+07
-2.35654e+07
-2.38704e+07
-2.41056e+07
-2.42789e+07
-2.43691e+07
-2.43911e+07
-2.43233e+07
-2.41735e+07
-2.39306e+07
-2.35861e+07
-2.31259e+07
-2.25474e+07
-2.18325e+07
-2.09896e+07
-1.99884e+07
-1.89095e+07
-1.77676e+07
-1.66113e+07
-1.55059e+07
-1.45264e+07
-1.37147e+07
-1.30927e+07
-1.26582e+07
-1.24578e+07
-1.23609e+07
-1.24417e+07
-1.25431e+07
-1.27265e+07
-1.28277e+07
-1.26432e+07
-1.21498e+07
-1.12591e+07
-9.98329e+06
-8.37096e+06
-6.46236e+06
-4.35843e+06
-2.15352e+06
121204
2.40291e+06
4.58181e+06
6.59199e+06
8.38832e+06
9.93744e+06
1.12388e+07
1.22825e+07
1.30951e+07
1.36858e+07
1.40969e+07
1.43421e+07
1.44634e+07
)
;

boundaryField
{
    inlet
    {
        type            calculated;
        value           uniform 1.4427e+07;
    }
    outlet
    {
        type            calculated;
        value           uniform -1.04787e+07;
    }
    repeat_boundary
    {
        type            calculated;
        value           uniform 0;
    }
    procBoundary1to0
    {
        type            processor;
        value           nonuniform List<scalar> 
180
(
3294.16
3142.75
1557.25
1435.21
1895.29
2154.8
3051.77
2271.26
2194.43
1833.47
1856.41
1407.76
1156.02
-163.977
1286.07
-967.519
-962.046
-2376.75
-1987.45
417.337
76.083
-1265.92
-1350.61
-2112.85
-2685.37
-2666.29
-4099.53
-6423.69
-8028.47
-7460.41
-6078.32
-6195.75
-5327.68
-6032.65
-5040.35
-4599.2
-4458.96
-3003.84
-3292.74
-3590.07
-3737.38
-2697.51
-1935.87
-1614.85
-1344.6
-464.498
80.248
691.168
-471.656
-382.846
-667.853
427.928
-1538.98
-3039.47
-4120.39
-5423.09
-4993.15
-3361.64
-3755.48
-1853.54
-1289.69
-746.875
1.63153
-562.85
427.026
1077.94
1910.79
2792.8
3044.33
3582.77
4204.15
7736.26
13825.2
18309.1
19860
20457.3
23527.9
30397.3
34889.7
41145.2
46742.8
51359.9
58204.2
63057.1
67969.1
74691.2
84309.3
87664.8
96649.3
102482
115898
119674
148197
156746
165422
197444
212751
226502
267710
289271
337821
397045
449213
627610
714391
1.4864e+06
1.55119e+06
1.32863e+06
1.1183e+06
895919
670366
469740
302828
176892
91380.7
46614.3
39360.1
67057.9
113127
172654
236122
288683
330392
332472
339615
330750
327978
308476
284882
257605
225338
191314
158437
123484
91098.7
58656.4
25399.8
-3539.77
-37334.7
-69958.8
-105323
-142746
-165227
-203953
-190831
-184984
-169593
-142290
-104776
-77836.6
-51632
-31732.1
26785.7
34554.5
77885.5
66435.8
89895.6
49347.4
-75652.9
-226129
-421215
-601112
-741912
-845124
-917769
-932756
-957008
-968130
-939819
-894639
-835291
-765866
-696678
-620965
-556339
-487225
-429871
-367575
-322946
-242501
)
;
    }
    procBoundary1to3
    {
        type            processor;
        value           nonuniform List<scalar> 
180
(
3288.49
2734.79
1945.26
2062.06
2187.29
2439.58
3059.89
3467.83
2902.56
4892.96
3988.25
3945.03
2971.15
3483.84
3391.16
1497.63
1535.9
543.836
1836.88
3012.12
4077.91
4883.79
5005.29
4484.87
5039.89
4988.26
3745.13
2086.45
620.475
1520.65
3261.07
-235.12
-2343.73
-6219.38
-5355.31
-5900.15
-6135.28
-7594.42
-8984.8
-11818.9
-11574
-12583.3
-14230
-13684.7
-11704.7
-12187.1
-11688.9
-11477.9
-9813.26
-6485.94
-6168.11
-4943.74
-5559.55
-5776.56
-5159.73
-4113.01
-4455.91
-3997.73
-1730.58
-449.594
679.067
940.388
1367.33
1636.26
2741.77
4341.56
6196.55
9303.79
10215.6
13282.3
14384.1
15146.1
20199.9
20159.5
24293.9
26390.7
26721.6
27777.8
29853.2
34264.8
36423.5
39625.8
43993.6
50528.2
55837.4
61249.5
68725.1
70437.1
81545.9
83471.4
94310.4
100172
119955
125571
145538
150175
164500
183092
201391
227718
255628
304113
341724
487114
494802
1.31423e+06
1.77194e+06
1.61587e+06
1.50982e+06
1.37233e+06
1.20518e+06
1.01875e+06
825305
627871
441440
278504
147523
60246.2
8020.29
3939.45
28674.8
60780.7
97664.1
83278.9
85824.6
65184
100313
101735
115402
94711.1
79720.8
43802.7
14866.5
-33258.4
-69102.5
-126418
-175255
-239292
-307160
-390308
-473188
-572073
-677743
-797175
-888077
-956967
-986720
-963125
-874666
-733894
-570393
-402709
-227259
-131390
2947.24
34956.1
93481.7
51786
-108837
-267207
-469545
-674668
-870420
-1.06347e+06
-1.18617e+06
-1.27215e+06
-1.31772e+06
-1.31357e+06
-1.23908e+06
-1.11554e+06
-961041
-783256
-604650
-422780
-256217
-103542
18847.1
122361
201656
278914
)
;
    }
}


// ************************************************************************* //
