/*--------------------------------*- C++ -*----------------------------------*\
| =========                 |                                                 |
| \\      /  F ield         | OpenFOAM: The Open Source CFD Toolbox           |
|  \\    /   O peration     | Version:  5.x                                   |
|   \\  /    A nd           | Web:      www.OpenFOAM.org                      |
|    \\/     M anipulation  |                                                 |
\*---------------------------------------------------------------------------*/
FoamFile
{
    version     2.0;
    format      ascii;
    class       volVectorField;
    location    "6000";
    object      U;
}
// * * * * * * * * * * * * * * * * * * * * * * * * * * * * * * * * * * * * * //

dimensions      [0 1 -1 0 0 0 0];

internalField   nonuniform List<vector> 
180
(
(-0.136051 0.133568 41.7981)
(-0.14291 0.137286 41.8477)
(-0.106097 0.104186 41.9483)
(-0.0813632 0.0976331 41.9102)
(-0.0611252 0.0734486 41.8144)
(-0.061988 0.0668575 41.9023)
(-0.100573 0.12267 41.6128)
(-0.0891221 0.117082 41.8479)
(-0.0899969 0.07035 41.7342)
(-0.0715079 0.113966 41.8126)
(-0.0709138 0.134996 41.5535)
(-0.0471696 0.12497 41.801)
(-0.0325037 0.0818796 41.5227)
(0.0086622 0.1013 41.7867)
(-0.0256225 0.106795 41.4668)
(0.0400063 0.0658079 41.6321)
(0.071625 0.0716381 41.7154)
(0.146213 0.0118163 41.4978)
(0.176959 0.00863344 41.7514)
(0.0888072 0.060702 41.514)
(0.099555 0.0656774 41.6381)
(0.0878308 0.0903482 41.5708)
(0.0710599 0.112191 41.6238)
(0.160514 0.0384724 41.4563)
(0.168138 0.0537365 41.5461)
(0.152247 0.0662118 41.6306)
(0.219474 0.0147455 41.4906)
(0.364134 -0.10281 41.4225)
(0.427908 -0.172292 41.6261)
(0.386364 -0.144206 41.6277)
(0.282739 -0.0619334 41.6561)
(0.268954 -0.245227 41.5274)
(0.302417 -0.287671 41.7379)
(0.317215 -0.367291 41.6043)
(0.260649 -0.353421 41.7995)
(0.223402 -0.387544 41.7609)
(0.207946 -0.379545 41.801)
(0.163869 -0.39572 41.9657)
(0.169519 -0.506388 41.8266)
(0.181218 -0.584973 41.9192)
(0.178949 -0.562461 42.0957)
(0.115338 -0.625508 42.0837)
(0.0738207 -0.686706 42.1326)
(0.057884 -0.684371 42.2678)
(0.0597573 -0.642992 42.2266)
(0.0349795 -0.676024 42.3221)
(0.0111009 -0.671834 42.4057)
(-0.0272391 -0.649726 42.4348)
(0.0580224 -0.628457 42.3957)
(0.0617333 -0.520927 42.5107)
(0.0311361 -0.443334 42.5536)
(-0.0181569 -0.41869 42.562)
(0.119717 -0.511209 42.5335)
(0.296597 -0.513404 42.5948)
(0.427488 -0.518622 42.6475)
(0.4831 -0.491289 42.666)
(0.462237 -0.447754 42.709)
(0.413517 -0.409227 42.7473)
(0.367476 -0.33224 42.7434)
(0.324778 -0.31379 42.806)
(0.276367 -0.322806 42.8215)
(0.273214 -0.37408 42.7742)
(0.247277 -0.346244 42.7956)
(0.276137 -0.299754 42.7673)
(0.238974 -0.286505 42.7795)
(0.193284 -0.27566 42.7798)
(0.153399 -0.225335 42.7206)
(0.112166 -0.149059 42.708)
(0.108168 -0.0572758 42.631)
(0.0866762 0.0207323 42.5934)
(0.056608 0.0925784 42.534)
(-0.0702028 0.205408 42.3837)
(-0.23879 0.338872 42.376)
(-0.389286 0.425076 42.125)
(-0.503361 0.566354 42.0112)
(-0.558134 0.603444 41.8676)
(-0.674228 0.675078 41.5542)
(-0.898643 0.856923 41.4675)
(-1.02449 0.897512 41.1655)
(-1.26763 1.0974 40.8993)
(-1.44531 1.18401 40.5579)
(-1.66234 1.30631 40.2184)
(-1.86933 1.49399 39.8333)
(-2.12929 1.75049 39.4734)
(-2.23496 1.7272 38.8749)
(-2.53298 1.9932 38.3837)
(-2.97264 2.30304 37.9079)
(-2.92104 2.2759 37.2155)
(-3.19106 2.54126 36.4934)
(-3.22345 2.71691 35.8595)
(-3.46335 3.01623 35.0123)
(-3.62384 3.17238 34.1622)
(-4.17333 3.77502 33.2244)
(-4.66688 4.21983 32.0903)
(-5.14964 4.65931 30.9172)
(-5.82275 5.06983 29.5796)
(-6.57327 5.54053 28.1952)
(-7.67259 6.29916 26.5327)
(-8.77213 6.98542 24.9207)
(-10.2665 8.03226 22.7871)
(-11.6733 8.87264 20.8418)
(-14.2591 10.8644 17.9219)
(-16.057 11.5278 15.6147)
(-22.9796 18.1494 11.295)
(-24.9087 14.8409 8.93645)
(-72.5357 69.5643 2.05018)
(-77.5376 100.61 -16.8581)
(-59.6211 88.0582 -26.5376)
(-41.4246 74.5809 -38.2225)
(-21.5902 58.7932 -47.5575)
(-1.82837 41.0506 -55.9261)
(15.3928 22.0585 -62.7608)
(30.4591 3.41515 -67.8673)
(42.5791 -14.7971 -71.5041)
(51.8103 -31.7163 -74.2366)
(57.8812 -46.3661 -75.8249)
(61.2452 -58.438 -76.8241)
(61.9963 -66.9132 -77.2652)
(61.4819 -72.2589 -78.0619)
(59.5977 -73.9938 -78.5229)
(57.671 -73.2634 -78.9818)
(55.7728 -71.9344 -81.2589)
(54.5786 -70.1066 -81.4849)
(55.8583 -71.9059 -82.9961)
(56.2216 -72.6911 -84.0653)
(56.2693 -73.5237 -89.2232)
(54.758 -69.7515 -88.4958)
(53.9123 -67.9425 -90.4832)
(52.5067 -64.4796 -92.2254)
(50.9742 -61.7541 -93.5757)
(49.5091 -58.5853 -95.0042)
(47.8822 -55.8152 -96.02)
(46.2366 -52.9361 -96.8662)
(44.4627 -50.3877 -97.3985)
(42.7239 -47.9278 -97.5478)
(40.8671 -45.7522 -97.6276)
(39.0969 -43.7259 -96.9779)
(37.2741 -41.9876 -96.5714)
(35.6245 -40.4587 -94.8873)
(34.1654 -39.374 -93.8923)
(32.893 -38.4806 -91.1286)
(31.9023 -37.9932 -89.2654)
(31.1059 -37.6686 -85.3488)
(30.6933 -37.9076 -82.2218)
(30.3975 -37.9278 -77.4366)
(30.7483 -38.4746 -73.4077)
(30.8977 -39.1739 -68.1531)
(31.8664 -39.7577 -64.4164)
(31.8774 -41.1996 -59.728)
(32.654 -41.9418 -56.4341)
(32.0854 -43.3932 -53.4356)
(32.1905 -44.1501 -51.7075)
(30.9836 -43.6613 -49.4576)
(31.701 -45.7406 -50.7166)
(30.9079 -44.6686 -48.1031)
(32.3929 -46.3714 -51.4927)
(31.0987 -44.754 -50.1818)
(31.7172 -45.6135 -51.5242)
(33.5694 -47.9318 -52.2153)
(33.3326 -47.6793 -49.0304)
(34.232 -49.0545 -47.8791)
(35.0002 -50.7094 -41.6938)
(35.6272 -51.4807 -36.6825)
(36.1076 -54.3605 -28.9496)
(36.9307 -54.3228 -20.4569)
(36.5246 -55.8976 -13.0809)
(36.1627 -56.5385 -4.89739)
(33.945 -55.179 4.66775)
(31.7615 -51.7632 13.4057)
(29.9137 -46.802 22.1726)
(27.96 -40.9715 30.1783)
(26.0736 -34.3879 36.8044)
(24.2614 -28.0095 42.4498)
(22.2586 -21.5244 47.4414)
(20.6942 -15.9732 50.6676)
(18.8075 -10.9021 54.0641)
(17.2175 -6.83323 55.478)
(15.2149 -3.52686 57.1885)
(13.9999 -0.577665 57.7584)
(12.0386 1.07166 57.8034)
)
;

boundaryField
{
    inlet
    {
        type            zeroGradient;
    }
    outlet
    {
        type            zeroGradient;
    }
    repeat_boundary
    {
        type            slip;
    }
    procBoundary1to0
    {
        type            processor;
        value           nonuniform List<vector> 
180
(
(-0.132844 -0.0783268 43.3958)
(-0.129753 -0.0730339 43.5769)
(-0.0943774 -0.0392442 43.6099)
(-0.0709992 -0.0175717 43.6543)
(-0.107807 -0.0510615 43.4356)
(-0.114016 -0.0388996 43.6596)
(-0.147771 -0.0397708 43.5226)
(-0.119187 -0.0264293 43.603)
(-0.102342 -0.0361908 43.647)
(-0.099011 -0.0100762 43.625)
(-0.0945082 0.00602462 43.592)
(-0.105373 -0.0202629 43.5741)
(-0.0904279 -0.0276572 43.6611)
(-0.0592769 -0.00420862 43.6586)
(-0.111738 0.0417452 43.5543)
(-0.0756283 0.0262444 43.6145)
(-0.0511101 0.00750884 43.671)
(0.000562411 0.0120585 43.5623)
(-0.0493825 -0.019844 43.5357)
(-0.150472 -0.078999 43.6061)
(-0.125991 -0.0454692 43.6464)
(0.00383849 -0.0966176 43.4942)
(0.0362156 -0.0691943 43.6198)
(0.00619916 -0.128297 43.5344)
(0.0285021 -0.0267465 43.574)
(0.0548351 0.0146524 43.5291)
(0.11023 -0.168867 43.4911)
(0.142884 -0.441282 43.487)
(0.210099 -0.696731 43.4944)
(0.224642 -1.12624 43.443)
(0.243445 -1.05223 43.6123)
(0.243798 -1.17232 43.5472)
(0.163326 -1.1913 43.6546)
(0.176173 -1.17767 43.6508)
(0.171757 -1.28744 43.6569)
(0.171235 -1.332 43.8368)
(0.17471 -1.4203 43.7417)
(0.121312 -1.35315 43.902)
(0.111431 -1.38597 43.8858)
(0.120978 -1.36858 43.8957)
(0.148317 -1.32484 43.961)
(0.127146 -1.30538 43.939)
(0.126721 -1.24446 43.9854)
(0.116653 -1.20685 44.0635)
(0.0797935 -1.18872 44.0681)
(0.035339 -1.21965 44.0788)
(0.0115912 -1.26618 44.1248)
(0.00168099 -1.28178 44.1678)
(-0.000818902 -1.26958 44.1941)
(-0.00359947 -1.26198 44.3182)
(0.0503004 -0.937624 44.14)
(0.0561041 -0.84709 44.3221)
(0.0463293 -0.830115 44.3667)
(-0.0185279 -0.855788 44.3678)
(-0.068227 -0.512795 44.2909)
(-0.016716 -0.417881 44.4306)
(-0.029519 0.102388 44.1199)
(-0.0752656 0.109901 44.4488)
(-0.0147678 0.389714 44.0305)
(-0.0641445 0.393195 44.2351)
(-0.10782 0.386257 44.1862)
(-0.164746 0.362242 44.0657)
(-0.19543 0.384668 44.1684)
(-0.195669 0.471921 43.9063)
(-0.221633 0.512896 44.0118)
(-0.241994 0.554442 43.9358)
(-0.271574 0.58537 43.8661)
(-0.303649 0.637504 43.8263)
(-0.322483 0.711021 43.7416)
(-0.345986 0.796529 43.685)
(-0.370018 0.89119 43.6795)
(-0.527933 0.768826 43.4937)
(-0.778794 0.576209 43.2541)
(-0.941324 0.5933 43.6097)
(-0.980954 0.587467 43.443)
(-0.969848 0.781 43.4806)
(-1.10404 0.644966 43.3807)
(-1.36571 0.469126 43.3674)
(-1.57345 0.402718 43.443)
(-1.78253 0.447458 43.5221)
(-1.98611 0.534985 43.6478)
(-2.17383 0.501058 43.6524)
(-2.39706 0.577794 43.8434)
(-2.5574 0.652151 43.9791)
(-2.75693 0.683246 44.1174)
(-2.93714 0.734663 44.2809)
(-3.15692 0.78032 44.4623)
(-3.44436 0.858442 44.7324)
(-3.76674 0.930813 44.9159)
(-4.09041 1.09153 45.1666)
(-4.61918 1.33399 45.567)
(-4.9387 1.47185 45.6206)
(-5.94032 1.91066 46.1644)
(-6.48361 2.1412 46.5258)
(-6.6986 2.24331 46.6281)
(-7.71597 2.6192 47.3395)
(-8.3423 2.82607 47.8932)
(-8.25486 2.61805 48.0701)
(-9.26815 2.89123 49.2068)
(-9.69119 3.01187 49.6043)
(-11.1504 3.41295 50.7357)
(-12.2842 3.88742 51.7352)
(-12.8791 4.25723 52.4398)
(-15.9656 5.44159 54.886)
(-18.3019 6.1166 56.9395)
(-21.0292 7.62465 60.1316)
(-27.0854 13.7816 65.1535)
(-32.6125 19.2561 69.1159)
(-37.0417 23.7701 73.961)
(-40.0216 26.0986 76.69)
(-42.4355 26.8445 78.2143)
(-44.3041 26.9333 79.263)
(-46.705 26.8977 78.7697)
(-49.46 27.0463 78.7825)
(-52.6326 27.24 77.352)
(-55.9662 27.7556 76.5436)
(-59.6311 28.2937 74.8085)
(-63.4717 29.2558 73.8348)
(-67.5362 30.0609 72.1557)
(-71.4033 30.8417 71.1313)
(-75.0549 30.8375 69.6301)
(-78.0349 30.2884 68.6351)
(-80.3225 29.0284 67.3471)
(-81.7092 27.0293 66.342)
(-82.3224 24.8751 65.2276)
(-82.2483 22.0736 64.2181)
(-81.2189 19.7521 63.2861)
(-79.4862 16.7738 62.5047)
(-76.9016 14.7832 61.8015)
(-73.8877 11.9787 61.2092)
(-70.5097 10.3513 60.6454)
(-66.7884 7.87608 60.19)
(-63.0826 6.43043 59.743)
(-59.0161 4.32073 59.3547)
(-55.1147 2.94099 58.9787)
(-51.0223 1.22473 58.6312)
(-46.8793 0.0341228 58.2028)
(-42.947 -1.1179 57.9721)
(-38.6547 -1.88378 57.2321)
(-34.497 -2.78597 56.779)
(-30.144 -3.31064 55.8597)
(-25.7099 -3.9978 54.9479)
(-22.4663 -4.0602 54.1117)
(-19.0023 -4.89005 52.2658)
(-17.7743 -4.81316 51.2107)
(-17.3612 -4.96832 49.74)
(-17.6414 -4.5629 48.3841)
(-19.8809 -3.59601 47.1902)
(-22.0444 -2.59494 45.0933)
(-24.4275 -0.843968 44.0154)
(-25.4326 1.32583 41.3516)
(-27.2465 2.25429 39.4117)
(-29.856 2.74778 36.5525)
(-32.0784 2.43392 33.9445)
(-33.6001 -0.47006 30.8796)
(-35.4393 -5.51058 27.9017)
(-35.9458 -11.4321 25.8052)
(-32.6797 -17.9778 23.552)
(-24.7456 -23.8307 20.5155)
(-11.6621 -26.5208 20.2535)
(4.0123 -29.5999 20.6978)
(18.6535 -35.4103 20.2985)
(30.3256 -44.0281 20.047)
(39.0029 -53.3404 21.1367)
(45.0149 -62.1269 22.6077)
(48.6135 -68.4225 25.4746)
(49.966 -72.2813 28.0735)
(49.5131 -73.1318 31.6176)
(47.7291 -71.7247 34.7072)
(44.8525 -67.8924 38.6124)
(41.4274 -62.5611 41.4265)
(37.4117 -55.9407 44.9253)
(33.4943 -48.819 46.9898)
(29.3519 -41.445 49.6641)
(25.7196 -34.3705 50.681)
(22.0924 -27.9245 52.4854)
(19.134 -21.7952 52.3317)
(16.1925 -17.43 53.4498)
(13.8891 -12.2836 52.564)
(11.4721 -10.5526 52.5152)
)
;
    }
    procBoundary1to3
    {
        type            processor;
        value           nonuniform List<vector> 
180
(
(0.0764567 0.132219 43.0102)
(0.0632266 0.11339 43.3451)
(0.0545741 0.106984 43.3092)
(0.0281017 0.0891263 43.116)
(0.00639147 0.101017 43.278)
(0.00753267 0.119397 43.3423)
(0.018156 0.118708 43.171)
(0.0431693 0.144243 43.2722)
(0.0418837 0.148331 43.3359)
(0.129083 0.260375 43.3613)
(0.0566219 0.167553 43.2299)
(0.0511478 0.14897 43.3903)
(0.0544816 0.147454 43.4176)
(0.0873977 0.183944 43.3734)
(0.110352 0.181619 43.4577)
(0.108421 0.104093 43.3947)
(0.123729 0.0828752 43.4773)
(0.13672 0.0624778 43.5285)
(0.127791 0.148942 43.356)
(0.140618 0.171486 43.6045)
(0.147033 0.245735 43.4385)
(0.163431 0.259153 43.5334)
(0.169285 0.248935 43.6238)
(0.161137 0.293038 43.5455)
(0.156495 0.324328 43.6186)
(0.136002 0.314262 43.6999)
(0.383132 0.266536 43.5192)
(0.389824 0.248347 43.7128)
(0.387547 0.221425 43.7568)
(0.386593 0.270563 43.7306)
(0.357501 0.32463 43.7491)
(0.314416 0.234033 43.86)
(0.413807 0.112285 43.7502)
(0.585412 -0.144595 43.6639)
(0.629261 -0.122313 43.8703)
(0.613061 -0.101502 43.8909)
(0.540364 -0.122448 43.7823)
(0.464655 -0.232479 43.7039)
(0.441463 -0.232318 43.7865)
(0.173771 -0.362597 43.5702)
(0.0794424 -0.355776 43.5413)
(0.0425036 -0.367722 43.5157)
(-0.0307486 -0.413507 43.4737)
(-0.430464 -0.388705 43.0509)
(-0.493243 -0.286531 43.084)
(-0.51439 -0.288081 43.1807)
(-0.689085 -0.252654 42.8286)
(-0.757633 -0.287763 42.7096)
(-0.729494 -0.202443 42.4371)
(-0.706447 -0.12206 42.5472)
(-0.747225 -0.109073 42.5458)
(-0.764357 -0.0258351 42.1181)
(-0.771254 -0.0131036 42.1975)
(-0.78719 0.00812922 42.1853)
(-0.655444 0.0731992 41.8023)
(-0.650799 0.115425 41.8938)
(-0.69662 0.0750765 41.807)
(-0.684783 0.0983155 41.7388)
(-0.418299 0.211605 41.5469)
(-0.242897 0.271952 41.4843)
(-0.0982506 0.337264 41.3895)
(-0.0923509 0.390333 41.4885)
(-0.111853 0.402318 41.4331)
(-0.160926 0.400891 41.4074)
(0.0264744 0.474604 41.2617)
(0.166743 0.567896 41.3127)
(0.248707 0.640844 41.1923)
(0.200099 0.743291 41.4046)
(0.209936 0.775838 41.2486)
(0.160908 0.874101 41.3494)
(0.104106 0.92757 41.4298)
(0.203914 0.909256 41.2556)
(0.0998392 1.03068 41.4741)
(0.0111873 1.05602 41.4467)
(-0.0251134 1.21528 41.4739)
(-0.0803296 1.37891 41.559)
(-0.222769 1.3273 41.5724)
(-0.175176 1.23748 41.5726)
(-0.219903 1.32539 41.618)
(-0.297672 1.44889 41.71)
(-0.335273 1.54815 41.6454)
(-0.464098 1.63 41.7408)
(-0.635365 1.7562 41.8138)
(-0.715099 1.97875 41.7573)
(-0.759473 2.35016 41.9235)
(-0.893403 2.50338 41.936)
(-1.08645 2.74094 42.0465)
(-1.20517 2.85591 42.0739)
(-1.52679 3.22643 42.2822)
(-1.71692 3.3847 42.3114)
(-2.14412 3.78466 42.4655)
(-2.26901 3.99462 42.4948)
(-2.74808 4.59409 42.7335)
(-2.95105 4.85771 42.7976)
(-3.51466 5.50402 43.0552)
(-3.40938 5.65711 43.0749)
(-3.27828 5.9547 43.3575)
(-3.34113 6.40264 43.6526)
(-3.6326 6.84237 43.9867)
(-4.04305 7.47706 44.3416)
(-4.76634 8.31282 44.7261)
(-5.67393 9.46144 45.3661)
(-6.63725 10.7194 45.6774)
(-8.28184 12.6853 46.9747)
(-9.87346 14.7645 47.4368)
(-12.1268 16.4705 50.6877)
(-19.5897 26.73 55.0743)
(-22.5019 31.3726 58.7583)
(-24.6164 37.3598 63.8529)
(-25.409 42.2126 69.5337)
(-24.6558 46.5804 71.8612)
(-23.3835 50.6509 75.5086)
(-20.4131 53.9071 77.3092)
(-18.0122 56.5023 79.6104)
(-13.8442 58.818 80.3376)
(-11.5932 60.9039 81.5641)
(-7.51717 63.1634 81.8157)
(-5.42328 65.4746 82.1492)
(-2.69461 67.637 82.369)
(-0.407564 70.3855 81.7515)
(1.45497 72.1747 82.2588)
(4.28567 74.5909 81.1729)
(6.75262 75.9582 81.9484)
(9.96644 76.8559 80.7699)
(13.4745 77.4354 81.2701)
(17.1764 77.7964 80.4544)
(19.9782 77.6908 80.4419)
(22.0011 76.764 79.8387)
(23.2195 75.1667 80.4085)
(24.0315 71.5138 79.7651)
(24.1883 67.8245 80.3206)
(23.8389 62.7986 79.5024)
(23.1785 58.1623 80.1719)
(22.2851 52.2362 78.5978)
(21.224 47.3063 79.4048)
(20.0654 40.8603 77.2269)
(19.1577 35.1566 77.5954)
(18.2338 28.454 75.344)
(17.7676 21.517 74.3753)
(17.8642 13.708 72.4143)
(18.0482 5.94223 69.496)
(19.0812 -2.83598 67.6261)
(19.2406 -12.1726 63.282)
(21.5133 -22.2599 60.3155)
(22.4423 -30.4578 55.168)
(24.9519 -36.5687 50.8823)
(27.0196 -39.4993 45.7937)
(31.0305 -38.2555 40.7992)
(36.0546 -30.861 36.8052)
(41.5887 -19.7316 32.4265)
(45.855 -6.05732 29.484)
(48.4438 8.17164 27.7738)
(49.1482 20.7016 26.3131)
(47.5529 31.7535 26.2903)
(44.0757 40.3249 25.5919)
(39.7605 46.22 26.3076)
(36.4996 49.6619 27.2092)
(33.9137 47.9515 29.3374)
(33.7147 38.3015 29.7034)
(37.21 25.6833 32.4967)
(42.0341 10.8559 33.3461)
(47.0886 -4.15246 36.1882)
(50.8753 -19.5031 37.2358)
(52.6041 -32.7263 38.8794)
(52.0371 -43.5902 39.2104)
(49.5908 -50.7368 39.8814)
(45.4255 -54.4275 39.6732)
(39.5337 -54.2541 39.5643)
(32.5849 -51.0514 39.0417)
(25.6323 -45.6477 38.2077)
(19.6087 -38.8642 37.1646)
(14.1993 -31.097 36.719)
(10.0964 -23.1059 35.985)
(6.49449 -14.9919 36.1968)
(3.83236 -7.16408 35.716)
(1.26303 0.0324746 36.4801)
(-0.321699 5.7748 36.337)
(-1.49575 10.7866 37.4779)
(-1.98008 14.188 37.3494)
(-3.41275 16.4078 38.6374)
)
;
    }
}


// ************************************************************************* //
