/*--------------------------------*- C++ -*----------------------------------*\
| =========                 |                                                 |
| \\      /  F ield         | OpenFOAM: The Open Source CFD Toolbox           |
|  \\    /   O peration     | Version:  5.x                                   |
|   \\  /    A nd           | Web:      www.OpenFOAM.org                      |
|    \\/     M anipulation  |                                                 |
\*---------------------------------------------------------------------------*/
FoamFile
{
    version     2.0;
    format      ascii;
    class       surfaceScalarField;
    location    "10000";
    object      phi;
}
// * * * * * * * * * * * * * * * * * * * * * * * * * * * * * * * * * * * * * //

dimensions      [0 3 -1 0 0 0 0];

internalField   nonuniform List<scalar> 
179
(
-250.028
-250.029
-250.03
-250.03
-250.032
-250.033
-250.035
-250.037
-250.04
-250.043
-250.046
-250.05
-250.054
-250.059
-250.064
-250.07
-250.076
-250.084
-250.092
-250.1
-250.11
-250.121
-250.133
-250.146
-250.16
-250.175
-250.193
-250.211
-250.232
-250.254
-250.279
-250.306
-250.335
-250.367
-250.402
-250.44
-250.482
-250.527
-250.576
-250.629
-250.687
-250.75
-250.818
-250.892
-250.971
-251.057
-251.149
-251.249
-251.356
-251.47
-251.593
-251.723
-251.862
-252.009
-252.165
-252.328
-252.5
-252.678
-252.863
-253.053
-253.246
-253.441
-253.635
-253.824
-254.006
-254.174
-254.323
-254.445
-254.534
-254.579
-254.57
-254.496
-254.334
-254.059
-253.654
-253.116
-252.463
-251.746
-251.074
-250.632
-250.448
-250.414
-267.012
-269.396
-272.999
-275.822
-281.505
-286.104
-285.109
-271.465
-263.806
-248.325
-245.161
-233.126
-225.116
-223.059
-206.555
-205.893
-203.324
-205.488
-211.219
-213.604
-214.524
-214.342
-213.959
-215.601
-218.467
-221.73
-224.998
-228.065
-230.845
-233.313
-235.483
-237.379
-239.033
-240.474
-241.728
-242.82
-243.769
-244.595
-245.312
-245.936
-246.479
-246.95
-247.359
-247.715
-248.023
-248.291
-248.522
-248.722
-248.895
-249.045
-249.173
-249.284
-249.38
-249.463
-249.534
-249.598
-249.653
-249.701
-249.742
-249.778
-249.81
-249.837
-249.86
-249.88
-249.897
-249.912
-249.925
-249.936
-249.945
-249.953
-249.96
-249.966
-249.971
-249.976
-249.979
-249.982
-249.985
-249.987
-249.989
-249.991
-249.993
-249.994
-249.995
-249.996
-249.997
-249.997
-249.998
-249.998
-249.998
-249.999
-249.999
-249.999
-249.999
-249.999
-249.999
-249.999
-249.999
)
;

boundaryField
{
    inlet
    {
        type            calculated;
        value           uniform -249.999;
    }
    outlet
    {
        type            calculated;
        value           uniform 250.028;
    }
    repeat_boundary
    {
        type            calculated;
        value           uniform 0;
    }
    procBoundary1to0
    {
        type            processor;
        value           nonuniform List<scalar> 
180
(
8.88865e-06
1.36894e-05
2.13254e-05
2.95438e-05
3.7973e-05
4.65906e-05
5.54331e-05
6.44858e-05
7.36891e-05
8.29686e-05
9.22254e-05
0.000101332
0.000110125
0.000118396
0.000125877
0.000132233
0.000137041
0.000139752
0.000139726
0.000136662
0.000128578
0.000113842
9.32083e-05
6.35134e-05
2.09473e-05
-3.89569e-05
-0.000105401
-0.000187341
-0.000280101
-0.000387011
-0.000515807
-0.000676316
-0.000876478
-0.00112366
-0.00142592
-0.0017905
-0.00222742
-0.00275088
-0.00337612
-0.00412079
-0.00500551
-0.00605429
-0.00729511
-0.00876055
-0.0104885
-0.012523
-0.0149154
-0.0177251
-0.0210215
-0.0248848
-0.0294085
-0.0347009
-0.040888
-0.0481159
-0.0565541
-0.0663994
-0.0778794
-0.0912589
-0.106845
-0.124993
-0.146116
-0.170694
-0.199282
-0.232524
-0.271169
-0.316082
-0.368269
-0.428886
-0.499253
-0.580818
-0.67504
-0.783004
-0.904557
-1.0365
-1.16937
-1.28328
-1.34565
-1.31985
-1.16159
-0.837187
-0.0515187
-0.0460756
7.13009
1.41758
4.41762
2.24148
5.73918
10.2792
0.0389663
-6.27005
-1.37027
-8.9519
-0.860036
-3.30287
0.243367
1.0952
-1.77224
-0.766831
-0.421273
1.14555
0.994406
0.619978
1.60811
-0.120747
-1.31187
-0.27418
0.399246
0.630074
0.689995
0.661714
0.592516
0.510085
0.429293
0.356394
0.292998
0.238772
0.192765
0.15393
0.121282
0.0939506
0.0711762
0.0523032
0.0367686
0.0240939
0.0138786
0.00579863
-0.00138866
-0.00712722
-0.0116418
-0.0151541
-0.0179051
-0.0199523
-0.0213948
-0.0225181
-0.022871
-0.0222763
-0.0215596
-0.0197487
-0.0186173
-0.017595
-0.0166339
-0.0157239
-0.014856
-0.0140241
-0.013224
-0.012453
-0.0117094
-0.0109912
-0.0102977
-0.00962959
-0.00898771
-0.00837256
-0.00778539
-0.00722636
-0.00669603
-0.00619511
-0.00572381
-0.00528183
-0.00486848
-0.00448317
-0.00412507
-0.00379318
-0.00348638
-0.0032035
-0.00294332
-0.00270459
-0.00248611
-0.00228665
-0.00210507
-0.00194025
-0.00179111
-0.00165666
-0.00153597
-0.00142817
-0.00133256
-0.00124861
-0.00117632
-0.00111647
-0.00107127
-0.00105995
)
;
    }
    procBoundary1to3
    {
        type            processor;
        value           nonuniform List<scalar> 
180
(
0.000495406
0.00059156
0.000760256
0.00097726
0.00122751
0.00150218
0.0017973
0.00211228
0.00244847
0.00280835
0.00319503
0.00361198
0.00406303
0.00455229
0.00508422
0.00566363
0.00629572
0.00698614
0.00774101
0.00856698
0.00947127
0.0104617
0.0115469
0.012736
0.0140391
0.0154671
0.0170317
0.0187459
0.0206235
0.0226797
0.024931
0.0273955
0.0300927
0.0330435
0.0362707
0.0397986
0.0436535
0.0478636
0.0524591
0.0574724
0.0629383
0.0688936
0.0753779
0.0824333
0.0901042
0.0984376
0.107482
0.11729
0.127914
0.139411
0.151838
0.165253
0.179714
0.19528
0.212009
0.229955
0.249171
0.269704
0.291594
0.314876
0.339571
0.365691
0.393236
0.422195
0.452544
0.484263
0.517339
0.551806
0.58784
0.625938
0.666518
0.708942
0.74245
0.760927
0.764911
0.745048
0.69291
0.60288
0.489681
0.395323
-0.132932
0.0129831
9.46735
0.966705
-0.814694
0.581692
-0.0567529
-5.67955
-1.03441
-7.37392
-6.28842
-6.52926
-2.30396
-8.73248
-8.25262
-3.15317
-14.7315
0.105201
-2.14793
1.0184
4.73607
1.76459
-0.68843
-0.0600972
0.927675
1.91662
2.46583
2.63329
2.57715
2.40597
2.18697
1.95845
1.74002
1.54006
1.36086
1.20184
1.06133
0.93735
0.828021
0.731614
0.646595
0.571606
0.505455
0.447087
0.395578
0.350113
0.309975
0.274531
0.243221
0.215558
0.191111
0.169495
0.150377
0.133457
0.118473
0.105193
0.0934215
0.082982
0.0737298
0.0655301
0.0582623
0.0518196
0.0461072
0.0410413
0.0365476
0.03256
0.0290204
0.0258774
0.0230854
0.0206041
0.018398
0.0164356
0.0146894
0.0131349
0.0117503
0.0105166
0.00941691
0.00843626
0.00756142
0.00678071
0.00608376
0.00546138
0.00490546
0.00440878
0.00396497
0.00356837
0.00321398
0.00289735
0.00261456
0.00236214
0.00213701
0.00193646
0.00175808
0.00159979
0.00145981
0.00133676
0.00122968
0.00113892
0.00106782
0.00103773
)
;
    }
}


// ************************************************************************* //
