/*--------------------------------*- C++ -*----------------------------------*\
| =========                 |                                                 |
| \\      /  F ield         | OpenFOAM: The Open Source CFD Toolbox           |
|  \\    /   O peration     | Version:  5.x                                   |
|   \\  /    A nd           | Web:      www.OpenFOAM.org                      |
|    \\/     M anipulation  |                                                 |
\*---------------------------------------------------------------------------*/
FoamFile
{
    version     2.0;
    format      ascii;
    class       surfaceScalarField;
    location    "5000";
    object      phi;
}
// * * * * * * * * * * * * * * * * * * * * * * * * * * * * * * * * * * * * * //

dimensions      [0 3 -1 0 0 0 0];

internalField   nonuniform List<scalar> 
179
(
6.15322e+06
6.1546e+06
6.15663e+06
6.15881e+06
6.16251e+06
6.17001e+06
6.17584e+06
6.18513e+06
6.19321e+06
6.20361e+06
6.21633e+06
6.22539e+06
6.23407e+06
6.24159e+06
6.24937e+06
6.25563e+06
6.25792e+06
6.25997e+06
6.26968e+06
6.29184e+06
6.31313e+06
6.34222e+06
6.36264e+06
6.37557e+06
6.38113e+06
6.38278e+06
6.38988e+06
6.39801e+06
6.40777e+06
6.41716e+06
6.41881e+06
6.41953e+06
6.41987e+06
6.42367e+06
6.42933e+06
6.43162e+06
6.43427e+06
6.4367e+06
6.43641e+06
6.43806e+06
6.44446e+06
6.45133e+06
6.45503e+06
6.46854e+06
6.48067e+06
6.48485e+06
6.49221e+06
6.50841e+06
6.51875e+06
6.52163e+06
6.52279e+06
6.52434e+06
6.52205e+06
6.52341e+06
6.53322e+06
6.54346e+06
6.54981e+06
6.54731e+06
6.53895e+06
6.52338e+06
6.51284e+06
6.50407e+06
6.49079e+06
6.47208e+06
6.4515e+06
6.44179e+06
6.43993e+06
6.44035e+06
6.4357e+06
6.42659e+06
6.42363e+06
6.41452e+06
6.39934e+06
6.39673e+06
6.39842e+06
6.39973e+06
6.39888e+06
6.41668e+06
6.4446e+06
6.47288e+06
6.51458e+06
6.55426e+06
6.60125e+06
6.6446e+06
6.6775e+06
6.71911e+06
6.7599e+06
6.79522e+06
6.82553e+06
6.86109e+06
6.91152e+06
6.97089e+06
7.02815e+06
7.07955e+06
7.13521e+06
7.19245e+06
7.24568e+06
7.31743e+06
7.36201e+06
7.39262e+06
7.4214e+06
7.44012e+06
7.4628e+06
7.45557e+06
7.40913e+06
7.36867e+06
7.27233e+06
7.26459e+06
7.26772e+06
7.32644e+06
8.64676e+06
1.00579e+07
1.13947e+07
1.27722e+07
1.39793e+07
1.50464e+07
1.58752e+07
1.64899e+07
1.68329e+07
1.6947e+07
1.68295e+07
1.65543e+07
1.61741e+07
1.57589e+07
1.53979e+07
1.51082e+07
1.49104e+07
1.47659e+07
1.46548e+07
1.45244e+07
1.43704e+07
1.41867e+07
1.39563e+07
1.36848e+07
1.33238e+07
1.29242e+07
1.24235e+07
1.1883e+07
1.1299e+07
1.06793e+07
9.87492e+06
8.76034e+06
7.32878e+06
5.64804e+06
3.83542e+06
2.01247e+06
576394
-114611
-718969
-869333
-1.35526e+06
-1.4418e+06
-1.04029e+06
-259921
739457
1.89799e+06
3.15795e+06
4.44675e+06
5.69962e+06
6.85949e+06
7.82415e+06
8.59255e+06
9.16667e+06
9.5588e+06
9.7938e+06
9.89726e+06
9.89615e+06
9.81058e+06
9.66721e+06
9.47588e+06
9.26314e+06
9.03417e+06
8.80587e+06
8.57101e+06
8.3656e+06
8.171e+06
8.01507e+06
7.84376e+06
7.69114e+06
)
;

boundaryField
{
    inlet
    {
        type            calculated;
        value           uniform 7.55739e+06;
    }
    outlet
    {
        type            calculated;
        value           uniform -6.15297e+06;
    }
    repeat_boundary
    {
        type            calculated;
        value           uniform 0;
    }
    procBoundary0to1
    {
        type            processor;
        value           nonuniform List<scalar> 
180
(
-620.641
-1698.94
-2225.45
-2446.15
-3640.84
-6277.83
-4406.04
-7014.61
-5846.33
-8144.93
-10069.2
-6779.13
-6837.9
-5763.73
-5746.35
-3523.4
-338.198
-804.67
-5189.28
-11195
-8706.43
-13110.6
-10258.1
-4429.73
210.293
1817.48
-2452.7
-2587.71
-2495.61
-1365.63
-1381.29
-1690.24
-1581.05
-1933.1
-2232.42
-2628.28
-3050.52
-3596.64
-4105.5
-6032.23
-7829.75
-8213.36
-9647.35
-19067.5
-16164.5
-9701.21
-10174.4
-16267.8
-12464.5
-10569
-9870.57
-8158.51
-4838.18
-3643.02
-6346.06
-4307.96
-601.751
3949.6
5235.92
8390.35
4133.02
3640.01
8805.27
12897.6
12179.5
2310.57
-2939.94
-5601.38
-1771
3099.52
-3300.09
-1235.98
3676.76
-973.703
-7179.85
-7465.93
-8118.01
-16769.4
-26773.2
-27718.3
-37196.4
-39308.8
-42099.7
-38743
-30904.4
-29283.4
-28991.9
-28625
-26502.5
-31504.8
-33859
-43171.5
-44895.1
-50166.1
-66030.6
-71301.7
-74679.6
-99348
-81107.3
-98246.1
-91565.7
-95278.5
-96250.3
-92038.4
-91646.5
-110554
-86887.6
-218495
-294208
-425946
-1.79619e+06
-2.07265e+06
-2.27224e+06
-2.48989e+06
-2.52717e+06
-2.39209e+06
-2.16246e+06
-1.85107e+06
-1.5064e+06
-1.14808e+06
-817236
-538961
-342096
-224342
-189267
-205837
-244940
-254545
-233808
-210005
-182747
-145959
-104560
-68498.4
-23642.3
20885.4
85272.1
118724
128498
147298
182758
271714
337087
389070
407815
362521
150987
62590.7
302285
189003
699096
817019
849466
974894
1.12429e+06
1.23209e+06
1.28232e+06
1.27664e+06
1.2243e+06
1.14646e+06
1.11845e+06
1.06406e+06
1.00131e+06
934629
862618
788888
717121
650093
587101
531846
479409
429417
389100
356544
309557
276153
227554
221295
207773
145648
)
;
    }
    procBoundary0to2
    {
        type            processor;
        value           nonuniform List<scalar> 
180
(
362.301
320.455
203.613
268.207
-64.794
-1221.27
-1420.67
-2278.38
-2231.32
-2251.59
-2657.14
-2273.71
-1843.74
-1754.72
-2034.56
-2741.57
-1954.2
-1240.68
-4523.69
-10962.1
-12588.2
-15981
-10156.8
-8505.78
-5771.68
-3461.59
-4651.52
-5540.18
-7268.89
-8013.72
-270.136
969.988
1236.28
-1861.06
-3428.66
339.159
399.054
1170.22
4389.59
4385.12
1432.5
1341.9
5948.48
5552.77
4036.63
5518.21
2814.32
74.6007
2116.13
7695.17
8706.45
6613.63
7125.27
2284.9
-3470.12
-5927.58
-5753.86
-1451.07
3119.61
7187.81
6406.77
5124.55
4473.34
5812.89
8400.52
7401.69
4799.67
5184.56
6422.23
6008.35
6258.22
10348.2
11506.8
3584.96
5496.4
6149.4
8969.52
-1024.23
-1144.59
-566.473
-4499.87
-370.857
-4895.35
-4603.65
-2004.3
-12319.3
-11802.5
-6693.2
-3813.91
-4056.95
-16570.9
-16199.3
-12361.4
-1239.33
10380.4
14057.2
21448
27602.5
36524.7
67631.5
62788
76558.3
73566.7
99272.5
138088
151010
183225
226234
291082
367228
475875
661524
935457
1.11238e+06
1.32008e+06
1.32496e+06
1.33365e+06
1.23636e+06
1.16344e+06
1.03401e+06
934682
814189
722273
639520
550255
495532
442768
399074
344862
340473
336729
329663
334945
340017
384575
378715
415441
421755
455498
472483
621588
842862
1.09447e+06
1.29167e+06
1.4048e+06
1.46043e+06
1.28511e+06
628428
302059
-38652.6
-213156
-730470
-1.25098e+06
-1.75526e+06
-2.12367e+06
-2.39063e+06
-2.54229e+06
-2.56544e+06
-2.47716e+06
-2.30634e+06
-2.08311e+06
-1.83246e+06
-1.57544e+06
-1.32676e+06
-1.09762e+06
-892354
-716009
-564523
-443726
-340520
-266663
-200450
-160801
-121681
-104154
-81550.1
-71627
-49980.8
-55158.1
-11892.6
)
;
    }
}


// ************************************************************************* //
