/*--------------------------------*- C++ -*----------------------------------*\
| =========                 |                                                 |
| \\      /  F ield         | OpenFOAM: The Open Source CFD Toolbox           |
|  \\    /   O peration     | Version:  5.x                                   |
|   \\  /    A nd           | Web:      www.OpenFOAM.org                      |
|    \\/     M anipulation  |                                                 |
\*---------------------------------------------------------------------------*/
FoamFile
{
    version     2.0;
    format      ascii;
    class       surfaceScalarField;
    location    "6000";
    object      phi;
}
// * * * * * * * * * * * * * * * * * * * * * * * * * * * * * * * * * * * * * //

dimensions      [0 3 -1 0 0 0 0];

internalField   nonuniform List<scalar> 
179
(
-250.019
-250.02
-250.02
-250.021
-250.023
-250.024
-250.026
-250.028
-250.03
-250.033
-250.036
-250.04
-250.044
-250.048
-250.053
-250.059
-250.065
-250.072
-250.08
-250.089
-250.099
-250.11
-250.122
-250.136
-250.151
-250.167
-250.186
-250.207
-250.23
-250.256
-250.285
-250.317
-250.352
-250.392
-250.436
-250.485
-250.54
-250.601
-250.67
-250.746
-250.831
-250.925
-251.031
-251.149
-251.281
-251.429
-251.594
-251.778
-251.984
-252.215
-252.473
-252.762
-253.086
-253.448
-253.855
-254.31
-254.821
-255.394
-256.037
-256.758
-257.567
-258.477
-259.498
-260.645
-261.934
-263.383
-265.012
-266.845
-268.906
-271.225
-273.835
-276.772
-280.076
-283.786
-287.93
-292.492
-297.353
-302.194
-306.373
-308.882
-308.155
-308.117
-302.654
-301.601
-295.245
-293.075
-283.045
-271.057
-272.939
-283.84
-287.789
-299.393
-298.779
-301.446
-300.773
-300.079
-306.673
-307.428
-308.305
-306.145
-302.169
-298.333
-290.006
-285.687
-283.616
-280.066
-276.063
-272.275
-268.903
-265.97
-263.449
-261.293
-259.456
-257.895
-256.568
-255.444
-254.492
-253.688
-253.009
-252.439
-251.96
-251.559
-251.224
-250.945
-250.715
-250.524
-250.368
-250.24
-250.136
-250.053
-249.988
-249.936
-249.897
-249.866
-249.844
-249.828
-249.818
-249.813
-249.811
-249.813
-249.816
-249.821
-249.827
-249.834
-249.842
-249.849
-249.858
-249.866
-249.874
-249.882
-249.889
-249.897
-249.904
-249.911
-249.918
-249.924
-249.93
-249.935
-249.94
-249.945
-249.949
-249.954
-249.958
-249.961
-249.965
-249.968
-249.971
-249.974
-249.976
-249.979
-249.981
-249.983
-249.985
-249.987
-249.989
-249.99
-249.992
-249.994
-249.995
)
;

boundaryField
{
    inlet
    {
        type            calculated;
        value           uniform -249.997;
    }
    outlet
    {
        type            calculated;
        value           uniform 250.019;
    }
    repeat_boundary
    {
        type            calculated;
        value           uniform 0;
    }
    procBoundary0to1
    {
        type            processor;
        value           nonuniform List<scalar> 
180
(
1.31668e-06
2.93696e-06
6.05652e-06
9.74868e-06
1.35107e-05
1.82102e-05
2.37805e-05
3.03907e-05
3.82252e-05
4.7483e-05
5.83929e-05
7.12269e-05
8.60733e-05
0.000102654
0.000121844
0.000144284
0.000170682
0.000201815
0.000238575
0.000281971
0.000333152
0.000393451
0.000464424
0.00054789
0.00064597
0.000761135
0.000896255
0.00105466
0.0012402
0.00145735
0.00171128
0.00200799
0.0023544
0.00275855
0.00322973
0.00377869
0.00441787
0.00516164
0.00602662
0.007032
0.00819998
0.00955614
0.01113
0.0129555
0.0150718
0.0175239
0.0203638
0.0236513
0.0274553
0.0318549
0.0369414
0.0428194
0.0496095
0.0574501
0.0665003
0.0769428
0.0889876
0.102876
0.118884
0.13733
0.158579
0.18305
0.211224
0.243653
0.280972
0.323905
0.373286
0.430066
0.495332
0.570319
0.656425
0.755191
0.868126
0.996025
1.13676
1.27986
1.39574
1.43126
1.29395
0.880852
-0.106842
-0.0516296
-6.53506
-1.14651
-4.37923
-2.2937
-5.57268
-9.20672
0.0165124
8.7082
2.06832
14.0537
1.32138
5.99912
0.86382
1.42476
7.03643
1.82585
0.197764
-1.85458
-2.19718
-1.9529
-3.40255
-1.18306
-0.695945
-1.61024
-1.95002
-1.88794
-1.69312
-1.47384
-1.26596
-1.08044
-0.919185
-0.780513
-0.661704
-0.560055
-0.473172
-0.39898
-0.335692
-0.281763
-0.235863
-0.196844
-0.163717
-0.135631
-0.111863
-0.0918481
-0.0750722
-0.0611029
-0.0490457
-0.0386648
-0.0300141
-0.0228665
-0.0170862
-0.0130917
-0.00913825
-0.00556397
-0.0026146
-0.00031479
0.00136112
0.0026119
0.00339504
0.00393365
0.00436061
0.00466921
0.0048648
0.00496339
0.00498154
0.00493479
0.00483694
0.00469987
0.0045335
0.00434626
0.00414492
0.00393497
0.00372113
0.00350709
0.00329575
0.00308931
0.00288941
0.00269728
0.00251374
0.00233937
0.00217451
0.0020193
0.0018738
0.00173793
0.00161156
0.0014945
0.00138654
0.00128745
0.001197
0.00111495
0.00104107
0.000975147
0.000916959
0.000866314
0.000823068
0.000787289
0.000760011
0.000754557
)
;
    }
    procBoundary0to2
    {
        type            processor;
        value           nonuniform List<scalar> 
180
(
0.000367819
0.000480307
0.000667195
0.000896297
0.00115042
0.00142264
0.00171182
0.00201957
0.00234864
0.00270236
0.00308435
0.00349861
0.00394944
0.00444156
0.00498012
0.00557078
0.00621975
0.00693391
0.00772082
0.00858887
0.00954735
0.0106066
0.0117779
0.0130741
0.0145092
0.0160988
0.0178604
0.0198132
0.0219788
0.0243811
0.0270467
0.0300054
0.0332901
0.0369376
0.0409891
0.0454901
0.0504917
0.0560507
0.0622305
0.0691022
0.0767447
0.0852465
0.0947063
0.105234
0.116954
0.130003
0.144535
0.160722
0.178758
0.198858
0.221264
0.246245
0.274103
0.305177
0.339845
0.378532
0.421711
0.469915
0.523737
0.583843
0.65098
0.725981
0.809782
0.903432
1.00811
1.12512
1.25594
1.40223
1.56581
1.74874
1.95326
2.18164
2.43558
2.71402
3.00707
3.28277
3.46485
3.41022
2.88471
1.62817
-0.620437
0.0139443
1.07246
0.0930359
-1.97689
0.124021
-4.45742
-2.78066
1.86469
2.19364
1.8801
-2.4493
-1.93536
-3.33212
-1.53748
-2.11816
-0.442321
-1.07127
0.67957
-0.305585
-1.77828
-1.88292
-4.92515
-3.13586
-1.3747
-1.93976
-2.05267
-1.89961
-1.67888
-1.45856
-1.25567
-1.07499
-0.917386
-0.7814
-0.664595
-0.564449
-0.478674
-0.405273
-0.34252
-0.288921
-0.243188
-0.20421
-0.171028
-0.142818
-0.118866
-0.0985606
-0.0813772
-0.0668636
-0.0546319
-0.0443463
-0.0357169
-0.0284948
-0.0224672
-0.0174541
-0.0133116
-0.00991985
-0.00721358
-0.00505496
-0.0030022
-0.00105604
6.38052e-05
0.00107488
0.00172462
0.00225614
0.0026612
0.00295295
0.00314746
0.0032608
0.00330821
0.00330303
0.00325649
0.00317838
0.00307689
0.00295868
0.0028291
0.00269245
0.00255213
0.00241083
0.00227066
0.00213319
0.00199965
0.0018709
0.00174761
0.0016302
0.00151896
0.00141407
0.00131562
0.00122364
0.00113811
0.00105895
0.000986097
0.000919459
0.000858922
0.000804381
0.000755725
0.000712837
0.000675636
0.000644302
0.000620235
0.000610898
)
;
    }
}


// ************************************************************************* //
