/*--------------------------------*- C++ -*----------------------------------*\
| =========                 |                                                 |
| \\      /  F ield         | OpenFOAM: The Open Source CFD Toolbox           |
|  \\    /   O peration     | Version:  5.x                                   |
|   \\  /    A nd           | Web:      www.OpenFOAM.org                      |
|    \\/     M anipulation  |                                                 |
\*---------------------------------------------------------------------------*/
FoamFile
{
    version     2.0;
    format      ascii;
    class       volScalarField;
    location    "0.04";
    object      p;
}
// * * * * * * * * * * * * * * * * * * * * * * * * * * * * * * * * * * * * * //

dimensions      [0 2 -2 0 0 0 0];

internalField   nonuniform List<scalar> 
2250
(
-6.03476e-10
-6.01399e-10
-5.56128e-10
-5.03326e-10
-4.56688e-10
-5.64074e-10
-5.60599e-10
-5.14952e-10
-4.60769e-10
-4.07506e-10
-5.33761e-10
-5.26863e-10
-4.80731e-10
-4.20867e-10
-3.55216e-10
-5.0512e-10
-4.93991e-10
-4.45886e-10
-3.79857e-10
-3.00664e-10
-4.85646e-10
-4.71022e-10
-4.21631e-10
-3.52188e-10
-2.65452e-10
-1.74603e-09
-1.73189e-09
-1.61153e-09
-1.48052e-09
-1.38092e-09
-1.6299e-09
-1.60788e-09
-1.48081e-09
-1.32937e-09
-1.18369e-09
-1.54337e-09
-1.51384e-09
-1.38645e-09
-1.2206e-09
-1.03235e-09
-1.46546e-09
-1.42716e-09
-1.29642e-09
-1.11883e-09
-9.00801e-10
-1.41133e-09
-1.36476e-09
-1.23382e-09
-1.05439e-09
-8.28513e-10
-2.68244e-09
-2.64501e-09
-2.47972e-09
-2.32664e-09
-2.29185e-09
-2.52036e-09
-2.4743e-09
-2.29386e-09
-2.08462e-09
-1.94836e-09
-2.40268e-09
-2.35045e-09
-2.16993e-09
-1.9382e-09
-1.7077e-09
-2.30042e-09
-2.24016e-09
-2.05972e-09
-1.82196e-09
-1.54829e-09
-2.22504e-09
-2.15618e-09
-1.98291e-09
-1.75707e-09
-1.4864e-09
-3.27323e-09
-3.21359e-09
-3.03266e-09
-2.86984e-09
-2.9258e-09
-3.12905e-09
-3.07489e-09
-2.88807e-09
-2.67117e-09
-2.59054e-09
-3.02779e-09
-2.97116e-09
-2.78561e-09
-2.5534e-09
-2.36945e-09
-2.93825e-09
-2.87741e-09
-2.70108e-09
-2.48252e-09
-2.26605e-09
-2.86394e-09
-2.79816e-09
-2.64095e-09
-2.45331e-09
-2.25356e-09
-3.50535e-09
-3.44556e-09
-3.27769e-09
-3.09506e-09
-3.10186e-09
-3.43847e-09
-3.39293e-09
-3.23347e-09
-3.03894e-09
-2.94848e-09
-3.39299e-09
-3.34812e-09
-3.19678e-09
-3.01494e-09
-2.889e-09
-3.3445e-09
-3.30379e-09
-3.17867e-09
-3.04046e-09
-2.93271e-09
-3.2907e-09
-3.25327e-09
-3.15997e-09
-3.06686e-09
-2.99193e-09
-3.47206e-09
-3.42401e-09
-3.27519e-09
-3.07768e-09
-2.92798e-09
-3.49167e-09
-3.45494e-09
-3.32658e-09
-3.16067e-09
-3.01037e-09
-3.50942e-09
-3.48067e-09
-3.37771e-09
-3.25796e-09
-3.15556e-09
-3.51363e-09
-3.50389e-09
-3.44817e-09
-3.39666e-09
-3.36496e-09
-3.49416e-09
-3.49736e-09
-3.47992e-09
-3.47489e-09
-3.48452e-09
-3.26537e-09
-3.21394e-09
-3.07443e-09
-2.87535e-09
-2.61693e-09
-3.34286e-09
-3.31021e-09
-3.21601e-09
-3.08877e-09
-2.9144e-09
-3.41278e-09
-3.40134e-09
-3.34906e-09
-3.28155e-09
-3.18989e-09
-3.47139e-09
-3.49384e-09
-3.49808e-09
-3.49832e-09
-3.48624e-09
-3.49293e-09
-3.53231e-09
-3.5686e-09
-3.60252e-09
-3.62286e-09
-2.93307e-09
-2.88433e-09
-2.78627e-09
-2.61621e-09
-2.29209e-09
-3.05023e-09
-3.03716e-09
-3.00798e-09
-2.9515e-09
-2.78977e-09
-3.16339e-09
-3.17903e-09
-3.18611e-09
-3.17291e-09
-3.10503e-09
-3.26971e-09
-3.32161e-09
-3.36946e-09
-3.39416e-09
-3.38323e-09
-3.32656e-09
-3.38909e-09
-3.45088e-09
-3.48814e-09
-3.49489e-09
-2.54193e-09
-2.54919e-09
-2.56889e-09
-2.49319e-09
-2.11735e-09
-2.69252e-09
-2.73093e-09
-2.80825e-09
-2.86977e-09
-2.74142e-09
-2.83275e-09
-2.89076e-09
-2.97345e-09
-3.04473e-09
-3.03769e-09
-2.96306e-09
-3.04301e-09
-3.1323e-09
-3.19878e-09
-3.23298e-09
-3.03433e-09
-3.11148e-09
-3.19403e-09
-3.25278e-09
-3.30029e-09
-2.17587e-09
-2.28445e-09
-2.4744e-09
-2.57871e-09
-2.25951e-09
-2.32833e-09
-2.4399e-09
-2.64781e-09
-2.87529e-09
-2.8544e-09
-2.45972e-09
-2.5716e-09
-2.74895e-09
-2.95386e-09
-3.07826e-09
-2.57586e-09
-2.68739e-09
-2.83784e-09
-3.00248e-09
-3.16304e-09
-2.63384e-09
-2.72961e-09
-2.85912e-09
-3.00128e-09
-3.17297e-09
-1.82477e-09
-2.03062e-09
-2.39815e-09
-2.75454e-09
-2.70255e-09
-1.93266e-09
-2.12212e-09
-2.47004e-09
-2.89862e-09
-3.09922e-09
-2.01997e-09
-2.1929e-09
-2.48592e-09
-2.86822e-09
-3.19542e-09
-2.0894e-09
-2.24213e-09
-2.48706e-09
-2.80846e-09
-3.15363e-09
-2.11397e-09
-2.24327e-09
-2.46058e-09
-2.74957e-09
-3.09058e-09
-1.36544e-09
-1.65268e-09
-2.19556e-09
-2.82635e-09
-3.181e-09
-1.41679e-09
-1.68699e-09
-2.18274e-09
-2.82559e-09
-3.33321e-09
-1.44812e-09
-1.69003e-09
-2.12033e-09
-2.70619e-09
-3.28447e-09
-1.45641e-09
-1.66499e-09
-2.03849e-09
-2.55745e-09
-3.11866e-09
-1.44083e-09
-1.62353e-09
-1.96744e-09
-2.45139e-09
-2.98984e-09
-7.02423e-10
-1.08023e-09
-1.79753e-09
-2.68358e-09
-3.4621e-09
-7.04911e-10
-1.06339e-09
-1.71727e-09
-2.58518e-09
-3.45172e-09
-6.75211e-10
-9.98201e-10
-1.59158e-09
-2.41255e-09
-3.30081e-09
-6.15744e-10
-9.00208e-10
-1.43999e-09
-2.20489e-09
-3.05517e-09
-5.59106e-10
-8.19784e-10
-1.33454e-09
-2.07352e-09
-2.90188e-09
1.69822e-10
-3.15447e-10
-1.21111e-09
-2.37888e-09
-3.63985e-09
2.57165e-10
-1.99734e-10
-1.03812e-09
-2.18366e-09
-3.48213e-09
3.77614e-10
-4.73318e-11
-8.49739e-10
-1.97723e-09
-3.27649e-09
5.19468e-10
1.27597e-10
-6.39246e-10
-1.73814e-09
-3.01613e-09
6.21152e-10
2.44244e-10
-5.10467e-10
-1.59945e-09
-2.87728e-09
1.30221e-09
7.00951e-10
-4.15054e-10
-1.99271e-09
-3.91748e-09
1.57314e-09
9.9215e-10
-1.0163e-10
-1.64365e-09
-3.52468e-09
1.84007e-09
1.27218e-09
1.76184e-10
-1.37712e-09
-3.23297e-09
2.08829e-09
1.53707e-09
4.4927e-10
-1.10564e-09
-2.96513e-09
2.2421e-09
1.69251e-09
6.03405e-10
-9.53036e-10
-2.82581e-09
2.90584e-09
2.15143e-09
6.95448e-10
-1.46544e-09
-4.25229e-09
3.44333e-09
2.67071e-09
1.18607e-09
-9.23257e-10
-3.58328e-09
3.9161e-09
3.13298e-09
1.61759e-09
-5.13171e-10
-3.09281e-09
4.29943e-09
3.5169e-09
1.99251e-09
-1.54248e-10
-2.72782e-09
4.51724e-09
3.72914e-09
2.19824e-09
4.63475e-11
-2.52422e-09
5.29615e-09
4.2704e-09
2.262e-09
-6.54047e-10
-4.40516e-09
6.15175e-09
5.07434e-09
3.01468e-09
1.39475e-10
-3.44751e-09
6.88957e-09
5.79439e-09
3.7071e-09
8.17381e-10
-2.66134e-09
7.45097e-09
6.35448e-09
4.25926e-09
1.35213e-09
-2.10237e-09
7.7591e-09
6.6589e-09
4.55567e-09
1.63643e-09
-1.80073e-09
8.82211e-09
7.35464e-09
4.54344e-09
6.67405e-10
-4.0916e-09
1.00702e-08
8.56407e-09
5.73275e-09
1.85536e-09
-2.82254e-09
1.11558e-08
9.6433e-09
6.80288e-09
2.90397e-09
-1.74011e-09
1.19654e-08
1.0456e-08
7.60626e-09
3.67646e-09
-9.75606e-10
1.24048e-08
1.0892e-08
8.02569e-09
4.06181e-09
-5.95184e-10
1.39262e-08
1.18786e-08
8.03762e-09
2.8733e-09
-3.19454e-09
1.57168e-08
1.36639e-08
9.83483e-09
4.61072e-09
-1.55019e-09
1.72723e-08
1.52163e-08
1.13689e-08
6.08187e-09
-1.76316e-10
1.84223e-08
1.63603e-08
1.24787e-08
7.12231e-09
7.87008e-10
1.90397e-08
1.69688e-08
1.30526e-08
7.63705e-09
1.25782e-09
2.12399e-08
1.84893e-08
1.33431e-08
6.33605e-09
-1.8833e-09
2.38007e-08
2.10413e-08
1.58728e-08
8.76627e-09
4.0493e-10
2.59897e-08
2.32041e-08
1.79657e-08
1.07394e-08
2.22145e-09
2.75922e-08
2.47769e-08
1.94601e-08
1.21169e-08
3.46831e-09
2.84467e-08
2.56145e-08
2.02451e-08
1.28347e-08
4.10899e-09
3.16079e-08
2.79412e-08
2.10246e-08
1.14207e-08
-5.07251e-11
3.52328e-08
3.1504e-08
2.44601e-08
1.47159e-08
3.17629e-09
3.82842e-08
3.44892e-08
2.73032e-08
1.73764e-08
5.68977e-09
4.04981e-08
3.66462e-08
2.9338e-08
1.92531e-08
7.39814e-09
4.16747e-08
3.77964e-08
3.04285e-08
2.02749e-08
8.32433e-09
4.61076e-08
4.11554e-08
3.17285e-08
1.86179e-08
2.89266e-09
5.1181e-08
4.60913e-08
3.64109e-08
2.30298e-08
7.15619e-09
5.54335e-08
5.02323e-08
4.03394e-08
2.66865e-08
1.05977e-08
5.85002e-08
5.32154e-08
4.31693e-08
2.93131e-08
1.29944e-08
6.01216e-08
5.48017e-08
4.46874e-08
3.07497e-08
1.43291e-08
6.61513e-08
5.93757e-08
4.6413e-08
2.85349e-08
7.30087e-09
7.32211e-08
6.62464e-08
5.29291e-08
3.45715e-08
1.2909e-08
7.91582e-08
7.202e-08
5.84207e-08
3.96653e-08
1.75745e-08
8.34287e-08
7.61756e-08
6.23776e-08
4.33496e-08
2.09107e-08
8.56762e-08
7.83702e-08
6.4475e-08
4.53333e-08
2.27551e-08
9.3682e-08
8.43943e-08
6.66375e-08
4.22066e-08
1.34307e-08
1.03559e-07
9.40148e-08
7.57688e-08
5.06086e-08
2.10211e-08
1.11845e-07
1.0207e-07
8.3415e-08
5.76699e-08
2.73502e-08
1.17804e-07
1.07854e-07
8.88917e-08
6.27468e-08
3.19129e-08
1.2093e-07
1.10887e-07
9.17689e-08
6.54258e-08
3.4375e-08
1.31399e-07
1.18738e-07
9.46103e-08
6.12798e-08
2.19987e-08
1.45256e-07
1.32214e-07
1.0728e-07
7.28143e-08
3.21919e-08
1.56821e-07
1.43425e-07
1.17814e-07
8.24312e-08
4.06948e-08
1.65115e-07
1.51433e-07
1.25316e-07
8.92838e-08
4.68167e-08
1.69449e-07
1.55616e-07
1.2923e-07
9.28481e-08
5.00402e-08
1.82964e-07
1.65793e-07
1.33055e-07
8.76497e-08
3.38625e-08
2.02476e-07
1.84642e-07
1.50543e-07
1.03319e-07
4.74456e-08
2.18646e-07
2.00217e-07
1.64977e-07
1.16254e-07
5.86834e-08
2.30166e-07
2.11276e-07
1.75205e-07
1.25401e-07
6.67004e-08
2.36163e-07
2.17033e-07
1.80511e-07
1.30131e-07
7.0846e-08
2.53349e-07
2.30141e-07
1.85657e-07
1.23786e-07
5.01914e-08
2.8092e-07
2.56535e-07
2.09873e-07
1.45147e-07
6.83377e-08
3.03597e-07
2.78188e-07
2.29653e-07
1.62488e-07
8.29935e-08
3.19636e-07
2.93484e-07
2.43579e-07
1.74629e-07
9.32365e-08
3.27961e-07
3.01407e-07
2.50774e-07
1.8087e-07
9.84559e-08
3.49475e-07
3.1818e-07
2.5788e-07
1.73665e-07
7.31089e-08
3.88597e-07
3.55316e-07
2.91543e-07
2.02843e-07
9.72856e-08
4.20492e-07
3.85492e-07
3.18657e-07
2.2602e-07
1.16173e-07
4.42931e-07
4.06668e-07
3.37562e-07
2.41981e-07
1.28979e-07
4.54542e-07
4.17588e-07
3.47277e-07
2.50105e-07
1.35351e-07
4.81029e-07
4.38957e-07
3.57684e-07
2.43475e-07
1.06204e-07
5.36814e-07
4.915e-07
4.04557e-07
2.83147e-07
1.38114e-07
5.81774e-07
5.33584e-07
4.41597e-07
3.1375e-07
1.61886e-07
6.13261e-07
5.6285e-07
4.67062e-07
3.34351e-07
1.7737e-07
6.29521e-07
5.779e-07
4.80102e-07
3.44746e-07
1.84918e-07
6.61199e-07
6.05137e-07
4.96576e-07
3.42697e-07
1.55876e-07
7.4133e-07
6.79803e-07
5.61743e-07
3.95974e-07
1.96849e-07
8.04772e-07
7.38321e-07
6.1186e-07
4.35386e-07
2.25274e-07
8.49126e-07
7.78611e-07
6.45755e-07
4.61059e-07
2.42635e-07
8.72057e-07
7.99319e-07
6.63157e-07
4.73999e-07
2.51149e-07
9.07278e-07
8.33898e-07
6.91048e-07
4.85751e-07
2.33044e-07
1.02404e-06
9.40757e-07
7.81488e-07
5.55935e-07
2.82767e-07
1.11341e-06
1.02145e-06
8.48175e-07
6.04515e-07
3.13391e-07
1.17667e-06
1.07658e-06
8.92546e-07
6.34408e-07
3.29648e-07
1.20951e-06
1.10491e-06
9.1573e-07
6.49754e-07
3.38055e-07
1.24054e-06
1.14749e-06
9.64552e-07
6.9457e-07
3.54764e-07
1.41616e-06
1.30342e-06
1.09072e-06
7.85026e-07
4.09559e-07
1.54046e-06
1.41224e-06
1.17686e-06
8.40027e-07
4.35042e-07
1.63406e-06
1.48657e-06
1.23382e-06
8.69825e-07
4.42597e-07
1.68236e-06
1.52445e-06
1.26551e-06
8.86512e-07
4.48653e-07
1.68042e-06
1.57133e-06
1.35049e-06
1.00472e-06
5.48945e-07
1.96661e-06
1.8107e-06
1.53084e-06
1.1185e-06
5.95811e-07
2.12833e-06
1.94812e-06
1.63515e-06
1.16897e-06
5.97911e-07
2.2797e-06
2.04609e-06
1.70842e-06
1.18438e-06
5.7918e-07
2.35131e-06
2.09464e-06
1.75596e-06
1.19855e-06
5.80273e-07
2.2159e-06
2.11857e-06
1.89305e-06
1.47945e-06
8.63999e-07
2.76665e-06
2.53397e-06
2.17139e-06
1.62155e-06
8.59661e-07
2.9159e-06
2.67187e-06
2.27332e-06
1.6368e-06
7.95011e-07
3.20833e-06
2.80493e-06
2.37585e-06
1.59257e-06
7.14839e-07
3.30624e-06
2.86371e-06
2.45144e-06
1.59526e-06
7.11368e-07
2.77196e-06
2.76149e-06
2.63613e-06
2.24976e-06
1.38033e-06
3.96722e-06
3.59801e-06
3.13674e-06
2.43333e-06
1.20599e-06
3.92398e-06
3.63117e-06
3.14001e-06
2.33664e-06
9.86806e-07
4.59696e-06
3.84012e-06
3.3134e-06
2.11098e-06
7.79242e-07
4.68519e-06
3.89954e-06
3.42052e-06
2.08825e-06
7.8662e-07
3.25915e-06
3.47394e-06
3.64041e-06
3.63666e-06
2.27303e-06
5.70096e-06
5.15465e-06
4.63658e-06
3.8254e-06
1.71269e-06
5.2086e-06
4.91902e-06
4.23698e-06
3.43529e-06
1.13462e-06
6.8361e-06
5.26073e-06
4.63951e-06
2.74805e-06
6.31853e-07
6.74181e-06
5.26001e-06
4.73332e-06
2.69316e-06
6.86023e-07
3.48966e-06
4.22619e-06
5.08127e-06
6.4442e-06
4.19331e-06
7.96747e-06
7.18831e-06
7.00006e-06
6.29079e-06
2.72367e-06
6.79842e-06
6.75515e-06
5.43462e-06
5.12334e-06
1.16611e-06
1.07444e-05
7.11072e-06
6.50687e-06
3.35759e-06
-5.26803e-08
9.8952e-06
6.96849e-06
6.40882e-06
3.36313e-06
1.7713e-07
1.20768e-06
3.31789e-06
3.63644e-06
5.08694e-06
1.24377e-06
9.44329e-06
8.03406e-06
5.66079e-06
5.32346e-06
1.50458e-06
5.89218e-06
5.55292e-06
4.36898e-06
3.94801e-06
-4.53817e-07
1.04687e-05
6.08019e-06
4.73987e-06
-4.14564e-07
-3.17303e-06
1.1103e-05
6.04122e-06
6.91472e-06
-1.21341e-06
-1.7435e-06
8.01726e-06
1.37261e-05
1.73619e-05
3.58697e-05
2.55661e-05
1.75673e-05
1.58858e-05
2.46567e-05
2.76463e-05
1.9556e-05
1.78471e-05
2.36813e-05
1.05654e-05
2.14154e-05
6.25891e-06
4.40322e-05
1.72765e-05
2.20886e-05
8.97122e-06
-4.12545e-06
3.34307e-05
1.96001e-05
1.41371e-05
1.1603e-05
-1.00335e-05
-1.04335e-05
-1.4464e-06
1.63313e-05
1.00382e-05
2.24912e-05
1.23028e-05
1.39255e-05
-1.08539e-06
1.40656e-05
4.70954e-05
6.28395e-06
-8.15703e-06
9.32747e-07
-3.38358e-06
9.06216e-06
2.94385e-05
8.29906e-06
-1.85673e-06
-1.59891e-05
-5.90187e-06
1.87374e-05
9.4921e-07
8.98121e-06
-2.86079e-05
1.86188e-05
-7.87748e-06
1.89824e-05
5.43747e-05
0.000133076
7.77058e-05
-5.03361e-05
-7.52094e-05
2.7558e-05
5.07453e-05
0.000115322
4.91435e-07
5.60547e-05
-6.55317e-05
4.39616e-06
1.43937e-05
0.000260941
-1.81699e-05
5.02153e-05
-5.25898e-05
-6.74534e-05
5.95094e-05
1.72896e-05
-5.74982e-05
-2.25312e-05
-0.000133182
0.000865652
0.000416443
0.00117988
0.000661682
0.000888011
0.000404635
0.000368051
0.000540598
0.000660176
0.000747978
0.000594842
0.000342032
0.000354559
0.000515447
0.00058183
0.0011316
0.000676892
0.000426144
0.000742934
0.00115111
0.000490946
0.000346717
0.000159928
0.000587307
0.000349324
0.00123216
0.00114929
0.00147544
0.0010027
0.000990437
0.00103003
0.00104128
0.00111386
0.00126117
0.00158448
0.000919512
0.000613729
0.0010022
0.00120979
0.00126587
0.00114983
0.00102878
0.00127298
0.00115364
0.00133412
0.000810732
0.0010299
0.000827024
0.000903943
0.00139924
0.00249078
0.00195538
0.00171962
0.00218488
0.00176444
0.00116043
0.00155913
0.00183324
0.00173216
0.00164778
0.00149416
0.00174897
0.00189823
0.00167063
0.00155338
0.000708398
0.00137053
0.00185059
0.00161691
0.0021604
0.00164057
0.00174445
0.00175526
0.00206219
0.00198135
0.00252088
0.00247339
0.00230443
0.00198172
0.00230546
0.00258349
0.00220812
0.00229727
0.00243343
0.00250501
0.00328014
0.00247559
0.0025026
0.00236153
0.00259604
0.00128262
0.00242395
0.00244728
0.00254429
0.00318299
0.00242189
0.00301129
0.00266531
0.00271125
0.00288278
0.00248481
0.00317923
0.00284371
0.00251781
0.00276791
0.00337005
0.00324548
0.00284938
0.00309654
0.00303641
0.00325498
0.00308461
0.00327099
0.00295722
0.0035141
0.00323106
0.0030259
0.00296688
0.0030656
0.00317948
0.00273768
0.00295232
0.0032122
0.00349148
0.00322304
0.00455198
0.00448277
0.00348866
0.00377524
0.00344282
0.00447548
0.00418284
0.00397305
0.00381976
0.00355661
0.00391022
0.00409947
0.00421825
0.00361691
0.00373386
0.00456679
0.00389634
0.00336852
0.00370659
0.00343077
0.00309163
0.00374135
0.00369878
0.00365111
0.00333584
0.00477811
0.00479538
0.00459696
0.00426657
0.00476308
0.00490428
0.00472394
0.00453861
0.00437979
0.00412716
0.0048164
0.004616
0.00450307
0.00467116
0.00385113
0.00526742
0.00476999
0.00438947
0.00429678
0.00410209
0.00462545
0.00434604
0.00421735
0.00381252
0.00365139
0.00547063
0.00472589
0.00535106
0.00509928
0.00526351
0.00491538
0.00498236
0.00499434
0.00476556
0.00505391
0.00533822
0.00519304
0.00495285
0.00499595
0.00461981
0.00531766
0.0052896
0.00542619
0.00500368
0.00500986
0.00554773
0.00467108
0.00515949
0.00499082
0.00577438
0.00628233
0.00595063
0.00562264
0.00550415
0.00522863
0.00529991
0.00534611
0.00546175
0.00511361
0.00526203
0.00560869
0.00566765
0.00583171
0.00564041
0.00516452
0.00557755
0.0056774
0.00576145
0.0056122
0.00572055
0.00609554
0.00583159
0.00577236
0.00560228
0.0058869
0.00627666
0.00632903
0.00588206
0.00565363
0.00553976
0.00611138
0.00600646
0.00612373
0.00613151
0.00546375
0.00635903
0.00620979
0.0061866
0.00609347
0.00594741
0.00634228
0.00641761
0.00623729
0.00625679
0.00610869
0.00637742
0.00642634
0.00620431
0.00620281
0.00600082
0.00634178
0.00636572
0.00642239
0.00630268
0.00632031
0.00635518
0.00639459
0.00639851
0.00638703
0.00634188
0.00638596
0.00639313
0.00634312
0.00633834
0.00636011
0.00639165
0.00640191
0.00639575
0.00638578
0.00639947
0.00639744
0.0063944
0.00636456
0.00637714
0.00632685
0.00634152
0.00633695
0.00632989
0.00632337
0.00632605
0.00635828
0.00635407
0.00634592
0.0063365
0.00633664
0.00634771
0.00633932
0.00634476
0.00633789
0.00633868
0.00636872
0.00636206
0.0063377
0.00634611
0.0063259
0.00635285
0.00635324
0.00632238
0.00634853
0.00634841
0.00633517
0.00633549
0.00633301
0.00632737
0.00633434
0.00634783
0.00635227
0.00634504
0.00634302
0.0063369
0.00635038
0.00635214
0.00634153
0.00634263
0.00633823
0.00635745
0.00636019
0.00635016
0.00635352
0.00634759
0.0063559
0.00635963
0.00634782
0.00635243
0.00634017
0.00633978
0.00633921
0.0063397
0.00633823
0.00633955
0.00634937
0.0063491
0.00634504
0.00634402
0.0063419
0.00634606
0.00634559
0.00634299
0.00634441
0.00634278
0.00635143
0.00635202
0.00634631
0.00634968
0.00634385
0.00634937
0.00635042
0.00634447
0.00634963
0.00634432
0.00634119
0.00634105
0.00634123
0.00634075
0.00634157
0.00634681
0.00634685
0.00634479
0.00634428
0.00634323
0.00634501
0.00634498
0.00634368
0.00634469
0.00634345
0.00634834
0.00634882
0.00634569
0.00634775
0.00634405
0.00634737
0.00634806
0.00634504
0.00634775
0.00634411
0.00634232
0.00634232
0.0063424
0.00634239
0.00634284
0.00634566
0.00634565
0.00634465
0.00634439
0.00634391
0.00634461
0.00634464
0.00634408
0.00634474
0.00634398
0.00634666
0.00634693
0.00634532
0.00634648
0.0063444
0.00634619
0.00634656
0.00634509
0.00634654
0.00634448
0.00634305
0.00634308
0.00634316
0.00634328
0.00634357
0.00634501
0.006345
0.00634451
0.0063444
0.0063442
0.00634446
0.00634448
0.0063443
0.00634471
0.00634429
0.00634572
0.00634583
0.00634509
0.00634566
0.00634461
0.00634551
0.00634567
0.00634502
0.00634576
0.00634468
0.00634353
0.00634356
0.00634364
0.00634378
0.00634398
0.00634463
0.00634461
0.00634438
0.0063444
0.00634435
0.00634443
0.00634446
0.00634443
0.00634467
0.00634449
0.00634519
0.00634522
0.00634491
0.00634517
0.00634469
0.0063451
0.00634515
0.00634491
0.00634527
0.00634475
0.00634384
0.00634387
0.00634394
0.00634406
0.0063442
0.00634444
0.00634444
0.00634435
0.00634441
0.00634443
0.00634445
0.00634446
0.00634448
0.00634462
0.00634456
0.00634485
0.00634485
0.00634476
0.00634488
0.0063447
0.00634484
0.00634486
0.0063448
0.00634497
0.00634477
0.00634405
0.00634407
0.00634412
0.00634421
0.00634432
0.00634436
0.00634436
0.00634436
0.00634442
0.00634448
0.00634444
0.00634446
0.00634449
0.00634458
0.00634458
0.00634466
0.00634466
0.00634465
0.00634472
0.00634468
0.00634469
0.0063447
0.00634471
0.00634478
0.00634474
0.00634417
0.00634419
0.00634423
0.0063443
0.00634439
0.00634434
0.00634435
0.00634437
0.00634443
0.0063445
0.00634444
0.00634446
0.00634449
0.00634454
0.00634458
0.00634456
0.00634457
0.00634458
0.00634463
0.00634465
0.0063446
0.00634461
0.00634463
0.00634467
0.00634469
0.00634425
0.00634426
0.0063443
0.00634435
0.00634442
0.00634435
0.00634437
0.0063444
0.00634444
0.0063445
0.00634444
0.00634445
0.00634448
0.00634452
0.00634457
0.00634451
0.00634452
0.00634454
0.00634458
0.00634462
0.00634454
0.00634455
0.00634457
0.00634461
0.00634464
0.0063443
0.00634432
0.00634434
0.00634439
0.00634444
0.00634438
0.00634439
0.00634441
0.00634445
0.0063445
0.00634444
0.00634445
0.00634447
0.0063445
0.00634455
0.00634448
0.00634449
0.00634451
0.00634454
0.00634458
0.00634451
0.00634452
0.00634454
0.00634457
0.0063446
0.00634434
0.00634435
0.00634438
0.00634441
0.00634445
0.00634439
0.0063444
0.00634443
0.00634445
0.00634449
0.00634444
0.00634445
0.00634447
0.00634449
0.00634453
0.00634447
0.00634448
0.0063445
0.00634452
0.00634455
0.00634449
0.0063445
0.00634451
0.00634454
0.00634457
0.00634437
0.00634438
0.0063444
0.00634443
0.00634446
0.00634441
0.00634442
0.00634444
0.00634446
0.00634449
0.00634444
0.00634445
0.00634447
0.00634449
0.00634451
0.00634447
0.00634447
0.00634449
0.00634451
0.00634453
0.00634448
0.00634448
0.0063445
0.00634452
0.00634454
0.0063444
0.00634441
0.00634442
0.00634444
0.00634446
0.00634442
0.00634443
0.00634444
0.00634446
0.00634448
0.00634445
0.00634445
0.00634446
0.00634448
0.0063445
0.00634446
0.00634447
0.00634448
0.0063445
0.00634452
0.00634447
0.00634448
0.00634449
0.0063445
0.00634452
0.00634442
0.00634442
0.00634443
0.00634445
0.00634446
0.00634444
0.00634444
0.00634445
0.00634446
0.00634448
0.00634445
0.00634446
0.00634447
0.00634448
0.00634449
0.00634446
0.00634447
0.00634448
0.00634449
0.0063445
0.00634447
0.00634447
0.00634448
0.00634449
0.00634451
0.00634443
0.00634443
0.00634444
0.00634445
0.00634447
0.00634444
0.00634445
0.00634445
0.00634446
0.00634448
0.00634445
0.00634446
0.00634447
0.00634448
0.00634449
0.00634446
0.00634447
0.00634447
0.00634448
0.00634449
0.00634447
0.00634447
0.00634448
0.00634449
0.0063445
0.00634444
0.00634444
0.00634445
0.00634446
0.00634447
0.00634445
0.00634445
0.00634446
0.00634447
0.00634447
0.00634446
0.00634446
0.00634447
0.00634447
0.00634448
0.00634446
0.00634447
0.00634447
0.00634448
0.00634449
0.00634447
0.00634447
0.00634447
0.00634448
0.00634449
0.00634445
0.00634445
0.00634445
0.00634446
0.00634447
0.00634445
0.00634446
0.00634446
0.00634447
0.00634447
0.00634446
0.00634446
0.00634447
0.00634447
0.00634448
0.00634446
0.00634447
0.00634447
0.00634448
0.00634448
0.00634447
0.00634447
0.00634447
0.00634448
0.00634448
0.00634445
0.00634445
0.00634446
0.00634446
0.00634447
0.00634446
0.00634446
0.00634446
0.00634447
0.00634447
0.00634446
0.00634446
0.00634447
0.00634447
0.00634447
0.00634446
0.00634447
0.00634447
0.00634447
0.00634448
0.00634447
0.00634447
0.00634447
0.00634447
0.00634448
0.00634446
0.00634446
0.00634446
0.00634446
0.00634447
0.00634446
0.00634446
0.00634446
0.00634447
0.00634447
0.00634446
0.00634446
0.00634447
0.00634447
0.00634447
0.00634446
0.00634447
0.00634447
0.00634447
0.00634448
0.00634447
0.00634447
0.00634447
0.00634447
0.00634448
0.00634446
0.00634446
0.00634446
0.00634446
0.00634447
0.00634446
0.00634446
0.00634446
0.00634447
0.00634447
0.00634446
0.00634446
0.00634447
0.00634447
0.00634447
0.00634447
0.00634447
0.00634447
0.00634447
0.00634447
0.00634447
0.00634447
0.00634447
0.00634447
0.00634447
0.00634446
0.00634446
0.00634446
0.00634446
0.00634447
0.00634446
0.00634446
0.00634446
0.00634447
0.00634447
0.00634446
0.00634447
0.00634447
0.00634447
0.00634447
0.00634447
0.00634447
0.00634447
0.00634447
0.00634447
0.00634447
0.00634447
0.00634447
0.00634447
0.00634447
0.00634446
0.00634446
0.00634446
0.00634447
0.00634447
0.00634446
0.00634446
0.00634447
0.00634447
0.00634447
0.00634447
0.00634447
0.00634447
0.00634447
0.00634447
0.00634447
0.00634447
0.00634447
0.00634447
0.00634447
0.00634447
0.00634447
0.00634447
0.00634447
0.00634447
0.00634446
0.00634446
0.00634447
0.00634447
0.00634447
0.00634446
0.00634447
0.00634447
0.00634447
0.00634447
0.00634447
0.00634447
0.00634447
0.00634447
0.00634447
0.00634447
0.00634447
0.00634447
0.00634447
0.00634447
0.00634447
0.00634447
0.00634447
0.00634447
0.00634447
0.00634447
0.00634447
0.00634447
0.00634447
0.00634447
0.00634447
0.00634447
0.00634447
0.00634447
0.00634447
0.00634447
0.00634447
0.00634447
0.00634447
0.00634447
0.00634447
0.00634447
0.00634447
0.00634447
0.00634447
0.00634447
0.00634447
0.00634447
0.00634447
0.00634447
0.00634447
0.00634447
0.00634447
0.00634447
0.00634447
0.00634447
0.00634447
0.00634447
0.00634447
0.00634447
0.00634447
0.00634447
0.00634447
0.00634447
0.00634447
0.00634447
0.00634447
0.00634447
0.00634447
0.00634447
0.00634447
0.00634447
0.00634447
0.00634447
0.00634447
0.00634447
0.00634447
0.00634447
0.00634447
0.00634447
0.00634447
0.00634447
0.00634447
0.00634447
0.00634447
0.00634447
0.00634447
0.00634447
0.00634447
0.00634447
0.00634447
0.00634447
0.00634447
0.00634447
0.00634447
0.00634447
0.00634447
0.00634447
0.00634447
0.00634447
0.00634447
0.00634447
0.00634447
0.00634447
0.00634447
0.00634447
0.00634447
0.00634447
0.00634447
0.00634447
0.00634447
0.00634447
0.00634447
0.00634447
0.00634447
0.00634447
0.00634447
0.00634447
0.00634447
0.00634447
0.00634447
0.00634447
0.00634447
0.00634447
0.00634447
0.00634447
0.00634447
0.00634447
0.00634447
0.00634447
0.00634447
0.00634447
0.00634447
0.00634447
0.00634447
0.00634447
0.00634447
0.00634447
0.00634447
0.00634447
0.00634447
0.00634447
0.00634447
0.00634447
0.00634447
0.00634447
0.00634447
0.00634447
0.00634447
0.00634447
0.00634447
0.00634447
0.00634447
0.00634447
0.00634447
0.00634447
0.00634447
0.00634447
0.00634447
0.00634447
0.00634447
0.00634447
0.00634447
0.00634447
0.00634447
0.00634447
0.00634447
0.00634447
0.00634447
0.00634447
0.00634447
0.00634447
0.00634447
0.00634447
0.00634447
0.00634447
0.00634447
0.00634447
0.00634447
0.00634447
0.00634447
0.00634447
0.00634447
0.00634447
0.00634447
0.00634447
0.00634447
0.00634447
0.00634447
0.00634447
0.00634447
0.00634447
0.00634447
0.00634447
0.00634447
0.00634447
0.00634447
0.00634447
0.00634447
0.00634447
0.00634447
0.00634447
0.00634447
0.00634447
0.00634447
0.00634447
0.00634447
0.00634447
0.00634447
0.00634447
0.00634447
0.00634447
0.00634447
0.00634447
0.00634447
0.00634447
0.00634447
0.00634447
0.00634447
0.00634447
0.00634447
0.00634447
0.00634447
0.00634447
0.00634447
0.00634447
0.00634447
0.00634447
0.00634447
0.00634447
0.00634447
0.00634447
0.00634447
0.00634447
0.00634447
0.00634447
0.00634447
0.00634447
0.00634447
0.00634447
0.00634447
0.00634447
0.00634447
0.00634447
0.00634447
0.00634447
0.00634447
0.00634447
0.00634447
0.00634447
0.00634447
0.00634447
0.00634447
0.00634447
0.00634447
0.00634447
0.00634447
0.00634447
0.00634447
0.00634447
0.00634447
0.00634447
0.00634447
0.00634447
0.00634447
0.00634447
0.00634447
0.00634447
0.00634447
0.00634447
0.00634447
0.00634447
0.00634447
0.00634447
0.00634447
0.00634447
0.00634447
0.00634447
0.00634447
0.00634447
0.00634447
0.00634447
0.00634447
0.00634447
0.00634447
0.00634447
0.00634447
0.00634447
0.00634447
0.00634447
0.00634447
0.00634447
0.00634447
0.00634447
0.00634447
0.00634447
0.00634447
0.00634447
0.00634447
0.00634446
0.00634447
0.00634447
0.00634447
0.00634447
0.00634447
0.00634447
0.00634447
0.00634447
0.00634447
0.00634447
0.00634447
0.00634447
0.00634447
0.00634447
0.00634446
0.00634447
0.00634447
0.00634447
0.00634447
0.00634446
0.00634447
0.00634447
0.00634447
0.00634447
0.00634446
0.00634447
0.00634447
0.00634447
0.00634447
0.00634446
0.00634447
0.00634447
0.00634447
0.00634447
0.00634446
0.00634447
0.00634447
0.00634447
0.00634447
0.00634446
0.00634447
0.00634447
0.00634447
0.00634446
0.00634446
0.00634447
0.00634447
0.00634447
0.00634446
0.00634446
)
;

boundaryField
{
    inlet
    {
        type            zeroGradient;
    }
    outlet
    {
        type            fixedValue;
        value           uniform 0;
    }
    repeat_boundary
    {
        type            zeroGradient;
    }
    procBoundary2to0
    {
        type            processor;
        value           nonuniform List<scalar> 
450
(
-6.12152e-10
-6.01208e-10
-5.4596e-10
-4.78278e-10
-4.42232e-10
-1.75807e-09
-1.71713e-09
-1.56311e-09
-1.36371e-09
-1.20239e-09
-2.68355e-09
-2.61542e-09
-2.40373e-09
-2.10064e-09
-1.73326e-09
-3.25149e-09
-3.18046e-09
-2.99303e-09
-2.72272e-09
-2.33099e-09
-3.44177e-09
-3.38676e-09
-3.26039e-09
-3.11115e-09
-2.9031e-09
-3.36962e-09
-3.32338e-09
-3.21949e-09
-3.1234e-09
-3.03605e-09
-3.14717e-09
-3.09521e-09
-2.99548e-09
-2.90663e-09
-2.83856e-09
-2.81155e-09
-2.77216e-09
-2.73815e-09
-2.74986e-09
-2.85093e-09
-2.4189e-09
-2.44105e-09
-2.54282e-09
-2.74625e-09
-3.19148e-09
-2.06555e-09
-2.18104e-09
-2.43083e-09
-2.81485e-09
-3.5779e-09
-1.75181e-09
-1.95337e-09
-2.3394e-09
-2.87078e-09
-3.80936e-09
-1.35141e-09
-1.62904e-09
-2.1604e-09
-2.84308e-09
-3.83178e-09
-7.68559e-10
-1.13646e-09
-1.82897e-09
-2.69518e-09
-3.75701e-09
-6.77746e-12
-4.77625e-10
-1.33264e-09
-2.43394e-09
-3.74114e-09
9.65724e-10
3.89723e-10
-6.59537e-10
-2.07402e-09
-3.72248e-09
2.33807e-09
1.60963e-09
2.16353e-10
-1.70194e-09
-3.81675e-09
4.41355e-09
3.40148e-09
1.41168e-09
-1.33439e-09
-4.34485e-09
7.51813e-09
6.06139e-09
3.25873e-09
-5.96856e-10
-4.98434e-09
1.20439e-08
1.00205e-08
6.24699e-09
1.06836e-09
-5.02082e-09
1.85656e-08
1.58611e-08
1.08476e-08
3.95404e-09
-4.24754e-09
2.78479e-08
2.42556e-08
1.74888e-08
8.14156e-09
-2.8583e-09
4.08262e-08
3.59793e-08
2.67152e-08
1.38424e-08
-1.19204e-09
5.87084e-08
5.20893e-08
3.94172e-08
2.1747e-08
8.99783e-10
8.31611e-08
7.41514e-08
5.69444e-08
3.30095e-08
4.52726e-09
1.16502e-07
1.04347e-07
8.10641e-08
4.87798e-08
1.03746e-08
1.6184e-07
1.45484e-07
1.14021e-07
7.03291e-08
1.83402e-08
2.23305e-07
2.01266e-07
1.58889e-07
9.9786e-08
2.91639e-08
3.06517e-07
2.76975e-07
2.20171e-07
1.40512e-07
4.46978e-08
4.19186e-07
3.80076e-07
3.0445e-07
1.97596e-07
6.79839e-08
5.71737e-07
5.20738e-07
4.21223e-07
2.79024e-07
1.04717e-07
7.78115e-07
7.12851e-07
5.84337e-07
3.97265e-07
1.64523e-07
1.05722e-06
9.75726e-07
8.14611e-07
5.72077e-07
2.64066e-07
1.43885e-06
1.33815e-06
1.14573e-06
8.35977e-07
4.34408e-07
1.98969e-06
1.85324e-06
1.64125e-06
1.2444e-06
7.31926e-07
2.83898e-06
2.63274e-06
2.44679e-06
1.89805e-06
1.25629e-06
4.11167e-06
3.85929e-06
3.85001e-06
3.01276e-06
2.16735e-06
5.81921e-06
5.63328e-06
6.30452e-06
4.92667e-06
3.5981e-06
6.05061e-06
4.49636e-06
4.41143e-06
4.25402e-06
2.6281e-06
1.58429e-05
1.92389e-05
2.54497e-05
2.32197e-05
1.51526e-05
7.51921e-06
8.77086e-06
1.04645e-05
1.17201e-05
1.47153e-05
-1.18781e-05
1.96668e-05
5.50893e-05
1.95382e-05
-2.81756e-05
0.000231056
0.000706488
0.000727162
0.000396426
0.00012069
0.00148618
0.0016267
0.0012511
0.00177696
0.00153428
0.0022416
0.00218152
0.00204222
0.00203011
0.00216502
0.00249948
0.00269267
0.00236469