FoamFile
{version 2.0; format ascii;class vectorField; location 0;object  v;}
351
(
( -0.001178 -0.00378645 0.00265788 )  
( 0.00259458 -0.000893648 0.00120191 )  
( -0.000934265 0.000726625 0.000902826 )  
( 0.000855725 -0.00256525 0.000626915 )  
( -0.00186188 -0.00256874 0.00250246 )  
( 0.000838725 -0.00166108 0.00288695 )  
( 0.00348345 0.002404 0.00260061 )  
( -0.00234361 -0.00395182 0.000546148 )  
( 0.00233347 0.000707161 0.00438463 )  
( -0.000586282 0.00138212 0.00308076 )  
( 0.00510029 -0.0042516 0.00336618 )  
( -0.00227041 -0.000771952 0.000905899 )  
( 0.00127188 -0.00174754 0.00480614 )  
( 0.00193301 0.000694055 -0.000685867 )  
( 0.00319957 -0.00146096 0.00119576 )  
( -0.000454411 -0.00180086 -0.00040173 )  
( 2.55261e-05 -0.00205227 0.00151708 )  
( 0.00011538 0.00016251 0.00281417 )  
( -0.00968422 -0.00380653 0.00510519 )  
( 0.000931692 0.0011451 0.000411935 )  
( -0.00225617 -0.00166103 0.000749106 )  
( -0.00313991 0.00319299 0.000609308 )  
( -0.00654324 -0.00117936 -0.00057888 )  
( 2.36862e-05 -0.00133515 0.00140667 )  
( -0.000467413 -0.000928241 0.00565261 )  
( 0.00224258 0.00151567 0.0119553 )  
( -0.00365862 -0.000905671 0.000238704 )  
( -0.00173558 -0.000206789 0.011044 )  
( 8.51849e-05 0.00528718 0.0101759 )  
( -0.00811759 -0.00698123 0.011035 )  
( 0.0016447 -0.00473119 0.00717712 )  
( -0.00113829 -0.0014824 -0.000139107 )  
( 0.000666961 -0.00453908 0.0189162 )  
( 0.00238851 0.00552106 0.0145983 )  
( -0.00109834 -4.82072e-05 0.0103549 )  
( -0.0014099 -0.0037638 0.00845991 )  
( 0.0020536 0.00048384 0.0103938 )  
( -0.00569337 -0.000601472 0.00869111 )  
( -0.000858361 -0.00179224 0.0072574 )  
( -0.00303448 0.00222405 0.00851155 )  
( -0.00501395 0.00360278 0.0108052 )  
( -0.0029992 -0.00292169 0.0225938 )  
( -0.00234561 -0.00326949 0.00881958 )  
( -0.000499232 8.16478e-06 0.0273258 )  
( -0.00521125 -0.00416817 0.00852361 )  
( -0.00314866 -0.00574283 0.00669036 )  
( 0.00269535 -0.00201238 0.0206709 )  
( -0.00075705 -0.00457001 0.0134228 )  
( 0.00118231 -0.00111297 0.0148819 )  
( -0.00347461 -0.00658116 0.00825401 )  
( 0.00418317 -0.000870281 0.026105 )  
( -0.00546159 -0.0011005 0.0234163 )  
( 0.000124533 0.000446643 0.0239428 )  
( -0.00214545 0.00731458 0.00743532 )  
( 0.00106886 -0.00187745 0.0129906 )  
( -0.00344776 -0.0014113 0.0215862 )  
( 0.00329228 0.000490988 0.0242211 )  
( 0.00170315 -0.00203408 0.0376147 )  
( -0.00158061 -0.000331523 0.0343889 )  
( -0.00695482 -0.00276843 0.0215023 )  
( 0.00491683 5.88463e-05 0.0174891 )  
( -0.000862015 -7.07145e-05 0.0195425 )  
( 0.00337752 0.00028823 0.0243016 )  
( -0.0029127 -0.00147594 0.0168715 )  
( -0.00656507 -0.00112878 0.0302604 )  
( 0.00543904 0.0017231 0.0209863 )  
( 0.00397387 -0.0019591 0.0208178 )  
( -0.00142305 -0.00484143 0.0114315 )  
( 0.00129495 -0.00461089 0.0230963 )  
( 0.000242289 0.00218539 0.027532 )  
( -0.00198214 -0.00331683 0.0164419 )  
( 0.000699627 -0.000832501 0.0312698 )  
( 0.00525985 -0.00219059 0.0329805 )  
( -0.00129826 -0.0057485 0.0353153 )  
( 0.00421908 -0.000965766 0.0332723 )  
( -0.0019604 -0.00237611 0.0234887 )  
( 0.00110247 -0.00283169 0.02414 )  
( 0.00808569 -0.000988324 0.0392698 )  
( 0.00496222 -0.00311076 0.0342446 )  
( -0.000915733 -2.32244e-05 0.0219852 )  
( -0.00348255 0.00541408 0.0287778 )  
( 0.00142473 0.000422233 0.0261386 )  
( 0.00226786 0.00318007 0.0422222 )  
( 0.00523735 0.00282818 0.0354902 )  
( 0.00302813 -0.00525504 0.043019 )  
( 0.00126215 0.00188287 0.0402986 )  
( -0.000253438 0.00246898 0.0487222 )  
( 0.00386834 0.0012895 0.0384454 )  
( -0.00647332 0.00604203 0.0467631 )  
( 0.00364287 0.00159637 0.0422684 )  
( 0.00476718 -0.00541365 0.0265151 )  
( 0.00169212 -0.00901763 0.0517273 )  
( 0.000530142 -0.0012853 0.0378224 )  
( -0.0035286 -0.00314846 0.0283443 )  
( 0.00368496 -0.0046793 0.0355066 )  
( 0.00519979 -0.00246552 0.0389283 )  
( 0.00555918 -0.000732059 0.02772 )  
( 0.00724265 0.00190406 0.0405174 )  
( -0.0025665 0.00202152 0.0378725 )  
( -0.0024669 0.00510469 0.0503913 )  
( 0.0055447 -0.00381513 0.0480678 )  
( 0.000473397 -0.003193 0.0520335 )  
( 0.00391628 -0.00257582 0.0456202 )  
( 0.000272528 -0.00172189 0.0473101 )  
( -0.000176888 -0.00287799 0.0580303 )  
( -0.00248662 0.00023027 0.0382682 )  
( -0.000190161 -0.00529923 0.0440466 )  
( 0.000494556 0.0011485 0.0451365 )  
( -0.00029306 0.000884607 0.0468334 )  
( 0.000129749 -0.00076463 0.0486719 )  
( 0.000864255 -0.000348436 0.0574227 )  
( 0.00318012 -0.00905315 0.0619697 )  
( 0.0081355 -0.00181971 0.0457611 )  
( 0.00448921 0.00573692 0.0630653 )  
( -0.00139111 -0.00272112 0.0699481 )  
( 0.00108477 -0.00183339 0.0565318 )  
( -0.0047424 0.00129453 0.0607133 )  
( 0.000713093 0.00433348 0.0562975 )  
( 0.00857927 -0.00101805 0.065594 )  
( -0.000471851 -0.00416585 0.0517309 )  
( -0.00369271 -0.0010244 0.0708132 )  
( 0.00111562 -0.0064968 0.0689211 )  
( -0.00263943 -0.00362693 0.0631091 )  
( -0.00125741 -0.00206758 0.0618875 )  
( 0.00177757 -0.00121222 0.0590062 )  
( -0.0022855 0.00435364 0.0448042 )  
( 0.0058678 -0.00841923 0.047863 )  
( 0.000340758 -0.00315361 0.0480123 )  
( 0.00897999 -0.00638144 0.0530326 )  
( 0.00855313 -0.00089798 0.0461177 )  
( 0.00193353 0.0033603 0.0747194 )  
( -0.00896935 -0.0046154 0.0750452 )  
( -0.0061938 -0.00302013 0.081494 )  
( -0.00718136 0.000481978 0.0863756 )  
( 1.17074e-05 -0.00242349 0.0835904 )  
( -0.00247002 -0.00490813 0.0643758 )  
( -0.00523467 0.00149752 0.0803172 )  
( -0.00335441 -0.00311132 0.0709046 )  
( -0.000686258 -7.02904e-06 0.0644875 )  
( 0.0036209 -0.0106655 0.049606 )  
( 0.00879806 -0.00612372 0.0739861 )  
( 0.00305984 0.00236298 0.086425 )  
( 0.00106371 -0.00820296 0.0808742 )  
( 0.00059658 -0.0105261 0.0907901 )  
( 0.00369387 -0.00500301 0.0823408 )  
( -0.00449579 -0.00578456 0.0842001 )  
( -0.0038639 -0.00636843 0.0914412 )  
( -0.00378123 -0.00487592 0.0774971 )  
( -0.00730061 -0.00384317 0.0808199 )  
( 0.00055286 -0.00335279 0.0793475 )  
( -0.00222175 -0.00248361 0.077634 )  
( -0.00310321 -0.00621025 0.0867311 )  
( -0.00569493 0.00452437 0.10367 )  
( -0.00416298 0.00255777 0.0910429 )  
( -0.00333786 -0.00134817 0.0916151 )  
( -0.000612844 -0.00512226 0.0854416 )  
( 0.00891028 0.00853935 0.0934503 )  
( -0.000670413 -0.00199993 0.0998066 )  
( -0.00888399 -0.0115335 0.104042 )  
( 0.00580205 -0.00142285 0.102974 )  
( 0.00286626 -0.00727523 0.0817037 )  
( -0.00195025 -0.00347396 0.0920978 )  
( 0.00455808 0.00634222 0.104309 )  
( -0.00567755 -0.00270557 0.0822979 )  
( -0.005881 -0.001151 0.0829285 )  
( 3.96022e-06 -0.0152791 0.102563 )  
( -0.0018883 -0.00813307 0.0899325 )  
( -0.000242194 -0.000591064 0.102618 )  
( -0.00393235 0.000823025 0.0878837 )  
( -0.00116055 0.00478263 0.108367 )  
( 0.00252938 -0.0070896 0.108878 )  
( 0.0058807 -0.00763033 0.10627 )  
( -0.000706866 -0.00701063 0.110476 )  
( 0.00572472 -0.00135149 0.102418 )  
( -0.00606152 0.0018669 0.099875 )  
( -0.00129141 -0.00339842 0.10009 )  
( 0.00385619 0.00336246 0.101616 )  
( -0.00680587 -0.00305687 0.104758 )  
( 0.00168892 -0.00272303 0.0994603 )  
( -0.00260531 -0.00557196 0.0996882 )  
( -0.00349228 -0.00261235 0.0948097 )  
( -0.000968479 -0.0118411 0.105724 )  
( -1.73499e-05 0.00447499 0.128842 )  
( -4.27654e-05 -0.00683936 0.129478 )  
( -0.00918683 -0.00563437 0.107401 )  
( -0.00755823 0.00367331 0.111168 )  
( -0.00711617 0.00253291 0.10931 )  
( -0.00703638 -0.00823116 0.116081 )  
( -0.000693996 0.00468425 0.113497 )  
( -0.00457258 -0.00800762 0.125665 )  
( -0.00548356 0.000102635 0.115078 )  
( 0.00252096 -0.00409234 0.110514 )  
( 0.00187064 0.00297283 0.122133 )  
( -5.57825e-05 0.000465298 0.106304 )  
( -0.00340043 0.00264428 0.115928 )  
( -0.00370279 -0.000129368 0.120819 )  
( 0.00124408 -0.0134249 0.125929 )  
( -0.00399551 -0.00191057 0.139331 )  
( 0.00140198 -0.00322483 0.116503 )  
( -0.000938049 -0.0106087 0.119542 )  
( -0.00254762 0.00110775 0.110379 )  
( -0.00356621 0.00308394 0.134388 )  
( -0.00602904 0.00673103 0.130613 )  
( 0.000623813 -0.00802692 0.146542 )  
( -0.0119673 0.000626656 0.122373 )  
( 0.00695936 -0.00677178 0.124195 )  
( -0.00467916 0.00749339 0.110195 )  
( 0.000756085 -0.013136 0.126274 )  
( -0.00520372 -0.00108965 0.160114 )  
( -0.00233628 -0.00474893 0.156264 )  
( -0.00196194 -0.00328463 0.143065 )  
( -0.00412444 -0.0105071 0.134751 )  
( -0.00748427 0.00322602 0.137115 )  
( -0.00242811 -0.00658005 0.152446 )  
( -0.00552018 0.00347931 0.126541 )  
( -0.00308107 -0.00279355 0.129617 )  
( -0.0022481 -0.00764853 0.136599 )  
( -0.00139326 -0.0056174 0.138304 )  
( -0.000753413 0.00324867 0.125207 )  
( -0.0110979 0.00141427 0.139385 )  
( -0.00637236 0.00538671 0.128621 )  
( -0.00902472 0.000547101 0.147918 )  
( -0.00202062 -0.00501075 0.142539 )  
( 0.000947038 0.00327844 0.146135 )  
( -0.00122527 -0.00130046 0.138089 )  
( -0.00892852 -0.00580208 0.132618 )  
( -0.00855676 -0.00360368 0.145151 )  
( -0.0198897 -0.00127191 0.155936 )  
( -0.0117348 0.00488275 0.141895 )  
( -0.0038812 -0.000818835 0.13761 )  
( -0.00245301 0.00495817 0.140275 )  
( -0.00801816 0.00129462 0.142633 )  
( 0.00294892 0.00410016 0.128583 )  
( -0.00314878 -0.00222128 0.134867 )  
( -0.000151218 0.00412711 0.126692 )  
( -0.0138712 0.000710094 0.142826 )  
( -0.00635163 -0.00302333 0.143314 )  
( 0.00649476 0.00293316 0.141212 )  
( 0.000884411 0.00158312 0.132754 )  
( 0.00334049 0.000537574 0.142683 )  
( -0.00176477 0.00120709 0.146811 )  
( 0.0151645 0.0050535 0.146494 )  
( -0.0153112 0.004602 0.158039 )  
( -0.00109339 0.0106013 0.166665 )  
( 0.00246935 -0.000482941 0.137279 )  
( -0.0062951 0.00684769 0.136059 )  
( 0.00289107 0.00464998 0.13316 )  
( 0.0023474 0.00159696 0.140912 )  
( 0.00261841 0.000463401 0.131515 )  
( -0.00579313 -0.00118364 0.14221 )  
( 0.00131456 0.00295243 0.14395 )  
( -0.0196893 0.00757874 0.157391 )  
( -0.00557857 -0.00249459 0.150754 )  
( 0.00374345 0.00436293 0.150474 )  
( -0.00144766 -0.00409964 0.155608 )  
( -0.00563432 0.0028679 0.145348 )  
( -0.00408878 0.00292117 0.139766 )  
( 0.00238342 -0.00314824 0.150981 )  
( -0.000659002 0.00485173 0.157433 )  
( -0.000322473 0.00168787 0.137766 )  
( 0.00191367 -0.00910317 0.14716 )  
( 0.00397985 -0.00122125 0.149656 )  
( -0.00956429 0.00669756 0.1697 )  
( -0.00279958 0.00964007 0.14961 )  
( -0.00201108 -0.00222572 0.157322 )  
( 0.00110611 0.00355278 0.146647 )  
( 0.0123993 -0.00323589 0.148611 )  
( 0.00189166 -0.0048238 0.142997 )  
( 0.00759974 0.0026876 0.146814 )  
( -0.0153411 0.0079249 0.131554 )  
( 0.00240527 -3.34535e-06 0.168285 )  
( 0.00861871 -0.00601458 0.142807 )  
( 0.00355681 0.00416793 0.154625 )  
( 0.00366308 0.000253534 0.141706 )  
( 0.00212564 0.00690612 0.151036 )  
( 0.00130205 -0.00261019 0.156666 )  
( 0.00828567 -0.00266527 0.153593 )  
( 0.00446111 0.00208223 0.143823 )  
( -0.0183074 0.00279363 0.142584 )  
( -0.00265534 0.0095469 0.142208 )  
( 0.000360003 0.00144434 0.147375 )  
( 0.00479719 -0.0101992 0.148246 )  
( 0.00118901 0.00299733 0.166289 )  
( 0.0158194 -0.00565378 0.151629 )  
( -0.00941449 -0.0045061 0.14507 )  
( -0.0174755 0.0147609 0.128339 )  
( -0.00142523 0.00762965 0.163594 )  
( 0.010091 -0.0122917 0.143294 )  
( 0.00443864 -0.00177137 0.138712 )  
( 0.00639277 -0.0177386 0.149848 )  
( -0.00675516 0.00835292 0.170586 )  
( -0.0184582 0.0171064 0.165322 )  
( 0.00935425 -0.00441739 0.14825 )  
( 0.0058169 -0.00739346 0.140642 )  
( -0.00389932 0.0114722 0.163402 )  
( -0.00731949 -0.0196885 0.155387 )  
( -0.0116382 0.00245938 0.154809 )  
( 0.00298258 0.00524347 0.155531 )  
( 0.00318401 0.00971707 0.145984 )  
( 0.00507038 -8.35133e-05 0.150312 )  
( -0.00947241 -0.000908291 0.155209 )  
( 0.00795278 -0.00241798 0.151049 )  
( -0.0198265 0.00330109 0.138556 )  
( -0.0190644 -0.00224219 0.154909 )  
( 0.0130559 -0.0119355 0.150668 )  
( 0.00539398 -0.00755618 0.148866 )  
( -0.00189835 0.00909368 0.129853 )  
( -0.00888161 0.0104264 0.127106 )  
( -0.0111036 -0.00280089 0.159933 )  
( 0.00803002 0.00070211 0.135331 )  
( -0.0215849 0.0122674 0.150532 )  
( -0.00635942 -0.00277758 0.135022 )  
( 0.0330055 0.0194397 0.103927 )  
( 0.0052663 0.00737366 0.140146 )  
( -0.0123987 0.0223165 0.124018 )  
( -0.0054902 -0.00636997 0.12258 )  
( 0.0114473 -0.00420061 0.131905 )  
( 0.00127786 -0.0034494 0.163648 )  
( 0.0126447 -0.002977 0.136793 )  
( -0.0356848 0.0309102 0.130689 )  
( -0.00527369 0.00687745 0.125267 )  
( 0.00541203 -0.00432583 0.125872 )  
( -0.0130224 -0.000766864 0.14289 )  
( -0.0110849 0.0109525 0.17963 )  
( -0.00521065 0.00914277 0.1265 )  
( 0.00919742 0.00135912 0.151856 )  
( 0.0159758 0.000545147 0.139678 )  
( 0.014208 -0.00910725 0.0354356 )  
( 0.00359718 -0.00434424 0.0105925 )  
( -0.0180116 -0.0120922 0.13846 )  
( -0.0171497 -0.00133249 0.139307 )  
( -0.00888206 -0.0498845 0.149086 )  
( 0.00501468 0.0215996 0.0691581 )  
( 0.0445815 -0.0196718 0.110745 )  
( -0.010778 0.0130695 0.154347 )  
( -0.0192984 0.0162653 0.138336 )  
( -0.00239892 -0.00412995 0.138217 )  
( -0.00595255 -0.0131401 0.141218 )  
( -0.0134635 -0.00855915 0.138148 )  
( 0.0169376 -0.00340703 0.0974874 )  
( 0.00760757 -0.00117387 0.00617916 )  
( -0.0420195 -0.00185346 0.114308 )  
( -0.00559889 -0.00437852 0.00919238 )  
( 0.00450179 0.0233367 0.144319 )  
( -0.0214228 -0.0352464 0.136674 )  
( -0.0132983 0.0137752 0.0272359 )  
( -0.00160625 0.000833364 -0.00182485 )  
( 0.00416469 -0.00102404 0.0062643 )  
( -0.00844053 0.00594412 0.0607513 )  
( 0.0434681 -0.010822 0.0712375 )  
( 0.00525414 -0.000488368 0.0158154 )  
)
