/*--------------------------------*- C++ -*----------------------------------*\
| =========                 |                                                 |
| \\      /  F ield         | OpenFOAM: The Open Source CFD Toolbox           |
|  \\    /   O peration     | Version:  5.x                                   |
|   \\  /    A nd           | Web:      www.OpenFOAM.org                      |
|    \\/     M anipulation  |                                                 |
\*---------------------------------------------------------------------------*/
FoamFile
{
    version     2.0;
    format      ascii;
    class       surfaceScalarField;
    location    "300";
    object      phi;
}
// * * * * * * * * * * * * * * * * * * * * * * * * * * * * * * * * * * * * * //

dimensions      [0 3 -1 0 0 0 0];

internalField   nonuniform List<scalar> 
89
(
-111.956
-111.972
-111.963
-111.93
-111.917
-111.888
-111.848
-111.823
-111.803
-111.79
-111.785
-111.787
-111.802
-111.849
-111.928
-111.99
-112.075
-112.175
-112.308
-112.455
-112.652
-112.88
-113.162
-113.497
-113.875
-114.278
-114.69
-115.096
-115.478
-115.824
-116.118
-116.347
-116.502
-116.572
-116.552
-116.441
-116.241
-115.958
-115.606
-115.2
-114.76
-114.307
-113.861
-113.44
-113.056
-112.712
-112.404
-112.115
-111.821
-111.489
-111.086
-110.579
-109.941
-109.154
-108.209
-107.106
-105.849
-104.449
-102.921
-101.284
-99.561
-97.7742
-95.9485
-94.1082
-92.2766
-90.4745
-88.72
-87.0271
-85.4054
-83.8598
-82.3942
-81.0133
-79.7224
-78.527
-77.4303
-76.4349
-75.5421
-74.7499
-74.0545
-73.4479
-72.9191
-72.4522
-72.0263
-71.6151
-71.1844
-70.6967
-70.1044
-69.36
-68.3729
)
;

boundaryField
{
    inlet
    {
        type            calculated;
        value           uniform -67.2003;
    }
    outlet
    {
        type            calculated;
        value           uniform 111.926;
    }
    repeat_boundary
    {
        type            calculated;
        value           uniform 0;
    }
    procBoundary3to1
    {
        type            processor;
        value           nonuniform List<scalar> 
90
(
0.0157172
0.016952
0.0150892
0.008804
0.0226061
0.0222974
0.0290891
0.0431976
0.0583699
0.0808153
0.090521
0.116042
0.150785
0.185934
0.223286
0.255998
0.291419
0.336264
0.381415
0.418499
0.480369
0.538536
0.610498
0.692439
0.783418
0.871098
0.958417
1.04437
1.12847
1.20981
1.28739
1.36001
1.42647
1.48565
1.53666
1.57893
1.61241
1.63756
1.65542
1.66755
1.67587
1.68245
1.68924
1.69775
1.70868
1.72199
1.73651
1.75032
1.76121
1.76671
1.76439
1.75212
1.72871
1.694
1.64807
1.58852
1.51422
1.42549
1.32305
1.20845
1.08402
0.952654
0.817595
0.682052
0.54886
0.420361
0.298575
0.185328
0.082122
-0.0100733
-0.0906778
-0.158814
-0.214189
-0.256532
-0.287387
-0.309499
-0.32521
-0.337018
-0.347094
-0.357195
-0.368828
-0.383589
-0.403551
-0.431938
-0.473005
-0.529394
-0.607039
-0.712961
-0.904452
-1.03188
)
;
    }
    procBoundary3to2
    {
        type            processor;
        value           nonuniform List<scalar> 
90
(
0.0141735
-0.000519305
-0.0239927
-0.0422341
-0.0360566
-0.0507089
-0.0690811
-0.0684732
-0.0786408
-0.0938862
-0.0953589
-0.114195
-0.13526
-0.139068
-0.144492
-0.193286
-0.207172
-0.235598
-0.248726
-0.271545
-0.283758
-0.309723
-0.328434
-0.358194
-0.405238
-0.467928
-0.546176
-0.639068
-0.745609
-0.864368
-0.993424
-1.13038
-1.27227
-1.41558
-1.55631
-1.69015
-1.8127
-1.91972
-2.00754
-2.07344
-2.11607
-2.13585
-2.13523
-2.11878
-2.0929
-2.06533
-2.0446
-2.03915
-2.05582
-2.09855
-2.16757
-2.25924
-2.3667
-2.48095
-2.59231
-2.69166
-2.77137
-2.8257
-2.85091
-2.84499
-2.8075
-2.73949
-2.64331
-2.5223
-2.38047
-2.22243
-2.05315
-1.87815
-1.70388
-1.53553
-1.37488
-1.22208
-1.07674
-0.938888
-0.809298
-0.685846
-0.567583
-0.455205
-0.348289
-0.249425
-0.159995
-0.0833171
-0.0223006
0.0207388
0.0422613
0.0416575
0.014751
-0.0313805
-0.0826265
-0.140782
)
;
    }
}


// ************************************************************************* //
