/*--------------------------------*- C++ -*----------------------------------*\
| =========                 |                                                 |
| \\      /  F ield         | OpenFOAM: The Open Source CFD Toolbox           |
|  \\    /   O peration     | Version:  5.x                                   |
|   \\  /    A nd           | Web:      www.OpenFOAM.org                      |
|    \\/     M anipulation  |                                                 |
\*---------------------------------------------------------------------------*/
FoamFile
{
    version     2.0;
    format      ascii;
    class       volVectorField;
    location    "300";
    object      stored_U;
}
// * * * * * * * * * * * * * * * * * * * * * * * * * * * * * * * * * * * * * //

dimensions      [0 1 -1 0 0 0 0];

internalField   nonuniform List<vector> 
90
(
(-0.0333944 0.000914813 -4.41821)
(-0.0275307 0.00414524 -4.40618)
(-0.022962 0.00661554 -4.43878)
(-0.0210417 0.00788505 -4.41071)
(-0.0247746 0.00687164 -4.42511)
(-0.0236615 0.0109703 -4.4445)
(-0.0182386 0.0171586 -4.43896)
(-0.0145603 0.0204049 -4.4388)
(-0.0102017 0.0216167 -4.43788)
(-0.00633925 0.0211298 -4.43464)
(-0.00407308 0.0191197 -4.43082)
(-0.00113051 0.0169617 -4.42839)
(0.00372573 0.0151428 -4.42887)
(0.00738893 0.0141915 -4.42831)
(0.00619958 0.00966259 -4.39218)
(0.00675573 -0.00202944 -4.40807)
(0.00875772 -0.00618078 -4.42121)
(0.0107861 -0.00755779 -4.40861)
(0.00518842 -0.018832 -4.39245)
(3.35248e-05 -0.0266833 -4.42158)
(-0.0101476 -0.0361973 -4.42165)
(-0.0212095 -0.0474752 -4.40256)
(-0.0210686 -0.0584814 -4.4323)
(-0.0205651 -0.0698477 -4.44182)
(-0.0161102 -0.0815016 -4.45839)
(-0.00859833 -0.0939722 -4.47544)
(0.00224667 -0.106811 -4.49382)
(0.0165159 -0.11974 -4.51254)
(0.0342264 -0.132458 -4.53127)
(0.0553372 -0.144571 -4.54924)
(0.0796923 -0.155658 -4.56588)
(0.107009 -0.16528 -4.58054)
(0.13686 -0.173003 -4.59261)
(0.168676 -0.178433 -4.60154)
(0.201751 -0.181246 -4.60682)
(0.235284 -0.181232 -4.60809)
(0.268424 -0.17833 -4.60511)
(0.300345 -0.172664 -4.59782)
(0.330314 -0.164563 -4.58641)
(0.357767 -0.154565 -4.57125)
(0.382369 -0.143392 -4.55299)
(0.40404 -0.131889 -4.53246)
(0.422946 -0.120936 -4.51065)
(0.439449 -0.111348 -4.48863)
(0.454 -0.103732 -4.46745)
(0.46703 -0.0983815 -4.44793)
(0.478868 -0.095256 -4.43046)
(0.48972 -0.0938722 -4.41534)
(0.499709 -0.0935732 -4.40218)
(0.508892 -0.0936925 -4.39011)
(0.5173 -0.0936169 -4.37785)
(0.524996 -0.0928844 -4.36394)
(0.532103 -0.0912509 -4.34683)
(0.538776 -0.0887061 -4.32519)
(0.545108 -0.0853259 -4.29802)
(0.551057 -0.0811464 -4.26465)
(0.556422 -0.0761855 -4.22481)
(0.560884 -0.0704324 -4.17851)
(0.564099 -0.063891 -4.126)
(0.565821 -0.0566213 -4.06795)
(0.565986 -0.048842 -4.00506)
(0.564755 -0.0408633 -3.93826)
(0.562505 -0.0329795 -3.86853)
(0.559779 -0.0252751 -3.79698)
(0.557233 -0.0175111 -3.72458)
(0.555543 -0.00910476 -3.65252)
(0.555245 0.000745081 -3.5818)
(0.556627 0.0128811 -3.51313)
(0.559747 0.0279746 -3.44728)
(0.564402 0.0463257 -3.38459)
(0.570225 0.0678416 -3.32543)
(0.576598 0.0919214 -3.26988)
(0.582718 0.117786 -3.21773)
(0.588026 0.1452 -3.16929)
(0.592316 0.173912 -3.1245)
(0.595477 0.203646 -3.08313)
(0.597821 0.234211 -3.04486)
(0.599709 0.265851 -3.01044)
(0.601597 0.299213 -2.97922)
(0.604066 0.335131 -2.95114)
(0.607762 0.37438 -2.92574)
(0.613475 0.417577 -2.90249)
(0.622016 0.465474 -2.88058)
(0.634482 0.519091 -2.85886)
(0.652123 0.579368 -2.83651)
(0.675876 0.648394 -2.81279)
(0.706563 0.727609 -2.7875)
(0.745452 0.822967 -2.75483)
(0.795289 0.936543 -2.69813)
(0.84059 1.02699 -2.6327)
)
;

boundaryField
{
    inlet
    {
        type            calculated;
        value           uniform (0.84059 1.02699 -2.6327);
    }
    outlet
    {
        type            calculated;
        value           uniform (-0.0333944 0.000914813 -4.41821);
    }
    repeat_boundary
    {
        type            calculated;
        value           nonuniform List<vector> 
180
(
(0 0.000914813 -4.41821)
(0 0.00414524 -4.40618)
(0 0.00661554 -4.43878)
(0 0.00788505 -4.41071)
(0 0.00687164 -4.42511)
(0 0.0109703 -4.4445)
(0 0.0171586 -4.43896)
(0 0.0204049 -4.4388)
(0 0.0216167 -4.43788)
(0 0.0211298 -4.43464)
(0 0.0191197 -4.43082)
(0 0.0169617 -4.42839)
(0 0.0151428 -4.42887)
(0 0.0141915 -4.42831)
(0 0.00966259 -4.39218)
(0 -0.00202944 -4.40807)
(0 -0.00618078 -4.42121)
(0 -0.00755779 -4.40861)
(0 -0.018832 -4.39245)
(0 -0.0266833 -4.42158)
(0 -0.0361973 -4.42165)
(0 -0.0474752 -4.40256)
(0 -0.0584814 -4.4323)
(0 -0.0698477 -4.44182)
(0 -0.0815016 -4.45839)
(0 -0.0939722 -4.47544)
(0 -0.106811 -4.49382)
(0 -0.11974 -4.51254)
(0 -0.132458 -4.53127)
(0 -0.144571 -4.54924)
(0 -0.155658 -4.56588)
(0 -0.16528 -4.58054)
(0 -0.173003 -4.59261)
(0 -0.178433 -4.60154)
(0 -0.181246 -4.60682)
(0 -0.181232 -4.60809)
(0 -0.17833 -4.60511)
(0 -0.172664 -4.59782)
(0 -0.164563 -4.58641)
(0 -0.154565 -4.57125)
(0 -0.143392 -4.55299)
(0 -0.131889 -4.53246)
(0 -0.120936 -4.51065)
(0 -0.111348 -4.48863)
(0 -0.103732 -4.46745)
(0 -0.0983815 -4.44793)
(0 -0.095256 -4.43046)
(0 -0.0938722 -4.41534)
(0 -0.0935732 -4.40218)
(0 -0.0936925 -4.39011)
(0 -0.0936169 -4.37785)
(0 -0.0928844 -4.36394)
(0 -0.0912509 -4.34683)
(0 -0.0887061 -4.32519)
(0 -0.0853259 -4.29802)
(0 -0.0811464 -4.26465)
(0 -0.0761855 -4.22481)
(0 -0.0704324 -4.17851)
(0 -0.063891 -4.126)
(0 -0.0566213 -4.06795)
(0 -0.048842 -4.00506)
(0 -0.0408633 -3.93826)
(0 -0.0329795 -3.86853)
(0 -0.0252751 -3.79698)
(0 -0.0175111 -3.72458)
(0 -0.00910476 -3.65252)
(0 0.000745081 -3.5818)
(0 0.0128811 -3.51313)
(0 0.0279746 -3.44728)
(0 0.0463257 -3.38459)
(0 0.0678416 -3.32543)
(0 0.0919214 -3.26988)
(0 0.117786 -3.21773)
(0 0.1452 -3.16929)
(0 0.173912 -3.1245)
(0 0.203646 -3.08313)
(0 0.234211 -3.04486)
(0 0.265851 -3.01044)
(0 0.299213 -2.97922)
(0 0.335131 -2.95114)
(0 0.37438 -2.92574)
(0 0.417577 -2.90249)
(0 0.465474 -2.88058)
(0 0.519091 -2.85886)
(0 0.579368 -2.83651)
(0 0.648394 -2.81279)
(0 0.727609 -2.7875)
(0 0.822967 -2.75483)
(0 0.936543 -2.69813)
(0 1.02699 -2.6327)
(-0.0333944 0 -4.41821)
(-0.0275307 0 -4.40618)
(-0.022962 0 -4.43878)
(-0.0210417 0 -4.41071)
(-0.0247746 0 -4.42511)
(-0.0236615 0 -4.4445)
(-0.0182386 0 -4.43896)
(-0.0145603 0 -4.4388)
(-0.0102017 0 -4.43788)
(-0.00633925 0 -4.43464)
(-0.00407308 0 -4.43082)
(-0.00113051 0 -4.42839)
(0.00372573 0 -4.42887)
(0.00738893 0 -4.42831)
(0.00619958 0 -4.39218)
(0.00675573 0 -4.40807)
(0.00875772 0 -4.42121)
(0.0107861 0 -4.40861)
(0.00518842 0 -4.39245)
(3.35248e-05 0 -4.42158)
(-0.0101476 0 -4.42165)
(-0.0212095 0 -4.40256)
(-0.0210686 0 -4.4323)
(-0.0205651 0 -4.44182)
(-0.0161102 0 -4.45839)
(-0.00859833 0 -4.47544)
(0.00224667 0 -4.49382)
(0.0165159 0 -4.51254)
(0.0342264 0 -4.53127)
(0.0553372 0 -4.54924)
(0.0796923 0 -4.56588)
(0.107009 0 -4.58054)
(0.13686 0 -4.59261)
(0.168676 0 -4.60154)
(0.201751 0 -4.60682)
(0.235284 0 -4.60809)
(0.268424 0 -4.60511)
(0.300345 0 -4.59782)
(0.330314 0 -4.58641)
(0.357767 0 -4.57125)
(0.382369 0 -4.55299)
(0.40404 0 -4.53246)
(0.422946 0 -4.51065)
(0.439449 0 -4.48863)
(0.454 0 -4.46745)
(0.46703 0 -4.44793)
(0.478868 0 -4.43046)
(0.48972 0 -4.41534)
(0.499709 0 -4.40218)
(0.508892 0 -4.39011)
(0.5173 0 -4.37785)
(0.524996 0 -4.36394)
(0.532103 0 -4.34683)
(0.538776 0 -4.32519)
(0.545108 0 -4.29802)
(0.551057 0 -4.26465)
(0.556422 0 -4.22481)
(0.560884 0 -4.17851)
(0.564099 0 -4.126)
(0.565821 0 -4.06795)
(0.565986 0 -4.00506)
(0.564755 0 -3.93826)
(0.562505 0 -3.86853)
(0.559779 0 -3.79698)
(0.557233 0 -3.72458)
(0.555543 0 -3.65252)
(0.555245 0 -3.5818)
(0.556627 0 -3.51313)
(0.559747 0 -3.44728)
(0.564402 0 -3.38459)
(0.570225 0 -3.32543)
(0.576598 0 -3.26988)
(0.582718 0 -3.21773)
(0.588026 0 -3.16929)
(0.592316 0 -3.1245)
(0.595477 0 -3.08313)
(0.597821 0 -3.04486)
(0.599709 0 -3.01044)
(0.601597 0 -2.97922)
(0.604066 0 -2.95114)
(0.607762 0 -2.92574)
(0.613475 0 -2.90249)
(0.622016 0 -2.88058)
(0.634482 0 -2.85886)
(0.652123 0 -2.83651)
(0.675876 0 -2.81279)
(0.706563 0 -2.7875)
(0.745452 0 -2.75483)
(0.795289 0 -2.69813)
(0.84059 0 -2.6327)
)
;
    }
    procBoundary3to1
    {
        type            processor;
        value           nonuniform List<vector> 
90
(
(-0.0276215 -0.017717 -4.45857)
(-0.0288935 -0.0181958 -4.44808)
(-0.0258907 -0.0216148 -4.45374)
(-0.0248244 -0.0241755 -4.45972)
(-0.018065 -0.0247674 -4.45083)
(-0.0216458 -0.0251154 -4.45116)
(-0.0230398 -0.0203338 -4.44233)
(-0.0229242 -0.0207542 -4.44816)
(-0.0199291 -0.0227033 -4.44393)
(-0.0177804 -0.0272041 -4.43047)
(-0.0117224 -0.0326711 -4.43148)
(-0.00826426 -0.0379349 -4.42297)
(-0.00719953 -0.0430172 -4.41464)
(-0.007158 -0.0470408 -4.40378)
(-0.00311903 -0.0578176 -4.381)
(0.00142015 -0.0756256 -4.37433)
(-0.00214266 -0.084216 -4.34575)
(-0.00842295 -0.0972686 -4.32866)
(-0.0137348 -0.109393 -4.31057)
(-0.0204132 -0.120949 -4.28872)
(-0.0330478 -0.14038 -4.25307)
(-0.0402492 -0.153103 -4.24495)
(-0.0514933 -0.174237 -4.19887)
(-0.0559768 -0.191775 -4.17838)
(-0.0594308 -0.211144 -4.14691)
(-0.0599837 -0.230967 -4.1135)
(-0.0582946 -0.251295 -4.07776)
(-0.0543739 -0.272116 -4.03889)
(-0.0484505 -0.293416 -3.99668)
(-0.0408271 -0.315111 -3.95091)
(-0.0318817 -0.337088 -3.9014)
(-0.0220475 -0.359181 -3.84811)
(-0.0117867 -0.381172 -3.7911)
(-0.00155599 -0.402796 -3.73058)
(0.00822536 -0.423758 -3.66689)
(0.0172054 -0.443756 -3.60051)
(0.0251208 -0.462513 -3.53199)
(0.0318118 -0.479799 -3.46194)
(0.0372306 -0.495468 -3.39102)
(0.0414371 -0.509464 -3.31981)
(0.0445846 -0.521839 -3.24879)
(0.0468998 -0.532738 -3.1783)
(0.0486538 -0.542375 -3.10851)
(0.0501335 -0.551006 -3.03942)
(0.0516316 -0.558786 -2.97068)
(0.0533652 -0.565847 -2.90188)
(0.055527 -0.572243 -2.83247)
(0.0583136 -0.577897 -2.76187)
(0.0619344 -0.582572 -2.68954)
(0.0666013 -0.585897 -2.61495)
(0.0724272 -0.58737 -2.53778)
(0.0794574 -0.586388 -2.45803)
(0.0876693 -0.582391 -2.37537)
(0.0969725 -0.575149 -2.2902)
(0.107132 -0.56507 -2.2024)
(0.118034 -0.551728 -2.11238)
(0.129903 -0.533843 -2.02073)
(0.142679 -0.511474 -1.92796)
(0.156364 -0.484816 -1.83469)
(0.171053 -0.454228 -1.74155)
(0.18695 -0.420249 -1.64912)
(0.204325 -0.38361 -1.55788)
(0.223431 -0.345244 -1.46817)
(0.244387 -0.306276 -1.38018)
(0.26707 -0.267974 -1.294)
(0.291055 -0.231654 -1.2097)
(0.315629 -0.198584 -1.12737)
(0.33989 -0.169891 -1.04718)
(0.362886 -0.146422 -0.969291)
(0.383739 -0.128658 -0.894081)
(0.401689 -0.116664 -0.821935)
(0.416083 -0.110135 -0.753217)
(0.426378 -0.108578 -0.688351)
(0.432153 -0.111388 -0.627596)
(0.433119 -0.117908 -0.571163)
(0.429158 -0.127503 -0.519651)
(0.420207 -0.139677 -0.473516)
(0.406045 -0.154119 -0.432185)
(0.386531 -0.170377 -0.396015)
(0.361593 -0.188114 -0.365253)
(0.331244 -0.207155 -0.340155)
(0.295534 -0.227418 -0.320999)
(0.254699 -0.248895 -0.308083)
(0.209294 -0.271565 -0.30172)
(0.160254 -0.295297 -0.301926)
(0.109235 -0.320018 -0.309194)
(0.0602234 -0.346103 -0.323959)
(0.0165827 -0.373732 -0.351004)
(-0.0109177 -0.401668 -0.393641)
(-0.0228245 -0.420984 -0.408451)
)
;
    }
    procBoundary3to2
    {
        type            processor;
        value           nonuniform List<vector> 
90
(
(0.00823328 0.00193136 -4.28347)
(0.00553921 0.00340952 -4.28478)
(0.00155873 0.00477797 -4.27981)
(0.00560657 0.00563664 -4.26491)
(0.00460464 0.00842702 -4.28022)
(0.0104555 0.0105814 -4.26869)
(0.0240749 0.00894895 -4.2562)
(0.0276664 0.0123073 -4.2721)
(0.0351831 0.0131625 -4.26179)
(0.0439636 0.00835758 -4.25967)
(0.0515539 0.0097133 -4.27327)
(0.0566897 0.00883676 -4.27448)
(0.0637087 0.00404542 -4.27459)
(0.0752092 0.00186672 -4.29807)
(0.084481 -0.00239109 -4.29729)
(0.0874742 -0.00506711 -4.30972)
(0.0925202 -0.00840865 -4.32912)
(0.098177 -0.010963 -4.34698)
(0.0989988 -0.0131738 -4.36824)
(0.0999592 -0.0155253 -4.3912)
(0.104754 -0.0176402 -4.41622)
(0.109054 -0.0194282 -4.44317)
(0.113702 -0.0210284 -4.4726)
(0.121891 -0.0224357 -4.50458)
(0.133055 -0.0235181 -4.53998)
(0.147197 -0.0242501 -4.57938)
(0.164309 -0.0245158 -4.62337)
(0.184411 -0.0241489 -4.67248)
(0.207406 -0.0229323 -4.72725)
(0.233157 -0.0205811 -4.78819)
(0.261415 -0.0167428 -4.85575)
(0.291813 -0.010998 -4.93036)
(0.323839 -0.00286732 -5.01236)
(0.356815 0.0081755 -5.10199)
(0.389883 0.0226797 -5.19935)
(0.42199 0.041172 -5.30436)
(0.451882 0.0640795 -5.41669)
(0.478168 0.0917094 -5.53578)
(0.499359 0.12415 -5.66078)
(0.513999 0.161234 -5.79063)
(0.520806 0.202465 -5.924)
(0.518885 0.247028 -6.05949)
(0.507956 0.29379 -6.19561)
(0.488592 0.341381 -6.33096)
(0.462379 0.388276 -6.46432)
(0.431966 0.43294 -6.59481)
(0.400934 0.473983 -6.72208)
(0.373493 0.510175 -6.846)
(0.353929 0.540619 -6.96704)
(0.345844 0.564739 -7.08614)
(0.351406 0.582119 -7.20452)
(0.370832 0.592322 -7.32354)
(0.402275 0.594768 -7.44449)
(0.44219 0.588756 -7.56848)
(0.486024 0.573772 -7.69633)
(0.529072 0.549796 -7.82844)
(0.567206 0.517656 -7.9648)
(0.597233 0.479124 -8.10501)
(0.616905 0.436591 -8.24828)
(0.624735 0.392539 -8.39339)
(0.619789 0.348713 -8.53889)
(0.601657 0.305583 -8.68324)
(0.570498 0.262141 -8.82499)
(0.526984 0.216425 -8.96307)
(0.472143 0.166342 -9.09686)
(0.407304 0.110693 -9.22617)
(0.334025 0.0500563 -9.35119)
(0.25418 -0.0129253 -9.47215)
(0.170867 -0.0748623 -9.58943)
(0.0879543 -0.133243 -9.70337)
(0.00775244 -0.186596 -9.81426)
(-0.0686078 -0.234384 -9.92258)
(-0.140323 -0.276656 -10.0283)
(-0.206953 -0.312217 -10.1318)
(-0.267337 -0.342102 -10.2322)
(-0.322139 -0.364786 -10.3307)
(-0.372846 -0.383155 -10.4248)
(-0.419528 -0.395338 -10.5164)
(-0.463451 -0.404455 -10.6027)
(-0.504325 -0.409455 -10.6852)
(-0.542419 -0.41345 -10.7619)
(-0.577429 -0.415632 -10.8338)
(-0.608623 -0.41728 -10.9)
(-0.636202 -0.417716 -10.9611)
(-0.659622 -0.417529 -11.0172)
(-0.679916 -0.416341 -11.0683)
(-0.696905 -0.413049 -11.1135)
(-0.71136 -0.407209 -11.154)
(-0.724155 -0.400612 -11.1991)
(-0.729981 -0.397866 -11.2302)
)
;
    }
}


// ************************************************************************* //
