/*--------------------------------*- C++ -*----------------------------------*\
| =========                 |                                                 |
| \\      /  F ield         | OpenFOAM: The Open Source CFD Toolbox           |
|  \\    /   O peration     | Version:  5.x                                   |
|   \\  /    A nd           | Web:      www.OpenFOAM.org                      |
|    \\/     M anipulation  |                                                 |
\*---------------------------------------------------------------------------*/
FoamFile
{
    version     2.0;
    format      ascii;
    class       volVectorField;
    location    "90000";
    object      stored_U;
}
// * * * * * * * * * * * * * * * * * * * * * * * * * * * * * * * * * * * * * //

dimensions      [0 1 -1 0 0 0 0];

internalField   nonuniform List<vector> 
2250
(
(-7.87272e-12 2.47051e-10 -0.000999999)
(6.80197e-13 2.35498e-10 -0.000999999)
(1.21045e-11 2.21077e-10 -0.000999999)
(2.17334e-11 1.99617e-10 -0.000999999)
(8.02636e-12 1.71558e-10 -0.000999998)
(-1.3693e-11 2.14973e-10 -0.000999998)
(-1.3227e-11 2.06828e-10 -0.000999998)
(-4.11958e-12 1.92318e-10 -0.000999998)
(9.3493e-13 1.76351e-10 -0.000999998)
(-3.01032e-11 1.54312e-10 -0.000999998)
(-1.64202e-11 1.58512e-10 -0.000999998)
(-2.23955e-11 1.54523e-10 -0.000999998)
(-1.84009e-11 1.43433e-10 -0.000999998)
(-1.62798e-11 1.28417e-10 -0.000999998)
(-3.90181e-11 1.0802e-10 -0.000999998)
(-1.79283e-11 1.04108e-10 -0.000999998)
(-2.85968e-11 1.03464e-10 -0.000999998)
(-3.02395e-11 9.59079e-11 -0.000999998)
(-3.44653e-11 8.30528e-11 -0.000999998)
(-5.29157e-11 6.70825e-11 -0.000999998)
(-1.71773e-11 3.72867e-11 -0.000999997)
(-3.07214e-11 3.80667e-11 -0.000999998)
(-3.87744e-11 3.5185e-11 -0.000999998)
(-4.49372e-11 2.95236e-11 -0.000999998)
(-6.07068e-11 2.45356e-11 -0.000999998)
(-1.61982e-11 6.57215e-10 -0.000999998)
(3.91134e-13 6.29192e-10 -0.000999998)
(1.25585e-11 5.94758e-10 -0.000999998)
(4.95888e-12 5.40155e-10 -0.000999998)
(-2.29244e-12 4.60159e-10 -0.000999999)
(-2.96113e-11 5.79802e-10 -0.000999998)
(-3.55263e-11 5.60611e-10 -0.000999998)
(-3.22008e-11 5.21831e-10 -0.000999998)
(-4.42762e-11 4.78863e-10 -0.000999998)
(-1.02317e-10 4.3203e-10 -0.000999998)
(-3.62885e-11 4.27264e-10 -0.000999998)
(-5.85799e-11 4.1818e-10 -0.000999998)
(-6.92572e-11 3.89341e-10 -0.000999998)
(-8.48672e-11 3.50047e-10 -0.000999998)
(-1.3473e-10 3.05697e-10 -0.000999998)
(-3.93409e-11 2.82852e-10 -0.000999997)
(-7.41823e-11 2.83187e-10 -0.000999997)
(-1.00364e-10 2.62436e-10 -0.000999997)
(-1.27888e-10 2.2961e-10 -0.000999998)
(-1.68971e-10 1.92268e-10 -0.000999998)
(-3.62868e-11 1.02767e-10 -0.000999997)
(-7.93389e-11 1.05922e-10 -0.000999997)
(-1.22692e-10 9.77041e-11 -0.000999997)
(-1.54574e-10 8.35092e-11 -0.000999997)
(-1.90348e-10 7.05556e-11 -0.000999998)
(-2.82027e-11 1.11628e-09 -0.000999998)
(-5.30378e-11 1.08878e-09 -0.000999998)
(-1.0191e-10 1.04762e-09 -0.000999998)
(-1.81787e-10 9.87646e-10 -0.000999998)
(-1.40382e-10 8.70117e-10 -0.000999999)
(-4.31121e-11 9.95665e-10 -0.000999998)
(-9.46348e-11 9.73533e-10 -0.000999998)
(-1.5235e-10 9.2569e-10 -0.000999998)
(-2.24506e-10 8.75221e-10 -0.000999998)
(-2.78229e-10 8.35536e-10 -0.000999998)
(-5.19065e-11 7.56075e-10 -0.000999997)
(-1.24792e-10 7.44717e-10 -0.000999997)
(-2.0032e-10 7.06592e-10 -0.000999997)
(-2.71878e-10 6.55686e-10 -0.000999997)
(-3.27785e-10 6.09058e-10 -0.000999998)
(-5.5682e-11 5.01609e-10 -0.000999997)
(-1.45453e-10 5.0191e-10 -0.000999997)
(-2.41425e-10 4.73362e-10 -0.000999997)
(-3.21985e-10 4.31013e-10 -0.000999997)
(-3.70818e-10 3.92123e-10 -0.000999997)
(-5.23286e-11 1.81862e-10 -0.000999997)
(-1.53699e-10 1.85445e-10 -0.000999997)
(-2.70815e-10 1.73759e-10 -0.000999997)
(-3.52314e-10 1.55715e-10 -0.000999997)
(-3.96964e-10 1.42618e-10 -0.000999997)
(-5.88068e-11 1.66774e-09 -0.000999998)
(-1.81794e-10 1.65373e-09 -0.000999998)
(-3.41439e-10 1.61885e-09 -0.000999998)
(-5.41296e-10 1.56265e-09 -0.000999998)
(-3.94186e-10 1.42056e-09 -0.000999999)
(-6.76143e-11 1.49192e-09 -0.000999997)
(-2.09892e-10 1.47709e-09 -0.000999997)
(-3.68561e-10 1.43554e-09 -0.000999997)
(-5.23123e-10 1.40188e-09 -0.000999998)
(-5.64692e-10 1.41417e-09 -0.000999998)
(-7.62027e-11 1.16858e-09 -0.000999997)
(-2.41014e-10 1.15698e-09 -0.000999997)
(-4.16888e-10 1.11891e-09 -0.000999997)
(-5.62704e-10 1.06873e-09 -0.000999997)
(-6.13287e-10 1.03888e-09 -0.000999997)
(-8.12528e-11 7.6755e-10 -0.000999996)
(-2.61773e-10 7.63212e-10 -0.000999996)
(-4.56933e-10 7.36792e-10 -0.000999996)
(-6.03092e-10 6.98222e-10 -0.000999997)
(-6.51611e-10 6.7451e-10 -0.000999997)
(-8.17069e-11 2.73403e-10 -0.000999996)
(-2.72733e-10 2.73291e-10 -0.000999996)
(-4.81098e-10 2.62556e-10 -0.000999996)
(-6.23725e-10 2.4838e-10 -0.000999996)
(-6.71192e-10 2.40723e-10 -0.000999997)
(-1.1005e-10 2.3818e-09 -0.000999997)
(-3.71447e-10 2.38631e-09 -0.000999997)
(-6.5902e-10 2.36064e-09 -0.000999998)
(-9.59309e-10 2.32089e-09 -0.000999998)
(-7.34528e-10 2.15977e-09 -0.000999999)
(-1.12182e-10 2.13266e-09 -0.000999997)
(-3.78039e-10 2.12695e-09 -0.000999997)
(-6.49838e-10 2.10421e-09 -0.000999997)
(-8.82017e-10 2.09525e-09 -0.000999997)
(-9.13074e-10 2.16135e-09 -0.000999998)
(-1.19452e-10 1.70416e-09 -0.000999996)
(-4.03944e-10 1.69371e-09 -0.000999996)
(-6.91022e-10 1.66264e-09 -0.000999996)
(-9.02211e-10 1.62111e-09 -0.000999997)
(-9.56769e-10 1.61861e-09 -0.000999997)
(-1.25614e-10 1.10289e-09 -0.000999995)
(-4.22747e-10 1.09205e-09 -0.000999995)
(-7.22579e-10 1.07303e-09 -0.000999996)
(-9.25934e-10 1.04752e-09 -0.000999996)
(-9.82185e-10 1.04499e-09 -0.000999996)
(-1.31919e-10 3.84077e-10 -0.000999995)
(-4.35038e-10 3.78198e-10 -0.000999995)
(-7.34291e-10 3.71741e-10 -0.000999995)
(-9.28379e-10 3.65217e-10 -0.000999996)
(-9.87097e-10 3.67478e-10 -0.000999996)
(-1.84511e-10 3.33922e-09 -0.000999997)
(-5.92445e-10 3.35932e-09 -0.000999997)
(-9.95159e-10 3.34307e-09 -0.000999998)
(-1.38273e-09 3.31366e-09 -0.000999998)
(-1.11987e-09 3.13396e-09 -0.000999998)
(-1.79647e-10 2.99958e-09 -0.000999996)
(-5.83255e-10 3.00464e-09 -0.000999996)
(-9.59382e-10 2.99628e-09 -0.000999996)
(-1.26139e-09 3.01174e-09 -0.000999997)
(-1.2979e-09 3.12395e-09 -0.000999997)
(-1.84683e-10 2.41075e-09 -0.000999995)
(-6.01401e-10 2.40317e-09 -0.000999995)
(-9.88457e-10 2.38135e-09 -0.000999995)
(-1.25511e-09 2.35218e-09 -0.000999996)
(-1.34183e-09 2.38156e-09 -0.000999996)
(-1.91388e-10 1.54138e-09 -0.000999994)
(-6.17145e-10 1.52672e-09 -0.000999995)
(-1.01058e-09 1.5165e-09 -0.000999995)
(-1.26106e-09 1.50485e-09 -0.000999995)
(-1.34896e-09 1.52267e-09 -0.000999995)
(-2.01563e-10 5.27274e-10 -0.000999994)
(-6.27936e-10 5.17636e-10 -0.000999994)
(-1.00859e-09 5.16322e-10 -0.000999994)
(-1.24649e-09 5.17834e-10 -0.000999995)
(-1.33873e-09 5.28535e-10 -0.000999995)
(-2.75456e-10 4.63225e-09 -0.000999997)
(-8.31369e-10 4.65745e-09 -0.000999997)
(-1.34088e-09 4.64549e-09 -0.000999997)
(-1.8074e-09 4.61594e-09 -0.000999998)
(-1.5617e-09 4.42795e-09 -0.000999998)
(-2.67841e-10 4.1787e-09 -0.000999995)
(-8.17687e-10 4.19077e-09 -0.000999995)
(-1.29345e-09 4.18903e-09 -0.000999996)
(-1.67469e-09 4.2243e-09 -0.000999996)
(-1.73365e-09 4.3589e-09 -0.000999997)
(-2.70737e-10 3.34401e-09 -0.000999994)
(-8.28898e-10 3.34124e-09 -0.000999994)
(-1.30788e-09 3.32812e-09 -0.000999994)
(-1.6375e-09 3.31513e-09 -0.000999995)
(-1.78387e-09 3.37332e-09 -0.000999995)
(-2.76409e-10 2.12765e-09 -0.000999993)
(-8.39816e-10 2.11503e-09 -0.000999993)
(-1.31984e-09 2.11385e-09 -0.000999994)
(-1.6293e-09 2.11396e-09 -0.000999994)
(-1.77931e-09 2.14341e-09 -0.000999994)
(-2.86471e-10 7.22363e-10 -0.000999993)
(-8.45038e-10 7.1302e-10 -0.000999993)
(-1.30671e-09 7.16919e-10 -0.000999993)
(-1.60486e-09 7.23814e-10 -0.000999993)
(-1.7603e-09 7.38384e-10 -0.000999994)
(-3.81629e-10 6.36092e-09 -0.000999996)
(-1.10545e-09 6.37993e-09 -0.000999996)
(-1.73997e-09 6.36819e-09 -0.000999997)
(-2.30696e-09 6.33605e-09 -0.000999997)
(-2.11686e-09 6.1539e-09 -0.000999998)
(-3.75756e-10 5.75559e-09 -0.000999994)
(-1.09354e-09 5.76914e-09 -0.000999994)
(-1.6899e-09 5.77021e-09 -0.000999995)
(-2.1747e-09 5.81676e-09 -0.000999995)
(-2.30003e-09 5.95798e-09 -0.000999996)
(-3.78194e-10 4.57848e-09 -0.000999992)
(-1.10166e-09 4.58117e-09 -0.000999993)
(-1.69311e-09 4.5765e-09 -0.000999993)
(-2.11922e-09 4.5796e-09 -0.000999994)
(-2.34178e-09 4.65142e-09 -0.000999994)
(-3.8098e-10 2.91774e-09 -0.000999991)
(-1.10397e-09 2.91449e-09 -0.000999991)
(-1.69184e-09 2.9222e-09 -0.000999992)
(-2.09953e-09 2.93047e-09 -0.000999992)
(-2.33768e-09 2.96249e-09 -0.000999993)
(-3.85783e-10 9.93142e-10 -0.000999991)
(-1.10057e-09 9.89361e-10 -0.000999991)
(-1.67434e-09 9.9639e-10 -0.000999991)
(-2.075e-09 1.00398e-09 -0.000999992)
(-2.31925e-09 1.01713e-09 -0.000999992)
(-5.09792e-10 8.66443e-09 -0.000999995)
(-1.45761e-09 8.67248e-09 -0.000999995)
(-2.26656e-09 8.66114e-09 -0.000999996)
(-2.98038e-09 8.64382e-09 -0.000999996)
(-2.91521e-09 8.47721e-09 -0.000999997)
(-5.10187e-10 7.84735e-09 -0.000999992)
(-1.45295e-09 7.85899e-09 -0.000999993)
(-2.22398e-09 7.86538e-09 -0.000999993)
(-2.85035e-09 7.91083e-09 -0.000999994)
(-3.09084e-09 8.04979e-09 -0.000999995)
(-5.11755e-10 6.22228e-09 -0.00099999)
(-1.45424e-09 6.23318e-09 -0.00099999)
(-2.21577e-09 6.2411e-09 -0.000999991)
(-2.79599e-09 6.25535e-09 -0.000999992)
(-3.10985e-09 6.32375e-09 -0.000999992)
(-5.09982e-10 3.98553e-09 -0.000999988)
(-1.44556e-09 3.99631e-09 -0.000999989)
(-2.20233e-09 4.01069e-09 -0.000999989)
(-2.76734e-09 4.0214e-09 -0.00099999)
(-3.10964e-09 4.05155e-09 -0.000999991)
(-5.06985e-10 1.36621e-09 -0.000999987)
(-1.43385e-09 1.37068e-09 -0.000999988)
(-2.18712e-09 1.3779e-09 -0.000999988)
(-2.75e-09 1.38225e-09 -0.000999989)
(-3.09723e-09 1.3904e-09 -0.00099999)
(-6.79884e-10 1.17604e-08 -0.000999993)
(-1.94869e-09 1.17653e-08 -0.000999994)
(-3.01946e-09 1.17627e-08 -0.000999994)
(-3.93131e-09 1.17771e-08 -0.000999995)
(-4.06269e-09 1.16457e-08 -0.000999997)
(-6.84948e-10 1.06435e-08 -0.00099999)
(-1.94724e-09 1.06584e-08 -0.00099999)
(-2.98317e-09 1.06752e-08 -0.000999991)
(-3.80544e-09 1.07165e-08 -0.000999992)
(-4.19134e-09 1.08455e-08 -0.000999993)
(-6.83244e-10 8.44045e-09 -0.000999987)
(-1.93678e-09 8.46294e-09 -0.000999987)
(-2.96286e-09 8.484e-09 -0.000999988)
(-3.76102e-09 8.50439e-09 -0.000999989)
(-4.18564e-09 8.55853e-09 -0.00099999)
(-6.77045e-10 5.43179e-09 -0.000999984)
(-1.91923e-09 5.45512e-09 -0.000999985)
(-2.94243e-09 5.47132e-09 -0.000999986)
(-3.73042e-09 5.47974e-09 -0.000999987)
(-4.18732e-09 5.50391e-09 -0.000999988)
(-6.68195e-10 1.87303e-09 -0.000999983)
(-1.9039e-09 1.88395e-09 -0.000999984)
(-2.93353e-09 1.88852e-09 -0.000999984)
(-3.72151e-09 1.88809e-09 -0.000999985)
(-4.18136e-09 1.89101e-09 -0.000999987)
(-9.14938e-10 1.59716e-08 -0.000999991)
(-2.63872e-09 1.59878e-08 -0.000999991)
(-4.08759e-09 1.60019e-08 -0.000999993)
(-5.24781e-09 1.60434e-08 -0.000999994)
(-5.63665e-09 1.59677e-08 -0.000999996)
(-9.18601e-10 1.44359e-08 -0.000999986)
(-2.63072e-09 1.44627e-08 -0.000999987)
(-4.05233e-09 1.44913e-08 -0.000999988)
(-5.14469e-09 1.45277e-08 -0.000999989)
(-5.68568e-09 1.46305e-08 -0.000999991)
(-9.13178e-10 1.1464e-08 -0.000999982)
(-2.61037e-09 1.14968e-08 -0.000999982)
(-4.02453e-09 1.1524e-08 -0.000999983)
(-5.10863e-09 1.15439e-08 -0.000999985)
(-5.67349e-09 1.15819e-08 -0.000999987)
(-9.05769e-10 7.39212e-09 -0.000999979)
(-2.59193e-09 7.42042e-09 -0.000999979)
(-4.00622e-09 7.43208e-09 -0.00099998)
(-5.08608e-09 7.4343e-09 -0.000999982)
(-5.67432e-09 7.44646e-09 -0.000999984)
(-8.96162e-10 2.55496e-09 -0.000999977)
(-2.57951e-09 2.56743e-09 -0.000999978)
(-4.00429e-09 2.5677e-09 -0.000999979)
(-5.08491e-09 2.56295e-09 -0.00099998)
(-5.67213e-09 2.56028e-09 -0.000999982)
(-1.23661e-09 2.17328e-08 -0.000999988)
(-3.583e-09 2.17689e-08 -0.000999989)
(-5.55727e-09 2.17953e-08 -0.00099999)
(-7.03703e-09 2.18376e-08 -0.000999992)
(-7.72882e-09 2.18328e-08 -0.000999994)
(-1.23565e-09 1.96201e-08 -0.000999981)
(-3.56617e-09 1.96608e-08 -0.000999982)
(-5.52326e-09 1.96928e-08 -0.000999983)
(-6.97566e-09 1.97206e-08 -0.000999985)
(-7.71487e-09 1.97732e-08 -0.000999988)
(-1.23024e-09 1.55912e-08 -0.000999976)
(-3.5472e-09 1.56277e-08 -0.000999976)
(-5.50006e-09 1.56483e-08 -0.000999978)
(-6.9567e-09 1.56596e-08 -0.00099998)
(-7.70583e-09 1.56716e-08 -0.000999982)
(-1.22632e-09 1.00482e-08 -0.000999971)
(-3.5379e-09 1.00735e-08 -0.000999972)
(-5.49266e-09 1.00756e-08 -0.000999974)
(-6.95151e-09 1.00702e-08 -0.000999976)
(-7.70627e-09 1.00665e-08 -0.000999978)
(-1.22024e-09 3.47121e-09 -0.000999969)
(-3.53213e-09 3.48118e-09 -0.00099997)
(-5.49471e-09 3.4774e-09 -0.000999971)
(-6.95318e-09 3.4704e-09 -0.000999974)
(-7.70124e-09 3.46412e-09 -0.000999976)
(-1.67066e-09 2.96031e-08 -0.000999984)
(-4.85396e-09 2.96571e-08 -0.000999985)
(-7.53674e-09 2.96804e-08 -0.000999987)
(-9.48701e-09 2.97053e-08 -0.000999989)
(-1.04991e-08 2.97265e-08 -0.000999993)
(-1.66938e-09 2.67008e-08 -0.000999975)
(-4.83964e-09 2.67485e-08 -0.000999976)
(-7.51651e-09 2.67694e-08 -0.000999978)
(-9.46329e-09 2.67766e-08 -0.00099998)
(-1.04672e-08 2.67862e-08 -0.000999984)
(-1.66968e-09 2.12109e-08 -0.000999967)
(-4.83554e-09 2.12447e-08 -0.000999968)
(-7.51225e-09 2.12493e-08 -0.00099997)
(-9.47033e-09 2.12452e-08 -0.000999973)
(-1.04645e-08 2.12332e-08 -0.000999976)
(-1.67241e-09 1.36521e-08 -0.000999961)
(-4.84042e-09 1.36714e-08 -0.000999962)
(-7.51786e-09 1.36648e-08 -0.000999964)
(-9.47821e-09 1.36553e-08 -0.000999967)
(-1.04636e-08 1.36471e-08 -0.00099997)
(-1.671e-09 4.70989e-09 -0.000999958)
(-4.83951e-09 4.71654e-09 -0.00099996)
(-7.51662e-09 4.71132e-09 -0.000999962)
(-9.47086e-09 4.70587e-09 -0.000999964)
(-1.04475e-08 4.70291e-09 -0.000999967)
(-2.25933e-09 4.03206e-08 -0.000999978)
(-6.56971e-09 4.03853e-08 -0.00099998)
(-1.02046e-08 4.03933e-08 -0.000999982)
(-1.28187e-08 4.03948e-08 -0.000999986)
(-1.42308e-08 4.04035e-08 -0.00099999)
(-2.26567e-09 3.6345e-08 -0.000999966)
(-6.57407e-09 3.63929e-08 -0.000999967)
(-1.02125e-08 3.63936e-08 -0.00099997)
(-1.28412e-08 3.63737e-08 -0.000999974)
(-1.42023e-08 3.6344e-08 -0.000999978)
(-2.27478e-09 2.88576e-08 -0.000999956)
(-6.58931e-09 2.88898e-08 -0.000999957)
(-1.02287e-08 2.88801e-08 -0.00099996)
(-1.28684e-08 2.88647e-08 -0.000999963)
(-1.42023e-08 2.88459e-08 -0.000999968)
(-2.28344e-09 1.85597e-08 -0.000999948)
(-6.60472e-09 1.85787e-08 -0.000999949)
(-1.02401e-08 1.85698e-08 -0.000999952)
(-1.28737e-08 1.8564e-08 -0.000999956)
(-1.41961e-08 1.85675e-08 -0.00099996)
(-2.28375e-09 6.39787e-09 -0.000999944)
(-6.60177e-09 6.40463e-09 -0.000999945)
(-1.02274e-08 6.40151e-09 -0.000999948)
(-1.28476e-08 6.40111e-09 -0.000999952)
(-1.41664e-08 6.40629e-09 -0.000999956)
(-3.0666e-09 5.49003e-08 -0.000999971)
(-8.9082e-09 5.49742e-08 -0.000999973)
(-1.38323e-08 5.49652e-08 -0.000999977)
(-1.73665e-08 5.49484e-08 -0.000999981)
(-1.93128e-08 5.49528e-08 -0.000999987)
(-3.08408e-09 4.94806e-08 -0.000999954)
(-8.93632e-09 4.95336e-08 -0.000999956)
(-1.3868e-08 4.95181e-08 -0.00099996)
(-1.74287e-08 4.94808e-08 -0.000999965)
(-1.92783e-08 4.94258e-08 -0.000999971)
(-3.09946e-09 3.92818e-08 -0.00099994)
(-8.9631e-09 3.93234e-08 -0.000999942)
(-1.38918e-08 3.93094e-08 -0.000999945)
(-1.74589e-08 3.92945e-08 -0.00099995)
(-1.92759e-08 3.92819e-08 -0.000999956)
(-3.11004e-09 2.5266e-08 -0.00099993)
(-8.98076e-09 2.52959e-08 -0.000999931)
(-1.39003e-08 2.52905e-08 -0.000999935)
(-1.74539e-08 2.52905e-08 -0.00099994)
(-1.92675e-08 2.53028e-08 -0.000999946)
(-3.1074e-09 8.70952e-09 -0.000999924)
(-8.96925e-09 8.72176e-09 -0.000999926)
(-1.38756e-08 8.72204e-09 -0.000999929)
(-1.74154e-08 8.72456e-09 -0.000999934)
(-1.9232e-08 8.73176e-09 -0.00099994)
(-4.17273e-09 7.47483e-08 -0.000999961)
(-1.20989e-08 7.4839e-08 -0.000999964)
(-1.87759e-08 7.48148e-08 -0.000999969)
(-2.35843e-08 7.47812e-08 -0.000999975)
(-2.62143e-08 7.47969e-08 -0.000999983)
(-4.19753e-09 6.73975e-08 -0.000999938)
(-1.21435e-08 6.74718e-08 -0.000999941)
(-1.88282e-08 6.74476e-08 -0.000999946)
(-2.36586e-08 6.74033e-08 -0.000999952)
(-2.61755e-08 6.73422e-08 -0.00099996)
(-4.21493e-09 5.35168e-08 -0.000999919)
(-1.21743e-08 5.35811e-08 -0.000999921)
(-1.88534e-08 5.35657e-08 -0.000999926)
(-2.36898e-08 5.35492e-08 -0.000999933)
(-2.61843e-08 5.35287e-08 -0.000999941)
(-4.22496e-09 3.44379e-08 -0.000999904)
(-1.21923e-08 3.4487e-08 -0.000999907)
(-1.88647e-08 3.44801e-08 -0.000999912)
(-2.36925e-08 3.44713e-08 -0.000999919)
(-2.61925e-08 3.44654e-08 -0.000999927)
(-4.21735e-09 1.18754e-08 -0.000999897)
(-1.21739e-08 1.18961e-08 -0.000999899)
(-1.88401e-08 1.18953e-08 -0.000999904)
(-2.36624e-08 1.18913e-08 -0.000999911)
(-2.61646e-08 1.18865e-08 -0.000999919)
(-5.67207e-09 1.01777e-07 -0.000999947)
(-1.64274e-08 1.01894e-07 -0.000999951)
(-2.54862e-08 1.01845e-07 -0.000999958)
(-3.20291e-08 1.01773e-07 -0.000999967)
(-3.55405e-08 1.01765e-07 -0.000999977)
(-5.70267e-09 9.18392e-08 -0.000999916)
(-1.64899e-08 9.19455e-08 -0.00099992)
(-2.55626e-08 9.19024e-08 -0.000999926)
(-3.21233e-08 9.18322e-08 -0.000999936)
(-3.55454e-08 9.17422e-08 -0.000999946)
(-5.72396e-09 7.29489e-08 -0.00099989)
(-1.65347e-08 7.30395e-08 -0.000999893)
(-2.56118e-08 7.30059e-08 -0.0009999)
(-3.21895e-08 7.29566e-08 -0.000999909)
(-3.56041e-08 7.28876e-08 -0.00099992)
(-5.7368e-09 4.69616e-08 -0.00099987)
(-1.65659e-08 4.70277e-08 -0.000999874)
(-2.56519e-08 4.70007e-08 -0.00099988)
(-3.22374e-08 4.69558e-08 -0.00099989)
(-3.56582e-08 4.69002e-08 -0.000999901)
(-5.72803e-09 1.6199e-08 -0.00099986)
(-1.65527e-08 1.62257e-08 -0.000999863)
(-2.56445e-08 1.62145e-08 -0.00099987)
(-3.22329e-08 1.61933e-08 -0.000999879)
(-3.56474e-08 1.61664e-08 -0.00099989)
(-7.69777e-09 1.38562e-07 -0.000999929)
(-2.22945e-08 1.3871e-07 -0.000999933)
(-3.45941e-08 1.38613e-07 -0.000999943)
(-4.34801e-08 1.38466e-07 -0.000999955)
(-4.81683e-08 1.38361e-07 -0.00099997)
(-7.74274e-09 1.25135e-07 -0.000999886)
(-2.23986e-08 1.2527e-07 -0.000999891)
(-3.47313e-08 1.25176e-07 -0.0009999)
(-4.36481e-08 1.25031e-07 -0.000999913)
(-4.82825e-08 1.24854e-07 -0.000999927)
(-7.77769e-09 9.94368e-08 -0.00099985)
(-2.24853e-08 9.95464e-08 -0.000999855)
(-3.48495e-08 9.94614e-08 -0.000999864)
(-4.3802e-08 9.93332e-08 -0.000999877)
(-4.8439e-08 9.91726e-08 -0.000999891)
(-7.80273e-09 6.40303e-08 -0.000999824)
(-2.25549e-08 6.41026e-08 -0.000999828)
(-3.4953e-08 6.40319e-08 -0.000999838)
(-4.39311e-08 6.39258e-08 -0.00099985)
(-4.857e-08 6.37996e-08 -0.000999865)
(-7.80073e-09 2.20894e-08 -0.00099981)
(-2.25616e-08 2.21159e-08 -0.000999814)
(-3.49734e-08 2.20863e-08 -0.000999824)
(-4.39573e-08 2.2042e-08 -0.000999836)
(-4.85826e-08 2.19892e-08 -0.000999851)
(-1.04547e-08 1.88594e-07 -0.000999903)
(-3.02899e-08 1.88781e-07 -0.00099991)
(-4.70034e-08 1.8861e-07 -0.000999922)
(-5.90597e-08 1.88351e-07 -0.000999939)
(-6.53515e-08 1.88111e-07 -0.000999959)
(-1.05266e-08 1.7045e-07 -0.000999845)
(-3.04677e-08 1.70607e-07 -0.000999852)
(-4.72486e-08 1.70423e-07 -0.000999865)
(-5.93595e-08 1.7015e-07 -0.000999882)
(-6.56109e-08 1.6983e-07 -0.000999902)
(-1.0589e-08 1.3552e-07 -0.000999796)
(-3.06318e-08 1.35637e-07 -0.000999803)
(-4.74837e-08 1.35464e-07 -0.000999815)
(-5.96534e-08 1.35214e-07 -0.000999833)
(-6.59147e-08 1.34919e-07 -0.000999853)
(-1.06389e-08 8.72858e-08 -0.00099976)
(-3.07687e-08 8.73544e-08 -0.000999767)
(-4.76841e-08 8.72193e-08 -0.000999779)
(-5.98972e-08 8.70275e-08 -0.000999797)
(-6.61598e-08 8.68072e-08 -0.000999817)
(-1.06499e-08 3.01134e-08 -0.000999741)
(-3.08044e-08 3.01358e-08 -0.000999748)
(-4.77393e-08 3.0083e-08 -0.00099976)
(-5.99616e-08 3.00086e-08 -0.000999778)
(-6.62087e-08 2.99232e-08 -0.000999798)
(-1.42288e-08 2.56659e-07 -0.000999869)
(-4.12225e-08 2.56895e-07 -0.000999878)
(-6.39406e-08 2.56618e-07 -0.000999895)
(-8.02752e-08 2.56207e-07 -0.000999918)
(-8.87386e-08 2.55804e-07 -0.000999945)
(-1.43391e-08 2.32154e-07 -0.00099979)
(-4.15075e-08 2.32332e-07 -0.000999799)
(-6.4347e-08 2.32011e-07 -0.000999816)
(-8.07735e-08 2.31548e-07 -0.00099984)
(-8.91881e-08 2.3101e-07 -0.000999867)
(-1.44464e-08 1.84706e-07 -0.000999723)
(-4.17924e-08 1.84822e-07 -0.000999732)
(-6.47556e-08 1.84516e-07 -0.000999749)
(-8.12767e-08 1.84086e-07 -0.000999773)
(-8.97124e-08 1.83589e-07 -0.0009998)
(-1.45356e-08 1.19009e-07 -0.000999674)
(-4.20306e-08 1.19068e-07 -0.000999683)
(-6.5098e-08 1.1884e-07 -0.0009997)
(-8.16904e-08 1.1852e-07 -0.000999724)
(-9.01327e-08 1.18158e-07 -0.000999752)
(-1.45633e-08 4.10629e-08 -0.000999647)
(-4.21067e-08 4.10807e-08 -0.000999657)
(-6.52078e-08 4.09945e-08 -0.000999674)
(-8.18187e-08 4.08743e-08 -0.000999698)
(-9.02474e-08 4.07385e-08 -0.000999726)
(-1.93941e-08 3.49302e-07 -0.000999822)
(-5.61685e-08 3.49594e-07 -0.000999834)
(-8.70527e-08 3.49157e-07 -0.000999858)
(-1.09158e-07 3.48517e-07 -0.000999889)
(-1.20497e-07 3.47871e-07 -0.000999926)
(-1.95631e-08 3.16264e-07 -0.000999715)
(-5.66153e-08 3.16452e-07 -0.000999727)
(-8.76992e-08 3.15922e-07 -0.000999751)
(-1.09957e-07 3.15169e-07 -0.000999783)
(-1.2126e-07 3.14293e-07 -0.00099982)
(-1.97424e-08 2.51848e-07 -0.000999623)
(-5.70897e-08 2.51942e-07 -0.000999636)
(-8.83784e-08 2.51429e-07 -0.000999659)
(-1.10788e-07 2.50716e-07 -0.000999692)
(-1.22132e-07 2.49897e-07 -0.000999729)
(-1.9892e-08 1.62368e-07 -0.000999556)
(-5.74865e-08 1.62404e-07 -0.000999569)
(-8.89469e-08 1.62023e-07 -0.000999592)
(-1.11475e-07 1.615e-07 -0.000999625)
(-1.2284e-07 1.60904e-07 -0.000999663)
(-1.9945e-08 5.60401e-08 -0.00099952)
(-5.76317e-08 5.60489e-08 -0.000999533)
(-8.9155e-08 5.59065e-08 -0.000999557)
(-1.1172e-07 5.57119e-08 -0.000999589)
(-1.23084e-07 5.54907e-08 -0.000999627)
(-2.64582e-08 4.75443e-07 -0.000999759)
(-7.65951e-08 4.75781e-07 -0.000999776)
(-1.18589e-07 4.7509e-07 -0.000999808)
(-1.48492e-07 4.74093e-07 -0.000999851)
(-1.63573e-07 4.73044e-07 -0.0009999)
(-2.67277e-08 4.31041e-07 -0.000999613)
(-7.73068e-08 4.312e-07 -0.00099963)
(-1.19612e-07 4.30326e-07 -0.000999662)
(-1.49745e-07 4.29107e-07 -0.000999706)
(-1.64863e-07 4.27708e-07 -0.000999756)
(-2.70251e-08 3.43661e-07 -0.000999487)
(-7.80945e-08 3.43687e-07 -0.000999505)
(-1.20739e-07 3.42822e-07 -0.000999537)
(-1.51111e-07 3.41636e-07 -0.000999581)
(-1.66312e-07 3.40285e-07 -0.000999633)
(-2.72744e-08 2.21767e-07 -0.000999395)
(-7.87587e-08 2.21742e-07 -0.000999413)
(-1.21692e-07 2.21098e-07 -0.000999446)
(-1.52263e-07 2.20225e-07 -0.00099949)
(-1.67522e-07 2.19231e-07 -0.000999542)
(-2.73738e-08 7.658e-08 -0.000999346)
(-7.90315e-08 7.6565e-08 -0.000999363)
(-1.22085e-07 7.63249e-08 -0.000999396)
(-1.5273e-07 7.60009e-08 -0.000999442)
(-1.68016e-07 7.56316e-08 -0.000999494)
(-3.6131e-08 6.47252e-07 -0.000999674)
(-1.04529e-07 6.47599e-07 -0.000999697)
(-1.61612e-07 6.4649e-07 -0.000999741)
(-2.02002e-07 6.44915e-07 -0.000999799)
(-2.21935e-07 6.43198e-07 -0.000999867)
(-3.6573e-08 5.87869e-07 -0.000999475)
(-1.05691e-07 5.87909e-07 -0.000999498)
(-1.63268e-07 5.86439e-07 -0.000999542)
(-2.04e-07 5.84424e-07 -0.000999602)
(-2.24099e-07 5.82152e-07 -0.00099967)
(-3.7072e-08 4.69503e-07 -0.000999303)
(-1.07021e-07 4.69355e-07 -0.000999326)
(-1.65175e-07 4.67866e-07 -0.000999371)
(-2.06291e-07 4.65848e-07 -0.000999432)
(-2.26554e-07 4.63571e-07 -0.000999502)
(-3.74959e-08 3.03385e-07 -0.000999176)
(-1.08158e-07 3.03212e-07 -0.0009992)
(-1.66814e-07 3.02098e-07 -0.000999246)
(-2.08269e-07 3.00594e-07 -0.000999307)
(-2.28652e-07 2.98897e-07 -0.000999379)
(-3.76837e-08 1.04844e-07 -0.000999108)
(-1.08675e-07 1.04772e-07 -0.000999132)
(-1.67567e-07 1.04355e-07 -0.000999178)
(-2.09161e-07 1.03794e-07 -0.00099924)
(-2.29616e-07 1.03164e-07 -0.000999312)
(-4.93942e-08 8.81366e-07 -0.00099956)
(-1.42759e-07 8.81632e-07 -0.000999592)
(-2.20287e-07 8.79801e-07 -0.000999651)
(-2.74676e-07 8.77254e-07 -0.000999731)
(-3.00869e-07 8.74442e-07 -0.000999822)
(-5.01354e-08 8.02565e-07 -0.000999287)
(-1.44713e-07 8.0229e-07 -0.00099932)
(-2.23071e-07 7.99746e-07 -0.00099938)
(-2.77995e-07 7.96301e-07 -0.000999462)
(-3.04502e-07 7.92479e-07 -0.000999555)
(-5.09947e-08 6.42537e-07 -0.000999051)
(-1.47014e-07 6.4198e-07 -0.000999084)
(-2.26384e-07 6.39356e-07 -0.000999146)
(-2.81946e-07 6.35822e-07 -0.000999229)
(-3.08743e-07 6.319e-07 -0.000999325)
(-5.17384e-08 4.16002e-07 -0.000998875)
(-1.49016e-07 4.1549e-07 -0.000998909)
(-2.29283e-07 4.1351e-07 -0.000998973)
(-2.85415e-07 4.1085e-07 -0.000999058)
(-3.12427e-07 4.07902e-07 -0.000999156)
(-5.20997e-08 1.4392e-07 -0.00099878)
(-1.50007e-07 1.43716e-07 -0.000998815)
(-2.30728e-07 1.42973e-07 -0.000998879)
(-2.87118e-07 1.41976e-07 -0.000998966)
(-3.14252e-07 1.4088e-07 -0.000999065)
(-6.75938e-08 1.20055e-06 -0.000999407)
(-1.95126e-07 1.20051e-06 -0.000999451)
(-3.00321e-07 1.1974e-06 -0.000999532)
(-3.73241e-07 1.19316e-06 -0.00099964)
(-4.07366e-07 1.18856e-06 -0.000999764)
(-6.88769e-08 1.09724e-06 -0.000999034)
(-1.98509e-07 1.09621e-06 -0.000999079)
(-3.05154e-07 1.09171e-06 -0.000999162)
(-3.78929e-07 1.08563e-06 -0.000999274)
(-4.13511e-07 1.07907e-06 -0.0009994)
(-7.04068e-08 8.81491e-07 -0.000998707)
(-2.02597e-07 8.8002e-07 -0.000998753)
(-3.11048e-07 8.75306e-07 -0.000998839)
(-3.85883e-07 8.68972e-07 -0.000998955)
(-4.20931e-07 8.62138e-07 -0.000999086)
(-7.17567e-08 5.72267e-07 -0.000998463)
(-2.06211e-07 5.71016e-07 -0.000998511)
(-3.16278e-07 5.67444e-07 -0.0009986)
(-3.92049e-07 5.6264e-07 -0.00099872)
(-4.27454e-07 5.57484e-07 -0.000998854)
(-7.246e-08 1.98282e-07 -0.00099833)
(-2.08107e-07 1.97795e-07 -0.000998379)
(-3.1904e-07 1.96457e-07 -0.00099847)
(-3.95275e-07 1.94653e-07 -0.000998592)
(-4.30854e-07 1.92729e-07 -0.000998728)
(-9.25836e-08 1.6359e-06 -0.000999204)
(-2.66966e-07 1.63505e-06 -0.000999264)
(-4.09535e-07 1.6297e-06 -0.000999375)
(-5.06684e-07 1.62236e-06 -0.000999522)
(-5.50549e-07 1.61493e-06 -0.000999689)
(-9.48852e-08 1.50304e-06 -0.000998691)
(-2.72968e-07 1.50031e-06 -0.000998754)
(-4.18134e-07 1.49223e-06 -0.000998869)
(-5.16589e-07 1.48121e-06 -0.000999023)
(-5.61092e-07 1.46994e-06 -0.000999195)
(-9.77051e-08 1.21343e-06 -0.000998237)
(-2.80386e-07 1.20996e-06 -0.000998302)
(-4.28837e-07 1.20142e-06 -0.000998423)
(-5.2898e-07 1.18978e-06 -0.000998585)
(-5.74197e-07 1.17792e-06 -0.000998764)
(-1.00241e-07 7.90765e-07 -0.000997895)
(-2.87014e-07 7.87922e-07 -0.000997963)
(-4.38419e-07 7.81468e-07 -0.00099809)
(-5.40032e-07 7.72576e-07 -0.000998259)
(-5.85782e-07 7.63659e-07 -0.000998444)
(-1.01629e-07 2.74563e-07 -0.000997707)
(-2.90628e-07 2.73472e-07 -0.000997778)
(-4.43693e-07 2.71069e-07 -0.000997907)
(-5.4606e-07 2.67721e-07 -0.000998081)
(-5.92034e-07 2.64408e-07 -0.000998269)
(-1.26872e-07 2.22984e-06 -0.000998937)
(-3.65727e-07 2.22698e-06 -0.00099902)
(-5.58657e-07 2.21784e-06 -0.000999173)
(-6.86783e-07 2.20444e-06 -0.000999373)
(-7.42233e-07 2.19294e-06 -0.000999595)
(-1.3117e-07 2.06446e-06 -0.000998231)
(-3.76557e-07 2.05797e-06 -0.000998319)
(-5.74321e-07 2.0435e-06 -0.00099848)
(-7.04147e-07 2.02273e-06 -0.000998692)
(-7.60651e-07 2.00393e-06 -0.000998922)
(-1.3657e-07 1.6783e-06 -0.000997594)
(-3.90197e-07 1.67045e-06 -0.000997689)
(-5.94162e-07 1.65514e-06 -0.000997859)
(-7.26361e-07 1.63286e-06 -0.000998089)
(-7.83992e-07 1.61297e-06 -0.000998329)
(-1.41534e-07 1.09949e-06 -0.000997108)
(-4.02452e-07 1.09313e-06 -0.00099721)
(-6.12054e-07 1.08172e-06 -0.000997388)
(-7.46231e-07 1.06451e-06 -0.000997635)
(-8.04469e-07 1.04985e-06 -0.000997882)
(-1.44383e-07 3.82842e-07 -0.000996839)
(-4.09271e-07 3.80402e-07 -0.000996946)
(-6.22167e-07 3.76223e-07 -0.000997128)
(-7.57319e-07 3.69713e-07 -0.000997386)
(-8.15749e-07 3.64366e-07 -0.000997636)
(-1.73571e-07 3.03979e-06 -0.000998595)
(-5.01834e-07 3.03201e-06 -0.000998706)
(-7.62442e-07 3.0171e-06 -0.000998921)
(-9.28235e-07 2.99047e-06 -0.000999189)
(-9.97817e-07 2.97541e-06 -0.000999482)
(-1.82049e-07 2.84643e-06 -0.000997617)
(-5.21513e-07 2.83129e-06 -0.00099774)
(-7.91895e-07 2.80632e-06 -0.000997966)
(-9.58654e-07 2.76436e-06 -0.000998266)
(-1.03079e-06 2.73622e-06 -0.000998561)
(-1.92935e-07 2.33678e-06 -0.000996713)
(-5.46616e-07 2.3188e-06 -0.000996853)
(-8.29741e-07 2.29281e-06 -0.000997092)
(-9.98347e-07 2.24675e-06 -0.000997435)
(-1.0726e-06 2.21755e-06 -0.000997734)
(-2.03327e-07 1.54193e-06 -0.000996011)
(-5.69134e-07 1.52714e-06 -0.00099617)
(-8.64142e-07 1.50874e-06 -0.000996417)
(-1.0338e-06 1.4723e-06 -0.000996803)
(-1.1082e-06 1.45223e-06 -0.000997101)
(-2.09622e-07 5.38904e-07 -0.000995618)
(-5.81591e-07 5.33166e-07 -0.000995791)
(-8.83864e-07 5.26788e-07 -0.000996037)
(-1.05376e-06 5.12792e-07 -0.000996452)
(-1.12781e-06 5.05945e-07 -0.000996745)
(-2.35366e-07 4.14176e-06 -0.000998179)
(-6.89945e-07 4.12128e-06 -0.000998317)
(-1.04146e-06 4.10109e-06 -0.00099863)
(-1.24695e-06 4.04035e-06 -0.000998981)
(-1.33877e-06 4.03513e-06 -0.000999353)
(-2.53501e-07 3.94691e-06 -0.000996808)
(-7.25263e-07 3.91046e-06 -0.00099698)
(-1.0999e-06 3.8727e-06 -0.000997298)
(-1.2989e-06 3.77681e-06 -0.000997741)
(-1.40028e-06 3.75161e-06 -0.000998073)
(-2.77238e-07 3.28455e-06 -0.000995502)
(-7.70298e-07 3.24053e-06 -0.000995721)
(-1.17561e-06 3.20473e-06 -0.00099604)
(-1.36806e-06 3.09578e-06 -0.000996603)
(-1.47477e-06 3.07347e-06 -0.000996891)
(-3.01654e-07 2.18827e-06 -0.000994465)
(-8.09855e-07 2.15031e-06 -0.00099474)
(-1.24493e-06 2.13053e-06 -0.000995041)
(-1.43001e-06 2.04064e-06 -0.000995732)
(-1.53412e-06 2.03227e-06 -0.000995964)
(-3.17535e-07 7.68414e-07 -0.000993878)
(-8.30464e-07 7.53255e-07 -0.000994191)
(-1.2845e-06 7.48367e-07 -0.000994468)
(-1.46511e-06 7.13032e-07 -0.000995245)
(-1.56578e-06 7.12372e-07 -0.000995433)
(-3.0911e-07 5.62987e-06 -0.000997739)
(-9.50658e-07 5.57403e-06 -0.000997874)
(-1.42568e-06 5.56625e-06 -0.000998368)
(-1.65063e-06 5.40238e-06 -0.000998793)
(-1.80042e-06 5.48132e-06 -0.000999224)
(-3.52897e-07 5.52299e-06 -0.000995761)
(-1.011e-06 5.4275e-06 -0.000995996)
(-1.55232e-06 5.3966e-06 -0.000996442)
(-1.73297e-06 5.14205e-06 -0.000997155)