FoamFile
{version 2.0; format ascii;class Cloud<passiveParticle>; location 0;object  positions;}
345
(
( 0.00101791 -0.00132762 0.000497894 ) 0 
( 0.00441609 -0.00109753 0.000498791 ) 0 
( 0.00348376 -0.00280865 0.000498675 ) 0 
( 0.00248772 -0.00289069 0.000498169 ) 0 
( 0.00185205 -0.00187712 0.000497972 ) 0 
( 0.00194788 -0.00373144 0.000497668 ) 0 
( 0.00418356 -0.00209485 0.000498456 ) 0 
( 0.00240408 -0.0046202 0.000496865 ) 0 
( 0.00494756 -0.000251135 0.000498284 ) 0 
( 0.003717 -0.00441715 0.000496848 ) 0 
( 0.00294615 -0.00378023 0.000497865 ) 0 
( 2.02649e-05 -0.00138248 0.000498649 ) 0 
( 0.000360055 -0.000442697 0.000498437 ) 0 
( 0.00284854 -0.00195938 0.000498984 ) 0 
( 0.003418 -0.00113833 0.000497934 ) 0 
( 0.000287964 -0.00436992 0.000498283 ) 0 
( 0.000954378 -0.00362515 0.000499291 ) 0 
( 0.00232275 -0.000370611 0.00121635 ) 0 
( 0.000153174 -0.00198875 0.00130228 ) 0 
( 0.00299905 -0.000231686 0.000497383 ) 0 
( 0.00266636 -0.0013774 0.00141021 ) 0 
( 0.00466416 -0.00409664 0.000498763 ) 0 
( 0.00153598 -0.000472919 0.000498059 ) 0 
( 0.00150511 -0.0028057 0.000655487 ) 0 
( 0.00477875 -0.00194002 0.00128532 ) 0 
( 0.00443324 -0.00312464 0.00049849 ) 0 
( 0.00242184 -0.00105592 0.000497559 ) 0 
( 0.000654839 -0.00230597 0.000497886 ) 0 
( 3.06564e-05 -0.00324389 0.000498606 ) 0 
( 0.00139334 -0.00456889 0.000497897 ) 0 
( 0.000442909 -0.00395328 0.00139168 ) 0 
( 0.00198435 -0.00483144 0.00137627 ) 0 
( 0.00353709 -0.00182639 0.0012109 ) 0 
( 0.00433436 -0.00468923 0.00123261 ) 0 
( 0.00229706 -0.00229723 0.00128686 ) 0 
( 0.000673695 -0.0029945 0.00122245 ) 0 
( 0.00339187 -0.000599915 0.00133857 ) 0 
( 0.00243776 -0.0039419 0.0013416 ) 0 
( 0.00299541 -0.00300852 0.00134883 ) 0 
( 0.00422777 -0.00112986 0.00147873 ) 0 
( 0.00428413 -0.00016189 0.00123926 ) 0 
( 0.00143771 -0.0039966 0.00131349 ) 0 
( 0.00308799 -0.00469672 0.00121912 ) 0 
( 0.00441169 -0.00365657 0.00180227 ) 0 
( 0.000955948 -0.000163836 0.00124962 ) 0 
( 0.00123284 -0.00203583 0.00126467 ) 0 
( 0.0018844 -0.00315071 0.00160069 ) 0 
( 0.000532243 -0.00106457 0.00132879 ) 0 
( 0.00375088 -0.00359258 0.0010576 ) 0 
( 0.00224349 -0.00080398 0.00211129 ) 0 
( 0.00171489 -0.00116462 0.00119478 ) 0 
( 4.57817e-05 -0.00486995 0.00132865 ) 0 
( 0.00302463 -0.0022258 0.00196992 ) 0 
( 0.00405594 -0.00267414 0.00130622 ) 0 
( 6.16376e-05 -0.0019124 0.00277529 ) 0 
( 0.00476683 -0.000410591 0.00207802 ) 0 
( 0.00129999 -0.00252907 0.00212882 ) 0 
( 0.00495273 -0.00243014 0.00213774 ) 0 
( 0.00188541 -0.0017304 0.00199962 ) 0 
( 0.000748408 -0.00169759 0.00206946 ) 0 
( 0.000989846 -0.00448385 0.00207727 ) 0 
( 0.00123356 -0.000788693 0.0019846 ) 0 
( 0.0034272 -0.00129833 0.00205033 ) 0 
( 0.00400545 -0.00210963 0.00212876 ) 0 
( 0.00363845 -0.00310104 0.00210658 ) 0 
( 0.00101778 -0.00348491 0.00206071 ) 0 
( 0.000304278 -0.00259154 0.00208426 ) 0 
( 0.0034599 -0.00405949 0.00189145 ) 0 
( 0.00412685 -0.00413643 0.00263145 ) 0 
( 0.000677934 -0.000174938 0.00254336 ) 0 
( 3.02772e-05 -0.00354357 0.00220321 ) 0 
( 0.00268288 -0.0047823 0.00212722 ) 0 
( 0.00270455 -0.00347403 0.00218253 ) 0 
( 0.00258604 -0.00417538 0.0029183 ) 0 
( 0.00394271 -0.00064316 0.00259872 ) 0 
( 0.000250825 -0.00497496 0.00253781 ) 0 
( 0.00166873 -0.000204536 0.00266759 ) 0 
( 0.00460942 -0.00135228 0.00237487 ) 0 
( 0.00263879 -0.00267304 0.00277588 ) 0 
( 0.00103546 -0.00204453 0.00296068 ) 0 
( 0.00164749 -0.00119486 0.00280895 ) 0 
( 0.00265126 -0.00156237 0.00261862 ) 0 
( 0.00447351 -0.00313896 0.00265322 ) 0 
( 0.00075725 -0.00300228 0.00289475 ) 0 
( 0.00182695 -0.00323624 0.00259464 ) 0 
( 0.00485975 -0.00451177 0.00206194 ) 0 
( 0.00192237 -0.00413655 0.0021737 ) 0 
( 0.000655015 -0.00111629 0.00287537 ) 0 
( 0.000540387 -0.00407991 0.00287251 ) 0 
( 0.00297984 -0.000651497 0.00286726 ) 0 
( 0.000352184 -0.00241084 0.00359098 ) 0 
( 0.00371991 -0.0015637 0.00296545 ) 0 
( 0.00332388 -0.00350448 0.00296429 ) 0 
( 0.00454122 -0.00213221 0.0029961 ) 0 
( 0.00442255 -0.00100399 0.00339823 ) 0 
( 0.00338448 -0.004772 0.00284196 ) 0 
( 0.00200256 -0.00203643 0.00320978 ) 0 
( 0.00158708 -0.00464908 0.00296085 ) 0 
( 0.00123923 -0.000584483 0.00348584 ) 0 
( 0.00136704 -0.00374398 0.0033195 ) 0 
( 0.00379628 -0.000231636 0.00349603 ) 0 
( 0.00237013 -0.00113312 0.00349592 ) 0 
( 0.000376031 -8.11191e-05 0.00348965 ) 0 
( 0.00392749 -0.00209859 0.00378322 ) 0 
( 0.00459664 -0.00469924 0.00352095 ) 0 
( 0.00145292 -0.00278315 0.00357667 ) 0 
( 0.00206967 -0.00429453 0.00376482 ) 0 
( 0.00297196 -0.00201441 0.00344977 ) 0 
( 0.000664445 -0.00331404 0.00388222 ) 0 
( 0.00363984 -0.00255797 0.00294343 ) 0 
( 0.00410395 -0.00324119 0.00357418 ) 0 
( 0.00295875 -0.00474989 0.00377445 ) 0 
( 0.0037483 -0.00417523 0.0035674 ) 0 
( 0.00230862 -0.00333481 0.0034642 ) 0 
( 0.00172675 -0.0016367 0.00408314 ) 0 
( 0.000204501 -0.00415172 0.00426215 ) 0 
( 0.000781751 -0.00152831 0.00377639 ) 0 
( 0.00101316 -0.00231789 0.00434307 ) 0 
( 0.00333533 -0.00108053 0.00374982 ) 0 
( 0.000221634 -0.000799565 0.00416665 ) 0 
( 0.00167116 -0.0034991 0.00423793 ) 0 
( 0.00317249 -0.00293843 0.00377376 ) 0 
( 0.00494209 -0.00375378 0.00385864 ) 0 
( 0.00201781 -0.00040681 0.00408563 ) 0 
( 0.000891406 -0.00456703 0.00367026 ) 0 
( 0.00459441 -0.000323318 0.00410701 ) 0 
( 0.00485418 -0.00262429 0.00380707 ) 0 
( 0.00094699 -0.00010018 0.00430845 ) 0 
( 0.00269797 -0.00160104 0.00431573 ) 0 
( 0.00371637 -0.00341956 0.004476 ) 0 
( 0.00110008 -0.00104558 0.00458987 ) 0 
( 0.00283703 -0.00300923 0.00471245 ) 0 
( 0.00286915 -0.00382191 0.00413266 ) 0 
( 0.00290483 -0.000592177 0.00450738 ) 0 
( 0.00427278 -0.00424732 0.0044125 ) 0 
( 0.0023812 -0.00476241 0.00458934 ) 0 
( 0.00229868 -0.00251299 0.00403485 ) 0 
( 0.00413554 -0.00127047 0.00431736 ) 0 
( 0.00143586 -0.00442703 0.00452587 ) 0 
( 0.000832837 -0.00360559 0.00482222 ) 0 
( 0.00448578 -0.00215962 0.00460999 ) 0 
( 0.000464251 -0.00271252 0.00507792 ) 0 
( 0.00148653 -0.00182904 0.00507486 ) 0 
( 0.00342428 -0.00220492 0.00463874 ) 0 
( 0.00377044 -0.000105761 0.0046273 ) 0 
( 0.00221295 -7.19877e-05 0.00500603 ) 0 
( 0.00024327 -0.000506601 0.0051211 ) 0 
( 0.00334968 -0.00453115 0.00466697 ) 0 
( 0.00467248 -0.00317342 0.00462406 ) 0 
( 0.0014312 -0.0040793 0.00546642 ) 0 
( 0.00165461 -0.00280657 0.00495706 ) 0 
( 0.00206457 -0.00104648 0.00485108 ) 0 
( 0.00226253 -0.00383796 0.00496697 ) 0 
( 0.00217247 -0.00147483 0.00574732 ) 0 
( 0.000177276 -0.00349363 0.00562982 ) 0 
( 0.00299913 -0.00128998 0.00521671 ) 0 
( 0.00312958 -0.00017752 0.00538978 ) 0 
( 0.000513133 -0.00162309 0.00515599 ) 0 
( 0.00408663 -0.00475591 0.00530357 ) 0 
( 0.00394791 -0.00160327 0.00524055 ) 0 
( 0.00242196 -0.00217871 0.00508198 ) 0 
( 0.00320991 -0.00374807 0.00527046 ) 0 
( 0.00268119 -0.00455729 0.00551864 ) 0 
( 0.00495624 -0.00157504 0.00530771 ) 0 
( 0.00421128 -0.00376491 0.00528496 ) 0 
( 0.00135797 -0.000928306 0.00554731 ) 0 
( 0.000353755 -0.00438703 0.00522001 ) 0 
( 0.000288601 -0.0010612 0.00595076 ) 0 
( 0.00397166 -0.00279678 0.00522778 ) 0 
( 0.00445301 -0.00068886 0.00506619 ) 0 
( 0.00483043 -0.00110826 0.00618043 ) 0 
( 0.00183761 -0.000139122 0.00592887 ) 0 
( 0.00265708 -0.000680201 0.00611153 ) 0 
( 0.00325977 -0.00221797 0.00562382 ) 0 
( 0.00111646 -0.00316429 0.00571877 ) 0 
( 0.00369256 -0.00405578 0.0060878 ) 0 
( 0.00333734 -0.00312343 0.00603852 ) 0 
( 0.00442968 -0.00219779 0.00588299 ) 0 
( 0.000737348 -0.00223855 0.00591228 ) 0 
( 0.00453537 -0.000186154 0.00592592 ) 0 
( 0.000695979 -0.0041827 0.00613473 ) 0 
( 0.00243321 -0.00301737 0.00562504 ) 0 
( 0.00376488 -0.00081419 0.0058234 ) 0 
( 0.00172859 -0.0023592 0.00588614 ) 0 
( 0.00433365 -0.0031724 0.00608017 ) 0 
( 0.00111471 -0.00143689 0.00637163 ) 0 
( 0.00267324 -0.00249776 0.00644324 ) 0 
( 0.00296388 -0.00376655 0.00670598 ) 0 
( 0.00157645 -0.00462144 0.00631005 ) 0 
( 0.00303621 -0.00157187 0.00635168 ) 0 
( 0.000974743 -0.000443006 0.00633184 ) 0 
( 0.00183874 -0.000815484 0.00666833 ) 0 
( 0.00171306 -0.00313113 0.0065198 ) 0 
( 0.00431605 -0.00477691 0.00638224 ) 0 
( 0.00220041 -0.00387924 0.00607157 ) 0 
( 0.00116471 -0.00234687 0.0068094 ) 0 
( 0.003676 -0.00232011 0.00652634 ) 0 
( 0.00040732 -0.00483995 0.00683063 ) 0 
( 0.00327378 -0.000715968 0.00689731 ) 0 
( 0.000717897 -0.00328747 0.00662712 ) 0 
( 0.00020393 -0.00179062 0.0066282 ) 0 
( 0.00348601 -0.00459454 0.00690789 ) 0 
( 0.00424258 -0.000409957 0.00685383 ) 0 
( 0.00256012 -0.00482696 0.00647193 ) 0 
( 0.0047259 -0.00244647 0.00680373 ) 0 
( 0.000363638 -4.7088e-06 0.00698979 ) 0 
( 0.0010964 -0.0041483 0.00704803 ) 0 
( 0.00397635 -0.00137201 0.00662397 ) 0 
( 0.0020954 -0.0041381 0.00703097 ) 0 
( 0.00140089 -0.00159607 0.00745176 ) 0 
( 0.00236838 -0.000225795 0.0072775 ) 0 
( 0.00429471 -0.00381201 0.00684622 ) 0 
( 0.00066471 -0.00099442 0.00714508 ) 0 
( 0.00199317 -0.00180372 0.00667409 ) 0 
( 0.00333868 -0.00176427 0.00728403 ) 0 
( 0.00159546 -0.00339604 0.00747541 ) 0 
( 0.00250507 -0.00121444 0.00729744 ) 0 
( 0.00360621 -0.00312174 0.00711758 ) 0 
( 0.00459848 -0.00162779 0.00736227 ) 0 
( 0.00214545 -0.00258347 0.00728626 ) 0 
( 0.00258935 -0.00343304 0.00756957 ) 0 
( 0.00302375 -0.00256243 0.00779521 ) 0 
( 0.0030313 -0.000610445 0.00791844 ) 0 
( 0.00132357 -0.0025103 0.00784889 ) 0 
( 0.00043003 -0.00225579 0.00748295 ) 0 
( 0.00393487 -0.000936577 0.00764478 ) 0 
( 0.000541563 -0.0043051 0.00786365 ) 0 
( 0.0034844 -0.00394604 0.00766795 ) 0 
( 0.00144418 -0.000506646 0.00753322 ) 0 
( 0.000663718 -0.00331441 0.007826 ) 0 
( 0.00468131 -0.00316197 0.00749981 ) 0 
( 0.00451841 -2.69984e-05 0.00774199 ) 0 
( 0.00161145 -0.00442893 0.00785623 ) 0 
( 0.000206153 -0.000636962 0.00795772 ) 0 
( 0.0021075 -0.000894236 0.0081716 ) 0 
( 0.00371165 -5.95956e-06 0.00833093 ) 0 
( 0.0034293 -0.00154681 0.00825343 ) 0 
( 0.00217799 -0.00283283 0.0082545 ) 0 
( 0.00450792 -0.00410679 0.00777592 ) 0 
( 0.00442071 -0.00177454 0.00833501 ) 0 
( 0.00159932 -0.00362362 0.00844783 ) 0 
( 0.00260968 -0.00438646 0.0078657 ) 0 
( 0.00486106 -0.000923602 0.00802038 ) 0 
( 0.00219985 -0.00187143 0.00798488 ) 0 
( 0.00381707 -0.00480186 0.00806121 ) 0 
( 0.00106754 -0.00107335 0.00826439 ) 0 
( 0.00252774 -3.48389e-05 0.00881343 ) 0 
( 0.000319286 -0.00173255 0.00832713 ) 0 
( 0.00402608 -0.00239232 0.00765562 ) 0 
( 0.000644461 -0.00264729 0.00856872 ) 0 
( 0.00411257 -0.00408642 0.00869276 ) 0 
( 0.00407413 -0.000886242 0.00863551 ) 0 
( 0.00395941 -0.00323641 0.00818718 ) 0 
( 0.00301391 -0.00484792 0.00865443 ) 0 
( 0.00150398 -0.00282888 0.00904632 ) 0 
( 0.00153879 -0.000383031 0.00881499 ) 0 
( 0.00490379 -0.0049038 0.00824085 ) 0 
( 0.00210535 -0.0044384 0.00872626 ) 0 
( 0.00353387 -0.00245848 0.00864832 ) 0 
( 0.00144833 -0.00191626 0.00864259 ) 0 
( 0.00295543 -0.00366836 0.00846959 ) 0 
( 0.00438888 -6.06446e-05 0.00910214 ) 0 
( 0.000677516 -0.00366502 0.00882929 ) 0 
( 0.00118801 -0.00119347 0.00928168 ) 0 
( 0.00481634 -0.00132911 0.00913766 ) 0 
( 0.00363126 -0.00164605 0.00922657 ) 0 
( 0.00273761 -0.00289175 0.00907942 ) 0 
( 0.00155602 -0.00483923 0.00953126 ) 0 
( 0.00271337 -0.00192202 0.00884023 ) 0 
( 0.00436892 -0.00231909 0.00917882 ) 0 
( 0.00196393 -0.00205335 0.00948778 ) 0 
( 0.00217522 -0.0011354 0.00913881 ) 0 
( 0.000606278 -0.00473376 0.00918502 ) 0 
( 0.00480648 -0.00462082 0.00919827 ) 0 
( 0.00363533 -0.00332653 0.00913187 ) 0 
( 0.00384873 -0.00490579 0.00920085 ) 0 
( 0.00461445 -0.00325998 0.00894687 ) 0 
( 0.00310283 -0.000848636 0.00888888 ) 0 
( 0.000490265 -0.000579976 0.00891423 ) 0 
( 0.00304507 -0.000428697 0.00979378 ) 0 
( 0.00206388 -0.000290974 0.00966085 ) 0 
( 0.00397312 -0.000799058 0.00963149 ) 0 
( 0.00112004 -0.00395219 0.00967758 ) 0 
( 0.000564983 -0.0019736 0.00930125 ) 0 
( 0.00308976 -0.00413426 0.00934886 ) 0 
( 8.43414e-05 -0.00397277 0.0095724 ) 0 
( 0.00210551 -0.00362986 0.0093131 ) 0 
( 0.00179909 -0.00125714 0.0100694 ) 0 
( 0.00406524 -0.00403616 0.00968934 ) 0 
( 0.00106514 -0.000289356 0.00968972 ) 0 
( 0.000579853 -0.00294885 0.00951954 ) 0 
( 0.00426345 -0.00305389 0.00985967 ) 0 
( 0.000218316 -0.000329839 0.0102178 ) 0 
( 0.0017868 -0.000418137 0.0106126 ) 0 
( 0.00284278 -0.00337358 0.00994856 ) 0 
( 0.00240632 -0.00453368 0.00995794 ) 0 
( 2.50657e-05 -0.00327446 0.0102846 ) 0 
( 0.00432357 -0.0016807 0.0099467 ) 0 
( 0.00344048 -0.0025149 0.00968169 ) 0 
( 0.00279891 -0.00158509 0.00977719 ) 0 
( 0.000498195 -0.00126455 0.0100018 ) 0 
( 0.00336879 -0.00450017 0.0102359 ) 0 
( 0.000518208 -0.00412994 0.0104589 ) 0 
( 0.00195574 -0.00291468 0.00999474 ) 0 
( 0.00395084 -0.00259609 0.0106912 ) 0 
( 0.00209227 -0.00208849 0.0105404 ) 0 
( 0.00360723 -0.000745619 0.0105599 ) 0 
( 0.00116284 -0.00230728 0.0100288 ) 0 
( 0.00366853 -0.00356724 0.0104778 ) 0 
( 0.00440693 -0.00469953 0.0103544 ) 0 
( 0.00488536 -0.000925489 0.0102832 ) 0 
( 0.00182855 -0.00383147 0.0103721 ) 0 
( 0.000458575 -0.00248418 0.0107157 ) 0 
( 0.00296066 -0.00258334 0.0105556 ) 0 
( 0.00263034 -0.000955596 0.0105352 ) 0 
( 0.00348512 -0.00173522 0.0104878 ) 0 
( 0.00431957 -0.000101471 0.0102576 ) 0 
( 0.00102468 -0.0032368 0.0103689 ) 0 
( 0.00486017 -0.00218138 0.0106676 ) 0 
( 0.000884158 -0.00080381 0.0108003 ) 0 
( 0.00131451 -0.000607793 0.0116811 ) 0 
( 0.00134085 -0.00461684 0.0107513 ) 0 
( 0.00191944 -0.00122838 0.0111829 ) 0 
( 0.00274591 -0.00393143 0.0107723 ) 0 
( 0.00320837 -0.00321295 0.0112915 ) 0 
( 0.00107013 -0.00377192 0.011212 ) 0 
( 0.00277292 -0.00174875 0.0111889 ) 0 
( 0.00430611 -0.00139741 0.010947 ) 0 
( 0.00113846 -0.00176786 0.0108698 ) 0 
( 0.00462473 -0.00340703 0.0107224 ) 0 
( 0.00220414 -0.00310572 0.0109471 ) 0 
( 0.00425966 -0.000371284 0.0112183 ) 0 
( 0.000197219 -0.000228186 0.0112424 ) 0 
( 0.00198049 -0.0041639 0.0113717 ) 0 
( 0.00370046 -0.0020065 0.0114587 ) 0 
( 0.00178016 -0.00329914 0.0118317 ) 0 
( 0.00131862 -0.00270241 0.0111756 ) 0 
( 0.000464807 -0.00480603 0.0111937 ) 0 
( 0.00391926 -0.00428785 0.0111239 ) 0 
( 0.00273278 -0.000849563 0.0116241 ) 0 
( 0.00457848 -0.00273081 0.0114573 ) 0 
( 8.63562e-05 -0.00362836 0.0113174 ) 0 
( 0.00214644 -0.00238538 0.011638 ) 0 
( 0.00307581 -0.00482467 0.0111349 ) 0 
( 0.00295043 -0.000118413 0.010978 ) 0 
)
