FoamFile
{version 2.0; format ascii;class vectorField; location 0;object  v;}
348
(
( -0.000107193 0.000525163 -0.000927684 )  
( 0.000103751 -3.43825e-05 -0.00083948 )  
( 0.000417029 8.84394e-05 -0.00120596 )  
( 0.000531389 0.000288939 -0.00170722 )  
( -0.000218353 0.000163991 -0.000630913 )  
( 0.000445386 0.000380346 -0.00115734 )  
( 0.0015679 0.000424607 -0.000916269 )  
( 9.53925e-05 -2.15594e-05 -0.00135878 )  
( -9.94923e-05 0.000702223 -0.000602164 )  
( -7.27483e-05 -1.46077e-05 -0.00125508 )  
( 0.000979738 0.000493405 -0.000925625 )  
( -5.07397e-07 0.000316626 -0.00106899 )  
( 7.62371e-05 9.83921e-05 -0.00112572 )  
( 2.42436e-05 0.000155281 -0.000854958 )  
( -0.000625445 0.000234714 -0.00220849 )  
( 0.00113243 0.000450451 -0.00302581 )  
( -0.000451034 0.00122756 -0.00130761 )  
( 0.000291213 0.0001707 -0.000882491 )  
( 0.000970087 -0.000266229 -0.00241063 )  
( 0.000156892 0.000755425 -0.00258212 )  
( -0.000198166 0.000202618 -0.000882746 )  
( 0.000241498 8.38673e-05 -0.00104809 )  
( 1.16219e-05 0.000205862 -0.000957803 )  
( -0.000338756 0.000312029 -0.0018931 )  
( 0.000120785 0.000264882 -0.00256503 )  
( 0.00043322 0.000345294 -0.00301451 )  
( -1.90978e-05 0.000281741 -0.00140144 )  
( -3.10099e-05 -0.000155368 -0.00221186 )  
( -0.000143126 2.6926e-05 -0.00175759 )  
( 0.00018188 -9.69361e-05 -0.0010539 )  
( -0.00039807 0.000320401 -0.00303177 )  
( -0.000529086 -0.000309176 -0.0028947 )  
( -0.000649835 0.00247378 -0.00262801 )  
( 0.000522637 -0.000107635 -0.00215995 )  
( 0.000242873 0.0001265 -0.0020487 )  
( 0.000180377 0.000231374 -0.00136206 )  
( -4.19849e-05 0.000298557 -0.00303608 )  
( 0.000150254 -0.000371871 -0.00236191 )  
( 4.54473e-05 0.00044208 -0.00196736 )  
( -0.000216285 -3.88363e-05 -0.00217915 )  
( 0.000782958 0.000207224 -0.00197403 )  
( -0.000235587 0.000376964 -0.00201816 )  
( -5.57348e-05 0.00027355 -0.00299376 )  
( 0.00112405 0.000630011 -0.00209082 )  
( -7.62755e-05 -0.000824748 -0.00376394 )  
( -4.31119e-06 0.000115178 -0.00201852 )  
( -0.000490272 0.000138804 -0.00354851 )  
( 0.000623965 -0.000258569 -0.00429877 )  
( 0.000163005 0.000783556 -0.00533836 )  
( 0.000440876 0.000499665 -0.00415816 )  
( 0.000454747 0.000503188 -0.00337225 )  
( 5.5315e-05 0.000945382 -0.00322587 )  
( 0.000394307 0.000338853 -0.00523157 )  
( 0.000552085 0.000720031 -0.00414417 )  
( -0.00050685 0.000429933 -0.00437588 )  
( -0.000333816 -0.000269742 -0.00395139 )  
( 0.00141379 -0.000557074 -0.00364205 )  
( 0.000317105 0.000764245 -0.0038782 )  
( -2.87402e-06 0.000419297 -0.00303416 )  
( 0.00114714 -0.000110739 -0.0036987 )  
( 0.000200396 0.000579157 -0.00416755 )  
( -0.000478252 0.000371144 -0.00441217 )  
( 0.000159393 0.000348437 -0.00524152 )  
( 0.000575384 0.00097721 -0.00349006 )  
( -2.0571e-06 -1.7161e-05 -0.00323054 )  
( 0.00144784 0.000777924 -0.00597728 )  
( -0.000981844 9.92864e-05 -0.00482452 )  
( -0.000184609 -0.000163511 -0.00455803 )  
( -0.000819996 0.000291639 -0.00358313 )  
( 0.000685867 0.000142543 -0.00502791 )  
( 0.000257721 0.000610928 -0.00608868 )  
( 8.36101e-05 0.000123403 -0.00508216 )  
( 0.000385391 3.88781e-05 -0.00582519 )  
( -0.000308944 0.000836786 -0.00341666 )  
( 0.000419456 0.000912648 -0.00462207 )  
( -0.00100791 0.00085999 -0.00503266 )  
( -0.00113101 0.000105381 -0.00578012 )  
( 0.0010097 0.000507375 -0.00575951 )  
( -0.000426611 0.000815979 -0.00507723 )  
( 0.000566571 0.000224507 -0.00624627 )  
( -0.000213829 0.000422851 -0.00522195 )  
( 0.000888839 -7.25833e-05 -0.00672317 )  
( -0.000236829 0.000136679 -0.00600594 )  
( -0.000451355 -0.000622984 -0.00526039 )  
( 0.000617732 0.000504596 -0.00527586 )  
( 0.000982299 -0.00100241 -0.00569435 )  
( 0.000358765 0.000550422 -0.00603376 )  
( 0.00100619 -0.000153317 -0.00572879 )  
( -0.000104876 0.000700991 -0.00639537 )  
( 0.000176961 -2.76731e-06 -0.00663532 )  
( -2.37271e-05 -3.06511e-05 -0.00723217 )  
( 0.000427689 0.000924251 -0.00524489 )  
( -0.000130792 -0.00022621 -0.00626092 )  
( 5.94388e-05 0.000192632 -0.0060846 )  
( 3.94267e-05 7.8764e-06 -0.00542148 )  
( 0.000113652 0.000282907 -0.0054023 )  
( -0.000165081 0.00104 -0.00526608 )  
( 1.78676e-05 0.000785249 -0.00784916 )  
( 0.000485935 -0.000643777 -0.00868828 )  
( 0.000204446 0.00168085 -0.00761948 )  
( 0.000287138 0.000608649 -0.00688826 )  
( -0.00130044 -0.000490857 -0.0076667 )  
( -2.21642e-05 0.000767896 -0.00699481 )  
( -0.00143194 -0.00116402 -0.00873486 )  
( 3.61848e-05 -0.000544606 -0.00657726 )  
( 0.000189045 -5.82467e-05 -0.00633081 )  
( 0.000111328 -6.73031e-05 -0.00719023 )  
( 0.000692473 -4.96769e-05 -0.0078961 )  
( 0.000803148 -0.00069121 -0.00879997 )  
( 0.000308013 0.000796382 -0.00648279 )  
( 0.000490124 0.000219806 -0.00632778 )  
( -0.000272901 0.000970798 -0.00732533 )  
( 0.00033936 -0.000336659 -0.00641218 )  
( 0.000675234 -0.000689767 -0.00764741 )  
( 0.000931817 -4.59508e-05 -0.00762335 )  
( 0.000444679 0.000923032 -0.00683834 )  
( 0.000274876 -0.000389907 -0.00708169 )  
( 0.000737339 0.000356675 -0.00672417 )  
( 0.000193574 0.000492246 -0.00958781 )  
( -0.000194298 0.000387171 -0.00877649 )  
( 0.000167623 -0.00041214 -0.00818425 )  
( 0.000175431 -9.44448e-05 -0.00720049 )  
( -4.25428e-05 0.000561201 -0.00715325 )  
( 0.000393577 -0.000370489 -0.00875466 )  
( 0.000208654 -0.00013922 -0.00945336 )  
( -8.12091e-06 0.000541183 -0.00844751 )  
( 0.000747972 -0.000242675 -0.00836979 )  
( 0.000280477 0.000218968 -0.010815 )  
( 0.000456389 0.000202169 -0.00983114 )  
( -0.000648007 -0.000178508 -0.0106354 )  
( 0.000475168 0.00238797 -0.0079458 )  
( 0.00038219 9.15949e-05 -0.00958237 )  
( 4.68231e-05 0.000275522 -0.00875202 )  
( 2.2063e-05 0.00019856 -0.0083093 )  
( 0.00048714 0.00118996 -0.00775629 )  
( -3.91979e-05 0.000406085 -0.010622 )  
( -0.000421484 -0.000555255 -0.00940433 )  
( -0.000189065 -0.00032812 -0.0096433 )  
( 0.000192324 0.000478641 -0.00859492 )  
( 0.00042713 -0.000428521 -0.00942721 )  
( 0.000352957 0.000635997 -0.0100629 )  
( -0.000158843 -0.000266208 -0.0108545 )  
( 0.000632136 -0.000138185 -0.00941115 )  
( -0.000220738 0.0002847 -0.0104005 )  
( -0.000638561 0.00119536 -0.00933361 )  
( 0.000515595 0.000376818 -0.0103893 )  
( -0.000157971 0.000157591 -0.0105883 )  
( -0.000281824 -0.000751224 -0.00879992 )  
( -0.00053312 0.000182447 -0.0108682 )  
( 0.000249794 -9.33639e-05 -0.0114051 )  
( -0.000271724 0.00147973 -0.00862654 )  
( 2.51489e-05 -0.000326952 -0.0108022 )  
( -4.65681e-05 9.06221e-05 -0.00948674 )  
( 0.000236744 0.00041337 -0.0112766 )  
( 0.000948168 9.6379e-05 -0.0098441 )  
( -0.00107196 0.000564394 -0.011449 )  
( -0.00144872 -2.9326e-05 -0.0130355 )  
( -0.000114884 -1.07621e-05 -0.0106705 )  
( 0.000192408 -0.000562389 -0.0110548 )  
( -0.00132975 -0.000522687 -0.0107046 )  
( 0.00030986 0.000365761 -0.0111319 )  
( -0.00122277 0.000252243 -0.0123645 )  
( 0.000189871 4.20567e-05 -0.0112767 )  
( -0.000592103 -0.000974972 -0.0113133 )  
( 6.71149e-05 0.000448484 -0.0111894 )  
( -0.00122893 -0.000239596 -0.011641 )  
( -0.00021856 0.000425223 -0.011498 )  
( -0.000137828 0.000441618 -0.0121962 )  
( -2.17727e-05 0.000273633 -0.0123967 )  
( 0.000104285 0.000815801 -0.0123166 )  
( -0.000563088 0.00111246 -0.0127929 )  
( 0.000299987 0.000905366 -0.0165855 )  
( 0.000596285 0.000113423 -0.0129429 )  
( 0.000805506 0.000497455 -0.0132571 )  
( 5.59262e-05 -6.2703e-05 -0.0124906 )  
( -0.000274442 -0.000453129 -0.0137445 )  
( 5.31321e-05 -0.000581799 -0.0133223 )  
( -0.00038632 -0.000781881 -0.0137621 )  
( -0.000413932 0.00107085 -0.0139225 )  
( -4.32924e-05 -0.0018357 -0.0111631 )  
( 9.25132e-05 -0.000107173 -0.0119594 )  
( -0.000350503 3.5758e-06 -0.0175653 )  
( 3.96312e-05 -0.000268107 -0.0136705 )  
( 0.000761708 5.12801e-06 -0.0163463 )  
( 0.00021354 -5.23296e-05 -0.0134328 )  
( -8.33783e-05 0.000733961 -0.015557 )  
( 0.00034894 -0.000352233 -0.0118821 )  
( -0.000854666 -0.000440317 -0.0113132 )  
( 0.000213256 -0.000304294 -0.0164204 )  
( 0.000151596 0.000582037 -0.0148833 )  
( -0.000264672 0.00047859 -0.0148784 )  
( 0.000186375 -0.000143365 -0.0144628 )  
( -0.000239454 0.000499261 -0.0133295 )  
( -0.000696068 -0.000516155 -0.0139596 )  
( -0.000858091 -0.000746632 -0.0160929 )  
( 0.000285621 -0.000615477 -0.0136313 )  
( 0.000382718 -3.37114e-05 -0.0166808 )  
( 0.00166639 -0.000887002 -0.0159629 )  
( 0.00143515 -0.000449168 -0.016248 )  
( 0.000916558 0.000755612 -0.0159814 )  
( 0.00102216 0.000770716 -0.0161847 )  
( -0.000322937 -2.15899e-05 -0.0146495 )  
( -0.000436866 -0.00057481 -0.0156506 )  
( 0.000648546 -0.000130795 -0.0164105 )  
( 0.000928166 -0.000179807 -0.0141985 )  
( 0.000831273 -0.00031431 -0.0140738 )  
( 0.00040173 -7.64609e-05 -0.0148591 )  
( 0.0006099 0.000572158 -0.0157245 )  
( 0.00051264 -6.89877e-05 -0.0153922 )  
( 0.000886732 0.000368272 -0.0150221 )  
( 0.000814166 -0.00068713 -0.0143347 )  
( 0.000154031 -0.000260012 -0.0178086 )  
( 0.000449991 6.79863e-06 -0.0166704 )  
( 0.000791852 -0.000325255 -0.014714 )  
( 0.00105907 -0.000906612 -0.0152375 )  
( 0.000596015 1.73969e-05 -0.0144085 )  
( 0.000142771 -0.000565637 -0.0182403 )  
( 0.000483398 0.000893226 -0.016091 )  
( 0.000446644 0.000655674 -0.0169642 )  
( 0.000204087 0.000350558 -0.0160813 )  
( 0.000811577 -0.000405941 -0.0174023 )  
( -0.00188087 0.000934821 -0.0150021 )  
( 0.000147495 -0.000192624 -0.0181724 )  
( -6.96346e-05 -0.000844461 -0.0175962 )  
( 0.00146283 0.000221352 -0.0167183 )  
( -0.000211406 0.000677848 -0.0166504 )  
( 0.000516015 0.000663925 -0.0167758 )  
( 0.000172677 8.26186e-05 -0.0162843 )  
( -0.000486789 0.000333898 -0.0153129 )  
( 0.00023169 6.97426e-05 -0.0179477 )  
( -0.000358341 1.35392e-06 -0.017887 )  
( 0.000966325 -2.61281e-05 -0.0168312 )  
( -9.49176e-05 0.000421185 -0.0172385 )  
( 0.00037449 -0.000357805 -0.0170727 )  
( 0.000900612 0.00100589 -0.0162996 )  
( -9.61816e-05 -0.000406025 -0.0180278 )  
( 0.000424864 0.00096229 -0.0181739 )  
( -0.000474084 0.00104597 -0.0176214 )  
( 0.0004774 -0.000105756 -0.0168747 )  
( 2.47078e-05 -1.64116e-05 -0.0168372 )  
( -8.10202e-05 -0.000854804 -0.0186084 )  
( 0.00027413 0.000560949 -0.017387 )  
( -0.000339613 -0.000492929 -0.0166745 )  
( -0.000349089 -0.000208254 -0.0176235 )  
( -0.000569452 0.000817906 -0.0167209 )  
( 0.00114414 0.000385303 -0.0169411 )  
( 0.000693964 0.000357428 -0.0157833 )  
( -0.000744327 0.00141598 -0.016164 )  
( 0.000549371 -0.00051855 -0.0175057 )  
( 0.000843484 0.000319632 -0.0175065 )  
( -3.00982e-05 -0.000482884 -0.0179087 )  
( -0.000296471 -0.000364724 -0.017992 )  
( 0.00182522 0.000634605 -0.0151827 )  
( 0.000515111 -0.000945027 -0.0169276 )  
( 0.000314212 0.000368938 -0.018194 )  
( 0.000617998 -0.00124009 -0.0169461 )  
( -0.000421467 0.000390005 -0.0169218 )  
( 0.000250464 6.89221e-05 -0.016214 )  
( 0.000420615 -0.000116381 -0.0179792 )  
( 0.000468734 -0.000392422 -0.0174043 )  
( -0.0010078 0.000150647 -0.0168884 )  
( 0.000214746 0.00016469 -0.0185208 )  
( 0.00167939 0.00057702 -0.0177566 )  
( 0.000982374 -0.000713818 -0.0155384 )  
( 0.00227777 -0.000995561 -0.0158416 )  
( -0.000392763 -0.000364236 -0.0174561 )  
( 0.000286225 -4.47724e-05 -0.0178345 )  
( -0.00094253 -0.00156223 -0.00816268 )  
( 0.000720588 8.22305e-07 -0.0174294 )  
( 0.000679013 0.000444068 -0.0162245 )  
( 0.000143256 -0.00134247 -0.0149177 )  
( -0.000460618 -0.000251133 -0.0146884 )  
( 0.00121202 -0.00076112 -0.0159044 )  
( 0.000119232 0.000419661 -0.0163513 )  
( 0.000285589 0.000271279 -0.0163147 )  
( 0.000681926 -0.000607336 -0.0162546 )  
( -0.000132273 0.000475037 -0.0129386 )  
( 6.85827e-05 -0.000308413 -0.0143623 )  
( -0.000124217 -0.00187371 -0.0134646 )  
( 0.00136153 -0.000360959 -0.0171505 )  
( 0.000346735 0.000663349 -0.0124584 )  
( 0.00104756 -0.000918568 -0.0148877 )  
( -5.87861e-06 4.13395e-05 -0.0139101 )  
( 0.000516429 -0.000172459 -0.0163436 )  
( 0.00024535 9.28698e-05 -0.0162125 )  
( 0.000504851 1.5477e-05 -0.0118371 )  
( -0.000672648 0.000272458 -0.0116119 )  
( 0.000331612 7.30562e-05 -0.0082318 )  
( 0.00110311 -0.000584835 -0.0125174 )  
( 0.00090116 -0.00194871 -0.0142952 )  
( 3.94659e-05 -8.70386e-05 -0.00705645 )  
( 0.00173237 0.000112026 -0.01068 )  
( -7.62451e-05 -3.51153e-05 -0.0105288 )  
( 0.0014784 -0.00199004 -0.014652 )  
( 0.00170482 -0.00206547 -0.00754029 )  
( 0.000589783 0.0017358 -0.0105334 )  
( -0.000498036 0.000514682 -0.0119841 )  
( -0.000650385 0.000400288 -0.0054135 )  
( -0.00058561 0.000583646 -0.0135036 )  
( 0.00098495 3.59966e-06 -0.0104892 )  
( -0.000626102 0.000299005 -0.00584636 )  
( -0.00054028 -0.000734628 -0.00459213 )  
( 0.00072157 0.000147934 -0.0115168 )  
( 0.000412846 0.000194824 -0.00755692 )  
( -0.000563101 -0.000136559 -0.00636397 )  
( -3.31392e-05 -0.00110728 -0.00991589 )  
( 0.000912427 -0.000808432 -0.00357976 )  
( 0.000240363 0.0017905 -0.00215457 )  
( -0.000145853 1.59907e-05 -0.00935851 )  
( 0.000465424 -0.000311539 -0.00952548 )  
( 0.000187046 -0.000413241 -0.00448045 )  
( 8.93217e-05 0.000277846 -0.0102416 )  
( -0.00160571 0.000788837 0.00166634 )  
( -0.00116753 -0.000238674 -0.00282225 )  
( -0.00160756 -0.00049491 -0.0066981 )  
( -0.00033955 -0.00010689 -0.00487697 )  
( 0.00154834 0.000670376 0.000311654 )  
( -0.000644638 0.000349942 -0.00628199 )  
( -0.000826218 0.00127217 -0.00203104 )  
( -0.0022813 0.00440125 -0.00570222 )  
( -0.00142466 0.0017156 -0.00337499 )  
( 0.00144129 -0.00100961 -0.00132297 )  
( 8.76975e-05 0.000774323 -0.00403945 )  
( -4.16279e-05 -0.000243636 -0.00735732 )  
( -0.000453482 0.000490844 -0.00498315 )  
( -0.000341109 -0.000196962 -0.00528414 )  
( 0.00022897 -0.000964344 -0.00881762 )  
( 0.00271019 0.00225982 0.00971109 )  
( 0.00171911 0.00118515 0.00806455 )  
( 0.00182189 0.00145935 0.00282465 )  
( -0.00131586 -0.00015305 -0.0049614 )  
( 0.00172448 -0.00105166 0.00539368 )  
( -9.52183e-05 -0.00214187 0.00507807 )  
( 0.000650673 -0.000382247 0.00691816 )  
( -5.78227e-05 -0.00184695 0.000316024 )  
( 0.00140334 -0.00073763 0.00885125 )  
( -0.00217726 0.00161993 0.00698557 )  
( 0.000701486 -0.00294231 0.00545614 )  
( 0.00128852 -0.000957397 0.00568691 )  
( -0.00096562 -0.00141544 -0.00400903 )  
( -0.000978499 -0.00225181 0.000403454 )  
( -0.00234891 0.000540417 0.00399481 )  
( 0.00106294 -0.00199331 0.00854464 )  
( 0.000261496 -6.09195e-05 0.00808276 )  
( 0.000769518 -0.000375941 -0.000601905 )  
( 0.00159304 0.00107281 0.0110512 )  
( -0.000908246 0.00261654 0.00941855 )  
( 0.00261107 0.00342351 0.00965549 )  
)
