/*--------------------------------*- C++ -*----------------------------------*\
| =========                 |                                                 |
| \\      /  F ield         | OpenFOAM: The Open Source CFD Toolbox           |
|  \\    /   O peration     | Version:  5.x                                   |
|   \\  /    A nd           | Web:      www.OpenFOAM.org                      |
|    \\/     M anipulation  |                                                 |
\*---------------------------------------------------------------------------*/
FoamFile
{
    version     2.0;
    format      ascii;
    class       volScalarField;
    location    "6000";
    object      p;
}
// * * * * * * * * * * * * * * * * * * * * * * * * * * * * * * * * * * * * * //

dimensions      [0 2 -2 0 0 0 0];

internalField   nonuniform List<scalar> 
180
(
-25.088
-59.0473
-65.1077
-67.1415
-69.5619
-69.8602
-69.053
-67.7237
-68.5067
-77.9194
-83.8851
-84.8577
-83.477
-81.2601
-80.5636
-80.9904
-79.91
-79.1681
-82.4112
-93.523
-106.707
-112.636
-112.562
-110.41
-114.792
-119.4
-120.198
-117.874
-115.37
-119.168
-140.415
-152.13
-155.476
-154.367
-149.688
-154.242
-180.614
-194.363
-195.265
-188.878
-185.861
-183.993
-182.242
-180.863
-185.77
-192.111
-193.529
-191.695
-192.309
-198.025
-204.44
-207.337
-210.762
-216.554
-219.098
-221.073
-225.599
-232.053
-238.305
-242.558
-244.902
-248.035
-254.32
-258.937
-264.647
-269.458
-272.506
-279.613
-286.765
-294.424
-300.201
-303.681
-312.838
-321.103
-330.841
-341.588
-346.83
-351.586
-366.926
-379.25
-385.961
-399.641
-425.103
-455.148
-474.557
-484.815
-502.306
-540.855
-576.29
-614.993
-668.617
-725.372
-757.87
-778.967
-804.604
-839.09
-900.234
-985.518
-1071.51
-1178.6
-1296.98
-1419.18
-1557.22
-1709.18
-1879.3
-2067.63
-2275.7
-2540.79
-2850.06
-3173.55
-3493.28
-3792.61
-4074.29
-4331.28
-4549.25
-4758.5
-4911.4
-5044.05
-5214.69
-5362.36
-5505.91
-5658.24
-5825.08
-5991.45
-6159.44
-6316.75
-6458.45
-6588.05
-6696.17
-6784.02
-6851.71
-6898.91
-6921.49
-6935.9
-6913.52
-6890.51
-6883.18
-6882.94
-6842.45
-6791
-6740.91
-6698.71
-6657.76
-6620.7
-6573.74
-6527.47
-6475.9
-6410.29
-6352.96
-6276
-6218.14
-6182.55
-6161.96
-6184.9
-6211.47
-6209.12
-6146.76
-5976
-5667.3
-5269.33
-4873.73
-4510.39
-4166.25
-3832.24
-3522.81
-3253.25
-3028.77
-2834.76
-2670.05
-2533.3
-2427.08
-2345.8
-2289.07
-2248.97
-2227.46
-2214.34
-2215.91
-2221.47
-2235.4
-2244.61
)
;

boundaryField
{
    inlet
    {
        type            zeroGradient;
    }
    outlet
    {
        type            fixedValue;
        value           uniform 0;
    }
    repeat_boundary
    {
        type            zeroGradient;
    }
    procBoundary2to0
    {
        type            processor;
        value           nonuniform List<scalar> 
180
(
-23.1102
-50.3664
-52.9801
-51.0498
-53.5079
-58.2663
-61.7989
-64.7866
-65.0643
-64.2923
-67.1274
-73.448
-76.7015
-76.3833
-78.0779
-80.6722
-80.6568
-81.5886
-87.8884
-90.4054
-89.8781
-91.4195
-94.1327
-95.7687
-97.2341
-98.7806
-104.746
-112.805
-120.814
-128.587
-132.597
-135.015
-137.371
-139.933
-146.428
-150.685
-154.73
-157.812
-159.715
-165.581
-171.942
-178.369
-184.223
-186.819
-187.365
-188.209
-189.19
-189.813
-190.879
-191.939
-199.059
-206.358
-208.44
-207.461
-210.315
-214.708
-224.177
-232.726
-241.29
-247.91
-248.043
-245.062
-240.367
-239.716
-241.509
-239.069
-235.812
-232.267
-228.66
-224.758
-220.542
-222.876
-242.784
-253.919
-257.524
-261.393
-268.738
-285.935
-304.601
-320.13
-331.92
-344.695
-359.987
-374.877
-392.202
-411.747
-433.552
-456.524
-480.779
-506.659
-528.615
-552.047
-572.182
-589.274
-618.476
-653.579
-687.443
-741.453
-808.881
-883.326
-982.712
-1100.58
-1261.64
-1429.75
-1617.61
-1930.57
-2744.73
-3848.88
-4964.32
-5866.52
-6547.45
-7007.3
-7288.74
-7402.27
-7374.14
-7252.15
-7081.27
-6916.21
-6784.41
-6709.63
-6691.32
-6727.05
-6802.23
-6907.31
-7023.24
-7144.92
-7268.62
-7388.53
-7499.93
-7596.26
-7677.49
-7738.45
-7778.96
-7797.33
-7793.18
-7765.92
-7717.83
-7645.44
-7562.13
-7474.6
-7384.49
-7294.08
-7194.42
-7112.56
-7040.8
-6960.18
-6870.62
-6766.13
-6674
-6591.37
-6521.9
-6471.15
-6428.71
-6402.07
-6387.26
-6390.34
-6395.2
-6403.61
-6420.42
-6372.44
-6158.89
-5760.19
-5222.25
-4587.89
-3897.91
-3197.62
-2549.67
-2007.21
-1597.12
-1314.93
-1148.24
-1073.71
-1066.42
-1099.9
-1155.72
-1213.16
-1267.85
-1307.46
-1330.83
-1347.64
)
;
    }
    procBoundary2to3
    {
        type            processor;
        value           nonuniform List<scalar> 
180
(
-25.362
-47.4959
-51.7265
-57.8124
-62.641
-63.2838
-66.742
-74.374
-78.5611
-80.2246
-87.4437
-92.7664
-93.7805
-92.5669
-91.1424
-90.9595
-91.3467
-90.6165
-95.905
-101.315
-105.7
-110.546
-110.916
-110.062
-110.244
-109.563
-114.953
-121.022
-122.249
-120.438
-120.158
-120.175
-124.804
-140.513
-148.096
-148.735
-148.492
-153.507
-156.641
-159.841
-162.008
-159.88
-153.681
-158.528
-169.405
-171.276
-170.846
-184.868
-203.281
-211.247
-209.351
-208.658
-211.708
-210.239
-212.208
-215.591
-213.989
-208.827
-209.187
-221.621
-235.393
-241.379
-240.292
-235.903
-236.219
-244.796
-255.315
-260.952
-264.476
-266.905
-266.643
-269.769
-272.996
-273.847
-274.337
-273.981
-274.126
-278.081
-285.927
-293.201
-302.425
-315.14
-326.925
-340.721
-354.364
-365.538
-376.825
-389.596
-400.038
-409.461
-421.709
-436.604
-450.54
-462.85
-475.915
-492.98
-519.27
-548.211
-580.922
-621.009
-671.2
-728.622
-804.955
-900.289
-1039.29
-1269.76
-1772.66
-2625.2
-3824.47
-4983.88
-6046.72
-7017.08
-7833.11
-8471.61
-8913.28
-9160.03
-9206.47
-9115.84
-8901.57
-8647.97
-8383.41
-8155.58
-7965.8
-7817.42
-7700.81
-7590.25
-7512.49
-7473.8
-7441.09
-7414.84
-7392.45
-7374.32
-7346.88
-7335.7
-7319.59
-7310.06
-7302.35
-7281.72
-7274.44
-7241.62
-7223.48
-7181.08
-7130.02
-7077.2
-7021.6
-6976.72
-6924.58
-6873.02
-6811.67
-6762.12
-6738.83
-6719.09
-6696.39
-6666.66
-6627.95
-6571.54
-6460.92
-6277.19
-5985.75
-5593.27
-5091.71
-4491.92
-3825.01
-3172.82
-2596.76
-2138.32
-1794.71
-1544.65
-1357.2
-1232.68
-1175.7
-1167.14
-1188.36
-1219.44
-1256.05
-1291.08
-1319.94
-1339.46
-1351.96
-1357.49
)
;
    }
}


// ************************************************************************* //
