/*--------------------------------*- C++ -*----------------------------------*\
| =========                 |                                                 |
| \\      /  F ield         | OpenFOAM: The Open Source CFD Toolbox           |
|  \\    /   O peration     | Version:  5.x                                   |
|   \\  /    A nd           | Web:      www.OpenFOAM.org                      |
|    \\/     M anipulation  |                                                 |
\*---------------------------------------------------------------------------*/
FoamFile
{
    version     2.0;
    format      ascii;
    class       surfaceScalarField;
    location    "6000";
    object      phi;
}
// * * * * * * * * * * * * * * * * * * * * * * * * * * * * * * * * * * * * * //

dimensions      [0 3 -1 0 0 0 0];

internalField   nonuniform List<scalar> 
179
(
1.0648e+07
1.06447e+07
1.06434e+07
1.06425e+07
1.06423e+07
1.06421e+07
1.06416e+07
1.06405e+07
1.06393e+07
1.06381e+07
1.06383e+07
1.06383e+07
1.06385e+07
1.06378e+07
1.06366e+07
1.06351e+07
1.06329e+07
1.06303e+07
1.06288e+07
1.06284e+07
1.06285e+07
1.06279e+07
1.06278e+07
1.0628e+07
1.06281e+07
1.06297e+07
1.06252e+07
1.06167e+07
1.0605e+07
1.05834e+07
1.05628e+07
1.05449e+07
1.0525e+07
1.05019e+07
1.04756e+07
1.04512e+07
1.0438e+07
1.04293e+07
1.04208e+07
1.042e+07
1.04225e+07
1.04234e+07
1.04257e+07
1.04328e+07
1.04435e+07
1.04549e+07
1.04674e+07
1.04801e+07
1.04919e+07
1.05013e+07
1.05152e+07
1.05301e+07
1.05447e+07
1.05595e+07
1.05776e+07
1.05958e+07
1.06195e+07
1.06436e+07
1.0668e+07
1.06902e+07
1.07103e+07
1.07298e+07
1.075e+07
1.07737e+07
1.07945e+07
1.08169e+07
1.08377e+07
1.08619e+07
1.08897e+07
1.09184e+07
1.09535e+07
1.09853e+07
1.10158e+07
1.10532e+07
1.10859e+07
1.11298e+07
1.11735e+07
1.12169e+07
1.12603e+07
1.13107e+07
1.13614e+07
1.14122e+07
1.14709e+07
1.15326e+07
1.16045e+07
1.16776e+07
1.17517e+07
1.183e+07
1.19207e+07
1.20139e+07
1.21236e+07
1.224e+07
1.23925e+07
1.25451e+07
1.27169e+07
1.28977e+07
1.3075e+07
1.32605e+07
1.34597e+07
1.36751e+07
1.39237e+07
1.42049e+07
1.45224e+07
1.48944e+07
1.53083e+07
1.57699e+07
1.6409e+07
1.71214e+07
1.7908e+07
1.87022e+07
1.94868e+07
2.02303e+07
2.09204e+07
2.15557e+07
2.21167e+07
2.26343e+07
2.30284e+07
2.34679e+07
2.39152e+07
2.44342e+07
2.5038e+07
2.57173e+07
2.64636e+07
2.72292e+07
2.80009e+07
2.87249e+07
2.9415e+07
3.00391e+07
3.06145e+07
3.11193e+07
3.15787e+07
3.19744e+07
3.23296e+07
3.26372e+07
3.29107e+07
3.31519e+07
3.33718e+07
3.35905e+07
3.38247e+07
3.40754e+07
3.4362e+07
3.46757e+07
3.5039e+07
3.54088e+07
3.58136e+07
3.62225e+07
3.66572e+07
3.71087e+07
3.75733e+07
3.8069e+07
3.86117e+07
3.92076e+07
3.98618e+07
4.0568e+07
4.12725e+07
4.18938e+07
4.23309e+07
4.24889e+07
4.22649e+07
4.16012e+07
4.04616e+07
3.88275e+07
3.67165e+07
3.4201e+07
3.13771e+07
2.83691e+07
2.52913e+07
2.2265e+07
1.93819e+07
1.67205e+07
1.4322e+07
1.22217e+07
1.04295e+07
8.95049e+06
7.77324e+06
6.89212e+06
6.25786e+06
5.86558e+06
5.66746e+06
)
;

boundaryField
{
    inlet
    {
        type            calculated;
        value           uniform 5.70137e+06;
    }
    outlet
    {
        type            calculated;
        value           uniform -1.06519e+07;
    }
    repeat_boundary
    {
        type            calculated;
        value           uniform 0;
    }
    procBoundary2to0
    {
        type            processor;
        value           nonuniform List<scalar> 
180
(
1931.73
1828.06
456.283
247.408
217.568
40.7594
-79.639
40.6062
183.71
-299.715
-1019.95
-796.708
-1253.76
-1361.72
-1138.32
-902.472
-558.42
-412.176
-269.479
-684.129
-709.718
-20.4239
-656.45
-1109.47
-1667.33
-2168.2
534.682
4149.8
7307.38
16060.8
15564.7
15301.9
15659.4
16618.5
18704.8
18353.4
14351.4
11718.9
12576.3
10523.4
9482.6
10227.1
9876.01
9756.23
7914.95
8139.9
8954.8
9850.98
10117
10468
6415.56
5480.28
6310.55
6639.59
1745.31
1285.31
-4377.34
-4815.42
-8471.08
-8319.38
-8080.7
-8128.86
-9180.78
-11446.2
-12335.6
-14287.4
-15309.6
-17666.1
-20947.3
-21385
-25669.5
-23700.4
-20746.2
-24767.4
-19664.1
-27086
-25244.5
-24031.7
-21611
-23582.3
-24096.3
-22128.3
-24719.8
-25690.4
-29838.8
-29915.9
-29629.7
-31248.5
-34330.4
-36908.2
-44524.9
-47346.2
-62958.6
-63960.7
-67269.2
-76387.5
-76987.8
-77700.9
-85257.2
-87957.3
-100997
-111950
-124361
-144052
-159741
-174179
-250883
-300214
-354084
-368539
-380231
-373759
-374395
-371196
-370031
-373793
-356739
-396295
-430680
-486704
-537192
-578189
-608029
-609896
-606279
-571308
-543085
-492109
-453239
-396948
-357712
-302586
-264159
-218854
-184495
-149611
-125812
-110717
-106485
-102220
-111086
-116787
-135166
-135275
-152630
-160465
-188441
-236093
-299260
-393385
-498957
-598277
-690438
-764116
-783348
-739997
-638273
-473420
-256292
-26486.1
235993
537509
865812
1.17796e+06
1.45228e+06
1.65311e+06
1.78445e+06
1.83501e+06
1.82296e+06
1.74401e+06
1.62211e+06
1.46031e+06
1.27804e+06
1.08425e+06
890140
702841
537623
384176
249097
124051
)
;
    }
    procBoundary2to3
    {
        type            processor;
        value           nonuniform List<scalar> 
180
(
1911.28
1526.22
796.886
675.417
13.8911
181.707
491.222
1152.43
960.257
1550.92
781.05
841.292
1011.8
2010.71
2411.57
2349.62
2759.27
3059.29
1719.28
1114.65
608.812
591.158
799.151
905.397
1577.65
569.259
3936.29
4360.08
4348.23
5586.63
5037.1
2573.81
4257.72
6495.38
7546.95
6065.56
-1144.59
-2999.88
-4043.74
-9732.4
-12032.4
-11098.9
-12230.7
-16818.6
-18639.2
-19554.3
-21415.6
-22597.7
-21869.7
-19894.4
-20335.8
-20359.5
-20893.2
-21391.3
-19858.3
-19474.8
-19384.3
-19283.4
-15880.3
-13860.1
-12038.1
-11376.5
-11085.3
-12253.2
-8407.81
-8082.84
-5502.44
-6547.46
-6842.38
-7354.35
-9454.93
-8028.63
-9749.74
-12645.4
-13068.3
-16820.9
-18478.5
-19329
-21792.6
-26856
-26540.8
-28675.5
-33960.5
-36090
-41987.4
-43224.1
-44497.6
-47001
-56358.6
-56361.4
-65171.1
-69022.3
-89501.4
-88681.1
-104547
-104374
-100283
-107876
-113876
-127484
-147566
-169297
-193080
-227963
-254141
-287477
-388245
-412112
-432577
-425636
-404377
-369728
-315676
-264161
-190960
-143818
-37307.4
-43255.5
-16573.7
-32280.3
-66632.4
-101116
-138224
-155769
-165368
-152746
-146992
-131964
-122201
-107860
-101635
-93180.6
-90982.7
-88745
-89079.7
-91550.5
-94117.5
-107919
-127697
-148519
-175493
-196912
-228180
-234503
-252144
-248516
-246222
-215360
-165361
-102331
-43706.7
2385.82
36208.4
57886.6
78867.5
118645
201170
315498
480234
690193
903644
1.09654e+06
1.2452e+06
1.33759e+06
1.37164e+06
1.35488e+06
1.29329e+06
1.19137e+06
1.06011e+06
917372
776413
640004
514167
394717
287105
178276
96646.2
8099.36
-50971.2
-157970
)
;
    }
}


// ************************************************************************* //
