/*--------------------------------*- C++ -*----------------------------------*\
| =========                 |                                                 |
| \\      /  F ield         | OpenFOAM: The Open Source CFD Toolbox           |
|  \\    /   O peration     | Version:  5.x                                   |
|   \\  /    A nd           | Web:      www.OpenFOAM.org                      |
|    \\/     M anipulation  |                                                 |
\*---------------------------------------------------------------------------*/
FoamFile
{
    version     2.0;
    format      ascii;
    class       volScalarField;
    location    "7000";
    object      p;
}
// * * * * * * * * * * * * * * * * * * * * * * * * * * * * * * * * * * * * * //

dimensions      [0 2 -2 0 0 0 0];

internalField   nonuniform List<scalar> 
180
(
-640.653
-1174.59
-1324.48
-1634.07
-2047.52
-2487.34
-2694.71
-2709.68
-2617.47
-2542.04
-2685.94
-2852.84
-2880.82
-2823.31
-2772.98
-2755.88
-2745.62
-2721.21
-2699.27
-2882.53
-3088.08
-3135.93
-3051.44
-3007.17
-2994.08
-3194.34
-3417.94
-3464.55
-3383.61
-3362.01
-3350.71
-3524.88
-3739.47
-3797.61
-3856.52
-4007.75
-4061.32
-4033.56
-4026.14
-4255.99
-4489.6
-4549
-4482.4
-4447.63
-4550.96
-4685.52
-4717.45
-4691.51
-4674.22
-4667.32
-4919.88
-5190.64
-5259.37
-5167.22
-5158.16
-5167.64
-5156.37
-5422.04
-5702.44
-5778.45
-5696.92
-5945.71
-6239.1
-6321.72
-6269.25
-6249.29
-6271.97
-6276.63
-6574
-6946.27
-7080.99
-6996.76
-7184.2
-7453.27
-7512.18
-7403.64
-7535.01
-8291.21
-8700.81
-8729.57
-8829.12
-9309.91
-9812.62
-10488.9
-11212.7
-11913
-12594.4
-13269.4
-13936.1
-14596
-15248.5
-15894.4
-16532.7
-17163.6
-17786
-18397.9
-19001.7
-19585.8
-20177.5
-20726.4
-21318.4
-21735.9
-22076.6
-22242.5
-22279.5
-22449.8
-22753.4
-23006
-23213.1
-23303.4
-23317.7
-23319.2
-23324.5
-23348.6
-23418.9
-23495.8
-23499
-23520.1
-23648
-23927.1
-24295
-24741.9
-25278.2
-25775.5
-26021.1
-26358.9
-26673.2
-26773.3
-27093.3
-27593.7
-28125.6
-28513.2
-28681
-29155.6
-29630.8
-29555
-29674.5
-30341.4
-31673.2
-32912.9
-34175.3
-35349.2
-36399.5
-37320.2
-38117.5
-38796
-39362.4
-39832.2
-40213.9
-40517.1
-40757.5
-40951.8
-41123.9
-41290.7
-41470.7
-41665.3
-41851.6
-41853.3
-41757.9
-41756
-41857.9
-41952.1
-42002.8
-42163.3
-42373.9
-42432.8
-42500.3
-42632.4
-42722.1
-42818.8
-42979.3
-43036.7
-42987.8
-42850.5
-42695.2
-42551.7
-42399.6
-42297.9
-42310.8
-42317.6
)
;

boundaryField
{
    inlet
    {
        type            zeroGradient;
    }
    outlet
    {
        type            fixedValue;
        value           uniform 0;
    }
    repeat_boundary
    {
        type            zeroGradient;
    }
    procBoundary1to0
    {
        type            processor;
        value           nonuniform List<scalar> 
180
(
-814.293
-1507.77
-1813.65
-1964.72
-1981.92
-1939.58
-2150.08
-2383.92
-2444.37
-2379.94
-2328.18
-2321.09
-2547.01
-2764.53
-2818.04
-2756.97
-2721.62
-2724.12
-2733.5
-2729.07
-2721.3
-2788.75
-2887.76
-2903.85
-2865.87
-2839.87
-3043.05
-3257.43
-3303.72
-3213.16
-3167.54
-3162.76
-3153.62
-3398.05
-3651.37
-3842.36
-4002.63
-4048.81
-3978.16
-4129.58
-4343.97
-4430.08
-4439.79
-4419.28
-4404.89
-4554.09
-4717.64
-4754.47
-4688.25
-4651.82
-4643.04
-4630.25
-4607.63
-4579.74
-4554.09
-4520.81
-4620.77
-4751.11
-4823.68
-4977.83
-5201.73
-5476.72
-5613.91
-5613.95
-5612.86
-5878.38
-6190.21
-6469.9
-6746.28
-7030.29
-7317.45
-7606.23
-7897.65
-8193.24
-8495.57
-8805.2
-9126.68
-9461.33
-9806.34
-10169.9
-10554.6
-10957.3
-11380.6
-11819.4
-12271.1
-12733.1
-13203.6
-13680.9
-14163.5
-14650
-15139
-15629.3
-16119.2
-16608.5
-17094.6
-17580
-18060.7
-18544.6
-19017.1
-19488
-19945.9
-20385.6
-20819.3
-21293.4
-21765.9
-22141.5
-22428.8
-22670.7
-22876.7
-23047.2
-23190
-23306.1
-23392.9
-23499.6
-23625.4
-23757.6
-23936.4
-24174.2
-24463.2
-24780.1
-25113.3
-25456.1
-25797.9
-26123
-26438.7
-26767.7
-27109.1
-27469.4
-27865.8
-28274.3
-28711.8
-29164.7
-29629.4
-30129.9
-30660
-31226.5
-31804.8
-32390.2
-32975.7
-33559.5
-34134.9
-34707.8
-35284.5
-35866
-36451.8
-37021
-37569.8
-38057.7
-38250.2
-38186.4
-38211.3
-38634.3
-39102.8
-39533.6
-39929.8
-40292.5
-40628.4
-40938.3
-41210.7
-41463.8
-41716.9
-41978.7
-42253.8
-42542.8
-42839.2
-43144.5
-43457.4
-43775
-44092.1
-44379.4
-44595.7
-44741.5
-44840.7
-44894.4
-44967.4
-44904.7
-44742.9
-44725.8
-44782
-44827.8
)
;
    }
    procBoundary1to3
    {
        type            processor;
        value           nonuniform List<scalar> 
180
(
-662.182
-1222.13
-1406.02
-1697.78
-2129.86
-2372.5
-2409.48
-2329.83
-2269.58
-2389.43
-2538.39
-2563.13
-2514.29
-2483.58
-2541.28
-2676.75
-2745.67
-2734.1
-2705.41
-2742.88
-2998.14
-3243.7
-3334.47
-3296.7
-3254.54
-3246.08
-3246.45
-3235.66
-3224.79
-3218.28
-3292.92
-3397.22
-3419.65
-3375.67
-3517.85
-3707.01
-3940.67
-4163.17
-4333.05
-4475.55
-4502.39
-4441.76
-4389.25
-4367.55
-4562.4
-4765.96
-4801.74
-4912.07
-5099.21
-5136.48
-5052.81
-5053.99
-5041.93
-5128.22
-5291.68
-5331.04
-5459.81
-5696.24
-5798.15
-5743.58
-5730.36
-5819.44
-5923.03
-6068.4
-6463.65
-6746.56
-6808.17
-6771.17
-7043.52
-7335.59
-7425.67
-7368.99
-7352.98
-7378.2
-7382.66
-7380.08
-7544.77
-7757.84
-7787.47
-8020.99
-8313.93
-8538.99
-9196.38
-9980.95
-10731
-11448.8
-12156.1
-12853.6
-13545.2
-14230.9
-14914.4
-15594.8
-16279.7
-16963
-17659
-18326.4
-19013.7
-19405.9
-19502.6
-19439.3
-19408.1
-19431.1
-19595.9
-20125.7
-20801.5
-21396.5
-21867.8
-22263.1
-22587.1
-22855.6
-23063.3
-23228.3
-23345.8
-23472.7
-23608.5
-23744.5
-23925.1
-24160.2
-24446.1
-24760
-25088.3
-25426.8
-25762.3
-26081.6
-26387.6
-26704.9
-27034.1
-27377.1
-27758.3
-28147.4
-28567.1
-28992.9
-29429.6
-29895.3
-30394.5
-30932.2
-31477.9
-32033.8
-32585.2
-33139.1
-33679.7
-34219.9
-34766.8
-35315.4
-35864.1
-36405.9
-36940.5
-37461
-37961.9
-38437.8
-38886.2
-39308.6
-39699.3
-40054.6
-40372.7
-40655.9
-40908.2
-41145.2
-41369.1
-41589.7
-41816.4
-42053.3
-42311.1
-42571.8
-42789.8
-42907.5
-43027.9
-43242.9
-43445.7
-43616.2
-43753.9
-43876.7
-44008.7
-44210.4
-44479.2
-44808.9
-45054.4
-45175
-45235.7
-45281.8
)
;
    }
}


// ************************************************************************* //
