FoamFile
{version 2.0; format ascii;class Cloud<passiveParticle>; location 0;object  positions;}
350
(
( -0.00130858 0.00382181 0.000498785 ) 0 
( -0.002517 0.00288583 0.000496333 ) 0 
( -0.00457709 0.00300422 0.000497443 ) 0 
( -0.00151956 0.00284642 0.00049854 ) 0 
( -0.00172214 0.00134375 0.000498419 ) 0 
( -0.00147539 0.0048056 0.000497662 ) 0 
( -2.35287e-05 0.00170766 0.000496982 ) 0 
( -0.00230747 0.00389639 0.000497736 ) 0 
( -0.00053602 0.00302019 0.00049808 ) 0 
( -0.00247385 0.000632495 0.00049842 ) 0 
( -0.0048793 0.00395799 0.000496859 ) 0 
( -0.000760358 0.00103341 0.000497731 ) 0 
( -0.00416517 0.000208452 0.000498084 ) 0 
( -0.000325088 0.00399634 0.000497753 ) 0 
( -0.00271329 0.00171366 0.000497888 ) 0 
( -0.000527116 6.13365e-05 0.000499158 ) 0 
( -0.00414392 0.00463526 0.000499679 ) 0 
( -0.00384145 0.0036797 0.000499133 ) 0 
( -0.00315819 0.00438269 0.000690271 ) 0 
( -0.00489209 0.00236751 0.0011988 ) 0 
( -0.00149838 0.000346624 0.000499236 ) 0 
( -0.00424262 0.0020631 0.00049882 ) 0 
( -0.00439902 0.00112737 0.000809667 ) 0 
( -0.00344901 0.000904686 0.000498074 ) 0 
( -0.00204204 0.00331306 0.00126175 ) 0 
( -0.00350523 0.00273768 0.000499515 ) 0 
( -0.00180834 0.0042837 0.00128108 ) 0 
( -0.00097573 0.00200879 0.000498734 ) 0 
( -0.00416799 0.00177052 0.00153723 ) 0 
( -0.00132984 0.000909068 0.00130773 ) 0 
( -0.00306342 0.00347184 0.00109053 ) 0 
( -0.0022887 0.00118949 0.00130638 ) 0 
( -0.00302963 0.00048715 0.00131547 ) 0 
( -0.00110805 0.00247418 0.00137302 ) 0 
( -6.56569e-05 0.00244709 0.00116529 ) 0 
( -0.00198872 0.00214561 0.00103214 ) 0 
( -7.17399e-05 0.00350924 0.00133202 ) 0 
( -0.000820446 0.00443164 0.00124599 ) 0 
( -0.0032492 0.00146158 0.00130098 ) 0 
( -0.00292345 0.00240493 0.00126975 ) 0 
( -0.0010667 0.00347223 0.00140248 ) 0 
( -0.00206776 0.000215673 0.00131098 ) 0 
( -0.00478394 0.000317233 0.0012758 ) 0 
( -0.00161901 0.00169873 0.00184436 ) 0 
( -0.00483438 0.00453732 0.00211292 ) 0 
( -0.00131014 0.00453683 0.00210846 ) 0 
( -0.000307431 0.0028512 0.00204475 ) 0 
( -0.00399187 0.00307832 0.00130351 ) 0 
( -0.00264261 0.00178605 0.00202474 ) 0 
( -0.000582348 0.0015926 0.00131798 ) 0 
( -0.00394217 0.0007597 0.00161844 ) 0 
( -0.000357135 0.000618661 0.00131123 ) 0 
( -0.00339434 0.000135841 0.00217555 ) 0 
( -0.00437967 0.00408149 0.0013498 ) 0 
( -7.89893e-05 0.00432476 0.00190755 ) 0 
( -0.00363065 0.00472438 0.00150128 ) 0 
( -0.00473065 0.00349549 0.00207754 ) 0 
( -0.00354511 0.00142203 0.00225316 ) 0 
( -0.00269929 0.0033508 0.00201332 ) 0 
( -0.000743164 0.00197367 0.00223607 ) 0 
( -0.000896724 0.000595298 0.00215066 ) 0 
( -0.00356827 0.00239698 0.00203052 ) 0 
( -0.00205531 0.00259046 0.00194878 ) 0 
( -0.00275042 0.00426501 0.00161265 ) 0 
( -6.66788e-05 0.00123917 0.00220884 ) 0 
( -0.0016794 0.00103572 0.00258822 ) 0 
( -0.00175743 9.80805e-05 0.00225185 ) 0 
( -0.00439637 0.000299821 0.0023805 ) 0 
( -0.0045556 0.00251216 0.00212741 ) 0 
( -0.00253522 0.000718472 0.00215299 ) 0 
( -0.00358719 0.00378765 0.00187871 ) 0 
( -0.00122297 0.00283515 0.00244334 ) 0 
( -0.00174259 0.00363819 0.00215585 ) 0 
( -0.00367571 0.000710847 0.00294137 ) 0 
( -0.00456194 0.00128294 0.00231324 ) 0 
( -0.00222441 0.00444377 0.0024997 ) 0 
( -0.00278748 0.00256789 0.00262846 ) 0 
( -0.000709728 0.00468213 0.00289297 ) 0 
( -0.000747054 0.003706 0.00232032 ) 0 
( -0.00393092 0.00315416 0.00256996 ) 0 
( -0.000755887 0.00120356 0.00293045 ) 0 
( -0.00304557 0.0049658 0.00227384 ) 0 
( -0.00194284 0.000301007 0.00321109 ) 0 
( -0.0025627 0.00135837 0.00292386 ) 0 
( -0.00389318 0.0044897 0.00251979 ) 0 
( -3.86839e-05 0.00191734 0.00294212 ) 0 
( -0.00317807 0.00201213 0.00336073 ) 0 
( -0.0049737 0.00092973 0.00315062 ) 0 
( -0.00147172 0.00404948 0.00302442 ) 0 
( -0.00043152 0.00305088 0.00301467 ) 0 
( -0.00403293 0.00205961 0.00284744 ) 0 
( -0.000128488 0.000410118 0.00276159 ) 0 
( -0.00285369 0.000594329 0.00349831 ) 0 
( -0.00307015 0.00395879 0.00271404 ) 0 
( -0.00229306 0.00337478 0.00294559 ) 0 
( -0.00492384 0.00299668 0.00291956 ) 0 
( -0.0046743 6.28056e-05 0.00354572 ) 0 
( -0.00429131 0.00385664 0.00318021 ) 0 
( -0.00229167 0.00253983 0.00349507 ) 0 
( -0.00154695 0.00143964 0.0034928 ) 0 
( -0.00185097 0.00483201 0.00351809 ) 0 
( -0.00143052 0.00311591 0.00338002 ) 0 
( -0.00109377 0.000578422 0.00371503 ) 0 
( -0.00377676 0.00491978 0.00349011 ) 0 
( -0.00282378 0.00463257 0.00340698 ) 0 
( -0.000960216 0.00221947 0.00318403 ) 0 
( -0.00184529 0.00204063 0.0027545 ) 0 
( -0.00324108 0.00316316 0.00329219 ) 0 
( -0.0037316 0.000242127 0.00382094 ) 0 
( -0.00015576 0.00246021 0.00377263 ) 0 
( -0.000114975 0.000700349 0.00386956 ) 0 
( -0.00482188 0.00445467 0.00377778 ) 0 
( -0.00305918 0.00264433 0.00412496 ) 0 
( -0.00415602 0.00134969 0.00353931 ) 0 
( -0.00243577 0.00162767 0.00390665 ) 0 
( -0.00160503 0.001403 0.00448883 ) 0 
( -0.00395391 0.00223829 0.00394709 ) 0 
( -0.00333495 0.00123425 0.00409475 ) 0 
( -0.00221302 0.00393244 0.00376884 ) 0 
( -0.000690828 0.00381651 0.00360083 ) 0 
( -0.000623548 0.00155986 0.00385393 ) 0 
( -0.00209369 0.000598015 0.00415293 ) 0 
( -0.000917609 0.00475285 0.00386645 ) 0 
( -0.00445388 0.00308772 0.00379506 ) 0 
( -0.00492729 0.00112094 0.00413104 ) 0 
( -0.001488 0.00228219 0.00402975 ) 0 
( -0.00350173 0.00399882 0.00377492 ) 0 
( -0.00483997 0.00214178 0.00342884 ) 0 
( -0.00201154 0.0030968 0.00427566 ) 0 
( -0.0033784 0.00195989 0.00477839 ) 0 
( -0.00405639 0.0046004 0.00440328 ) 0 
( -0.000442105 0.00415365 0.00450723 ) 0 
( -0.000852354 0.00303393 0.00420078 ) 0 
( -0.00300783 0.000379469 0.00449504 ) 0 
( -0.00494236 0.00243904 0.00437632 ) 0 
( -0.00207617 0.00462913 0.0044709 ) 0 
( -0.00434262 0.00170963 0.00469954 ) 0 
( -0.00253088 0.00121109 0.00480954 ) 0 
( -0.00306683 0.00473515 0.0043692 ) 0 
( -0.00287417 0.00357856 0.00442966 ) 0 
( -0.00412538 0.000741464 0.0045907 ) 0 
( -0.00482316 0.00372966 0.00446293 ) 0 
( -0.0013824 0.00387159 0.00431867 ) 0 
( -0.000761039 0.000882805 0.00460732 ) 0 
( -3.89991e-05 0.0027784 0.0047207 ) 0 
( -0.00194503 0.00364092 0.00511132 ) 0 
( -0.00323432 0.00290352 0.00507283 ) 0 
( -0.00420293 0.00264674 0.00501653 ) 0 
( -0.00342514 0.00106263 0.00522751 ) 0 
( -0.00120806 0.00456557 0.0050139 ) 0 
( -0.00233582 0.00224549 0.0046856 ) 0 
( -0.00386656 0.00344844 0.00452404 ) 0 
( -0.00146895 0.0026903 0.0050084 ) 0 
( -0.00371055 2.873e-05 0.00515442 ) 0 
( -0.00466533 0.000142273 0.00542581 ) 0 
( -0.000745704 0.00207144 0.00470363 ) 0 
( -0.00444422 0.00420371 0.00525519 ) 0 
( -0.000897468 0.00350359 0.00511117 ) 0 
( -0.00393104 0.000411328 0.00604896 ) 0 
( -0.00387468 0.00194184 0.00564529 ) 0 
( -0.000657385 0.0042164 0.00577005 ) 0 
( -0.00141458 4.00613e-05 0.00587607 ) 0 
( -0.00165283 0.00425254 0.00585201 ) 0 
( -0.00249978 0.00443542 0.00535429 ) 0 
( -0.0022203 0.000263841 0.00509642 ) 0 
( -0.00062748 0.00140362 0.00545011 ) 0 
( -0.00233907 0.00281279 0.00550774 ) 0 
( -0.00176753 0.00181476 0.00538403 ) 0 
( -0.00345914 0.00416477 0.00508978 ) 0 
( -0.00438831 0.00109914 0.00548735 ) 0 
( -0.00337854 0.0027196 0.00604359 ) 0 
( -0.00392056 0.00342023 0.00558319 ) 0 
( -0.000572513 0.000393625 0.005458 ) 0 
( -0.00291664 0.00360184 0.00571242 ) 0 
( -0.00259291 0.000912003 0.00576051 ) 0 
( -0.00489164 0.00328735 0.00535537 ) 0 
( -0.00146556 0.00319636 0.00587135 ) 0 
( -0.00224682 0.00345215 0.00643872 ) 0 
( -0.00274893 0.00190065 0.0055508 ) 0 
( -0.00443684 0.00268122 0.00601356 ) 0 
( -0.00112185 0.00200212 0.00612199 ) 0 
( -0.0010556 0.000949249 0.00623037 ) 0 
( -0.000623949 0.00264342 0.00553953 ) 0 
( -0.00145908 0.000867733 0.0053206 ) 0 
( -0.00133414 0.00378327 0.00667442 ) 0 
( -0.00304125 0.0047167 0.00614596 ) 0 
( -0.00491445 0.00395141 0.0061 ) 0 
( -0.000410456 0.00349969 0.00641995 ) 0 
( -0.00107496 0.00281102 0.00670686 ) 0 
( -0.00195868 0.00248745 0.0063718 ) 0 
( -0.00341802 0.00125397 0.00620884 ) 0 
( -0.000250358 0.00158637 0.0063761 ) 0 
( -0.000543361 0.0045986 0.00668655 ) 0 
( -0.00195825 0.00148712 0.00630776 ) 0 
( -0.00403058 0.00459083 0.00607886 ) 0 
( -0.0030496 0.000367998 0.00651567 ) 0 
( -0.000555609 0.000104102 0.00641437 ) 0 
( -0.00231317 0.00439893 0.00675253 ) 0 
( -0.00128015 0.000260467 0.00708416 ) 0 
( -0.00135752 0.0046871 0.00725801 ) 0 
( -0.00382972 0.00205593 0.00664013 ) 0 
( -0.00210341 0.00196551 0.0072104 ) 0 
( -0.00352233 0.00382666 0.00647377 ) 0 
( -0.00204564 0.000508488 0.00649231 ) 0 
( -0.00428926 0.00110085 0.00667522 ) 0 
( -0.00121546 0.00155307 0.00700949 ) 0 
( -0.00283631 0.00204106 0.0065353 ) 0 
( -0.00484699 0.00171741 0.00612245 ) 0 
( -0.00482967 0.00478081 0.00664836 ) 0 
( -0.00475524 0.00224857 0.00696292 ) 0 
( -0.00299574 0.00300194 0.00692204 ) 0 
( -0.00399049 0.00302241 0.00683709 ) 0 
( -0.00353352 0.000847007 0.00727719 ) 0 
( -0.000479972 0.000876718 0.00704393 ) 0 
( -0.00060586 0.00378081 0.00735925 ) 0 
( -0.00158031 0.00379248 0.00764275 ) 0 
( -0.00324567 0.0018106 0.00741682 ) 0 
( -0.0019588 0.00295312 0.00725577 ) 0 
( -0.00439396 0.00392962 0.00695289 ) 0 
( -0.000195868 0.0028854 0.00717715 ) 0 
( -0.00043717 0.00177597 0.00759583 ) 0 
( -0.00445972 0.00471033 0.00757346 ) 0 
( -0.00263939 0.00116065 0.00696095 ) 0 
( -0.0049104 0.000206692 0.0069566 ) 0 
( -0.00272705 0.00261937 0.00780452 ) 0 
( -0.0017035 7.96662e-05 0.00797142 ) 0 
( -0.00441852 0.000657027 0.007701 ) 0 
( -0.0025589 0.00372838 0.00745168 ) 0 
( -0.00183837 0.000963552 0.00752302 ) 0 
( -0.00218535 0.00453928 0.00791602 ) 0 
( -4.21199e-05 0.000324152 0.00784181 ) 0 
( -0.000450014 0.00475183 0.00767057 ) 0 
( -0.00422004 0.00162042 0.00752522 ) 0 
( -0.00459805 0.00313338 0.00762176 ) 0 
( -0.00355626 0.00367025 0.00745982 ) 0 
( -0.00104679 0.00294917 0.00769591 ) 0 
( -0.00249653 0.000215467 0.00733442 ) 0 
( -0.00327706 0.0045624 0.00710462 ) 0 
( -0.00136414 0.00201938 0.00787991 ) 0 
( -0.00094862 0.000737925 0.00791608 ) 0 
( -0.000163662 0.00117853 0.00834917 ) 0 
( -0.00124011 0.00451878 0.00823864 ) 0 
( -0.00411949 0.00401726 0.0082075 ) 0 
( -0.0012234 0.00352232 0.00853569 ) 0 
( -0.000625627 0.00204104 0.00855195 ) 0 
( -0.0037181 0.00113899 0.00824197 ) 0 
( -0.00372197 0.0026423 0.0077206 ) 0 
( -0.00229381 0.00180033 0.00817693 ) 0 
( -0.000376457 0.0030016 0.00843487 ) 0 
( -0.00382082 0.00489812 0.00857186 ) 0 
( -0.00106716 0.000210414 0.00875654 ) 0 
( -0.00312962 0.00337832 0.0083152 ) 0 
( -0.00315308 0.00434801 0.00807278 ) 0 
( -0.00185715 0.00280073 0.00826045 ) 0 
( -0.0027858 0.000967655 0.00792867 ) 0 
( -0.00454319 0.00230416 0.00817743 ) 0 
( -0.000944238 0.00117923 0.00897292 ) 0 
( -0.00329622 0.00203298 0.00838923 ) 0 
( -0.00181614 0.000992897 0.00852179 ) 0 
( -0.00442086 0.00155018 0.0088207 ) 0 
( -0.00405196 0.00308498 0.00856266 ) 0 
( -0.00168765 0.00429698 0.0091042 ) 0 
( -0.00396485 0.00021893 0.00854193 ) 0 
( -0.00249015 0.000256269 0.00856259 ) 0 
( -0.00157423 0.00194575 0.00885384 ) 0 
( -0.00271681 0.00123875 0.00888736 ) 0 
( -0.00220245 0.00371303 0.0084772 ) 0 
( -0.00497424 0.000411991 0.00849451 ) 0 
( -0.000378799 0.00402599 0.00835422 ) 0 
( -0.00324153 0.00044162 0.00919487 ) 0 
( -0.00466537 0.00448009 0.00890549 ) 0 
( -0.00359392 0.00136403 0.0093503 ) 0 
( -0.00282368 0.00334549 0.0092821 ) 0 
( -0.00386576 0.00230758 0.00916303 ) 0 
( -0.0010408 0.0027422 0.00913372 ) 0 
( -0.00463092 0.00290593 0.00939815 ) 0 
( -0.00362839 0.00389715 0.00906831 ) 0 
( -0.00255132 0.00246512 0.00889556 ) 0 
( -0.00186565 0.000382663 0.00933207 ) 0 
( -0.00275272 0.00437253 0.00898821 ) 0 
( -0.000545811 0.00486708 0.0088678 ) 0 
( -0.000699771 0.00390685 0.00929377 ) 0 
( -0.00258058 0.000889016 0.0098134 ) 0 
( -0.00278801 0.00186766 0.00966041 ) 0 
( -0.000622834 0.00193321 0.00954508 ) 0 
( -0.00182564 0.00333089 0.00932061 ) 0 
( -0.00370712 0.00313155 0.00970572 ) 0 
( -0.00385907 0.00473749 0.00955757 ) 0 
( -0.00492868 0.00196821 0.00957335 ) 0 
( -0.00170041 0.0013236 0.00962505 ) 0 
( -0.000440846 0.000695108 0.00968776 ) 0 
( -0.000133061 0.00295913 0.00949116 ) 0 
( -0.0042002 0.00057271 0.00944602 ) 0 
( -0.00441321 0.00383901 0.00968379 ) 0 
( -0.00390316 0.00226361 0.0101612 ) 0 
( -0.00349402 0.000658842 0.0101478 ) 0 
( -0.00221555 0.00160233 0.010435 ) 0 
( -0.00128686 0.00194307 0.0102919 ) 0 
( -0.00430666 0.00135472 0.0100592 ) 0 
( -0.0028632 0.00276457 0.0100948 ) 0 
( -0.00136272 0.0038478 0.0100397 ) 0 
( -0.00307109 0.00496111 0.0101304 ) 0 
( -0.00102312 0.00291119 0.0101183 ) 0 
( -0.00192518 0.00239998 0.00967221 ) 0 
( -0.00232693 0.00403275 0.00982584 ) 0 
( -0.0010425 0.0047408 0.00972568 ) 0 
( -0.00332396 0.00400133 0.0100147 ) 0 
( -0.00202927 0.000213646 0.0103035 ) 0 
( -0.000281881 0.00367606 0.0101715 ) 0 
( -0.00266106 0.00374875 0.0107235 ) 0 
( -0.0044758 0.00310893 0.010364 ) 0 
( -0.00422173 0.000646441 0.0108331 ) 0 
( -0.00326122 0.00156919 0.0104883 ) 0 
( -0.00178844 0.00468046 0.0103916 ) 0 
( -0.00025602 0.00239188 0.0104928 ) 0 
( -0.0013844 0.000200851 0.0111443 ) 0 
( -0.000108366 0.000512165 0.0106449 ) 0 
( -0.00269574 0.000806409 0.0108026 ) 0 
( -0.000441626 0.00141614 0.0103804 ) 0 
( -0.00196925 0.00312197 0.0103623 ) 0 
( -0.000784017 0.00440758 0.0106321 ) 0 
( -0.00413006 0.00431883 0.0105136 ) 0 
( -0.00128388 0.000879109 0.0104172 ) 0 
( -0.00239965 0.0029415 0.0112516 ) 0 
( -0.00321999 0.00244318 0.0109716 ) 0 
( -0.00022426 0.0028028 0.0114035 ) 0 
( -0.00250899 0.000182321 0.0115608 ) 0 
( -0.00141639 0.00261346 0.0110218 ) 0 
( -0.0048237 0.00218381 0.0105438 ) 0 
( -0.00173196 0.00390302 0.0110578 ) 0 
( -0.00357475 0.00334462 0.0107254 ) 0 
( -0.000853794 0.00343699 0.0109552 ) 0 
( -0.000740787 0.00099025 0.0112532 ) 0 
( -0.0026905 0.00166656 0.0113122 ) 0 
( -0.00259908 0.00471365 0.0109763 ) 0 
( -0.0040856 0.00171952 0.0110329 ) 0 
( -0.00193308 0.00224318 0.0117937 ) 0 
( -0.00498263 0.00127929 0.0110138 ) 0 
( -0.000431792 0.00484195 0.0114607 ) 0 
( -0.000943151 0.00206603 0.0117116 ) 0 
( -0.00445648 0.00366436 0.0111951 ) 0 
( -0.00148094 0.00465543 0.0116662 ) 0 
( -0.000106433 0.00176313 0.0112559 ) 0 
( -0.000770499 0.00396468 0.0118001 ) 0 
( -0.00347714 0.0010118 0.0113914 ) 0 
( -0.00160029 0.00149873 0.0112156 ) 0 
( -0.0041576 0.00269915 0.0112185 ) 0 
( -0.00350444 0.00197187 0.0118062 ) 0 
( -0.000587974 0.000133133 0.0117449 ) 0 
( -0.00176189 0.000766707 0.011877 ) 0 
)
