FoamFile
{version 2.0; format ascii;class vectorField; location 0;object  v;}
350
(
( 3.32927e-06 3.18206e-07 -9.73288e-06 )  
( 4.30404e-06 -1.37707e-07 -1.56375e-05 )  
( 2.72149e-06 -1.72865e-06 -1.4519e-05 )  
( 1.34772e-06 2.57437e-07 -9.25802e-06 )  
( -2.6159e-06 -2.42721e-06 -1.76911e-05 )  
( 2.55021e-07 -3.93722e-07 -1.48961e-05 )  
( 4.3744e-07 3.99121e-07 -1.41313e-05 )  
( 2.16848e-06 -7.42341e-07 -1.56535e-05 )  
( 3.44011e-06 -1.32431e-06 -1.02e-05 )  
( -3.16835e-07 -1.13698e-06 -1.67021e-05 )  
( -6.58879e-07 -1.21839e-07 -1.67194e-05 )  
( -1.53213e-06 3.1096e-07 -1.42644e-05 )  
( -1.07976e-07 -3.70133e-06 -1.37632e-05 )  
( 1.427e-06 -1.31141e-06 -1.20282e-05 )  
( -1.11554e-06 -1.27735e-06 -1.55782e-05 )  
( -4.9735e-07 -8.47159e-07 -1.4711e-05 )  
( 8.74649e-07 -2.02019e-06 -7.70861e-06 )  
( 7.2529e-06 -3.97169e-06 -1.47406e-05 )  
( 6.20282e-06 -1.4451e-06 -2.15938e-05 )  
( -4.18292e-06 -6.01564e-06 -3.30101e-05 )  
( 5.53709e-06 -1.2813e-06 -1.07025e-05 )  
( -8.47577e-06 -9.25425e-06 -1.44392e-05 )  
( -4.71734e-06 -8.65805e-06 -2.26577e-05 )  
( 2.60686e-07 -2.1864e-06 -1.4206e-05 )  
( 4.69832e-06 3.90293e-06 -3.43623e-05 )  
( 1.12878e-07 -1.42934e-05 -3.80861e-06 )  
( 2.81631e-07 -4.07587e-07 -3.15611e-05 )  
( -3.56734e-07 -1.76882e-06 -8.44733e-06 )  
( 1.07265e-07 -5.00386e-06 -4.29833e-05 )  
( 2.21896e-07 -2.74863e-07 -2.8377e-05 )  
( 6.8389e-06 -1.61268e-06 -3.05092e-05 )  
( -1.92132e-06 -3.49367e-06 -3.03996e-05 )  
( -2.19087e-07 -1.88228e-06 -2.91238e-05 )  
( -5.98073e-06 9.22483e-07 -1.69998e-05 )  
( 3.96444e-06 -4.08221e-06 -2.50511e-05 )  
( -2.2661e-06 4.99958e-07 -2.16554e-05 )  
( 1.73051e-06 -1.00866e-05 -2.77514e-05 )  
( 2.10118e-06 -4.95743e-06 -2.5625e-05 )  
( 1.9127e-06 -2.77122e-06 -3.37911e-05 )  
( -7.15604e-07 -3.74909e-06 -3.29996e-05 )  
( 2.6334e-06 -1.15684e-06 -2.36428e-05 )  
( -8.29825e-07 1.32122e-06 -2.90798e-05 )  
( 2.19284e-07 -2.25965e-05 -9.00635e-06 )  
( -3.5691e-08 -9.3487e-07 -4.57645e-05 )  
( 7.56031e-06 -4.61294e-06 -4.76563e-05 )  
( -3.45287e-06 1.29945e-06 -4.57193e-05 )  
( 4.86464e-07 -8.88073e-06 -4.37808e-05 )  
( -4.2935e-06 2.66908e-06 -2.01561e-05 )  
( 1.22786e-06 3.74413e-06 -5.22611e-05 )  
( -3.21126e-06 -6.10273e-06 -1.45964e-05 )  
( 6.2481e-06 -4.02799e-07 -4.28474e-05 )  
( -1.83865e-06 -9.78161e-07 -2.49599e-05 )  
( -3.01315e-06 -2.57425e-06 -4.76148e-05 )  
( 4.35931e-06 -9.60763e-07 -3.91508e-05 )  
( 8.47996e-06 -1.17331e-05 -3.12934e-05 )  
( 1.01843e-06 -2.27475e-06 -3.69887e-05 )  
( 3.46231e-06 -7.70687e-07 -4.77813e-05 )  
( -3.24887e-07 1.49353e-06 -5.08955e-05 )  
( -2.66118e-07 -1.40031e-06 -4.42744e-05 )  
( -3.24001e-06 -5.15141e-06 -5.15508e-05 )  
( -5.1496e-06 -2.74622e-06 -4.47393e-05 )  
( -6.38089e-06 -1.65504e-06 -5.60378e-05 )  
( 2.03289e-06 2.80593e-06 -5.10652e-05 )  
( 2.03848e-06 -1.3919e-06 -3.36948e-05 )  
( -3.8878e-06 -7.50638e-06 -4.82487e-05 )  
( -2.04327e-06 2.69371e-06 -5.69291e-05 )  
( -2.05394e-06 2.7056e-06 -5.22392e-05 )  
( 1.04125e-06 -2.44447e-06 -5.18697e-05 )  
( -1.97113e-06 -6.73128e-06 -4.73562e-05 )  
( 5.42177e-07 -5.42291e-06 -3.21903e-05 )  
( 2.27975e-06 7.35263e-07 -4.93376e-05 )  
( -1.72268e-06 -8.15585e-07 -5.39071e-05 )  
( -4.72393e-07 -4.36881e-07 -5.03151e-05 )  
( -2.4434e-06 -2.55658e-06 -6.37377e-05 )  
( 1.40304e-06 -5.5906e-06 -5.60367e-05 )  
( -3.86245e-06 -5.99495e-06 -5.32908e-05 )  
( -3.17133e-06 -2.88508e-06 -6.603e-05 )  
( -1.76115e-06 -6.12085e-07 -6.80819e-05 )  
( 1.79472e-05 -2.1615e-05 -2.08e-05 )  
( 3.64827e-07 6.14822e-07 -6.10019e-05 )  
( -7.87022e-06 -1.40422e-06 -6.42681e-05 )  
( -6.62614e-08 -2.66685e-07 -4.89356e-05 )  
( -1.76379e-06 -4.08369e-07 -6.83672e-05 )  
( -7.36033e-07 1.03662e-06 -6.41077e-05 )  
( 4.51896e-07 -2.57576e-06 -5.89539e-05 )  
( 3.32992e-06 3.63898e-06 -6.36236e-05 )  
( -2.04102e-06 -5.7434e-06 -7.54576e-05 )  
( -1.58106e-06 -3.86527e-06 -7.32306e-05 )  
( 4.71457e-07 -1.71353e-06 -6.22761e-05 )  
( 6.03149e-07 3.8481e-06 -6.8531e-05 )  
( 6.14133e-07 -1.95732e-06 -6.07909e-05 )  
( 2.21819e-06 -1.15337e-05 -6.09781e-05 )  
( -5.48534e-06 -1.67491e-06 -7.20331e-05 )  
( -1.64197e-06 -1.4163e-06 -6.15465e-05 )  
( -6.77034e-06 -4.43124e-06 -6.96006e-05 )  
( 3.40674e-06 -1.92372e-06 -6.29599e-05 )  
( -2.71277e-06 -3.09211e-06 -7.89563e-05 )  
( 1.75924e-06 -3.20017e-06 -6.90071e-05 )  
( -2.6691e-06 -3.99428e-06 -7.68682e-05 )  
( -2.57021e-06 2.05614e-06 -7.66635e-05 )  
( 6.30686e-06 -9.49296e-07 -7.79905e-05 )  
( -7.75718e-06 -2.63493e-06 -5.85757e-05 )  
( -3.11811e-06 -1.56158e-06 -8.2336e-05 )  
( 9.33908e-06 -1.45594e-05 -7.01922e-05 )  
( 8.5482e-06 -2.71504e-06 -8.23654e-05 )  
( 1.95536e-06 4.77817e-06 -6.56218e-05 )  
( -2.20532e-07 -6.13606e-07 -6.49259e-05 )  
( 2.44137e-06 1.01985e-06 -7.29858e-05 )  
( -6.30502e-06 -4.02817e-06 -7.8622e-05 )  
( 1.07847e-05 1.41577e-05 -7.49274e-05 )  
( -1.36604e-06 -4.67212e-06 -9.51501e-05 )  
( 3.6263e-06 -7.01269e-06 -7.80781e-05 )  
( -5.9845e-07 -3.74532e-06 -8.83753e-05 )  
( -2.83274e-06 -4.87989e-06 -7.64651e-05 )  
( -1.76317e-06 1.63067e-06 -8.8902e-05 )  
( -4.74385e-06 -1.00913e-06 -9.58352e-05 )  
( -1.08992e-07 -1.91707e-06 -8.44233e-05 )  
( -2.67623e-06 2.02209e-08 -8.49207e-05 )  
( 2.89629e-06 -3.03696e-06 -8.88053e-05 )  
( 4.82506e-06 3.04185e-06 -8.32234e-05 )  
( 4.6128e-06 -4.94109e-06 -8.33939e-05 )  
( -3.42193e-06 -8.72592e-07 -8.39125e-05 )  
( 6.0234e-06 -3.50636e-06 -8.08949e-05 )  
( 2.91891e-06 -5.02898e-06 -7.88557e-05 )  
( -5.5928e-07 -1.94748e-06 -8.64871e-05 )  
( -3.93687e-06 -3.3222e-07 -8.21393e-05 )  
( 4.95546e-06 3.86116e-06 -8.03487e-05 )  
( 2.06187e-06 -4.82046e-06 -7.4384e-05 )  
( -2.05607e-06 4.84492e-07 -9.28126e-05 )  
( -4.08889e-07 -1.07038e-06 -9.84691e-05 )  
( 1.00921e-05 -5.85483e-06 -9.3677e-05 )  
( 3.09501e-06 -3.51026e-06 -9.29241e-05 )  
( -7.49024e-09 3.0094e-06 -8.45086e-05 )  
( 3.05887e-06 -2.92988e-06 -9.56572e-05 )  
( -8.00549e-07 -6.52673e-06 -8.80652e-05 )  
( 8.86817e-06 -3.30426e-06 -9.80275e-05 )  
( 4.63754e-07 -5.17039e-06 -9.76336e-05 )  
( -4.58307e-06 1.89152e-06 -9.9785e-05 )  
( 4.84775e-06 -6.58575e-06 -9.79306e-05 )  
( 3.95358e-06 -1.95987e-06 -8.82904e-05 )  
( -3.69824e-06 -3.5486e-06 -9.74895e-05 )  
( 6.20009e-06 -6.91155e-06 -8.89409e-05 )  
( 1.41676e-06 -1.29882e-06 -9.83348e-05 )  
( -3.06036e-06 1.71617e-06 -0.000105981 )  
( -1.59605e-06 4.69348e-07 -9.57773e-05 )  
( 1.61988e-06 -2.32345e-06 -0.000103669 )  
( 1.30753e-06 -2.80343e-06 -0.00010374 )  
( 3.90997e-06 -5.18261e-06 -0.000102124 )  
( -3.3014e-06 -3.72323e-06 -0.000109321 )  
( -1.16302e-07 -3.3736e-06 -0.000108414 )  
( 1.13116e-06 -1.18538e-06 -9.90256e-05 )  
( 3.2259e-06 -1.35407e-06 -9.64418e-05 )  
( 3.38578e-06 -3.34195e-06 -0.00011075 )  
( -4.82372e-06 -5.04034e-06 -0.000102469 )  
( -4.1699e-06 -1.08333e-06 -0.000108223 )  
( 2.55459e-06 3.23256e-07 -9.60861e-05 )  
( 4.55051e-06 -4.25732e-06 -0.000104707 )  
( 4.83759e-06 -4.85764e-06 -0.000109132 )  
( -4.91243e-06 -5.27202e-06 -0.000114879 )  
( -3.94696e-08 -7.12549e-06 -0.00010792 )  
( 2.55906e-06 -5.92326e-06 -0.000115758 )  
( 1.14866e-06 -2.24402e-06 -0.000116143 )  
( 2.83842e-06 -7.56632e-06 -0.000114779 )  
( 4.50632e-06 -6.0092e-06 -0.000109454 )  
( 5.1964e-06 -5.13021e-06 -0.000109636 )  
( 8.3018e-07 -9.52569e-07 -0.000114283 )  
( 2.91694e-06 -2.94459e-06 -0.000109287 )  
( 3.22021e-06 -1.08555e-06 -0.000111301 )  
( 2.66798e-06 -5.02086e-06 -0.000102096 )  
( -1.17319e-06 -6.34583e-06 -0.000113745 )  
( 1.81819e-06 -4.41229e-06 -0.000116676 )  
( 1.94406e-06 -4.04837e-06 -0.000107019 )  
( 2.06123e-06 2.49448e-06 -0.000113449 )  
( 4.9723e-06 -3.59793e-06 -0.00011357 )  
( -6.8178e-06 -8.11164e-06 -0.000115189 )  
( 5.84011e-06 -3.74914e-06 -0.000101182 )  
( 5.09288e-06 -1.06841e-05 -0.000120265 )  
( 3.56669e-06 -8.06507e-06 -0.000125346 )  
( 4.29074e-06 2.50672e-06 -0.00011383 )  
( 2.84469e-06 -6.33443e-06 -0.000115313 )  
( 2.45138e-06 -4.51378e-06 -0.000123754 )  
( 2.16809e-06 -2.96354e-06 -0.000123103 )  
( 4.41123e-06 -5.76605e-06 -0.000121105 )  
( -6.90685e-08 -1.25625e-06 -0.000110156 )  
( 1.8846e-06 -9.56044e-06 -0.000126127 )  
( 3.78214e-06 -7.68727e-06 -0.000117357 )  
( 1.94241e-06 -1.8338e-06 -0.000113329 )  
( 3.54721e-07 -6.53313e-06 -0.000124152 )  
( 1.84195e-06 -5.97848e-06 -0.000125467 )  
( 2.63672e-06 -4.85507e-06 -0.000121555 )  
( -2.52179e-06 -9.49063e-06 -0.000112937 )  
( 2.95584e-06 -2.93184e-06 -0.000133367 )  
( -1.51237e-06 -4.56747e-06 -0.000122558 )  
( 4.41657e-07 -3.79008e-06 -0.000122857 )  
( 3.26004e-06 -5.33808e-06 -0.000115987 )  
( -4.41998e-07 -9.71824e-07 -0.000124222 )  
( -1.83103e-07 -4.18894e-06 -0.000126842 )  
( 3.02002e-06 -8.66542e-06 -0.000121809 )  
( -1.11981e-06 -4.00974e-06 -0.000135775 )  
( -2.09717e-06 -5.03825e-06 -0.000130948 )  
( 5.0548e-06 -4.67525e-06 -0.000121222 )  
( 2.71091e-06 -6.07045e-06 -0.000130009 )  
( 4.56227e-06 -4.07934e-06 -0.000123102 )  
( -1.61738e-06 -5.0796e-06 -0.000128013 )  
( -1.51058e-06 -2.09589e-06 -0.000126309 )  
( 2.09207e-06 -5.21634e-06 -0.000130418 )  
( 4.44124e-06 -2.30916e-06 -0.000124597 )  
( 3.56898e-06 -2.98237e-06 -0.000119234 )  
( 2.90498e-06 -4.64671e-06 -0.000120043 )  
( 6.09812e-06 -9.72256e-07 -0.000129938 )  
( 1.8203e-06 -5.70769e-06 -0.000126088 )  
( 3.60025e-06 -2.37535e-06 -0.000127816 )  
( -2.2427e-06 -2.43745e-06 -0.00013233 )  
( 6.15382e-07 -3.38889e-06 -0.000131371 )  
( 1.59715e-06 -6.23255e-06 -0.00012978 )  
( 2.13043e-07 -6.28847e-06 -0.000132599 )  
( 8.36683e-07 -2.4214e-06 -0.000134769 )  
( 2.57689e-06 -7.27112e-06 -0.000127067 )  
( 4.43122e-06 -2.12296e-06 -0.000124134 )  
( 1.51807e-07 -5.6904e-06 -0.000131341 )  
( -6.55176e-08 -4.66428e-06 -0.000135635 )  
( 4.63213e-06 -2.69467e-06 -0.000128886 )  
( -7.38778e-07 -2.94075e-06 -0.000132385 )  
( -2.18051e-06 -5.30253e-06 -0.00013074 )  
( 2.10453e-06 -6.70715e-06 -0.000134252 )  
( -2.42146e-06 -6.97309e-06 -0.000141057 )  
( -1.48575e-06 -2.88411e-06 -0.000137575 )  
( 2.14562e-06 -7.97102e-06 -0.000130296 )  
( -4.71701e-07 -4.76024e-06 -0.000135816 )  
( 3.47901e-08 -5.31885e-06 -0.000134178 )  
( -4.6666e-06 -2.35017e-06 -0.000141437 )  
( -1.29302e-06 -5.37501e-06 -0.000135922 )  
( 1.32094e-06 -7.8414e-07 -0.000133051 )  
( 2.02482e-06 -1.59259e-06 -0.000132724 )  
( 1.70598e-06 -4.55909e-06 -0.000130514 )  
( 9.30153e-07 -4.89163e-06 -0.00013146 )  
( 2.16753e-06 -5.48598e-06 -0.000130748 )  
( 3.33671e-06 -7.1437e-06 -0.000125197 )  
( 1.27828e-06 -5.7714e-06 -0.000134922 )  
( -8.99884e-07 -1.62353e-06 -0.000139888 )  
( -1.44875e-06 -3.76913e-06 -0.000138959 )  
( 3.42268e-07 -4.46168e-06 -0.000137751 )  
( 2.24523e-06 -3.61589e-06 -0.00013539 )  
( 1.09601e-07 -4.14722e-06 -0.000135122 )  
( -4.88822e-07 -3.7966e-06 -0.000136766 )  
( 3.12847e-06 -1.59932e-06 -0.000138442 )  
( 1.20698e-06 -4.3786e-06 -0.000132375 )  
( 2.37727e-06 -7.50746e-06 -0.000138508 )  
( -4.60379e-07 -4.39489e-06 -0.000136922 )  
( -1.45079e-06 -3.95254e-06 -0.000136198 )  
( -2.02522e-06 -6.61546e-06 -0.000147358 )  
( -1.49575e-07 -6.45831e-06 -0.000134859 )  
( 7.81901e-07 -4.13752e-06 -0.000133302 )  
( 1.45753e-06 -6.59272e-06 -0.000135211 )  
( 9.10743e-07 -5.22261e-06 -0.000139794 )  
( -2.09508e-07 -1.60647e-06 -0.000136085 )  
( -7.84941e-07 -3.99243e-06 -0.000139831 )  
( -4.6299e-07 -1.50823e-06 -0.000139363 )  
( 2.77515e-07 -5.69092e-06 -0.000140409 )  
( -7.15837e-07 -4.42539e-06 -0.000142793 )  
( -1.0415e-06 -4.92438e-06 -0.00013622 )  
( 6.22672e-07 -3.29041e-06 -0.000137524 )  
( -2.21991e-06 -8.94874e-07 -0.000144355 )  
( -8.64977e-07 -6.38973e-06 -0.000148294 )  
( -3.22485e-08 -5.41731e-06 -0.000138484 )  
( 2.8052e-06 3.41507e-07 -0.000143751 )  
( -4.37497e-07 -5.7971e-06 -0.000135708 )  
( -3.28066e-06 -4.77211e-06 -0.000145998 )  
( -5.12771e-07 -4.16616e-06 -0.000137709 )  
( -7.04252e-08 -3.32681e-06 -0.000148696 )  
( 1.88708e-06 -1.099e-05 -0.000134973 )  
( 2.10408e-06 -5.33768e-06 -0.000144653 )  
( -1.46061e-06 -4.03432e-07 -0.000138991 )  
( 5.16709e-07 -4.86348e-06 -0.000138587 )  
( -2.22042e-06 -3.9496e-06 -0.000138025 )  
( -4.89159e-07 -7.95743e-06 -0.0001387 )  
( -3.15698e-06 -4.21844e-06 -0.000136873 )  
( -3.19475e-06 2.09573e-06 -0.000141311 )  
( -4.08834e-06 -1.03323e-05 -0.000153704 )  
( -9.25051e-07 -3.76004e-06 -0.000138348 )  
( 6.0514e-07 -3.08761e-06 -0.000139284 )  
( 2.32694e-06 -2.35013e-06 -0.000140008 )  
( 3.79825e-06 -9.47423e-06 -0.000149112 )  
( 3.92391e-06 -6.30444e-07 -0.000146197 )  
( -6.64178e-07 -3.79721e-06 -0.000138156 )  
( -7.6077e-07 -3.04305e-06 -0.000135104 )  
( -3.31945e-06 -3.77783e-06 -0.000137389 )  
( 3.80096e-06 1.89473e-06 -0.000142346 )  
( -1.39586e-05 -5.09573e-06 -0.000145327 )  
( 4.80421e-06 -1.63203e-05 -0.000144445 )  
( 5.7431e-07 -5.44244e-06 -0.000147232 )  
( 6.30479e-07 -5.74908e-06 -0.00014001 )  
( -2.62527e-06 -2.63867e-06 -0.00014318 )  
( -6.00645e-06 -7.30814e-06 -0.000142463 )  
( -5.3659e-05 8.71134e-06 -0.000137192 )  
( 3.31708e-06 -3.54974e-06 -0.000142334 )  
( -1.1817e-06 -2.03469e-05 -0.000150189 )  
( 1.68207e-06 -2.27055e-05 -0.000131109 )  
( -2.71376e-05 -2.42312e-06 -0.000145356 )  
( 5.03924e-06 -7.05016e-07 -0.000142156 )  
( 8.1273e-06 -4.89691e-06 -0.000133431 )  
( -3.95852e-06 -2.40378e-06 -0.000139648 )  
( 6.91405e-06 -7.63019e-06 -0.000139843 )  
( 5.64563e-06 -1.40044e-06 -0.000142062 )  
( -4.59294e-06 2.85109e-07 -0.000141034 )  
( 1.17781e-06 -1.77299e-06 -0.00013922 )  
( -5.09976e-06 -3.24527e-06 -0.00013604 )  
( -2.24305e-06 -1.58994e-06 -0.000152647 )  
( 6.47801e-06 5.45349e-07 -0.00014359 )  
( -5.99473e-06 2.55431e-07 -0.000147205 )  
( -4.51164e-06 -5.13343e-06 -0.000138295 )  
( -8.06309e-06 -1.02529e-05 -0.000152233 )  
( 3.27879e-05 -4.58477e-06 -0.000141649 )  
( 4.57159e-06 -5.14787e-06 -0.000136842 )  
( 6.155e-06 -5.0953e-06 -0.000147666 )  
( 5.19302e-06 -9.18275e-06 -0.000130923 )  
( 8.12102e-06 -9.83751e-06 -0.000147288 )  
( -2.84164e-06 -1.37493e-05 -0.000156737 )  
( 5.56465e-06 -6.56203e-06 -0.000142689 )  
( 5.94363e-06 -7.27058e-06 -0.000140624 )  
( 8.11169e-06 5.82883e-07 -0.00014105 )  
( -2.07987e-05 5.97149e-06 -0.000151312 )  
( 6.70639e-06 -9.78448e-06 -0.000135768 )  
( 6.4883e-06 -6.44847e-06 -0.000176939 )  
( 2.51233e-06 -1.83503e-06 -0.000143427 )  
( -7.11907e-06 -7.40076e-06 -0.000151111 )  
( 1.73164e-06 4.13359e-06 -0.000144669 )  
( 1.33708e-05 -1.07273e-05 -0.000128429 )  
( 2.37796e-05 1.29364e-05 -0.000153839 )  
( -5.7143e-07 2.88842e-06 -0.000156621 )  
( -6.68426e-06 -2.99287e-06 -0.00014043 )  
( 5.35822e-07 -2.90538e-06 -0.000152534 )  
( 1.1023e-05 -8.69416e-06 -0.000156911 )  
( -1.04633e-05 -1.88038e-05 -0.000153263 )  
( -1.69392e-06 -2.5596e-07 -0.000142779 )  
( 2.75141e-05 9.0678e-06 -0.000164892 )  
( -8.37591e-05 -5.60529e-05 -0.00018773 )  
( 3.20661e-05 1.27484e-05 -0.000177214 )  
( 7.61297e-06 -2.48759e-06 -0.00014049 )  
( 5.50623e-06 -4.05162e-05 -0.000145022 )  
( -6.54443e-05 3.24072e-05 -0.000149145 )  
( 1.62713e-06 -4.60924e-06 -0.000145788 )  
( 1.36272e-05 -1.1956e-05 -0.000142263 )  
( -5.62915e-06 -7.23101e-06 -0.000148 )  
( 6.54168e-07 -7.63602e-06 -0.000160831 )  
( 6.66653e-06 -2.32674e-05 -0.000162885 )  
( 7.13302e-06 2.22958e-06 -0.000133418 )  
( 6.09353e-06 -1.01225e-07 -0.000139829 )  
( 1.53588e-05 7.32128e-06 -0.00013729 )  
( 1.15526e-05 -4.12648e-06 -0.000132613 )  
)
