/*--------------------------------*- C++ -*----------------------------------*\
| =========                 |                                                 |
| \\      /  F ield         | OpenFOAM: The Open Source CFD Toolbox           |
|  \\    /   O peration     | Version:  5.x                                   |
|   \\  /    A nd           | Web:      www.OpenFOAM.org                      |
|    \\/     M anipulation  |                                                 |
\*---------------------------------------------------------------------------*/
FoamFile
{
    version     2.0;
    format      ascii;
    class       surfaceScalarField;
    location    "10000";
    object      phi;
}
// * * * * * * * * * * * * * * * * * * * * * * * * * * * * * * * * * * * * * //

dimensions      [0 3 -1 0 0 0 0];

internalField   nonuniform List<scalar> 
179
(
-250.026
-250.027
-250.028
-250.029
-250.03
-250.032
-250.033
-250.036
-250.038
-250.041
-250.044
-250.048
-250.053
-250.058
-250.063
-250.069
-250.076
-250.084
-250.093
-250.103
-250.113
-250.126
-250.139
-250.154
-250.171
-250.189
-250.21
-250.233
-250.259
-250.287
-250.319
-250.354
-250.394
-250.437
-250.486
-250.54
-250.601
-250.668
-250.743
-250.827
-250.92
-251.025
-251.141
-251.271
-251.417
-251.579
-251.761
-251.964
-252.192
-252.446
-252.732
-253.052
-253.41
-253.812
-254.263
-254.77
-255.339
-255.978
-256.697
-257.505
-258.415
-259.44
-260.594
-261.894
-263.361
-265.017
-266.886
-268.997
-271.383
-274.081
-277.132
-280.577
-284.458
-288.8
-293.593
-298.757
-304.101
-309.31
-313.91
-317.126
-317.406
-317.424
-312.754
-311.337
-303.894
-301.263
-290.186
-276.518
-277.846
-286.054
-287.805
-292.292
-291.45
-290.36
-288.513
-284.509
-285.3
-284.201
-284.293
-282.816
-280.77
-279.388
-273.961
-271.87
-272.15
-270.698
-268.387
-265.92
-263.551
-261.392
-259.485
-257.834
-256.421
-255.22
-254.204
-253.348
-252.631
-252.03
-251.531
-251.117
-250.776
-250.496
-250.269
-250.086
-249.94
-249.824
-249.735
-249.668
-249.62
-249.586
-249.566
-249.555
-249.553
-249.558
-249.568
-249.581
-249.598
-249.615
-249.633
-249.652
-249.671
-249.69
-249.708
-249.726
-249.743
-249.76
-249.775
-249.791
-249.805
-249.819
-249.832
-249.845
-249.856
-249.868
-249.878
-249.888
-249.897
-249.905
-249.913
-249.92
-249.927
-249.934
-249.939
-249.945
-249.95
-249.955
-249.959
-249.963
-249.967
-249.97
-249.973
-249.976
-249.979
-249.981
-249.983
-249.985
-249.987
-249.989
-249.991
)
;

boundaryField
{
    inlet
    {
        type            calculated;
        value           uniform -249.993;
    }
    outlet
    {
        type            calculated;
        value           uniform 250.026;
    }
    repeat_boundary
    {
        type            calculated;
        value           uniform 0;
    }
    procBoundary0to1
    {
        type            processor;
        value           nonuniform List<scalar> 
180
(
-8.88865e-06
-1.36894e-05
-2.13254e-05
-2.95438e-05
-3.7973e-05
-4.65906e-05
-5.54331e-05
-6.44858e-05
-7.36891e-05
-8.29686e-05
-9.22254e-05
-0.000101332
-0.000110125
-0.000118396
-0.000125877
-0.000132233
-0.000137041
-0.000139752
-0.000139726
-0.000136662
-0.000128578
-0.000113842
-9.32083e-05
-6.35134e-05
-2.09473e-05
3.89569e-05
0.000105401
0.000187341
0.000280101
0.000387011
0.000515807
0.000676316
0.000876478
0.00112366
0.00142592
0.0017905
0.00222742
0.00275088
0.00337612
0.00412079
0.00500551
0.00605429
0.00729511
0.00876055
0.0104885
0.012523
0.0149154
0.0177251
0.0210215
0.0248848
0.0294085
0.0347009
0.040888
0.0481159
0.0565541
0.0663994
0.0778794
0.0912589
0.106845
0.124993
0.146116
0.170694
0.199282
0.232524
0.271169
0.316082
0.368269
0.428886
0.499253
0.580818
0.67504
0.783004
0.904557
1.0365
1.16937
1.28328
1.34565
1.31985
1.16159
0.837187
0.0515187
0.0460756
-7.13009
-1.41758
-4.41762
-2.24148
-5.73918
-10.2792
-0.0389663
6.27005
1.37027
8.9519
0.860036
3.30287
-0.243367
-1.0952
1.77224
0.766831
0.421273
-1.14555
-0.994406
-0.619978
-1.60811
0.120747
1.31187
0.27418
-0.399246
-0.630074
-0.689995
-0.661714
-0.592516
-0.510085
-0.429293
-0.356394
-0.292998
-0.238772
-0.192765
-0.15393
-0.121282
-0.0939506
-0.0711762
-0.0523032
-0.0367686
-0.0240939
-0.0138786
-0.00579863
0.00138866
0.00712722
0.0116418
0.0151541
0.0179051
0.0199523
0.0213948
0.0225181
0.022871
0.0222763
0.0215596
0.0197487
0.0186173
0.017595
0.0166339
0.0157239
0.014856
0.0140241
0.013224
0.012453
0.0117094
0.0109912
0.0102977
0.00962959
0.00898771
0.00837256
0.00778539
0.00722636
0.00669603
0.00619511
0.00572381
0.00528183
0.00486848
0.00448317
0.00412507
0.00379318
0.00348638
0.0032035
0.00294332
0.00270459
0.00248611
0.00228665
0.00210507
0.00194025
0.00179111
0.00165666
0.00153597
0.00142817
0.00133256
0.00124861
0.00117632
0.00111647
0.00107127
0.00105995
)
;
    }
    procBoundary0to2
    {
        type            processor;
        value           nonuniform List<scalar> 
180
(
0.000540432
0.000654393
0.00084717
0.00109294
0.00137543
0.00168539
0.00201891
0.00237572
0.00275775
0.00316818
0.00361096
0.00409056
0.00461192
0.00518047
0.00580214
0.00648345
0.00723158
0.00805445
0.00896079
0.00996027
0.0110636
0.0122826
0.0136304
0.0151217
0.0167727
0.0186013
0.0206279
0.0228747
0.0253665
0.0281311
0.0311991
0.0346046
0.0383857
0.0425848
0.0472493
0.0524322
0.0581929
0.0645973
0.0717195
0.0796421
0.0884574
0.0982687
0.109192
0.121357
0.134908
0.150008
0.166841
0.185611
0.206548
0.229911
0.255991
0.285114
0.317651
0.354015
0.394675
0.440158
0.491061
0.548056
0.611902
0.683461
0.763704
0.853734
0.954799
1.06832
1.1959
1.33936
1.50077
1.68247
1.88702
2.11713
2.3752
2.66236
2.97603
3.30533
3.62365
3.88049
3.99883
3.88863
3.43799
2.37843
0.228402
-0.0283386
2.46091
0.000314617
-3.02584
-0.388667
-5.33787
-3.3896
1.36767
1.93753
0.380417
-4.46464
-1.70174
-4.39276
-1.60397
-2.90861
-0.981692
-1.8647
-0.330022
-0.331036
-1.05134
-0.762352
-3.81845
-2.21227
-1.03169
-1.72593
-1.91147
-1.83705
-1.67863
-1.49723
-1.31442
-1.14123
-0.983911
-0.844588
-0.722858
-0.616846
-0.525234
-0.446283
-0.378354
-0.319991
-0.269919
-0.227021
-0.190325
-0.158987
-0.13227
-0.109535
-0.0902279
-0.0738645
-0.060026
-0.0483503
-0.0385241
-0.0302766
-0.02337
-0.0176042
-0.0127916
-0.00878498
-0.00542843
-0.00260634
-0.000115897
0.00134442
0.00217093
0.00283981
0.00330838
0.00366436
0.00392127
0.00409665
0.00420528
0.00425831
0.0042643
0.00423005
0.00416144
0.00406405
0.00394315
0.0038036
0.00364946
0.0034849
0.00331369
0.00313907
0.00296378
0.00279009
0.00261985
0.00245451
0.00229521
0.0021428
0.00199778
0.00186063
0.00173163
0.0016109
0.00149838
0.00139399
0.00129755
0.00120884
0.00112761
0.00105359
0.000986543
0.000926394
0.000873477
0.000828801
0.000794693
0.000784545
)
;
    }
}


// ************************************************************************* //
