/*--------------------------------*- C++ -*----------------------------------*\
| =========                 |                                                 |
| \\      /  F ield         | OpenFOAM: The Open Source CFD Toolbox           |
|  \\    /   O peration     | Version:  5.x                                   |
|   \\  /    A nd           | Web:      www.OpenFOAM.org                      |
|    \\/     M anipulation  |                                                 |
\*---------------------------------------------------------------------------*/
FoamFile
{
    version     2.0;
    format      ascii;
    class       volVectorField;
    location    "10000";
    object      stored_U;
}
// * * * * * * * * * * * * * * * * * * * * * * * * * * * * * * * * * * * * * //

dimensions      [0 1 -1 0 0 0 0];

internalField   nonuniform List<vector> 
180
(
(-3.58833e-10 2.1111e-08 -0.0010001)
(-5.84454e-10 2.52949e-08 -0.0010001)
(-8.96486e-10 3.25308e-08 -0.0010001)
(-1.22861e-09 4.18719e-08 -0.00100011)
(-1.56751e-09 5.2658e-08 -0.00100011)
(-1.91144e-09 6.45134e-08 -0.00100012)
(-2.26077e-09 7.72793e-08 -0.00100013)
(-2.61451e-09 9.09422e-08 -0.00100013)
(-2.97005e-09 1.05576e-07 -0.00100014)
(-3.32352e-09 1.21306e-07 -0.00100015)
(-3.66977e-09 1.38284e-07 -0.00100017)
(-4.00215e-09 1.56685e-07 -0.00100018)
(-4.31217e-09 1.76702e-07 -0.0010002)
(-4.5892e-09 1.98545e-07 -0.00100022)
(-4.82009e-09 2.22447e-07 -0.00100024)
(-4.9888e-09 2.48663e-07 -0.00100026)
(-5.07595e-09 2.77472e-07 -0.00100029)
(-5.0583e-09 3.09183e-07 -0.00100032)
(-4.90811e-09 3.44136e-07 -0.00100035)
(-4.59256e-09 3.82707e-07 -0.00100039)
(-4.07304e-09 4.25312e-07 -0.00100043)
(-3.3034e-09 4.7241e-07 -0.00100047)
(-2.22893e-09 5.24513e-07 -0.00100053)
(-7.85564e-10 5.82185e-07 -0.00100058)
(1.10438e-09 6.46055e-07 -0.00100065)
(3.5342e-09 7.16821e-07 -0.00100072)
(6.61284e-09 7.9526e-07 -0.00100079)
(1.04609e-08 8.82231e-07 -0.00100088)
(1.5219e-08 9.78689e-07 -0.00100098)
(2.10469e-08 1.0857e-06 -0.00100109)
(2.81273e-08 1.20443e-06 -0.00100121)
(3.66737e-08 1.33621e-06 -0.00100134)
(4.69377e-08 1.48249e-06 -0.00100149)
(5.92158e-08 1.64491e-06 -0.00100166)
(7.38566e-08 1.82528e-06 -0.00100184)
(9.12677e-08 2.02566e-06 -0.00100205)
(1.11926e-07 2.24829e-06 -0.00100227)
(1.36385e-07 2.49573e-06 -0.00100253)
(1.65294e-07 2.7708e-06 -0.00100281)
(1.99404e-07 3.07666e-06 -0.00100313)
(2.39594e-07 3.41685e-06 -0.00100348)
(2.86884e-07 3.79534e-06 -0.00100388)
(3.42459e-07 4.21654e-06 -0.00100432)
(4.07696e-07 4.68541e-06 -0.00100481)
(4.84193e-07 5.20749e-06 -0.00100536)
(5.73801e-07 5.78898e-06 -0.00100598)
(6.78667e-07 6.43685e-06 -0.00100666)
(8.01277e-07 7.15887e-06 -0.00100743)
(9.44512e-07 7.96379e-06 -0.00100829)
(1.1117e-06 8.8614e-06 -0.00100926)
(1.30671e-06 9.86268e-06 -0.00101033)
(1.53398e-06 1.098e-05 -0.00101154)
(1.79868e-06 1.22271e-05 -0.0010129)
(2.10677e-06 1.36197e-05 -0.00101441)
(2.46514e-06 1.51752e-05 -0.00101612)
(2.88176e-06 1.69132e-05 -0.00101803)
(3.36581e-06 1.8856e-05 -0.00102017)
(3.92793e-06 2.10283e-05 -0.00102258)
(4.5804e-06 2.34584e-05 -0.00102528)
(5.33737e-06 2.61778e-05 -0.00102832)
(6.21522e-06 2.92222e-05 -0.00103174)
(7.23283e-06 3.26318e-05 -0.00103558)
(8.41199e-06 3.6452e-05 -0.00103991)
(9.77784e-06 4.07342e-05 -0.00104479)
(1.13594e-05 4.55364e-05 -0.00105028)
(1.319e-05 5.0924e-05 -0.00105647)
(1.53081e-05 5.6971e-05 -0.00106345)
(1.77577e-05 6.37601e-05 -0.00107132)
(2.05886e-05 7.13821e-05 -0.00108021)
(2.38551e-05 7.9931e-05 -0.00109025)
(2.76112e-05 8.94876e-05 -0.00110159)
(3.18958e-05 0.000100077 -0.00111441)
(3.66974e-05 0.000111573 -0.00112877)
(4.18807e-05 0.000123503 -0.0011447)
(4.70552e-05 0.000134745 -0.00116271)
(5.14018e-05 0.000143165 -0.00118496)
(5.35462e-05 0.00014539 -0.00121213)
(5.17815e-05 0.000137235 -0.00122362)
(4.40147e-05 0.000112962 -0.00116958)
(2.92187e-05 6.94309e-05 -0.000965281)
(4.60282e-06 6.8022e-06 -0.00359105)
(8.27848e-06 1.91953e-05 -7.86256e-05)
(-0.000364447 0.000119547 -0.0041976)
(-2.13804e-05 2.61252e-05 -0.000533666)
(-0.000426967 -0.000214811 -0.00437411)
(5.7842e-06 1.87091e-05 -0.000349166)
(-0.000655069 -0.000420137 -0.0047355)
(-0.000281332 -0.000173468 -0.00453877)
(3.8717e-05 6.38209e-05 -0.00102943)
(0.000258402 0.000386664 -0.00504833)
(0.000246183 0.000113294 -0.00140625)
(0.000782283 -0.000336061 -0.00337191)
(1.6297e-05 1.85584e-05 -0.00015861)
(0.000354095 -0.00028096 -0.00397477)
(2.00941e-05 -0.000232394 -0.00282969)
(-1.44489e-07 -0.000107945 -0.00252325)
(0.000213151 -9.71824e-05 -0.00376224)
(0.000198005 -9.27878e-05 -0.00269933)
(3.53482e-05 5.53311e-06 -0.00246262)
(-0.000210778 -4.83024e-05 -0.00395893)
(-0.000116195 -9.5889e-05 -0.00179195)
(-0.000103487 -0.000108461 -0.00350909)
(-0.000131556 -0.000144215 -0.00280968)
(-2.70417e-05 -8.93755e-06 -0.00112838)
(7.93367e-06 -1.37904e-06 -0.00187298)
(-2.77925e-05 -3.87088e-05 -0.0010745)
(-5.03836e-05 -5.95836e-05 -0.00108369)
(-5.80675e-05 -6.57483e-05 -0.0011021)
(-5.75897e-05 -6.42764e-05 -0.0010948)
(-5.30827e-05 -5.9143e-05 -0.0010793)
(-4.69653e-05 -5.25636e-05 -0.00106594)
(-4.05852e-05 -4.57606e-05 -0.00105528)
(-3.46144e-05 -3.9365e-05 -0.00104633)
(-2.93067e-05 -3.36354e-05 -0.00103865)
(-2.47001e-05 -2.86248e-05 -0.00103208)
(-2.07449e-05 -2.42932e-05 -0.0010265)
(-1.73659e-05 -2.05695e-05 -0.00102177)
(-1.44873e-05 -1.73778e-05 -0.00101778)
(-1.20398e-05 -1.46471e-05 -0.00101441)
(-9.96292e-06 -1.23143e-05 -0.00101158)
(-8.20379e-06 -1.03243e-05 -0.0010092)
(-6.71694e-06 -8.62906e-06 -0.00100721)
(-5.46308e-06 -7.18729e-06 -0.00100556)
(-4.40844e-06 -5.96311e-06 -0.00100419)
(-3.52394e-06 -4.92565e-06 -0.00100305)
(-2.78475e-06 -4.04828e-06 -0.00100211)
(-2.16957e-06 -3.30812e-06 -0.00100135)
(-1.65967e-06 -2.6852e-06 -0.00100073)
(-1.23887e-06 -2.16229e-06 -0.00100023)
(-8.93357e-07 -1.72457e-06 -0.000999838)
(-6.11225e-07 -1.35927e-06 -0.000999533)
(-3.82192e-07 -1.05538e-06 -0.000999303)
(-1.97458e-07 -8.03407e-07 -0.000999134)
(-4.94907e-08 -5.9522e-07 -0.000999016)
(6.8116e-08 -4.23833e-07 -0.000998938)
(1.60428e-07 -2.8346e-07 -0.000998889)
(2.31427e-07 -1.69295e-07 -0.000998864)
(2.8471e-07 -7.71e-08 -0.000998859)
(3.23465e-07 -3.14399e-09 -0.00099887)
(3.50302e-07 5.56416e-08 -0.000998893)
(3.67342e-07 1.01723e-07 -0.000998924)
(3.76379e-07 1.37151e-07 -0.000998961)
(3.78903e-07 1.63606e-07 -0.000999001)
(3.76207e-07 1.82573e-07 -0.000999044)
(3.69392e-07 1.95335e-07 -0.00099909)
(3.59393e-07 2.03002e-07 -0.000999136)
(3.46994e-07 2.06527e-07 -0.000999184)
(3.32856e-07 2.06723e-07 -0.000999231)
(3.17523e-07 2.04284e-07 -0.000999278)
(3.01444e-07 1.99793e-07 -0.000999324)
(2.84983e-07 1.93741e-07 -0.000999369)
(2.68436e-07 1.86536e-07 -0.000999412)
(2.52033e-07 1.78518e-07 -0.000999453)
(2.35959e-07 1.69964e-07 -0.000999493)
(2.20351e-07 1.611e-07 -0.00099953)
(2.05314e-07 1.5211e-07 -0.000999565)
(1.90923e-07 1.43138e-07 -0.000999599)
(1.77228e-07 1.343e-07 -0.00099963)
(1.64261e-07 1.25684e-07 -0.000999659)
(1.5204e-07 1.1736e-07 -0.000999687)
(1.40567e-07 1.09377e-07 -0.000999712)
(1.29838e-07 1.01771e-07 -0.000999736)
(1.19839e-07 9.45658e-08 -0.000999758)
(1.10551e-07 8.77765e-08 -0.000999778)
(1.01952e-07 8.1409e-08 -0.000999797)
(9.40153e-08 7.54637e-08 -0.000999815)
(8.67122e-08 6.99355e-08 -0.000999831)
(8.00134e-08 6.48156e-08 -0.000999847)
(7.38884e-08 6.00926e-08 -0.000999861)
(6.83071e-08 5.57524e-08 -0.000999874)
(6.32395e-08 5.17798e-08 -0.000999886)
(5.86567e-08 4.81587e-08 -0.000999897)
(5.45312e-08 4.48728e-08 -0.000999908)
(5.08373e-08 4.19063e-08 -0.000999918)
(4.75533e-08 3.9246e-08 -0.000999927)
(4.46645e-08 3.68853e-08 -0.000999936)
(4.21751e-08 3.48349e-08 -0.000999945)
(4.01392e-08 3.31527e-08 -0.000999953)
(3.86085e-08 3.18853e-08 -0.000999961)
(3.78424e-08 3.12687e-08 -0.000999968)
)
;

boundaryField
{
    inlet
    {
        type            calculated;
        value           uniform (3.78424e-08 3.12687e-08 -0.000999968);
    }
    outlet
    {
        type            calculated;
        value           uniform (-3.58833e-10 2.1111e-08 -0.0010001);
    }
    repeat_boundary
    {
        type            calculated;
        value           nonuniform List<vector> 
360
(
(-3.58833e-10 0 -0.0010001)
(-5.84454e-10 0 -0.0010001)
(-8.96486e-10 0 -0.0010001)
(-1.22861e-09 0 -0.00100011)
(-1.56751e-09 0 -0.00100011)
(-1.91144e-09 0 -0.00100012)
(-2.26077e-09 0 -0.00100013)
(-2.61451e-09 0 -0.00100013)
(-2.97005e-09 0 -0.00100014)
(-3.32352e-09 0 -0.00100015)
(-3.66977e-09 0 -0.00100017)
(-4.00215e-09 0 -0.00100018)
(-4.31217e-09 0 -0.0010002)
(-4.5892e-09 0 -0.00100022)
(-4.82009e-09 0 -0.00100024)
(-4.9888e-09 0 -0.00100026)
(-5.07595e-09 0 -0.00100029)
(-5.0583e-09 0 -0.00100032)
(-4.90811e-09 0 -0.00100035)
(-4.59256e-09 0 -0.00100039)
(-4.07304e-09 0 -0.00100043)
(-3.3034e-09 0 -0.00100047)
(-2.22893e-09 0 -0.00100053)
(-7.85564e-10 0 -0.00100058)
(1.10438e-09 0 -0.00100065)
(3.5342e-09 0 -0.00100072)
(6.61284e-09 0 -0.00100079)
(1.04609e-08 0 -0.00100088)
(1.5219e-08 0 -0.00100098)
(2.10469e-08 0 -0.00100109)
(2.81273e-08 0 -0.00100121)
(3.66737e-08 0 -0.00100134)
(4.69377e-08 0 -0.00100149)
(5.92158e-08 0 -0.00100166)
(7.38566e-08 0 -0.00100184)
(9.12677e-08 0 -0.00100205)
(1.11926e-07 0 -0.00100227)
(1.36385e-07 0 -0.00100253)
(1.65294e-07 0 -0.00100281)
(1.99404e-07 0 -0.00100313)
(2.39594e-07 0 -0.00100348)
(2.86884e-07 0 -0.00100388)
(3.42459e-07 0 -0.00100432)
(4.07696e-07 0 -0.00100481)
(4.84193e-07 0 -0.00100536)
(5.73801e-07 0 -0.00100598)
(6.78667e-07 0 -0.00100666)
(8.01277e-07 0 -0.00100743)
(9.44512e-07 0 -0.00100829)
(1.1117e-06 0 -0.00100926)
(1.30671e-06 0 -0.00101033)
(1.53398e-06 0 -0.00101154)
(1.79868e-06 0 -0.0010129)
(2.10677e-06 0 -0.00101441)
(2.46514e-06 0 -0.00101612)
(2.88176e-06 0 -0.00101803)
(3.36581e-06 0 -0.00102017)
(3.92793e-06 0 -0.00102258)
(4.5804e-06 0 -0.00102528)
(5.33737e-06 0 -0.00102832)
(6.21522e-06 0 -0.00103174)
(7.23283e-06 0 -0.00103558)
(8.41199e-06 0 -0.00103991)
(9.77784e-06 0 -0.00104479)
(1.13594e-05 0 -0.00105028)
(1.319e-05 0 -0.00105647)
(1.53081e-05 0 -0.00106345)
(1.77577e-05 0 -0.00107132)
(2.05886e-05 0 -0.00108021)
(2.38551e-05 0 -0.00109025)
(2.76112e-05 0 -0.00110159)
(3.18958e-05 0 -0.00111441)
(3.66974e-05 0 -0.00112877)
(4.18807e-05 0 -0.0011447)
(4.70552e-05 0 -0.00116271)
(5.14018e-05 0 -0.00118496)
(5.35462e-05 0 -0.00121213)
(5.17815e-05 0 -0.00122362)
(4.40147e-05 0 -0.00116958)
(2.92187e-05 0 -0.000965281)
(4.60282e-06 0 -0.00359105)
(8.27848e-06 0 -7.86256e-05)
(-0.000364447 0 -0.0041976)
(-2.13804e-05 0 -0.000533666)
(-0.000426967 0 -0.00437411)
(5.7842e-06 0 -0.000349166)
(-0.000655069 0 -0.0047355)
(-0.000281332 0 -0.00453877)
(3.8717e-05 0 -0.00102943)
(0.000258402 0 -0.00504833)
(0.000246183 0 -0.00140625)
(0.000782283 0 -0.00337191)
(1.6297e-05 0 -0.00015861)
(0.000354095 0 -0.00397477)
(2.00941e-05 0 -0.00282969)
(-1.44489e-07 0 -0.00252325)
(0.000213151 0 -0.00376224)
(0.000198005 0 -0.00269933)
(3.53482e-05 0 -0.00246262)
(-0.000210778 0 -0.00395893)
(-0.000116195 0 -0.00179195)
(-0.000103487 0 -0.00350909)
(-0.000131556 0 -0.00280968)
(-2.70417e-05 0 -0.00112838)
(7.93367e-06 0 -0.00187298)
(-2.77925e-05 0 -0.0010745)
(-5.03836e-05 0 -0.00108369)
(-5.80675e-05 0 -0.0011021)
(-5.75897e-05 0 -0.0010948)
(-5.30827e-05 0 -0.0010793)
(-4.69653e-05 0 -0.00106594)
(-4.05852e-05 0 -0.00105528)
(-3.46144e-05 0 -0.00104633)
(-2.93067e-05 0 -0.00103865)
(-2.47001e-05 0 -0.00103208)
(-2.07449e-05 0 -0.0010265)
(-1.73659e-05 0 -0.00102177)
(-1.44873e-05 0 -0.00101778)
(-1.20398e-05 0 -0.00101441)
(-9.96292e-06 0 -0.00101158)
(-8.20379e-06 0 -0.0010092)
(-6.71694e-06 0 -0.00100721)
(-5.46308e-06 0 -0.00100556)
(-4.40844e-06 0 -0.00100419)
(-3.52394e-06 0 -0.00100305)
(-2.78475e-06 0 -0.00100211)
(-2.16957e-06 0 -0.00100135)
(-1.65967e-06 0 -0.00100073)
(-1.23887e-06 0 -0.00100023)
(-8.93357e-07 0 -0.000999838)
(-6.11225e-07 0 -0.000999533)
(-3.82192e-07 0 -0.000999303)
(-1.97458e-07 0 -0.000999134)
(-4.94907e-08 0 -0.000999016)
(6.8116e-08 0 -0.000998938)
(1.60428e-07 0 -0.000998889)
(2.31427e-07 0 -0.000998864)
(2.8471e-07 0 -0.000998859)
(3.23465e-07 0 -0.00099887)
(3.50302e-07 0 -0.000998893)
(3.67342e-07 0 -0.000998924)
(3.76379e-07 0 -0.000998961)
(3.78903e-07 0 -0.000999001)
(3.76207e-07 0 -0.000999044)
(3.69392e-07 0 -0.00099909)
(3.59393e-07 0 -0.000999136)
(3.46994e-07 0 -0.000999184)
(3.32856e-07 0 -0.000999231)
(3.17523e-07 0 -0.000999278)
(3.01444e-07 0 -0.000999324)
(2.84983e-07 0 -0.000999369)
(2.68436e-07 0 -0.000999412)
(2.52033e-07 0 -0.000999453)
(2.35959e-07 0 -0.000999493)
(2.20351e-07 0 -0.00099953)
(2.05314e-07 0 -0.000999565)
(1.90923e-07 0 -0.000999599)
(1.77228e-07 0 -0.00099963)
(1.64261e-07 0 -0.000999659)
(1.5204e-07 0 -0.000999687)
(1.40567e-07 0 -0.000999712)
(1.29838e-07 0 -0.000999736)
(1.19839e-07 0 -0.000999758)
(1.10551e-07 0 -0.000999778)
(1.01952e-07 0 -0.000999797)
(9.40153e-08 0 -0.000999815)
(8.67122e-08 0 -0.000999831)
(8.00134e-08 0 -0.000999847)
(7.38884e-08 0 -0.000999861)
(6.83071e-08 0 -0.000999874)
(6.32395e-08 0 -0.000999886)
(5.86567e-08 0 -0.000999897)
(5.45312e-08 0 -0.000999908)
(5.08373e-08 0 -0.000999918)
(4.75533e-08 0 -0.000999927)
(4.46645e-08 0 -0.000999936)
(4.21751e-08 0 -0.000999945)
(4.01392e-08 0 -0.000999953)
(3.86085e-08 0 -0.000999961)
(3.78424e-08 0 -0.000999968)
(0 2.1111e-08 -0.0010001)
(0 2.52949e-08 -0.0010001)
(0 3.25308e-08 -0.0010001)
(0 4.18719e-08 -0.00100011)
(0 5.2658e-08 -0.00100011)
(0 6.45134e-08 -0.00100012)
(0 7.72793e-08 -0.00100013)
(0 9.09422e-08 -0.00100013)
(0 1.05576e-07 -0.00100014)
(0 1.21306e-07 -0.00100015)
(0 1.38284e-07 -0.00100017)
(0 1.56685e-07 -0.00100018)
(0 1.76702e-07 -0.0010002)
(0 1.98545e-07 -0.00100022)
(0 2.22447e-07 -0.00100024)
(0 2.48663e-07 -0.00100026)
(0 2.77472e-07 -0.00100029)
(0 3.09183e-07 -0.00100032)
(0 3.44136e-07 -0.00100035)
(0 3.82707e-07 -0.00100039)
(0 4.25312e-07 -0.00100043)
(0 4.7241e-07 -0.00100047)
(0 5.24513e-07 -0.00100053)
(0 5.82185e-07 -0.00100058)
(0 6.46055e-07 -0.00100065)
(0 7.16821e-07 -0.00100072)
(0 7.9526e-07 -0.00100079)
(0 8.82231e-07 -0.00100088)
(0 9.78689e-07 -0.00100098)
(0 1.0857e-06 -0.00100109)
(0 1.20443e-06 -0.00100121)
(0 1.33621e-06 -0.00100134)
(0 1.48249e-06 -0.00100149)
(0 1.64491e-06 -0.00100166)
(0 1.82528e-06 -0.00100184)
(0 2.02566e-06 -0.00100205)
(0 2.24829e-06 -0.00100227)
(0 2.49573e-06 -0.00100253)
(0 2.7708e-06 -0.00100281)
(0 3.07666e-06 -0.00100313)
(0 3.41685e-06 -0.00100348)
(0 3.79534e-06 -0.00100388)
(0 4.21654e-06 -0.00100432)
(0 4.68541e-06 -0.00100481)
(0 5.20749e-06 -0.00100536)
(0 5.78898e-06 -0.00100598)
(0 6.43685e-06 -0.00100666)
(0 7.15887e-06 -0.00100743)
(0 7.96379e-06 -0.00100829)
(0 8.8614e-06 -0.00100926)
(0 9.86268e-06 -0.00101033)
(0 1.098e-05 -0.00101154)
(0 1.22271e-05 -0.0010129)
(0 1.36197e-05 -0.00101441)
(0 1.51752e-05 -0.00101612)
(0 1.69132e-05 -0.00101803)
(0 1.8856e-05 -0.00102017)
(0 2.10283e-05 -0.00102258)
(0 2.34584e-05 -0.00102528)
(0 2.61778e-05 -0.00102832)
(0 2.92222e-05 -0.00103174)
(0 3.26318e-05 -0.00103558)
(0 3.6452e-05 -0.00103991)
(0 4.07342e-05 -0.00104479)
(0 4.55364e-05 -0.00105028)
(0 5.0924e-05 -0.00105647)
(0 5.6971e-05 -0.00106345)
(0 6.37601e-05 -0.00107132)
(0 7.13821e-05 -0.00108021)
(0 7.9931e-05 -0.00109025)
(0 8.94876e-05 -0.00110159)
(0 0.000100077 -0.00111441)
(0 0.000111573 -0.00112877)
(0 0.000123503 -0.0011447)
(0 0.000134745 -0.00116271)
(0 0.000143165 -0.00118496)
(0 0.00014539 -0.00121213)
(0 0.000137235 -0.00122362)
(0 0.000112962 -0.00116958)
(0 6.94309e-05 -0.000965281)
(0 6.8022e-06 -0.00359105)
(0 1.91953e-05 -7.86256e-05)
(0 0.000119547 -0.0041976)
(0 2.61252e-05 -0.000533666)
(0 -0.000214811 -0.00437411)
(0 1.87091e-05 -0.000349166)
(0 -0.000420137 -0.0047355)
(0 -0.000173468 -0.00453877)
(0 6.38209e-05 -0.00102943)
(0 0.000386664 -0.00504833)
(0 0.000113294 -0.00140625)
(0 -0.000336061 -0.00337191)
(0 1.85584e-05 -0.00015861)
(0 -0.00028096 -0.00397477)
(0 -0.000232394 -0.00282969)
(0 -0.000107945 -0.00252325)
(0 -9.71824e-05 -0.00376224)
(0 -9.27878e-05 -0.00269933)
(0 5.53311e-06 -0.00246262)
(0 -4.83024e-05 -0.00395893)
(0 -9.5889e-05 -0.00179195)
(0 -0.000108461 -0.00350909)
(0 -0.000144215 -0.00280968)
(0 -8.93755e-06 -0.00112838)
(0 -1.37904e-06 -0.00187298)
(0 -3.87088e-05 -0.0010745)
(0 -5.95836e-05 -0.00108369)
(0 -6.57483e-05 -0.0011021)
(0 -6.42764e-05 -0.0010948)
(0 -5.9143e-05 -0.0010793)
(0 -5.25636e-05 -0.00106594)
(0 -4.57606e-05 -0.00105528)
(0 -3.9365e-05 -0.00104633)
(0 -3.36354e-05 -0.00103865)
(0 -2.86248e-05 -0.00103208)
(0 -2.42932e-05 -0.0010265)
(0 -2.05695e-05 -0.00102177)
(0 -1.73778e-05 -0.00101778)
(0 -1.46471e-05 -0.00101441)
(0 -1.23143e-05 -0.00101158)
(0 -1.03243e-05 -0.0010092)
(0 -8.62906e-06 -0.00100721)
(0 -7.18729e-06 -0.00100556)
(0 -5.96311e-06 -0.00100419)
(0 -4.92565e-06 -0.00100305)
(0 -4.04828e-06 -0.00100211)
(0 -3.30812e-06 -0.00100135)
(0 -2.6852e-06 -0.00100073)
(0 -2.16229e-06 -0.00100023)
(0 -1.72457e-06 -0.000999838)
(0 -1.35927e-06 -0.000999533)
(0 -1.05538e-06 -0.000999303)
(0 -8.03407e-07 -0.000999134)
(0 -5.9522e-07 -0.000999016)
(0 -4.23833e-07 -0.000998938)
(0 -2.8346e-07 -0.000998889)
(0 -1.69295e-07 -0.000998864)
(0 -7.71e-08 -0.000998859)
(0 -3.14399e-09 -0.00099887)
(0 5.56416e-08 -0.000998893)
(0 1.01723e-07 -0.000998924)
(0 1.37151e-07 -0.000998961)
(0 1.63606e-07 -0.000999001)
(0 1.82573e-07 -0.000999044)
(0 1.95335e-07 -0.00099909)
(0 2.03002e-07 -0.000999136)
(0 2.06527e-07 -0.000999184)
(0 2.06723e-07 -0.000999231)
(0 2.04284e-07 -0.000999278)
(0 1.99793e-07 -0.000999324)
(0 1.93741e-07 -0.000999369)
(0 1.86536e-07 -0.000999412)
(0 1.78518e-07 -0.000999453)
(0 1.69964e-07 -0.000999493)
(0 1.611e-07 -0.00099953)
(0 1.5211e-07 -0.000999565)
(0 1.43138e-07 -0.000999599)
(0 1.343e-07 -0.00099963)
(0 1.25684e-07 -0.000999659)
(0 1.1736e-07 -0.000999687)
(0 1.09377e-07 -0.000999712)
(0 1.01771e-07 -0.000999736)
(0 9.45658e-08 -0.000999758)
(0 8.77765e-08 -0.000999778)
(0 8.1409e-08 -0.000999797)
(0 7.54637e-08 -0.000999815)
(0 6.99355e-08 -0.000999831)
(0 6.48156e-08 -0.000999847)
(0 6.00926e-08 -0.000999861)
(0 5.57524e-08 -0.000999874)
(0 5.17798e-08 -0.000999886)
(0 4.81587e-08 -0.000999897)
(0 4.48728e-08 -0.000999908)
(0 4.19063e-08 -0.000999918)
(0 3.9246e-08 -0.000999927)
(0 3.68853e-08 -0.000999936)
(0 3.48349e-08 -0.000999945)
(0 3.31527e-08 -0.000999953)
(0 3.18853e-08 -0.000999961)
(0 3.12687e-08 -0.000999968)
)
;
    }
    procBoundary0to1
    {
        type            processor;
        value           nonuniform List<vector> 
180
(
(-3.58834e-10 1.94919e-08 -0.00100011)
(-5.84454e-10 2.3217e-08 -0.00100011)
(-8.96486e-10 2.97284e-08 -0.00100011)
(-1.22861e-09 3.81643e-08 -0.00100011)
(-1.56751e-09 4.79164e-08 -0.00100012)
(-1.91144e-09 5.86266e-08 -0.00100013)
(-2.26077e-09 7.01359e-08 -0.00100013)
(-2.61451e-09 8.2418e-08 -0.00100014)
(-2.97006e-09 9.55251e-08 -0.00100015)
(-3.32352e-09 1.09553e-07 -0.00100016)
(-3.66977e-09 1.2462e-07 -0.00100017)
(-4.00215e-09 1.4086e-07 -0.00100019)
(-4.31217e-09 1.58421e-07 -0.0010002)
(-4.5892e-09 1.77459e-07 -0.00100022)
(-4.8201e-09 1.98146e-07 -0.00100024)
(-4.9888e-09 2.20664e-07 -0.00100026)
(-5.07595e-09 2.45215e-07 -0.00100029)
(-5.05831e-09 2.72013e-07 -0.00100032)
(-4.90812e-09 3.01294e-07 -0.00100035)
(-4.59258e-09 3.33313e-07 -0.00100038)
(-4.07306e-09 3.68347e-07 -0.00100042)
(-3.30343e-09 4.06699e-07 -0.00100045)
(-2.22897e-09 4.48697e-07 -0.0010005)
(-7.85622e-10 4.947e-07 -0.00100055)
(1.10431e-09 5.45095e-07 -0.0010006)
(3.53409e-09 6.00305e-07 -0.00100066)
(6.6127e-09 6.60789e-07 -0.00100072)
(1.04607e-08 7.27047e-07 -0.00100079)
(1.52188e-08 7.99624e-07 -0.00100087)
(2.10465e-08 8.79116e-07 -0.00100095)
(2.81268e-08 9.66168e-07 -0.00100104)
(3.66731e-08 1.06148e-06 -0.00100114)
(4.69369e-08 1.16581e-06 -0.00100125)
(5.92147e-08 1.27998e-06 -0.00100137)
(7.3855e-08 1.40486e-06 -0.0010015)
(9.12657e-08 1.5414e-06 -0.00100165)
(1.11923e-07 1.69063e-06 -0.0010018)
(1.36382e-07 1.85364e-06 -0.00100197)
(1.65289e-07 2.03161e-06 -0.00100215)
(1.99397e-07 2.22579e-06 -0.00100235)
(2.39585e-07 2.43752e-06 -0.00100257)
(2.86872e-07 2.66824e-06 -0.0010028)
(3.42443e-07 2.91944e-06 -0.00100306)
(4.07674e-07 3.19275e-06 -0.00100333)
(4.84163e-07 3.48986e-06 -0.00100363)
(5.7376e-07 3.81253e-06 -0.00100395)
(6.78612e-07 4.16265e-06 -0.00100429)
(8.01204e-07 4.54213e-06 -0.00100466)
(9.44414e-07 4.95299e-06 -0.00100505)
(1.11157e-06 5.39729e-06 -0.00100548)
(1.30653e-06 5.87714e-06 -0.00100593)
(1.53374e-06 6.39465e-06 -0.00100641)
(1.79836e-06 6.95192e-06 -0.00100692)
(2.10635e-06 7.55104e-06 -0.00100746)
(2.46457e-06 8.19398e-06 -0.00100803)
(2.88099e-06 8.88258e-06 -0.00100863)
(3.36478e-06 9.61849e-06 -0.00100926)
(3.92655e-06 1.04031e-05 -0.00100991)
(4.57855e-06 1.12373e-05 -0.00101058)
(5.3349e-06 1.21217e-05 -0.00101127)
(6.21191e-06 1.30561e-05 -0.00101197)
(7.2284e-06 1.40397e-05 -0.00101267)
(8.40606e-06 1.50706e-05 -0.00101337)
(9.76991e-06 1.61458e-05 -0.00101405)
(1.13488e-05 1.72608e-05 -0.0010147)
(1.31758e-05 1.84094e-05 -0.0010153)
(1.52891e-05 1.95835e-05 -0.00101583)
(1.77323e-05 2.07722e-05 -0.00101626)
(2.05542e-05 2.19614e-05 -0.00101657)
(2.3808e-05 2.31324e-05 -0.00101672)
(2.75452e-05 2.42583e-05 -0.0010167)
(3.18007e-05 2.52984e-05 -0.00101647)
(3.65567e-05 2.6184e-05 -0.00101589)
(4.16705e-05 2.67912e-05 -0.00101478)
(4.67476e-05 2.69113e-05 -0.00101353)
(5.09815e-05 2.62481e-05 -0.00101394)
(5.30215e-05 2.45483e-05 -0.00101631)
(5.12737e-05 2.17332e-05 -0.00100282)
(4.38031e-05 1.8216e-05 -0.000935051)
(2.95724e-05 1.44572e-05 -0.000769036)
(4.92291e-06 -2.66744e-06 -0.00306425)
(-3.35203e-06 -1.15115e-05 -3.74232e-05)
(-0.000200841 0.000306666 -0.00371175)
(-7.85289e-05 0.000130962 -0.00261171)
(-4.43996e-06 -1.24214e-05 -0.00116434)
(-0.00025136 7.0309e-05 -0.00490889)
(1.32112e-05 -2.74811e-05 -0.000504517)
(-0.00084612 -0.00037687 -0.00467348)
(2.03668e-05 -6.10654e-05 -0.000235848)
(0.000707647 -0.000862535 -0.00414339)
(5.39426e-05 -2.04949e-05 -0.000217434)
(0.000554468 -0.000465242 -0.00388402)
(0.000173273 -0.000251569 -0.00146013)
(0.000219292 -0.000586084 -0.00436402)
(-1.74537e-05 -5.33786e-05 -0.000633793)
(2.53292e-05 -0.000278228 -0.0026764)
(0.000327559 -0.000553942 -0.00204938)
(1.04613e-06 3.33627e-05 -0.000231159)
(8.22375e-06 -0.000105982 -0.00411071)
(-3.40436e-05 1.82696e-05 -0.000702306)
(-0.00017702 0.000207085 -0.00253781)
(-0.000114481 0.000190893 -0.00130826)
(-0.000158162 -3.01984e-05 -0.00128994)
(-8.51924e-05 -1.06774e-05 -0.00102514)
(-3.00366e-05 3.46311e-05 -0.000934391)
(-5.30695e-05 7.61393e-05 -0.000865093)
(-6.55719e-05 0.000101852 -0.000832005)
(-6.65584e-05 0.000111033 -0.000843824)
(-6.18775e-05 0.000109315 -0.000865167)
(-5.51187e-05 0.000101924 -0.000883269)
(-4.79152e-05 9.22656e-05 -0.000898301)
(-4.10487e-05 8.22489e-05 -0.000911441)
(-3.48652e-05 7.27785e-05 -0.00092304)
(-2.946e-05 6.4192e-05 -0.000933192)
(-2.48029e-05 5.65525e-05 -0.000942025)
(-2.08173e-05 4.98095e-05 -0.000949697)
(-1.74181e-05 4.38758e-05 -0.000956362)
(-1.45252e-05 3.86592e-05 -0.00096215)
(-1.20674e-05 3.40735e-05 -0.000967176)
(-9.98294e-06 3.00418e-05 -0.000971541)
(-8.21831e-06 2.64962e-05 -0.00097533)
(-6.72744e-06 2.33771e-05 -0.00097862)
(-5.47067e-06 2.06323e-05 -0.000981475)
(-4.41389e-06 1.82163e-05 -0.000983954)
(-3.52786e-06 1.60891e-05 -0.000986107)
(-2.78755e-06 1.42156e-05 -0.000987978)
(-2.17157e-06 1.25652e-05 -0.000989602)
(-1.66108e-06 1.1111e-05 -0.000991008)
(-1.23988e-06 9.82911e-06 -0.000992225)
(-8.94062e-07 8.6987e-06 -0.000993278)
(-6.11718e-07 7.70147e-06 -0.000994188)
(-3.82536e-07 6.82128e-06 -0.000994973)
(-1.97696e-07 6.04399e-06 -0.00099565)
(-4.96542e-08 5.35714e-06 -0.000996232)
(6.80041e-08 4.74981e-06 -0.000996735)
(1.60352e-07 4.2126e-06 -0.000997173)
(2.31376e-07 3.73739e-06 -0.000997555)
(2.84676e-07 3.31696e-06 -0.000997886)
(3.23442e-07 2.94487e-06 -0.000998174)
(3.50287e-07 2.61547e-06 -0.000998424)
(3.67332e-07 2.32381e-06 -0.000998641)
(3.76371e-07 2.06549e-06 -0.000998829)
(3.78898e-07 1.83664e-06 -0.000998992)
(3.76203e-07 1.63381e-06 -0.000999133)
(3.6939e-07 1.45399e-06 -0.000999255)
(3.5939e-07 1.29451e-06 -0.00099936)
(3.46993e-07 1.15301e-06 -0.000999451)
(3.32855e-07 1.0274e-06 -0.000999529)
(3.17522e-07 9.15871e-07 -0.000999596)
(3.01443e-07 8.16789e-07 -0.000999655)
(2.84983e-07 7.28735e-07 -0.000999705)
(2.68435e-07 6.50448e-07 -0.000999747)
(2.52033e-07 5.80819e-07 -0.000999784)
(2.35958e-07 5.18866e-07 -0.000999816)
(2.2035e-07 4.63724e-07 -0.000999843)
(2.05314e-07 4.14625e-07 -0.000999866)
(1.90922e-07 3.70894e-07 -0.000999886)
(1.77228e-07 3.3193e-07 -0.000999903)
(1.64261e-07 2.97202e-07 -0.000999917)
(1.5204e-07 2.66242e-07 -0.000999929)
(1.40567e-07 2.38633e-07 -0.000999939)
(1.29837e-07 2.14006e-07 -0.000999948)
(1.19838e-07 1.92035e-07 -0.000999955)
(1.10551e-07 1.7243e-07 -0.000999962)
(1.01952e-07 1.54935e-07 -0.000999967)
(9.40152e-08 1.39323e-07 -0.000999971)
(8.67122e-08 1.25392e-07 -0.000999975)
(8.00133e-08 1.12966e-07 -0.000999978)
(7.38884e-08 1.01888e-07 -0.000999981)
(6.8307e-08 9.20173e-08 -0.000999983)
(6.32395e-08 8.32328e-08 -0.000999985)
(5.86567e-08 7.54263e-08 -0.000999987)
(5.45312e-08 6.8503e-08 -0.000999988)
(5.08373e-08 6.23804e-08 -0.00099999)
(4.75532e-08 5.69888e-08 -0.000999991)
(4.46645e-08 5.22737e-08 -0.000999992)
(4.21751e-08 4.82016e-08 -0.000999993)
(4.01392e-08 4.47738e-08 -0.000999994)
(3.86085e-08 4.21682e-08 -0.000999995)
(3.78424e-08 4.06656e-08 -0.000999995)
)
;
    }
    procBoundary0to2
    {
        type            processor;
        value           nonuniform List<vector> 
180
(
(-1.9779e-09 2.11109e-08 -0.000999877)
(-2.66233e-09 2.52947e-08 -0.000999875)
(-3.69886e-09 3.25306e-08 -0.000999871)
(-4.93616e-09 4.18716e-08 -0.000999867)
(-6.3091e-09 5.26577e-08 -0.000999862)
(-7.79822e-09 6.4513e-08 -0.000999856)
(-9.40413e-09 7.72788e-08 -0.000999848)
(-1.11387e-08 9.09417e-08 -0.000999838)
(-1.30213e-08 1.05576e-07 -0.000999827)
(-1.50766e-08 1.21305e-07 -0.000999814)
(-1.73339e-08 1.38283e-07 -0.0009998)
(-1.98266e-08 1.56684e-07 -0.000999783)
(-2.25927e-08 1.767e-07 -0.000999764)
(-2.56749e-08 1.98544e-07 -0.000999742)
(-2.91216e-08 2.22446e-07 -0.000999717)
(-3.29871e-08 2.48661e-07 -0.00099969)
(-3.73326e-08 2.77469e-07 -0.000999659)
(-4.22273e-08 3.0918e-07 -0.000999625)
(-4.7749e-08 3.44132e-07 -0.000999586)
(-5.39857e-08 3.82702e-07 -0.000999543)
(-6.10365e-08 4.25306e-07 -0.000999496)
(-6.90133e-08 4.72403e-07 -0.000999442)
(-7.80429e-08 5.24505e-07 -0.000999383)
(-8.82684e-08 5.82175e-07 -0.000999317)
(-9.98519e-08 6.46042e-07 -0.000999244)
(-1.12977e-07 7.16805e-07 -0.000999163)
(-1.27853e-07 7.9524e-07 -0.000999072)
(-1.44717e-07 8.82207e-07 -0.000998972)
(-1.63837e-07 9.7866e-07 -0.00099886)
(-1.85523e-07 1.08566e-06 -0.000998736)
(-2.10122e-07 1.20439e-06 -0.000998598)
(-2.38035e-07 1.33615e-06 -0.000998444)
(-2.69717e-07 1.48242e-06 -0.000998274)
(-3.05686e-07 1.64482e-06 -0.000998084)
(-3.46535e-07 1.82518e-06 -0.000997872)
(-3.92941e-07 2.02553e-06 -0.000997637)
(-4.45677e-07 2.24813e-06 -0.000997375)
(-5.05625e-07 2.49553e-06 -0.000997083)
(-5.73796e-07 2.77055e-06 -0.000996758)
(-6.51342e-07 3.07635e-06 -0.000996396)
(-7.39581e-07 3.41647e-06 -0.000995992)
(-8.4002e-07 3.79486e-06 -0.000995542)
(-9.5438e-07 4.21594e-06 -0.00099504)
(-1.08463e-06 4.68466e-06 -0.000994479)
(-1.23302e-06 5.20656e-06 -0.000993855)
(-1.40211e-06 5.78782e-06 -0.000993157)
(-1.59486e-06 6.4354e-06 -0.000992378)
(-1.8146e-06 7.15706e-06 -0.000991509)
(-2.06518e-06 7.96153e-06 -0.000990537)
(-2.35099e-06 8.85857e-06 -0.000989452)
(-2.67703e-06 9.85914e-06 -0.000988238)
(-3.04904e-06 1.09755e-05 -0.000986882)
(-3.47358e-06 1.22216e-05 -0.000985364)
(-3.95812e-06 1.36127e-05 -0.000983666)
(-4.51125e-06 1.51664e-05 -0.000981765)
(-5.14276e-06 1.69022e-05 -0.000979637)
(-5.86387e-06 1.88421e-05 -0.000977252)
(-6.68741e-06 2.10109e-05 -0.00097458)
(-7.62804e-06 2.34364e-05 -0.000971584)
(-8.70256e-06 2.61501e-05 -0.000968223)
(-9.93019e-06 2.91872e-05 -0.000964452)
(-1.13329e-05 3.25876e-05 -0.000960219)
(-1.29358e-05 3.63961e-05 -0.000955465)
(-1.47678e-05 4.06635e-05 -0.000950123)
(-1.68616e-05 4.54468e-05 -0.000944119)
(-1.92549e-05 5.08104e-05 -0.000937367)
(-2.19906e-05 5.68268e-05 -0.000929771)
(-2.5117e-05 6.35768e-05 -0.00092122)
(-2.86882e-05 7.1149e-05 -0.000911591)
(-3.27614e-05 7.9634e-05 -0.000900745)
(-3.73899e-05 8.91095e-05 -0.00088853)
(-4.26036e-05 9.95982e-05 -0.00087477)
(-4.83641e-05 0.000110975 -0.000859249)
(-5.44804e-05 0.000122783 -0.000841759)
(-6.04685e-05 0.000133942 -0.000822533)
(-6.53688e-05 0.000142404 -0.000803037)
(-6.75338e-05 0.000144942 -0.000784493)
(-6.4314e-05 0.000137207 -0.000756371)
(-5.18593e-05 0.00011383 -0.000693064)
(-2.67326e-05 7.0723e-05 -0.000544745)
(-1.97732e-06 7.23945e-06 -0.00203948)
(-2.05176e-05 1.35967e-05 -2.73259e-05)
(3.09055e-05 8.27492e-05 -0.00293137)
(-2.08362e-05 8.21366e-06 -0.000242115)
(-0.000113754 -8.02676e-05 -0.00378044)
(-3.25891e-05 -1.38851e-05 -0.000345448)
(-0.000115793 -0.000217434 -0.00323707)
(-0.000183691 -0.000155605 -0.0013313)
(-0.000383361 0.000209301 -0.00251725)
(1.21599e-05 6.81328e-05 -0.000165864)
(-7.52402e-05 0.000133915 -0.00465783)
(8.71785e-05 3.13399e-05 -0.000885289)
(0.000137264 -0.000225942 -0.00220503)
(-0.000215043 -0.000267186 -0.00265972)
(-1.6964e-05 -5.99067e-05 -0.000304033)
(-0.000101719 -0.000283477 -0.00305777)
(-2.35709e-05 -0.000104639 -0.000711705)
(-1.18971e-05 -0.000143389 -0.00185308)
(-0.000213764 -1.08151e-05 -0.00251756)
(-7.05392e-05 -3.51594e-05 -0.000194749)
(0.000157545 -0.000144733 -0.00293473)
(0.000110971 -6.9253e-05 -0.000971033)
(1.85534e-05 -0.000256043 -0.00122907)
(7.39137e-05 -0.000269207 -0.000885846)
(8.93534e-05 -0.000129359 -0.000763606)
(0.000120427 -0.000115952 -0.000815323)
(0.00013258 -0.000102705 -0.000812037)
(0.000131467 -8.8356e-05 -0.000829026)
(0.00012298 -7.5287e-05 -0.000850211)
(0.000111489 -6.4197e-05 -0.000869364)