/*--------------------------------*- C++ -*----------------------------------*\
| =========                 |                                                 |
| \\      /  F ield         | OpenFOAM: The Open Source CFD Toolbox           |
|  \\    /   O peration     | Version:  5.x                                   |
|   \\  /    A nd           | Web:      www.OpenFOAM.org                      |
|    \\/     M anipulation  |                                                 |
\*---------------------------------------------------------------------------*/
FoamFile
{
    version     2.0;
    format      ascii;
    class       volVectorField;
    location    "10000";
    object      U;
}
// * * * * * * * * * * * * * * * * * * * * * * * * * * * * * * * * * * * * * //

dimensions      [0 1 -1 0 0 0 0];

internalField   nonuniform List<vector> 
180
(
(-3.5883e-10 2.13062e-08 -0.00100011)
(-5.72978e-10 2.55343e-08 -0.00100011)
(-8.84528e-10 3.28134e-08 -0.00100011)
(-1.21634e-09 4.22091e-08 -0.00100011)
(-1.55203e-09 5.30649e-08 -0.00100012)
(-1.88936e-09 6.50052e-08 -0.00100012)
(-2.22832e-09 7.78705e-08 -0.00100013)
(-2.56801e-09 9.16466e-08 -0.00100014)
(-2.90634e-09 1.06407e-07 -0.00100015)
(-3.24035e-09 1.22277e-07 -0.00100016)
(-3.56627e-09 1.39407e-07 -0.00100017)
(-3.87923e-09 1.57974e-07 -0.00100019)
(-4.17303e-09 1.7817e-07 -0.0010002)
(-4.43976e-09 2.00205e-07 -0.00100022)
(-4.66941e-09 2.2431e-07 -0.00100024)
(-4.84953e-09 2.50741e-07 -0.00100026)
(-4.96472e-09 2.79775e-07 -0.00100029)
(-4.99605e-09 3.11722e-07 -0.00100032)
(-4.92047e-09 3.4692e-07 -0.00100035)
(-4.71009e-09 3.85747e-07 -0.00100039)
(-4.33144e-09 4.28619e-07 -0.00100043)
(-3.74387e-09 4.75996e-07 -0.00100048)
(-2.89855e-09 5.28391e-07 -0.00100053)
(-1.73733e-09 5.86371e-07 -0.00100058)
(-1.91043e-10 6.50568e-07 -0.00100065)
(1.82377e-09 7.21683e-07 -0.00100072)
(4.40703e-09 8.00499e-07 -0.0010008)
(7.67372e-09 8.87883e-07 -0.00100088)
(1.17576e-08 9.84801e-07 -0.00100098)
(1.68128e-08 1.09233e-06 -0.00100109)
(2.30165e-08 1.21165e-06 -0.00100121)
(3.05749e-08 1.34411e-06 -0.00100134)
(3.97304e-08 1.49118e-06 -0.00100149)
(5.07679e-08 1.65452e-06 -0.00100166)
(6.40222e-08 1.83597e-06 -0.00100184)
(7.98842e-08 2.03759e-06 -0.00100205)
(9.88107e-08 2.26168e-06 -0.00100228)
(1.21333e-07 2.51082e-06 -0.00100253)
(1.4807e-07 2.78786e-06 -0.00100281)
(1.79744e-07 3.09601e-06 -0.00100313)
(2.17192e-07 3.43886e-06 -0.00100348)
(2.61392e-07 3.82042e-06 -0.00100388)
(3.13478e-07 4.24516e-06 -0.00100432)
(3.74768e-07 4.71812e-06 -0.00100481)
(4.46793e-07 5.2449e-06 -0.00100536)
(5.31331e-07 5.83181e-06 -0.00100597)
(6.30442e-07 6.48591e-06 -0.00100666)
(7.46522e-07 7.21512e-06 -0.00100743)
(8.82344e-07 8.02831e-06 -0.00100829)
(1.04113e-06 8.93544e-06 -0.00100925)
(1.2266e-06 9.94772e-06 -0.00101032)
(1.44308e-06 1.10777e-05 -0.00101153)
(1.69558e-06 1.23395e-05 -0.00101288)
(1.9899e-06 1.37491e-05 -0.0010144)
(2.33275e-06 1.53243e-05 -0.0010161)
(2.73191e-06 1.70852e-05 -0.00101801)
(3.19638e-06 1.90546e-05 -0.00102015)
(3.73657e-06 2.1258e-05 -0.00102256)
(4.36455e-06 2.37242e-05 -0.00102527)
(5.09426e-06 2.64858e-05 -0.00102831)
(5.94184e-06 2.95794e-05 -0.00103174)
(6.92595e-06 3.30466e-05 -0.00103559)
(8.0682e-06 3.69343e-05 -0.00103993)
(9.39355e-06 4.12956e-05 -0.00104483)
(1.09309e-05 4.61905e-05 -0.00105034)
(1.27135e-05 5.1687e-05 -0.00105657)
(1.478e-05 5.78619e-05 -0.00106359)
(1.71745e-05 6.48014e-05 -0.00107152)
(1.99472e-05 7.26001e-05 -0.00108049)
(2.3153e-05 8.13562e-05 -0.00109062)
(2.68465e-05 9.11544e-05 -0.00110209)
(3.10674e-05 0.000102023 -0.00111506)
(3.58042e-05 0.000113836 -0.00112962)
(4.09207e-05 0.000126118 -0.00114579)
(4.60239e-05 0.000137746 -0.00116411)
(5.02958e-05 0.000146589 -0.00118672)
(5.23749e-05 0.000149304 -0.00121434)
(5.05881e-05 0.000141775 -0.00122628)
(4.29016e-05 0.000118363 -0.00117153)
(2.82903e-05 7.58378e-05 -0.000968193)
(3.98546e-06 1.01061e-05 -0.00370426)
(1.36304e-05 -7.14504e-06 -1.16795e-05)
(-0.000390638 0.00012183 -0.00431885)
(-4.70888e-05 1.22247e-06 -0.000542897)
(-0.000451579 -0.000240668 -0.00460074)
(-5.19558e-05 -4.54983e-05 -0.000301233)
(-0.00068173 -0.0004469 -0.00487169)
(-0.000329438 -0.000244575 -0.00445048)
(9.11754e-06 -4.12653e-05 -0.000987666)
(0.000185037 0.000325144 -0.00496736)
(0.000176363 7.94428e-06 -0.00140767)
(0.000615355 -0.000442017 -0.00380323)
(5.18636e-05 -6.79627e-05 -0.000146298)
(0.000309354 -0.000273103 -0.00443188)
(-1.36979e-05 -0.000231318 -0.00276417)
(-3.49136e-05 -0.000101943 -0.00230734)
(9.51577e-05 -0.000108867 -0.0034779)
(0.000102798 -0.000114214 -0.00247039)
(3.42691e-05 -1.6528e-05 -0.00224727)
(-0.000153622 -5.6043e-05 -0.00362281)
(-3.98791e-05 -8.84422e-05 -0.00168059)
(-5.42593e-05 -0.000105981 -0.00326932)
(-8.08427e-05 -0.000141561 -0.00259847)
(-3.52066e-06 -4.3929e-05 -0.00106231)
(4.26753e-05 7.66522e-06 -0.00177338)
(3.65214e-06 -3.04836e-05 -0.0010164)
(-2.28317e-05 -5.28012e-05 -0.00103849)
(-3.43386e-05 -6.01527e-05 -0.00106351)
(-3.72134e-05 -5.96725e-05 -0.00106167)
(-3.55818e-05 -5.53611e-05 -0.00105083)
(-3.19193e-05 -4.94544e-05 -0.00104146)
(-2.76346e-05 -4.31992e-05 -0.00103421)
(-2.34562e-05 -3.7251e-05 -0.0010282)
(-1.96861e-05 -3.18889e-05 -0.00102304)
(-1.64014e-05 -2.71815e-05 -0.00101864)
(-1.35843e-05 -2.31011e-05 -0.00101492)
(-1.1186e-05 -1.95859e-05 -0.0010118)
(-9.15299e-06 -1.65672e-05 -0.00100919)
(-7.43496e-06 -1.39803e-05 -0.00100701)
(-5.98738e-06 -1.17669e-05 -0.0010052)
(-4.77144e-06 -9.876e-06 -0.0010037)
(-3.7535e-06 -8.263e-06 -0.00100248)
(-2.90453e-06 -6.88933e-06 -0.00100147)
(-2.19953e-06 -5.72153e-06 -0.00100066)
(-1.61697e-06 -4.73063e-06 -0.00100001)
(-1.13844e-06 -3.89162e-06 -0.000999493)
(-7.48112e-07 -3.1829e-06 -0.00099909)
(-4.3218e-07 -2.58569e-06 -0.000998782)
(-1.7873e-07 -2.08372e-06 -0.000998556)
(2.24016e-08 -1.66302e-06 -0.000998395)
(1.79925e-07 -1.31152e-06 -0.00099829)
(3.01327e-07 -1.01879e-06 -0.00099823)
(3.92973e-07 -7.75885e-07 -0.000998207)
(4.60317e-07 -5.75088e-07 -0.000998215)
(5.08042e-07 -4.09738e-07 -0.000998246)
(5.39992e-07 -2.74189e-07 -0.000998295)
(5.59177e-07 -1.63711e-07 -0.000998355)
(5.68148e-07 -7.42348e-08 -0.000998422)
(5.68677e-07 -2.44228e-09 -0.000998495)
(5.62534e-07 5.47055e-08 -0.00099857)
(5.51129e-07 9.95949e-08 -0.000998647)
(5.356e-07 1.34151e-07 -0.000998722)
(5.16926e-07 1.60045e-07 -0.000998796)
(4.95929e-07 1.78702e-07 -0.000998868)
(4.73308e-07 1.91353e-07 -0.000998938)
(4.49648e-07 1.9906e-07 -0.000999005)
(4.25434e-07 2.02733e-07 -0.000999071)
(4.01066e-07 2.03149e-07 -0.000999133)
(3.7687e-07 2.00973e-07 -0.000999193)
(3.53105e-07 1.96767e-07 -0.00099925)
(3.29974e-07 1.91006e-07 -0.000999304)
(3.07634e-07 1.84087e-07 -0.000999355)
(2.86199e-07 1.76341e-07 -0.000999403)
(2.6575e-07 1.68044e-07 -0.000999449)
(2.46339e-07 1.59417e-07 -0.000999491)
(2.27995e-07 1.50644e-07 -0.000999532)
(2.10726e-07 1.4187e-07 -0.000999569)
(1.94529e-07 1.3321e-07 -0.000999604)
(1.79384e-07 1.24754e-07 -0.000999637)
(1.65267e-07 1.1657e-07 -0.000999667)
(1.52143e-07 1.0871e-07 -0.000999696)
(1.39974e-07 1.0121e-07 -0.000999722)
(1.28719e-07 9.40955e-08 -0.000999747)
(1.18335e-07 8.73806e-08 -0.000999769)
(1.08778e-07 8.10729e-08 -0.00099979)
(1.00003e-07 7.51736e-08 -0.00099981)
(9.19658e-08 6.96787e-08 -0.000999827)
(8.46239e-08 6.45808e-08 -0.000999844)
(7.79355e-08 5.98694e-08 -0.000999859)
(7.1861e-08 5.5532e-08 -0.000999873)
(6.63626e-08 5.15545e-08 -0.000999886)
(6.14046e-08 4.79223e-08 -0.000999898)
(5.69538e-08 4.46203e-08 -0.000999909)
(5.29804e-08 4.16341e-08 -0.000999919)
(4.94589e-08 3.89517e-08 -0.000999929)
(4.63723e-08 3.6568e-08 -0.000999937)
(4.37237e-08 3.4496e-08 -0.000999945)
(4.1548e-08 3.27767e-08 -0.000999953)
(3.9941e-08 3.15026e-08 -0.000999961)
(3.90958e-08 3.08474e-08 -0.000999967)
)
;

boundaryField
{
    inlet
    {
        type            zeroGradient;
    }
    outlet
    {
        type            zeroGradient;
    }
    repeat_boundary
    {
        type            slip;
    }
    procBoundary0to1
    {
        type            processor;
        value           nonuniform List<vector> 
180
(
(-3.58831e-10 1.96187e-08 -0.00100011)
(-5.72978e-10 2.33194e-08 -0.00100011)
(-8.84528e-10 2.98155e-08 -0.00100012)
(-1.21634e-09 3.82402e-08 -0.00100012)
(-1.55203e-09 4.79848e-08 -0.00100012)
(-1.88936e-09 5.86903e-08 -0.00100013)
(-2.22832e-09 7.01955e-08 -0.00100014)
(-2.56801e-09 8.24724e-08 -0.00100014)
(-2.90634e-09 9.55724e-08 -0.00100015)
(-3.24035e-09 1.09591e-07 -0.00100016)
(-3.56627e-09 1.24648e-07 -0.00100018)
(-3.87923e-09 1.40879e-07 -0.00100019)
(-4.17304e-09 1.58432e-07 -0.00100021)
(-4.43976e-09 1.77467e-07 -0.00100022)
(-4.66942e-09 1.98159e-07 -0.00100024)
(-4.84954e-09 2.20694e-07 -0.00100027)
(-4.96472e-09 2.45275e-07 -0.00100029)
(-4.99607e-09 2.72122e-07 -0.00100032)
(-4.92048e-09 3.01474e-07 -0.00100035)
(-4.71011e-09 3.3359e-07 -0.00100038)
(-4.33147e-09 3.68752e-07 -0.00100042)
(-3.7439e-09 4.07266e-07 -0.00100046)
(-2.89859e-09 4.49466e-07 -0.00100051)
(-1.73739e-09 4.95713e-07 -0.00100056)
(-1.91121e-10 5.46401e-07 -0.00100061)
(1.82366e-09 6.01958e-07 -0.00100067)
(4.40689e-09 6.62845e-07 -0.00100073)
(7.67353e-09 7.29568e-07 -0.00100081)
(1.17574e-08 8.02675e-07 -0.00100088)
(1.68125e-08 8.82761e-07 -0.00100097)
(2.3016e-08 9.70475e-07 -0.00100106)
(3.05743e-08 1.06652e-06 -0.00100117)
(3.97296e-08 1.17165e-06 -0.00100128)
(5.07668e-08 1.2867e-06 -0.0010014)
(6.40207e-08 1.41254e-06 -0.00100154)
(7.98822e-08 1.55012e-06 -0.00100168)
(9.88079e-08 1.70049e-06 -0.00100184)
(1.21329e-07 1.86474e-06 -0.00100201)
(1.48065e-07 2.04406e-06 -0.0010022)
(1.79737e-07 2.23971e-06 -0.00100241)
(2.17183e-07 2.45305e-06 -0.00100263)
(2.6138e-07 2.68554e-06 -0.00100287)
(3.13462e-07 2.93869e-06 -0.00100313)
(3.74746e-07 3.21414e-06 -0.00100341)
(4.46763e-07 3.51361e-06 -0.00100372)
(5.3129e-07 3.8389e-06 -0.00100405)
(6.30387e-07 4.19191e-06 -0.00100441)
(7.46448e-07 4.57459e-06 -0.00100479)
(8.82244e-07 4.98898e-06 -0.0010052)
(1.04099e-06 5.43718e-06 -0.00100565)
(1.22642e-06 5.9213e-06 -0.00100612)
(1.44284e-06 6.4435e-06 -0.00100662)
(1.69526e-06 7.00588e-06 -0.00100716)
(1.98947e-06 7.61052e-06 -0.00100774)
(2.33217e-06 8.2594e-06 -0.00100834)
(2.73113e-06 8.95433e-06 -0.00100898)
(3.19533e-06 9.69691e-06 -0.00100965)
(3.73517e-06 1.04884e-05 -0.00101035)
(4.36267e-06 1.13297e-05 -0.00101108)
(5.09175e-06 1.22211e-05 -0.00101183)
(5.93848e-06 1.31623e-05 -0.0010126)
(6.92146e-06 1.41521e-05 -0.00101337)
(8.06219e-06 1.51881e-05 -0.00101416)
(9.38551e-06 1.62669e-05 -0.00101493)
(1.09201e-05 1.73832e-05 -0.00101567)
(1.26992e-05 1.853e-05 -0.00101637)
(1.47608e-05 1.96976e-05 -0.00101701)
(1.71487e-05 2.08736e-05 -0.00101756)
(1.99123e-05 2.20418e-05 -0.001018)
(2.31051e-05 2.31804e-05 -0.00101827)
(2.67794e-05 2.42584e-05 -0.00101837)
(3.09708e-05 2.52291e-05 -0.00101823)
(3.56616e-05 2.60151e-05 -0.0010177)
(4.07083e-05 2.64827e-05 -0.00101663)
(4.57149e-05 2.64136e-05 -0.00101537)
(4.9877e-05 2.55013e-05 -0.00101572)
(5.18569e-05 2.34849e-05 -0.00101799)
(5.00931e-05 2.02703e-05 -0.00100429)
(4.27098e-05 1.62483e-05 -0.000935653)
(2.86212e-05 1.19444e-05 -0.000777442)
(3.96419e-06 -3.82124e-06 -0.00321637)
(1.08667e-05 4.84982e-06 3.84656e-05)
(-0.000222872 0.000319789 -0.00394652)
(-9.80207e-05 0.000125287 -0.0026517)
(-4.80517e-05 -3.66976e-05 -0.00116865)
(-0.00027679 4.66289e-05 -0.00513339)
(-6.5919e-05 -1.28566e-05 -0.000531092)
(-0.000899443 -0.000405419 -0.00517755)
(1.64169e-06 3.00475e-05 -5.75307e-05)
(0.000589096 -0.000859695 -0.00465871)
(2.5997e-05 5.78892e-06 -0.000173176)
(0.000392484 -0.000454886 -0.00419461)
(8.56525e-05 -0.000279813 -0.00157455)
(0.000187946 -0.000645469 -0.00468311)
(3.92973e-06 -7.77409e-05 -0.00070478)
(-5.2453e-05 -0.000316185 -0.00292869)
(0.000177052 -0.000508123 -0.00181591)
(1.00362e-05 5.20373e-05 -0.000341759)
(1.67755e-05 -5.2826e-05 -0.00286859)
(-3.39141e-05 5.12418e-05 -0.00062566)
(-0.00011636 0.000163463 -0.00225358)
(-4.72656e-05 0.000148024 -0.00138095)
(-9.9596e-05 -2.8019e-05 -0.00134711)
(-3.88723e-05 -1.02202e-05 -0.00109485)
(5.50854e-06 3.08449e-05 -0.000988796)
(-2.13875e-05 7.37049e-05 -0.000908482)
(-3.80659e-05 0.000100033 -0.000869066)
(-4.29122e-05 0.000109714 -0.000875458)
(-4.15667e-05 0.000108417 -0.000892328)
(-3.76606e-05 0.000101338 -0.000906617)
(-3.28932e-05 9.19003e-05 -0.000918391)
(-2.81102e-05 8.20339e-05 -0.00092874)
(-2.3713e-05 7.26653e-05 -0.000937946)
(-1.98424e-05 6.41483e-05 -0.000946044)
(-1.65058e-05 5.65565e-05 -0.000953111)
(-1.36578e-05 4.9846e-05 -0.000959264)
(-1.1239e-05 4.39341e-05 -0.000964622)
(-9.19142e-06 3.87315e-05 -0.000969284)
(-7.4629e-06 3.4154e-05 -0.000973341)
(-6.00768e-06 3.01262e-05 -0.00097687)
(-4.78616e-06 2.65814e-05 -0.000979938)
(-3.76415e-06 2.34609e-05 -0.000982605)
(-2.91222e-06 2.07133e-05 -0.000984923)
(-2.20506e-06 1.82934e-05 -0.000986937)
(-1.62094e-06 1.61616e-05 -0.000988687)
(-1.14128e-06 1.42833e-05 -0.000990208)
(-7.50138e-07 1.26278e-05 -0.000991529)
(-4.33618e-07 1.11683e-05 -0.000992674)
(-1.79746e-07 9.8813e-06 -0.000993665)
(2.16864e-08 8.74592e-06 -0.000994523)
(1.79425e-07 7.74397e-06 -0.000995265)
(3.00978e-07 6.85941e-06 -0.000995906)
(3.92732e-07 6.07813e-06 -0.000996459)
(4.60151e-07 5.38773e-06 -0.000996935)
(5.07928e-07 4.77728e-06 -0.000997345)
(5.39915e-07 4.23722e-06 -0.000997699)
(5.59125e-07 3.75926e-06 -0.000998007)
(5.68113e-07 3.33612e-06 -0.000998275)
(5.68654e-07 2.96155e-06 -0.00099851)
(5.62519e-07 2.62993e-06 -0.000998715)
(5.51118e-07 2.33628e-06 -0.000998893)
(5.35592e-07 2.0762e-06 -0.000999047)
(5.16921e-07 1.84579e-06 -0.000999181)
(4.95926e-07 1.64161e-06 -0.000999297)
(4.73305e-07 1.46062e-06 -0.000999397)
(4.49646e-07 1.30013e-06 -0.000999484)
(4.25432e-07 1.15776e-06 -0.000999558)
(4.01065e-07 1.03142e-06 -0.000999622)
(3.76869e-07 9.19265e-07 -0.000999677)
(3.53104e-07 8.19658e-07 -0.000999724)
(3.29973e-07 7.31161e-07 -0.000999764)
(3.07633e-07 6.52501e-07 -0.000999799)
(2.86198e-07 5.82557e-07 -0.000999829)
(2.65749e-07 5.20339e-07 -0.000999854)
(2.46338e-07 4.64971e-07 -0.000999876)
(2.27994e-07 4.15681e-07 -0.000999894)
(2.10726e-07 3.71786e-07 -0.00099991)
(1.94529e-07 3.32682e-07 -0.000999924)
(1.79384e-07 2.97835e-07 -0.000999936)
(1.65267e-07 2.66773e-07 -0.000999946)
(1.52142e-07 2.39077e-07 -0.000999954)
(1.39974e-07 2.14377e-07 -0.000999961)
(1.28719e-07 1.92345e-07 -0.000999968)
(1.18335e-07 1.72691e-07 -0.000999973)
(1.08778e-07 1.55157e-07 -0.000999978)
(1.00003e-07 1.39516e-07 -0.000999982)
(9.19657e-08 1.25566e-07 -0.000999985)
(8.46238e-08 1.13127e-07 -0.000999988)
(7.79355e-08 1.02041e-07 -0.00099999)
(7.1861e-08 9.21694e-08 -0.000999992)
(6.63626e-08 8.33873e-08 -0.000999993)
(6.14045e-08 7.55857e-08 -0.000999994)
(5.69538e-08 6.86686e-08 -0.000999995)
(5.29804e-08 6.25524e-08 -0.000999996)
(4.94589e-08 5.71661e-08 -0.000999997)
(4.63723e-08 5.24546e-08 -0.000999997)
(4.37236e-08 4.83831e-08 -0.000999997)
(4.15479e-08 4.4972e-08 -0.000999997)
(3.99409e-08 4.23571e-08 -0.000999996)
(3.90958e-08 4.08861e-08 -0.000999996)
)
;
    }
    procBoundary0to2
    {
        type            processor;
        value           nonuniform List<vector> 
180
(
(-2.04637e-09 2.13061e-08 -0.000999882)
(-2.78787e-09 2.55342e-08 -0.000999879)
(-3.88243e-09 3.28132e-08 -0.000999876)
(-5.18519e-09 4.22088e-08 -0.000999871)
(-6.63216e-09 5.30646e-08 -0.000999865)
(-8.20424e-09 6.50048e-08 -0.000999859)
(-9.90323e-09 7.787e-08 -0.00099985)
(-1.17421e-08 9.16461e-08 -0.00099984)
(-1.37412e-08 1.06407e-07 -0.000999828)
(-1.59259e-08 1.22276e-07 -0.000999815)
(-1.83259e-08 1.39407e-07 -0.0009998)
(-2.0975e-08 1.57973e-07 -0.000999782)
(-2.39111e-08 1.78169e-07 -0.000999762)
(-2.71769e-08 2.00203e-07 -0.00099974)
(-3.08205e-08 2.24309e-07 -0.000999715)
(-3.4896e-08 2.50739e-07 -0.000999687)
(-3.94646e-08 2.79772e-07 -0.000999656)
(-4.45953e-08 3.11719e-07 -0.000999621)
(-5.03666e-08 3.46917e-07 -0.000999583)
(-5.6867e-08 3.85743e-07 -0.000999539)
(-6.41974e-08 4.28613e-07 -0.000999491)
(-7.24722e-08 4.75989e-07 -0.000999438)
(-8.18213e-08 5.28382e-07 -0.000999379)
(-9.23925e-08 5.86361e-07 -0.000999312)
(-1.04354e-07 6.50555e-07 -0.000999239)
(-1.17898e-07 7.21668e-07 -0.000999157)
(-1.33242e-07 8.0048e-07 -0.000999066)
(-1.50634e-07 8.87859e-07 -0.000998965)
(-1.70359e-07 9.84771e-07 -0.000998852)
(-1.9274e-07 1.09229e-06 -0.000998726)
(-2.18146e-07 1.21161e-06 -0.000998586)
(-2.46996e-07 1.34405e-06 -0.000998431)
(-2.79773e-07 1.49111e-06 -0.000998257)
(-3.17023e-07 1.65443e-06 -0.000998064)
(-3.59371e-07 1.83586e-06 -0.000997849)
(-4.07532e-07 2.03746e-06 -0.00099761)
(-4.62321e-07 2.26152e-06 -0.000997343)
(-5.24667e-07 2.51061e-06 -0.000997045)
(-5.95633e-07 2.7876e-06 -0.000996714)
(-6.76434e-07 3.0957e-06 -0.000996344)
(-7.68456e-07 3.43847e-06 -0.000995932)
(-8.73285e-07 3.81993e-06 -0.000995471)
(-9.92733e-07 4.24455e-06 -0.000994958)
(-1.12887e-06 4.71736e-06 -0.000994385)
(-1.28407e-06 5.24395e-06 -0.000993745)
(-1.46104e-06 5.83063e-06 -0.000993031)
(-1.66288e-06 6.48444e-06 -0.000992233)
(-1.89313e-06 7.21328e-06 -0.000991341)
(-2.15586e-06 8.02601e-06 -0.000990344)
(-2.4557e-06 8.93257e-06 -0.000989229)
(-2.79798e-06 9.94412e-06 -0.000987981)
(-3.18879e-06 1.10732e-05 -0.000986585)
(-3.63509e-06 1.23339e-05 -0.000985021)
(-4.14487e-06 1.3742e-05 -0.00098327)
(-4.72728e-06 1.53154e-05 -0.000981308)
(-5.39279e-06 1.70741e-05 -0.000979107)
(-6.15342e-06 1.90406e-05 -0.00097664)
(-7.02293e-06 2.12403e-05 -0.000973871)
(-8.01708e-06 2.37019e-05 -0.000970763)
(-9.15397e-06 2.64576e-05 -0.000967272)
(-1.04543e-05 2.95439e-05 -0.00096335)
(-1.19419e-05 3.30018e-05 -0.000958941)
(-1.36439e-05 3.68776e-05 -0.000953982)
(-1.55917e-05 4.12239e-05 -0.000948402)
(-1.7821e-05 4.60996e-05 -0.00094212)
(-2.03729e-05 5.15718e-05 -0.000935044)
(-2.32943e-05 5.77157e-05 -0.00092707)
(-2.66385e-05 6.46156e-05 -0.000918078)
(-3.04651e-05 7.23637e-05 -0.000907933)
(-3.48381e-05 8.10551e-05 -0.000896485)
(-3.98182e-05 9.07712e-05 -0.000883565)
(-4.54438e-05 0.000101538 -0.000868979)
(-5.16858e-05 0.000113231 -0.000852492)
(-5.83622e-05 0.000125393 -0.000833872)
(-6.49984e-05 0.000136942 -0.000813327)
(-7.06484e-05 0.000145835 -0.000792297)
(-7.36891e-05 0.000148872 -0.000771975)
(-7.15155e-05 0.000141771 -0.000741784)
(-6.03427e-05 0.000119265 -0.000676098)
(-3.65723e-05 7.71557e-05 -0.000531118)
(-9.41307e-06 1.0538e-05 -0.00209061)
(2.12277e-05 -1.02988e-05 5.47388e-05)
(2.92517e-05 8.08829e-05 -0.00321509)
(3.8142e-05 -2.39146e-06 -0.000227579)
(-0.000121855 -9.6697e-05 -0.00396964)
(6.30397e-05 -3.12596e-05 -0.000306159)
(-0.000125478 -0.000237225 -0.00334754)
(-0.000218848 -0.000184858 -0.00130525)
(-0.000441504 0.000186484 -0.00271376)
(3.24307e-05 2.02153e-05 -0.000126569)
(-0.000111503 5.33686e-05 -0.00503166)
(-1.1265e-05 -4.10097e-06 -0.000920269)
(3.36724e-05 -0.000214949 -0.00223685)
(-0.000327075 -0.000228308 -0.00263989)
(-4.9542e-05 1.16466e-05 -0.000169567)
(-0.000232716 -0.000255943 -0.00289148)
(-5.09191e-05 9.32007e-07 -0.000672649)
(-3.41993e-05 -9.99908e-05 -0.00174911)
(-0.000118395 -1.60706e-05 -0.00219704)
(9.5386e-05 1.93106e-05 -0.000603269)
(0.000177266 -6.196e-05 -0.00253437)
(0.000155594 4.86524e-05 -0.000893764)
(5.96466e-05 -0.000199149 -0.00113204)
(0.000103669 -0.00024994 -0.000837185)
(0.000116451 -0.000115104 -0.00073983)
(0.000142048 -0.000107997 -0.000790475)
(0.00015163 -9.62981e-05 -0.000790842)
(0.000148354 -8.30448e-05 -0.000810197)
(0.000137922 -7.0872e-05 -0.000833478)
(0.000124674 -6.05261e-05 -0.000854529)
(0.000111086 -5.17409e-05 -0.000872756)
(9.83051e-05 -4.42013e-05 -0.000888717)
(8.67407e-05 -3.77072e-05 -0.000902752)
(7.64555e-05 -3.21168e-05 -0.000915062)
(6.73735e-05 -2.73106e-05 -0.000925831)
(5.93758e-05 -2.31831e-05 -0.000935242)
(5.23388e-05 -1.96419e-05 -0.000943464)
(4.61479e-05 -1.6607e-05 -0.000950646)
(4.07006e-05 -1.4009e-05 -0.000956918)
(3.59066e-05 -1.17877e-05 -0.000962396)
(3.16865e-05 -9.89104e-06 -0.000967179)
(2.79709e-05 -8.27389e-06 -0.000971355)
(2.46985e-05 -6.8972e-06 -0.000975001)
(2.18157e-05 -5.72719e-06 -0.000978184)
(1.92755e-05 -4.7347e-06 -0.000980962)
(1.70366e-05 -3.89454e-06 -0.000983386)
(1.50627e-05 -3.18498e-06 -0.000985502)
(1.3322e-05 -2.58716e-06 -0.000987348)
(1.17864e-05 -2.08477e-06 -0.000988959)
(1.04314e-05 -1.66376e-06 -0.000990365)
(9.23548e-06 -1.31203e-06 -0.000991592)
(8.17958e-06 -1.01915e-06 -0.000992662)
(7.24703e-06 -7.76134e-07 -0.000993595)
(6.42317e-06 -5.7526e-07 -0.00099441)
(5.69509e-06 -4.09856e-07 -0.00099512)
(5.05142e-06 -2.74269e-07 -0.000995739)
(4.48217e-06 -1.63765e-07 -0.000996278)
(3.97852e-06 -7.42718e-08 -0.000996748)
(3.53268e-06 -2.4673e-09 -0.000997156)
(3.13777e-06 5.46885e-08 -0.000997512)
(2.78782e-06 9.95832e-08 -0.000997822)
(2.47766e-06 1.34143e-07 -0.000998095)
(2.20268e-06 1.6004e-07 -0.000998334)
(1.95885e-06 1.78698e-07 -0.000998543)
(1.74258e-06 1.9135e-07 -0.000998727)
(1.55072e-06 1.99058e-07 -0.000998887)
(1.38046e-06 2.02731e-07 -0.000999028)
(1.22934e-06 2.03148e-07 -0.000999151)
(1.09516e-06 2.00972e-07 -0.000999258)
(9.75997e-07 1.96767e-07 -0.000999352)
(8.7013e-07 1.91005e-07 -0.000999434)
(7.76048e-07 1.84086e-07 -0.000999506)
(6.92415e-07 1.76341e-07 -0.000999568)
(6.18045e-07 1.68043e-07 -0.000999623)
(5.51893e-07 1.59417e-07 -0.000999671)
(4.93031e-07 1.50644e-07 -0.000999712)
(4.40642e-07 1.4187e-07 -0.000999749)
(3.94001e-07 1.3321e-07 -0.000999781)
(3.52466e-07 1.24754e-07 -0.000999808)
(3.15469e-07 1.1657e-07 -0.000999833)
(2.82509e-07 1.0871e-07 -0.000999854)
(2.5314e-07 1.0121e-07 -0.000999873)
(2.26969e-07 9.40954e-08 -0.000999889)
(2.03646e-07 8.73805e-08 -0.000999903)
(1.82863e-07 8.10728e-08 -0.000999916)
(1.64346e-07 7.51735e-08 -0.000999927)
(1.47853e-07 6.96787e-08 -0.000999937)
(1.3317e-07 6.45808e-08 -0.000999945)
(1.20107e-07 5.98694e-08 -0.000999952)
(1.08498e-07 5.55319e-08 -0.000999959)
(9.81953e-08 5.15545e-08 -0.000999965)
(8.90679e-08 4.79223e-08 -0.00099997)
(8.10022e-08 4.46203e-08 -0.000999974)
(7.38987e-08 4.1634e-08 -0.000999978)
(6.76733e-08 3.89517e-08 -0.000999981)
(6.22589e-08 3.6568e-08 -0.000999984)
(5.76108e-08 3.44959e-08 -0.000999986)
(5.37432e-08 3.27767e-08 -0.000999989)
(5.07954e-08 3.15026e-08 -0.000999991)
(4.91345e-08 3.08474e-08 -0.000999993)
)
;
    }
}


// ************************************************************************* //
