/*--------------------------------*- C++ -*----------------------------------*\
| =========                 |                                                 |
| \\      /  F ield         | OpenFOAM: The Open Source CFD Toolbox           |
|  \\    /   O peration     | Version:  5.x                                   |
|   \\  /    A nd           | Web:      www.OpenFOAM.org                      |
|    \\/     M anipulation  |                                                 |
\*---------------------------------------------------------------------------*/
FoamFile
{
    version     2.0;
    format      ascii;
    class       surfaceScalarField;
    location    "800";
    object      phi;
}
// * * * * * * * * * * * * * * * * * * * * * * * * * * * * * * * * * * * * * //

dimensions      [0 3 -1 0 0 0 0];

internalField   nonuniform List<scalar> 
89
(
-0.0249994
-0.0249994
-0.0249993
-0.0249992
-0.024999
-0.0249989
-0.0249987
-0.0249985
-0.0249982
-0.0249979
-0.0249976
-0.0249972
-0.0249968
-0.0249964
-0.0249959
-0.0249954
-0.024995
-0.0249947
-0.0249945
-0.0249947
-0.0249953
-0.0249967
-0.0249991
-0.0250032
-0.0250095
-0.0250192
-0.0250335
-0.0250544
-0.0250842
-0.0251265
-0.0251859
-0.0252688
-0.025384
-0.025544
-0.0257664
-0.0260538
-0.0263977
-0.0267375
-0.0270725
-0.026215
-0.0262447
-0.0265078
-0.0267387
-0.0271203
-0.0272638
-0.0274842
-0.0279632
-0.0284652
-0.0285645
-0.0287211
-0.0287168
-0.0287675
-0.0287108
-0.0282077
-0.0275697
-0.0270123
-0.0265736
-0.0262314
-0.0259647
-0.0257566
-0.0255943
-0.0254673
-0.025368
-0.0252902
-0.0252291
-0.0251811
-0.0251434
-0.0251137
-0.0250902
-0.0250717
-0.0250571
-0.0250455
-0.0250363
-0.025029
-0.0250232
-0.0250186
-0.0250149
-0.025012
-0.0250096
-0.0250077
-0.0250062
-0.025005
-0.025004
-0.0250032
-0.0250025
-0.0250019
-0.0250015
-0.0250011
-0.0250007
)
;

boundaryField
{
    inlet
    {
        type            calculated;
        value           uniform -0.0250004;
    }
    outlet
    {
        type            calculated;
        value           uniform 0.0249995;
    }
    repeat_boundary
    {
        type            calculated;
        value           uniform 0;
    }
    procBoundary1to0
    {
        type            processor;
        value           nonuniform List<scalar> 
90
(
-8.89762e-09
-1.2534e-08
-1.7488e-08
-2.28862e-08
-2.85561e-08
-3.43996e-08
-4.02578e-08
-4.58464e-08
-5.06318e-08
-5.37163e-08
-5.39107e-08
-4.9802e-08
-3.9852e-08
-2.36579e-08
7.27329e-09
7.25422e-08
1.67127e-07
3.06548e-07
5.0964e-07
8.01702e-07
1.21714e-06
1.80263e-06
2.62076e-06
3.75464e-06
5.32018e-06
7.472e-06
1.0418e-05
1.44376e-05
1.99058e-05
2.73261e-05
3.73746e-05
5.0962e-05
6.93726e-05
9.46782e-05
0.000129643
0.000165335
0.000194032
0.000182301
0.000191064
-0.000535768
1.87956e-05
0.000191303
9.81396e-05
0.000290783
0.000272026
0.000221857
0.00018009
4.82338e-05
-9.14287e-05
0.000164788
7.18127e-05
-1.74396e-05
-1.89342e-06
-0.0002396
-0.000330165
-0.000297766
-0.000236388
-0.000186189
-0.000146596
-0.000115501
-9.11089e-05
-7.19604e-05
-5.69097e-05
-4.50648e-05
-3.57314e-05
-2.83676e-05
-2.25505e-05
-1.79494e-05
-1.43055e-05
-1.14161e-05
-9.1224e-06
-7.29955e-06
-5.84978e-06
-4.69526e-06
-3.77426e-06
-3.03779e-06
-2.44853e-06
-1.97635e-06
-1.59744e-06
-1.29301e-06
-1.04821e-06
-8.51285e-07
-6.92948e-07
-5.65836e-07
-4.64121e-07
-3.83165e-07
-3.19126e-07
-2.68528e-07
-2.29092e-07
-2.11191e-07
)
;
    }
    procBoundary1to3
    {
        type            processor;
        value           nonuniform List<scalar> 
90
(
-1.75572e-08
-3.02684e-08
-4.605e-08
-6.37354e-08
-8.36518e-08
-1.06291e-07
-1.3215e-07
-1.61702e-07
-1.95403e-07
-2.3365e-07
-2.76726e-07
-3.24718e-07
-3.77395e-07
-4.34048e-07
-4.93329e-07
-5.52734e-07
-6.07642e-07
-6.51081e-07
-6.72343e-07
-6.55391e-07
-5.81249e-07
-4.3404e-07
-2.16834e-07
2.99674e-07
1.05737e-06
2.20899e-06
3.9112e-06
6.38677e-06
9.93829e-06
1.49781e-05
2.20689e-05
3.19829e-05
4.58209e-05
6.53223e-05
9.28453e-05
0.000122032
0.000149848
0.000157429
0.000144002
-0.000321693
1.08205e-05
7.18838e-05
0.000132701
9.07964e-05
-0.000128531
-1.45069e-06
0.000298958
0.000453823
0.000190787
-8.29742e-06
-7.6003e-05
6.81121e-05
-5.47523e-05
-0.000263481
-0.00030792
-0.000259609
-0.000202346
-0.000156025
-0.000120164
-9.2521e-05
-7.12683e-05
-5.49562e-05
-4.2409e-05
-3.27509e-05
-2.53121e-05
-1.95792e-05
-1.51585e-05
-1.17476e-05
-9.11452e-06
-7.08048e-06
-5.50797e-06
-4.29113e-06
-3.34845e-06
-2.61726e-06
-2.04938e-06
-1.60771e-06
-1.26362e-06
-9.9506e-07
-7.85028e-07
-6.20443e-07
-4.91238e-07
-3.89663e-07
-3.09752e-07
-2.46896e-07
-1.97537e-07
-1.58929e-07
-1.28913e-07
-1.05732e-07
-8.83341e-08
-8.05324e-08
)
;
    }
}


// ************************************************************************* //
