/*--------------------------------*- C++ -*----------------------------------*\
| =========                 |                                                 |
| \\      /  F ield         | OpenFOAM: The Open Source CFD Toolbox           |
|  \\    /   O peration     | Version:  5.x                                   |
|   \\  /    A nd           | Web:      www.OpenFOAM.org                      |
|    \\/     M anipulation  |                                                 |
\*---------------------------------------------------------------------------*/
FoamFile
{
    version     2.0;
    format      ascii;
    class       volVectorField;
    location    "800";
    object      U;
}
// * * * * * * * * * * * * * * * * * * * * * * * * * * * * * * * * * * * * * //

dimensions      [0 1 -1 0 0 0 0];

internalField   nonuniform List<vector> 
90
(
(1.84116e-09 -3.42135e-09 -0.000999978)
(2.6675e-09 -5.89054e-09 -0.000999976)
(3.76004e-09 -8.93187e-09 -0.000999973)
(4.93827e-09 -1.22981e-08 -0.00099997)
(6.16932e-09 -1.60416e-08 -0.000999965)
(7.43565e-09 -2.02562e-08 -0.000999959)
(8.70512e-09 -2.5041e-08 -0.000999952)
(9.92052e-09 -3.04946e-08 -0.000999943)
(1.0989e-08 -3.6711e-08 -0.000999934)
(1.17673e-08 -4.37728e-08 -0.000999923)
(1.2041e-08 -5.17408e-08 -0.00099991)
(1.14959e-08 -6.06376e-08 -0.000999896)
(9.68158e-09 -7.04244e-08 -0.000999881)
(5.96643e-09 -8.097e-08 -0.000999864)
(-5.07289e-10 -9.20144e-08 -0.000999845)
(-1.0952e-08 -1.03083e-07 -0.000999826)
(-2.71667e-08 -1.13341e-07 -0.000999808)
(-5.16015e-08 -1.21508e-07 -0.000999793)
(-8.76179e-08 -1.2566e-07 -0.000999782)
(-1.39822e-07 -1.2296e-07 -0.000999781)
(-2.14515e-07 -1.0928e-07 -0.000999796)
(-3.20274e-07 -7.87261e-08 -0.000999834)
(-4.68658e-07 -2.31518e-08 -0.000999907)
(-6.75129e-07 6.84788e-08 -0.00100003)
(-9.61104e-07 2.12585e-07 -0.00100024)
(-1.35534e-06 4.31558e-07 -0.00100055)
(-1.89662e-06 7.56278e-07 -0.00100102)
(-2.63721e-06 1.22917e-06 -0.00100171)
(-3.64749e-06 1.90837e-06 -0.0010027)
(-5.02227e-06 2.87339e-06 -0.0010041)
(-6.88923e-06 4.233e-06 -0.00100607)
(-9.42148e-06 6.13708e-06 -0.00100891)
(-1.2868e-05 8.80288e-06 -0.00101328)
(-1.7642e-05 1.25859e-05 -0.00101943)
(-2.43382e-05 1.80064e-05 -0.00102226)
(-3.04871e-05 2.31395e-05 -0.0010146)
(-3.62425e-05 2.9193e-05 -0.00104605)
(-3.43245e-05 3.00096e-05 -0.00128116)
(-2.88928e-05 2.30196e-05 -0.000363957)
(8.4583e-05 -5.15199e-05 -0.0025915)
(-2.33639e-06 3.68026e-06 -0.00119322)
(-6.40184e-05 2.51279e-05 -0.00303205)
(-1.97662e-05 3.32047e-05 -0.00181796)
(-8.41952e-05 3.69262e-05 -0.00330578)
(-6.37734e-05 -2.22366e-05 -0.00216286)
(-7.78868e-05 6.82943e-06 -0.00330395)
(-3.75049e-05 7.72209e-05 -0.00196071)
(-1.44121e-05 0.000154621 -0.00332716)
(3.14437e-05 6.53318e-05 -0.00233215)
(-3.48696e-05 3.25969e-06 -0.00276128)
(-1.94322e-05 -3.93694e-06 -0.00266093)
(1.10601e-05 2.93343e-05 -0.00168993)
(-5.87875e-06 1.09833e-05 -0.0024813)
(7.01568e-05 -4.67883e-05 -0.00108584)
(7.54979e-05 -5.73412e-05 -0.00107487)
(6.094e-05 -4.82054e-05 -0.00108751)
(4.70729e-05 -3.71513e-05 -0.00107218)
(3.69206e-05 -2.86178e-05 -0.0010559)
(2.90249e-05 -2.20414e-05 -0.00104349)
(2.2835e-05 -1.69705e-05 -0.00103406)
(1.79825e-05 -1.30693e-05 -0.00102674)
(1.41772e-05 -1.00724e-05 -0.00102102)
(1.11907e-05 -7.76668e-06 -0.00101654)
(8.84457e-06 -5.99232e-06 -0.00101303)
(6.99941e-06 -4.6266e-06 -0.00101028)
(5.54655e-06 -3.57502e-06 -0.00100813)
(4.40113e-06 -2.76499e-06 -0.00100643)
(3.49692e-06 -2.14073e-06 -0.00100509)
(2.78219e-06 -1.65935e-06 -0.00100404)
(2.21647e-06 -1.28789e-06 -0.00100321)
(1.76813e-06 -1.001e-06 -0.00100255)
(1.41237e-06 -7.79203e-07 -0.00100203)
(1.12979e-06 -6.07516e-07 -0.00100162)
(9.05056e-07 -4.74442e-07 -0.0010013)
(7.26068e-07 -3.71154e-07 -0.00100104)
(5.83245e-07 -2.9087e-07 -0.00100083)
(4.69169e-07 -2.28367e-07 -0.00100066)
(3.77934e-07 -1.79628e-07 -0.00100053)
(3.04882e-07 -1.41557e-07 -0.00100043)
(2.46338e-07 -1.11771e-07 -0.00100034)
(1.99395e-07 -8.84371e-08 -0.00100028)
(1.61759e-07 -7.01409e-08 -0.00100022)
(1.31612e-07 -5.57961e-08 -0.00100018)
(1.0752e-07 -4.4568e-08 -0.00100014)
(8.83512e-08 -3.58161e-08 -0.00100011)
(7.32054e-08 -2.90495e-08 -0.00100009)
(6.13431e-08 -2.38795e-08 -0.00100007)
(5.2122e-08 -1.99712e-08 -0.00100005)
(4.51957e-08 -1.70816e-08 -0.00100003)
(4.2311e-08 -1.58205e-08 -0.00100002)
)
;

boundaryField
{
    inlet
    {
        type            zeroGradient;
    }
    outlet
    {
        type            zeroGradient;
    }
    repeat_boundary
    {
        type            slip;
    }
    procBoundary1to0
    {
        type            processor;
        value           nonuniform List<vector> 
90
(
(1.84119e-09 -4.95804e-09 -0.000999989)
(2.66754e-09 -8.97781e-09 -0.000999988)
(3.7601e-09 -1.39615e-08 -0.000999986)
(4.93838e-09 -1.96685e-08 -0.000999982)
(6.16941e-09 -2.63236e-08 -0.000999978)
(7.43562e-09 -3.42568e-08 -0.000999972)
(8.70509e-09 -4.38752e-08 -0.000999965)
(9.92059e-09 -5.56817e-08 -0.000999956)
(1.09891e-08 -7.03004e-08 -0.000999944)
(1.17675e-08 -8.85154e-08 -0.000999929)
(1.20414e-08 -1.11317e-07 -0.00099991)
(1.14966e-08 -1.39959e-07 -0.000999886)
(9.6827e-09 -1.76039e-07 -0.000999854)
(5.96838e-09 -2.2159e-07 -0.000999814)
(-5.03848e-10 -2.79196e-07 -0.000999761)
(-1.09458e-08 -3.52174e-07 -0.000999693)
(-2.71556e-08 -4.44842e-07 -0.000999604)
(-5.15813e-08 -5.62739e-07 -0.000999488)
(-8.75809e-08 -7.13002e-07 -0.000999336)
(-1.39754e-07 -9.04847e-07 -0.000999138)
(-2.1439e-07 -1.15019e-06 -0.00099888)
(-3.20045e-07 -1.46447e-06 -0.000998542)
(-4.68241e-07 -1.8677e-06 -0.0009981)
(-6.74375e-07 -2.38586e-06 -0.000997523)
(-9.59752e-07 -3.0527e-06 -0.000996766)
(-1.35291e-06 -3.91215e-06 -0.000995775)
(-1.89227e-06 -5.02136e-06 -0.000994474)
(-2.62939e-06 -6.45488e-06 -0.000992767)
(-3.63346e-06 -8.30989e-06 -0.000990523)
(-4.99723e-06 -1.07135e-05 -0.000987568)
(-6.84514e-06 -1.38322e-05 -0.000983675)
(-9.34557e-06 -1.78883e-05 -0.000978627)
(-1.27362e-05 -2.31938e-05 -0.00097224)
(-1.73758e-05 -3.02025e-05 -0.000963438)
(-2.36885e-05 -3.93647e-05 -0.000947564)
(-3.04671e-05 -4.87907e-05 -0.000924335)
(-3.55296e-05 -5.54411e-05 -0.000920348)
(-3.47845e-05 -5.3004e-05 -0.0010502)
(-3.05671e-05 -4.27264e-05 -0.000361867)
(9.63297e-05 0.000127131 -0.00194022)
(-5.40405e-06 -5.79227e-06 -0.00167707)
(-3.30682e-05 -5.61384e-05 -0.00153248)
(-2.83649e-05 -4.38092e-05 -0.0023886)
(-5.90536e-05 -3.94768e-05 -0.00213412)
(-7.45279e-05 -5.23072e-05 -0.00241489)
(-3.43053e-05 1.80814e-06 -0.00180718)
(-4.88533e-05 6.17503e-05 -0.00259322)
(4.03133e-06 0.00010325 -0.00174551)
(3.23282e-05 0.000125346 -0.0023484)
(-2.98189e-05 2.52186e-05 -0.00229555)
(2.04269e-06 3.26456e-05 -0.00167683)
(1.62397e-05 4.94122e-05 -0.00164967)
(1.93961e-05 6.68441e-05 -0.0018396)
(2.65158e-05 2.12934e-05 -0.00104529)
(5.63712e-05 3.02826e-05 -0.000886432)
(5.88463e-05 2.57331e-05 -0.000923578)
(4.78417e-05 1.95012e-05 -0.000949075)
(3.75609e-05 1.43458e-05 -0.000961291)
(2.94169e-05 1.0497e-05 -0.000969765)
(2.30679e-05 7.64161e-06 -0.000976454)
(1.81208e-05 5.5352e-06 -0.000981697)
(1.42596e-05 3.98932e-06 -0.000985759)
(1.12399e-05 2.85528e-06 -0.000988903)
(8.87403e-06 2.02616e-06 -0.000991341)
(7.01713e-06 1.42269e-06 -0.000993234)
(5.55723e-06 9.85754e-07 -0.000994705)
(4.4076e-06 6.71389e-07 -0.00099585)
(3.50085e-06 4.46961e-07 -0.000996742)
(2.78458e-06 2.88256e-07 -0.000997439)
(2.21794e-06 1.7735e-07 -0.000997983)
(1.76903e-06 1.01012e-07 -0.00099841)
(1.41292e-06 4.95355e-08 -0.000998746)
(1.13013e-06 1.58767e-08 -0.00099901)
(9.05269e-07 -5.25195e-09 -0.000999217)
(7.262e-07 -1.77832e-08 -0.00099938)
(5.83327e-07 -2.46485e-08 -0.000999508)
(4.6922e-07 -2.76831e-08 -0.000999609)
(3.77966e-07 -2.82802e-08 -0.000999689)
(3.04902e-07 -2.74039e-08 -0.000999752)
(2.4635e-07 -2.57056e-08 -0.000999803)
(1.99403e-07 -2.36206e-08 -0.000999843)
(1.61764e-07 -2.14319e-08 -0.000999874)
(1.31615e-07 -1.93168e-08 -0.0009999)
(1.07522e-07 -1.73807e-08 -0.00099992)
(8.83523e-08 -1.56804e-08 -0.000999937)
(7.32058e-08 -1.42409e-08 -0.00099995)
(6.13417e-08 -1.30635e-08 -0.000999961)
(5.21089e-08 -1.2119e-08 -0.000999971)
(4.52102e-08 -1.13502e-08 -0.00099998)
(4.23126e-08 -1.09295e-08 -0.000999986)
)
;
    }
    procBoundary1to3
    {
        type            processor;
        value           nonuniform List<vector> 
90
(
(3.37783e-09 -3.42138e-09 -0.00100001)
(5.75472e-09 -5.89058e-09 -0.00100001)
(8.78958e-09 -8.93189e-09 -0.00100001)
(1.23084e-08 -1.22982e-08 -0.00100001)
(1.64512e-08 -1.60417e-08 -0.00100001)
(2.14364e-08 -2.02563e-08 -0.00100001)
(2.75397e-08 -2.50412e-08 -0.001)
(3.51078e-08 -3.04949e-08 -0.001)
(4.45784e-08 -3.67113e-08 -0.001)
(5.651e-08 -4.37732e-08 -0.001)
(7.16171e-08 -5.17414e-08 -0.000999997)
(9.08181e-08 -6.06385e-08 -0.000999993)
(1.15297e-07 -7.04258e-08 -0.000999986)
(1.46588e-07 -8.09723e-08 -0.000999975)
(1.86676e-07 -9.20182e-08 -0.00099996)
(2.38142e-07 -1.0309e-07 -0.000999937)
(3.04341e-07 -1.13351e-07 -0.000999904)
(3.8964e-07 -1.21525e-07 -0.000999858)
(4.99743e-07 -1.25689e-07 -0.000999792)
(6.42101e-07 -1.23011e-07 -0.0009997)
(8.26463e-07 -1.0937e-07 -0.000999572)
(1.06559e-06 -7.88851e-08 -0.000999396)
(1.37611e-06 -2.34375e-08 -0.000999156)
(1.77958e-06 6.79617e-08 -0.000998828)
(2.30481e-06 2.11645e-07 -0.000998378)
(2.98939e-06 4.29841e-07 -0.000997766)
(3.88272e-06 7.53137e-07 -0.000996934)
(5.04964e-06 1.22342e-06 -0.000995806)
(6.57541e-06 1.89786e-06 -0.000994281)
(8.57225e-06 2.85432e-06 -0.000992214)
(1.11887e-05 4.199e-06 -0.000989416)
(1.46251e-05 6.07801e-06 -0.000985723)
(1.91624e-05 8.69832e-06 -0.0009811)
(2.51982e-05 1.23644e-05 -0.000974771)
(3.31396e-05 1.74562e-05 -0.000961634)
(4.18152e-05 2.33759e-05 -0.000936184)
(4.82629e-05 2.83601e-05 -0.000930158)
(4.91611e-05 3.07425e-05 -0.00111103)
(3.89733e-05 2.59468e-05 -0.000306856)
(-8.03432e-05 -5.27358e-05 -0.00211381)
(4.50792e-06 4.37423e-06 -0.00158821)
(4.36712e-05 1.88276e-05 -0.00164343)
(6.5895e-05 4.68483e-05 -0.00289936)
(1.04347e-05 2.43483e-05 -0.00154408)
(-5.44251e-05 -3.1179e-05 -0.00277665)
(-3.78825e-05 1.11101e-05 -0.00201702)
(-3.85348e-05 0.000104659 -0.00253143)
(-2.38806e-05 9.83976e-05 -0.00200142)
(-1.86371e-05 6.28032e-05 -0.00267554)
(-1.6658e-05 2.01583e-05 -0.00161815)
(-5.67213e-05 -7.44597e-06 -0.00273445)
(2.98507e-06 3.14155e-05 -0.00110772)
(-4.22989e-05 -3.25069e-05 -0.00197637)
(3.71551e-06 -4.93321e-05 -0.00105764)
(-2.2617e-05 -5.48798e-05 -0.000931915)
(-1.55912e-05 -4.80061e-05 -0.000942257)
(-9.78867e-06 -3.78722e-05 -0.000966442)
(-5.97257e-06 -2.91077e-05 -0.000976425)
(-3.4505e-06 -2.23307e-05 -0.000982731)
(-1.73697e-06 -1.71379e-05 -0.000987451)
(-5.97335e-07 -1.31658e-05 -0.000991008)
(1.30608e-07 -1.01279e-05 -0.000993612)
(5.77985e-07 -7.79857e-06 -0.000995492)
(8.31688e-07 -6.01067e-06 -0.000996858)
(9.53554e-07 -4.63711e-06 -0.000997847)
(9.87869e-07 -3.58105e-06 -0.000998557)
(9.66033e-07 -2.76845e-06 -0.000999063)
(9.10021e-07 -2.14272e-06 -0.000999419)
(8.35062e-07 -1.66049e-06 -0.000999666)
(7.51524e-07 -1.28855e-06 -0.000999835)
(6.6629e-07 -1.00139e-06 -0.000999946)
(5.83741e-07 -7.79425e-07 -0.00100002)
(5.06462e-07 -6.07645e-07 -0.00100006)
(4.35906e-07 -4.74517e-07 -0.00100009)
(3.72721e-07 -3.71198e-07 -0.0010001)
(3.17038e-07 -2.90896e-07 -0.0010001)
(2.68493e-07 -2.28382e-07 -0.0010001)
(2.26592e-07 -1.79636e-07 -0.00100009)
(1.90733e-07 -1.41562e-07 -0.00100008)
(1.60274e-07 -1.11775e-07 -0.00100007)
(1.3458e-07 -8.8439e-08 -0.00100006)
(1.13051e-07 -7.01419e-08 -0.00100006)
(9.51332e-08 -5.57967e-08 -0.00100005)
(8.03334e-08 -4.45683e-08 -0.00100004)
(6.82152e-08 -3.58163e-08 -0.00100003)
(5.83959e-08 -2.9049e-08 -0.00100003)
(5.05234e-08 -2.38774e-08 -0.00100002)
(4.42603e-08 -1.99653e-08 -0.00100002)
(3.94761e-08 -1.7089e-08 -0.00100001)
(3.74232e-08 -1.58225e-08 -0.00100001)
)
;
    }
}


// ************************************************************************* //
