/*--------------------------------*- C++ -*----------------------------------*\
| =========                 |                                                 |
| \\      /  F ield         | OpenFOAM: The Open Source CFD Toolbox           |
|  \\    /   O peration     | Version:  5.x                                   |
|   \\  /    A nd           | Web:      www.OpenFOAM.org                      |
|    \\/     M anipulation  |                                                 |
\*---------------------------------------------------------------------------*/
FoamFile
{
    version     2.0;
    format      ascii;
    class       volVectorField;
    location    "90000";
    object      stored_U;
}
// * * * * * * * * * * * * * * * * * * * * * * * * * * * * * * * * * * * * * //

dimensions      [0 1 -1 0 0 0 0];

internalField   nonuniform List<vector> 
2250
(
(-7.24945e-11 1.91288e-10 -0.000999998)
(-1.27112e-10 2.02978e-10 -0.000999999)
(-1.10674e-10 2.20165e-10 -0.000999999)
(-7.33791e-11 2.34607e-10 -0.000999999)
(-2.74833e-11 2.39513e-10 -0.000999999)
(-8.13648e-11 1.29278e-10 -0.000999998)
(-9.44586e-11 1.4947e-10 -0.000999998)
(-8.50752e-11 1.73134e-10 -0.000999999)
(-5.87384e-11 1.87276e-10 -0.000999999)
(-2.23021e-11 1.95787e-10 -0.000999999)
(-7.72309e-11 1.05588e-10 -0.000999998)
(-8.32314e-11 1.16626e-10 -0.000999998)
(-7.28225e-11 1.29106e-10 -0.000999998)
(-5.02299e-11 1.39137e-10 -0.000999998)
(-1.84956e-11 1.45254e-10 -0.000999999)
(-7.27313e-11 6.12384e-11 -0.000999998)
(-7.09199e-11 7.15776e-11 -0.000999998)
(-6.25297e-11 7.80175e-11 -0.000999998)
(-4.22311e-11 8.59663e-11 -0.000999998)
(-1.58429e-11 8.98836e-11 -0.000999998)
(-7.25917e-11 2.16277e-11 -0.000999998)
(-6.62513e-11 2.45764e-11 -0.000999998)
(-5.8347e-11 2.61211e-11 -0.000999998)
(-3.81462e-11 2.87885e-11 -0.000999998)
(-1.43687e-11 3.02346e-11 -0.000999998)
(-1.77026e-10 5.39613e-10 -0.000999999)
(-3.32075e-10 5.50372e-10 -0.000999999)
(-2.82767e-10 5.88567e-10 -0.000999999)
(-1.83742e-10 6.21659e-10 -0.000999999)
(-6.70635e-11 6.32887e-10 -0.000999999)
(-2.13281e-10 3.46417e-10 -0.000999998)
(-2.52121e-10 4.00274e-10 -0.000999999)
(-2.14232e-10 4.61407e-10 -0.000999999)
(-1.44496e-10 5.00223e-10 -0.000999999)
(-5.3267e-11 5.21783e-10 -0.000999999)
(-2.08838e-10 2.83345e-10 -0.000999998)
(-2.17101e-10 3.18756e-10 -0.000999998)
(-1.82747e-10 3.49048e-10 -0.000999998)
(-1.22221e-10 3.75025e-10 -0.000999998)
(-4.44213e-11 3.89283e-10 -0.000999999)
(-2.00164e-10 1.73596e-10 -0.000999998)
(-1.86382e-10 1.99135e-10 -0.000999998)
(-1.57881e-10 2.15228e-10 -0.000999998)
(-1.03399e-10 2.33922e-10 -0.000999998)
(-3.81946e-11 2.43372e-10 -0.000999998)
(-2.01543e-10 6.17989e-11 -0.000999998)
(-1.75041e-10 6.8872e-11 -0.000999998)
(-1.47738e-10 7.27491e-11 -0.000999998)
(-9.33652e-11 7.88346e-11 -0.000999998)
(-3.43709e-11 8.24087e-11 -0.000999998)
(-3.10249e-10 1.01986e-09 -0.000999999)
(-5.2136e-10 1.00171e-09 -0.000999999)
(-4.16426e-10 1.04325e-09 -0.000999999)
(-2.62344e-10 1.07715e-09 -0.000999999)
(-9.23824e-11 1.08997e-09 -0.000999999)
(-3.72595e-10 6.87807e-10 -0.000999998)
(-4.11793e-10 7.71672e-10 -0.000999999)
(-3.32527e-10 8.48483e-10 -0.000999999)
(-2.15392e-10 8.96785e-10 -0.000999999)
(-7.64067e-11 9.2078e-10 -0.000999999)
(-3.74149e-10 5.63049e-10 -0.000999998)
(-3.60662e-10 6.1488e-10 -0.000999998)
(-2.91174e-10 6.53572e-10 -0.000999998)
(-1.88161e-10 6.85333e-10 -0.000999998)
(-6.66341e-11 7.00639e-10 -0.000999998)
(-3.66709e-10 3.6097e-10 -0.000999998)
(-3.21206e-10 3.95908e-10 -0.000999998)
(-2.61929e-10 4.14675e-10 -0.000999998)
(-1.66819e-10 4.35153e-10 -0.000999998)
(-5.96751e-11 4.44548e-10 -0.000999998)
(-3.69531e-10 1.28759e-10 -0.000999998)
(-3.06227e-10 1.39057e-10 -0.000999998)
(-2.51538e-10 1.4312e-10 -0.000999998)
(-1.5714e-10 1.49273e-10 -0.000999998)
(-5.62586e-11 1.52342e-10 -0.000999998)
(-4.72547e-10 1.63653e-09 -0.000999999)
(-7.17759e-10 1.58322e-09 -0.000999999)
(-5.26979e-10 1.613e-09 -0.000999999)
(-3.18703e-10 1.63268e-09 -0.000999999)
(-1.0809e-10 1.63898e-09 -0.000999999)
(-5.82988e-10 1.1828e-09 -0.000999998)
(-5.82886e-10 1.29519e-09 -0.000999998)
(-4.5406e-10 1.36554e-09 -0.000999999)
(-2.85576e-10 1.40308e-09 -0.000999999)
(-9.90872e-11 1.41581e-09 -0.000999999)
(-5.91494e-10 9.81727e-10 -0.000999998)
(-5.34964e-10 1.03158e-09 -0.000999998)
(-4.18872e-10 1.06534e-09 -0.000999998)
(-2.65636e-10 1.08897e-09 -0.000999998)
(-9.27256e-11 1.09788e-09 -0.000999998)
(-5.90221e-10 6.39022e-10 -0.000999997)
(-4.99187e-10 6.73048e-10 -0.000999998)
(-3.96444e-10 6.87104e-10 -0.000999998)
(-2.50736e-10 6.99368e-10 -0.000999998)
(-8.8014e-11 7.02679e-10 -0.000999998)
(-5.91769e-10 2.27591e-10 -0.000999997)
(-4.85921e-10 2.38085e-10 -0.000999997)
(-3.91849e-10 2.4002e-10 -0.000999997)
(-2.48248e-10 2.42181e-10 -0.000999998)
(-8.79266e-11 2.41707e-10 -0.000999998)
(-7.22564e-10 2.43046e-09 -0.000999999)
(-9.50537e-10 2.3427e-09 -0.000999999)
(-6.62867e-10 2.34433e-09 -0.000999999)
(-3.9316e-10 2.33963e-09 -0.001)
(-1.30996e-10 2.33314e-09 -0.001)
(-8.66443e-10 1.87287e-09 -0.000999998)
(-8.16538e-10 1.99577e-09 -0.000999998)
(-6.17754e-10 2.04311e-09 -0.000999999)
(-3.86536e-10 2.05613e-09 -0.000999999)
(-1.33829e-10 2.04926e-09 -0.000999999)
(-8.88051e-10 1.55184e-09 -0.000999997)
(-7.8033e-10 1.59262e-09 -0.000999998)
(-6.02199e-10 1.60957e-09 -0.000999998)
(-3.83026e-10 1.61532e-09 -0.000999998)
(-1.34092e-10 1.61233e-09 -0.000999998)
(-8.92306e-10 1.01529e-09 -0.000999997)
(-7.58685e-10 1.03893e-09 -0.000999997)
(-5.94738e-10 1.04216e-09 -0.000999997)
(-3.80465e-10 1.04073e-09 -0.000999998)
(-1.33703e-10 1.03591e-09 -0.000999998)
(-8.9248e-10 3.58489e-10 -0.000999996)
(-7.52098e-10 3.65855e-10 -0.000999997)
(-5.99257e-10 3.63923e-10 -0.000999997)
(-3.86592e-10 3.60445e-10 -0.000999997)
(-1.36773e-10 3.56506e-10 -0.000999997)
(-1.06138e-09 3.46544e-09 -0.000999999)
(-1.26463e-09 3.3282e-09 -0.000999999)
(-8.75922e-10 3.29395e-09 -0.000999999)
(-5.2524e-10 3.26771e-09 -0.001)
(-1.7709e-10 3.24669e-09 -0.001)
(-1.23003e-09 2.7899e-09 -0.000999998)
(-1.14576e-09 2.90872e-09 -0.000999998)
(-8.64802e-10 2.9276e-09 -0.000999998)
(-5.48151e-10 2.9112e-09 -0.000999999)
(-1.91315e-10 2.88528e-09 -0.000999999)
(-1.27653e-09 2.30091e-09 -0.000999997)
(-1.1269e-09 2.32374e-09 -0.000999997)
(-8.73066e-10 2.31865e-09 -0.000999997)
(-5.61945e-10 2.3049e-09 -0.000999998)
(-1.97665e-10 2.29083e-09 -0.000999998)
(-1.28767e-09 1.5054e-09 -0.000999996)
(-1.12786e-09 1.50947e-09 -0.000999996)
(-8.83204e-10 1.49949e-09 -0.000999997)
(-5.71357e-10 1.48631e-09 -0.000999997)
(-2.01066e-10 1.47581e-09 -0.000999997)
(-1.28742e-09 5.25703e-10 -0.000999996)
(-1.13079e-09 5.26727e-10 -0.000999996)
(-8.94418e-10 5.20975e-10 -0.000999996)
(-5.81724e-10 5.13982e-10 -0.000999997)
(-2.05173e-10 5.08645e-10 -0.000999997)
(-1.50675e-09 4.79601e-09 -0.000999999)
(-1.6832e-09 4.61741e-09 -0.000999999)
(-1.20347e-09 4.54995e-09 -0.001)
(-7.44795e-10 4.50951e-09 -0.001)
(-2.57033e-10 4.48197e-09 -0.001)
(-1.68707e-09 4.00211e-09 -0.000999997)
(-1.5966e-09 4.09893e-09 -0.000999998)
(-1.22242e-09 4.09097e-09 -0.000999998)
(-7.85726e-10 4.05263e-09 -0.000999999)
(-2.75438e-10 4.01901e-09 -0.000999999)
(-1.7669e-09 3.26932e-09 -0.000999996)
(-1.59433e-09 3.27359e-09 -0.000999996)
(-1.2492e-09 3.24954e-09 -0.000999997)
(-8.08914e-10 3.22257e-09 -0.000999997)
(-2.8325e-10 3.20474e-09 -0.000999998)
(-1.78659e-09 2.13427e-09 -0.000999995)
(-1.61614e-09 2.11799e-09 -0.000999996)
(-1.27283e-09 2.09808e-09 -0.000999996)
(-8.24224e-10 2.08037e-09 -0.000999996)
(-2.87438e-10 2.07144e-09 -0.000999997)
(-1.78906e-09 7.39823e-10 -0.000999994)
(-1.62748e-09 7.32998e-10 -0.000999995)
(-1.28411e-09 7.25688e-10 -0.000999996)
(-8.30079e-10 7.19342e-10 -0.000999996)
(-2.88046e-10 7.17009e-10 -0.000999996)
(-2.08906e-09 6.52079e-09 -0.000999999)
(-2.24261e-09 6.32929e-09 -0.000999999)
(-1.67499e-09 6.2433e-09 -0.001)
(-1.06855e-09 6.1996e-09 -0.001)
(-3.73258e-10 6.17681e-09 -0.001)
(-2.28834e-09 5.59186e-09 -0.000999997)
(-2.17647e-09 5.66399e-09 -0.000999997)
(-1.70239e-09 5.64106e-09 -0.000999998)
(-1.09971e-09 5.60221e-09 -0.000999998)
(-3.82892e-10 5.57827e-09 -0.000999999)
(-2.38304e-09 4.54164e-09 -0.000999995)
(-2.19337e-09 4.52601e-09 -0.000999996)
(-1.73599e-09 4.49232e-09 -0.000999996)
(-1.12059e-09 4.46371e-09 -0.000999997)
(-3.87182e-10 4.44983e-09 -0.000999997)
(-2.41343e-09 2.94872e-09 -0.000999994)
(-2.22547e-09 2.92161e-09 -0.000999994)
(-1.76385e-09 2.89906e-09 -0.000999995)
(-1.13359e-09 2.88586e-09 -0.000999995)
(-3.88886e-10 2.88484e-09 -0.000999996)
(-2.41944e-09 1.01843e-09 -0.000999993)
(-2.23876e-09 1.00707e-09 -0.000999994)
(-1.76798e-09 1.0012e-09 -0.000999994)
(-1.12728e-09 9.99643e-10 -0.000999995)
(-3.8252e-10 1.00364e-09 -0.000999995)
(-2.89274e-09 8.81304e-09 -0.000999998)
(-2.9673e-09 8.63402e-09 -0.000999999)
(-2.29811e-09 8.55258e-09 -0.001)
(-1.48839e-09 8.5158e-09 -0.001)
(-5.18362e-10 8.50227e-09 -0.001)
(-3.10109e-09 7.71618e-09 -0.000999996)
(-2.91257e-09 7.76254e-09 -0.000999997)
(-2.31021e-09 7.73838e-09 -0.000999997)
(-1.4887e-09 7.71798e-09 -0.000999998)
(-5.11684e-10 7.71203e-09 -0.000999998)
(-3.17998e-09 6.23612e-09 -0.000999993)
(-2.94504e-09 6.20599e-09 -0.000999994)
(-2.3416e-09 6.17126e-09 -0.000999995)
(-1.50011e-09 6.15082e-09 -0.000999996)
(-5.1081e-10 6.14306e-09 -0.000999996)
(-3.21841e-09 4.02825e-09 -0.000999992)
(-2.977e-09 3.99999e-09 -0.000999993)
(-2.36423e-09 3.98267e-09 -0.000999993)
(-1.50507e-09 3.98006e-09 -0.000999994)
(-5.08623e-10 3.98701e-09 -0.000999994)
(-3.22551e-09 1.38926e-09 -0.000999991)
(-2.98498e-09 1.37776e-09 -0.000999992)
(-2.35656e-09 1.37609e-09 -0.000999993)
(-1.48551e-09 1.3811e-09 -0.000999993)
(-4.96026e-10 1.39048e-09 -0.000999993)
(-4.01484e-09 1.19075e-08 -0.000999998)
(-3.90644e-09 1.17595e-08 -0.000999999)
(-3.08299e-09 1.17018e-08 -0.001)
(-1.99952e-09 1.16765e-08 -0.001)
(-6.9002e-10 1.16669e-08 -0.001)
(-4.19885e-09 1.05935e-08 -0.000999994)
(-3.86846e-09 1.06139e-08 -0.000999996)
(-3.07886e-09 1.05922e-08 -0.000999997)
(-1.97442e-09 1.05916e-08 -0.000999997)
(-6.72009e-10 1.05957e-08 -0.000999998)
(-4.24648e-09 8.50782e-09 -0.000999991)
(-3.90763e-09 8.47405e-09 -0.000999993)
(-3.10379e-09 8.4439e-09 -0.000999994)
(-1.97606e-09 8.43536e-09 -0.000999994)
(-6.67508e-10 8.42974e-09 -0.000999995)
(-4.28273e-09 5.47623e-09 -0.000999989)
(-3.93179e-09 5.4559e-09 -0.00099999)
(-3.11598e-09 5.44818e-09 -0.000999991)
(-1.97227e-09 5.45604e-09 -0.000999992)
(-6.62651e-10 5.46386e-09 -0.000999992)
(-4.28656e-09 1.88678e-09 -0.000999988)
(-3.92834e-09 1.87984e-09 -0.000999989)
(-3.09715e-09 1.88348e-09 -0.00099999)
(-1.94648e-09 1.89305e-09 -0.000999991)
(-6.48949e-10 1.90239e-09 -0.000999991)
(-5.55437e-09 1.61226e-08 -0.000999998)
(-5.16068e-09 1.60182e-08 -0.000999999)
(-4.09625e-09 1.59812e-08 -0.001)
(-2.64413e-09 1.59666e-08 -0.001)
(-9.06799e-10 1.59515e-08 -0.001)
(-5.67568e-09 1.44908e-08 -0.000999993)
(-5.15917e-09 1.44843e-08 -0.000999994)
(-4.09154e-09 1.44645e-08 -0.000999996)
(-2.61531e-09 1.44732e-08 -0.000999997)
(-8.88622e-10 1.44716e-08 -0.000999997)
(-5.70055e-09 1.15544e-08 -0.000999988)
(-5.18686e-09 1.15342e-08 -0.00099999)
(-4.10533e-09 1.15163e-08 -0.000999992)
(-2.60951e-09 1.15189e-08 -0.000999992)
(-8.82885e-10 1.15085e-08 -0.000999993)
(-5.7226e-09 7.42522e-09 -0.000999985)
(-5.19643e-09 7.421e-09 -0.000999987)
(-4.10464e-09 7.42534e-09 -0.000999988)
(-2.60081e-09 7.43787e-09 -0.000999989)
(-8.78485e-10 7.43645e-09 -0.00099999)
(-5.71545e-09 2.55548e-09 -0.000999984)
(-5.17708e-09 2.55764e-09 -0.000999985)
(-4.0799e-09 2.56591e-09 -0.000999987)
(-2.5796e-09 2.57501e-09 -0.000999988)
(-8.69665e-10 2.57795e-09 -0.000999988)
(-7.63886e-09 2.18736e-08 -0.000999997)
(-6.89924e-09 2.18165e-08 -0.000999999)
(-5.47501e-09 2.17918e-08 -0.001)
(-3.51659e-09 2.17843e-08 -0.001)
(-1.20473e-09 2.17569e-08 -0.001)
(-7.68692e-09 1.97436e-08 -0.00099999)
(-6.92721e-09 1.9721e-08 -0.000999992)
(-5.47742e-09 1.97099e-08 -0.000999994)
(-3.49876e-09 1.97198e-08 -0.000999996)
(-1.19381e-09 1.97001e-08 -0.000999997)
(-7.69107e-09 1.56671e-08 -0.000999985)
(-6.93276e-09 1.56696e-08 -0.000999987)
(-5.4735e-09 1.56742e-08 -0.000999989)
(-3.48866e-09 1.56841e-08 -0.00099999)
(-1.18932e-09 1.56615e-08 -0.000999991)
(-7.68774e-09 1.00607e-08 -0.00099998)
(-6.91902e-09 1.00797e-08 -0.000999983)
(-5.46e-09 1.00952e-08 -0.000999985)
(-3.48098e-09 1.0104e-08 -0.000999986)
(-1.18834e-09 1.00862e-08 -0.000999987)
(-7.66373e-09 3.46247e-09 -0.000999978)
(-6.88553e-09 3.47507e-09 -0.000999981)
(-5.43789e-09 3.48416e-09 -0.000999982)
(-3.4722e-09 3.48744e-09 -0.000999984)
(-1.1872e-09 3.48063e-09 -0.000999985)
(-1.0434e-08 2.9717e-08 -0.000999996)
(-9.35289e-09 2.96946e-08 -0.000999999)
(-7.39784e-09 2.96842e-08 -0.001)
(-4.73815e-09 2.96808e-08 -0.001)
(-1.62501e-09 2.96348e-08 -0.001)
(-1.04324e-08 2.68111e-08 -0.000999987)
(-9.37054e-09 2.68123e-08 -0.00099999)
(-7.39743e-09 2.68217e-08 -0.000999993)
(-4.73155e-09 2.6831e-08 -0.000999995)
(-1.62273e-09 2.67858e-08 -0.000999996)
(-1.04077e-08 2.12474e-08 -0.000999979)
(-9.34214e-09 2.12852e-08 -0.000999982)
(-7.37543e-09 2.13123e-08 -0.000999985)
(-4.72258e-09 2.13225e-08 -0.000999987)
(-1.62237e-09 2.12812e-08 -0.000999988)
(-1.03789e-08 1.36532e-08 -0.000999974)
(-9.30414e-09 1.36933e-08 -0.000999977)
(-7.35607e-09 1.3711e-08 -0.000999979)
(-4.72112e-09 1.37095e-08 -0.000999981)
(-1.62575e-09 1.36738e-08 -0.000999982)
(-1.03426e-08 4.70438e-09 -0.000999971)
(-9.2673e-09 4.72172e-09 -0.000999974)
(-7.34396e-09 4.72551e-09 -0.000999976)
(-4.72535e-09 4.72079e-09 -0.000999978)
(-1.63109e-09 4.70468e-09 -0.000999979)
(-1.42198e-08 4.03786e-08 -0.000999995)
(-1.27457e-08 4.03976e-08 -0.000999999)
(-1.006e-08 4.04032e-08 -0.001)
(-6.43971e-09 4.03984e-08 -0.00100001)
(-2.21214e-09 4.03261e-08 -0.00100001)
(-1.41683e-08 3.64021e-08 -0.000999983)
(-1.27271e-08 3.64479e-08 -0.000999987)
(-1.00486e-08 3.64775e-08 -0.00099999)
(-6.44088e-09 3.64823e-08 -0.000999993)
(-2.21663e-09 3.64083e-08 -0.000999995)
(-1.41158e-08 2.88689e-08 -0.000999972)
(-1.267e-08 2.89341e-08 -0.000999976)
(-1.00206e-08 2.8968e-08 -0.00099998)
(-6.43887e-09 2.89697e-08 -0.000999983)
(-2.2209e-09 2.89071e-08 -0.000999984)
(-1.4078e-08 1.85743e-08 -0.000999965)
(-1.2626e-08 1.8614e-08 -0.000999969)
(-1.00076e-08 1.86209e-08 -0.000999972)
(-6.44538e-09 1.86077e-08 -0.000999975)
(-2.22721e-09 1.85586e-08 -0.000999977)
(-1.40437e-08 6.40721e-09 -0.00099996)
(-1.26004e-08 6.41699e-09 -0.000999965)
(-1.00061e-08 6.41165e-09 -0.000999968)
(-6.45439e-09 6.4009e-09 -0.000999971)
(-2.23334e-09 6.38014e-09 -0.000999973)
(-1.93286e-08 5.48894e-08 -0.000999993)
(-1.73236e-08 5.49451e-08 -0.000999999)
(-1.3688e-08 5.49539e-08 -0.001)
(-8.77493e-09 5.49395e-08 -0.00100001)
(-3.01927e-09 5.48353e-08 -0.00100001)
(-1.92361e-08 4.95177e-08 -0.000999977)
(-1.72933e-08 4.95721e-08 -0.000999983)
(-1.36797e-08 4.95967e-08 -0.000999987)
(-8.78306e-09 4.95886e-08 -0.000999991)
(-3.02621e-09 4.94869e-08 -0.000999993)
(-1.91821e-08 3.93026e-08 -0.000999962)
(-1.72442e-08 3.93534e-08 -0.000999968)
(-1.36646e-08 3.93703e-08 -0.000999973)
(-8.78954e-09 3.93584e-08 -0.000999977)
(-3.03241e-09 3.9276e-08 -0.000999979)
(-1.91618e-08 2.52997e-08 -0.000999952)
(-1.72229e-08 2.53099e-08 -0.000999958)
(-1.36673e-08 2.5299e-08 -0.000999963)
(-8.8006e-09 2.52788e-08 -0.000999967)
(-3.03795e-09 2.52236e-08 -0.000999969)
(-1.91405e-08 8.72813e-09 -0.000999946)
(-1.72136e-08 8.72124e-09 -0.000999952)
(-1.36676e-08 8.70874e-09 -0.000999957)
(-8.80121e-09 8.69712e-09 -0.000999961)
(-3.03761e-09 8.67756e-09 -0.000999963)
(-2.61889e-08 7.4674e-08 -0.000999992)
(-2.34775e-08 7.47172e-08 -0.000999999)
(-1.86002e-08 7.47044e-08 -0.00100001)
(-1.19445e-08 7.46757e-08 -0.00100001)
(-4.11278e-09 7.45346e-08 -0.00100001)
(-2.61115e-08 6.74331e-08 -0.000999969)
(-2.34891e-08 6.74339e-08 -0.000999977)
(-1.86181e-08 6.74227e-08 -0.000999983)
(-1.1959e-08 6.73969e-08 -0.000999988)
(-4.11806e-09 6.72662e-08 -0.000999991)
(-2.6097e-08 5.35284e-08 -0.000999949)
(-2.34874e-08 5.35227e-08 -0.000999957)
(-1.86278e-08 5.35086e-08 -0.000999964)
(-1.19714e-08 5.34841e-08 -0.000999969)
(-4.123e-09 5.33818e-08 -0.000999972)
(-2.61137e-08 3.44441e-08 -0.000999935)
(-2.35052e-08 3.44128e-08 -0.000999943)
(-1.86467e-08 3.43866e-08 -0.00099995)
(-1.19814e-08 3.43656e-08 -0.000999955)
(-4.12414e-09 3.43034e-08 -0.000999958)
(-2.61027e-08 1.1876e-08 -0.000999928)
(-2.35024e-08 1.18544e-08 -0.000999936)
(-1.86369e-08 1.18399e-08 -0.000999942)
(-1.1968e-08 1.18318e-08 -0.000999947)
(-4.11721e-09 1.18117e-08 -0.00099995)
(-3.5458e-08 1.01594e-07 -0.000999989)
(-3.1832e-08 1.01574e-07 -0.000999999)
(-2.52558e-08 1.01523e-07 -0.00100001)
(-1.62223e-08 1.01477e-07 -0.00100001)
(-5.58324e-09 1.01287e-07 -0.00100002)
(-3.54574e-08 9.17684e-08 -0.000999958)
(-3.19077e-08 9.16894e-08 -0.000999968)
(-2.53056e-08 9.16347e-08 -0.000999978)
(-1.62441e-08 9.15888e-08 -0.000999984)
(-5.58702e-09 9.14168e-08 -0.000999988)
(-3.55106e-08 7.28386e-08 -0.000999931)
(-3.1965e-08 7.27686e-08 -0.000999942)
(-2.53436e-08 7.27219e-08 -0.000999951)
(-1.62638e-08 7.26837e-08 -0.000999958)
(-5.59111e-09 7.25493e-08 -0.000999962)
(-3.55713e-08 4.68492e-08 -0.000999912)
(-3.20195e-08 4.67845e-08 -0.000999923)
(-2.53768e-08 4.67452e-08 -0.000999932)
(-1.62745e-08 4.67207e-08 -0.000999939)
(-5.59039e-09 4.6634e-08 -0.000999943)
(-3.5563e-08 1.61458e-08 -0.000999902)
(-3.20117e-08 1.61165e-08 -0.000999913)
(-2.53559e-08 1.61012e-08 -0.000999922)
(-1.62573e-08 1.60938e-08 -0.000999929)
(-5.58533e-09 1.60621e-08 -0.000999932)
(-4.80594e-08 1.38157e-07 -0.000999985)
(-4.32089e-08 1.38053e-07 -0.000999999)
(-3.42628e-08 1.37954e-07 -0.00100001)
(-2.19902e-08 1.37878e-07 -0.00100002)
(-7.56317e-09 1.37613e-07 -0.00100003)
(-4.81636e-08 1.2476e-07 -0.000999943)
(-4.33417e-08 1.24611e-07 -0.000999957)
(-3.43478e-08 1.2451e-07 -0.00099997)
(-2.20303e-08 1.24431e-07 -0.000999979)
(-7.5715e-09 1.24189e-07 -0.000999984)
(-4.8302e-08 9.90388e-08 -0.000999907)
(-4.34581e-08 9.89111e-08 -0.000999922)
(-3.44258e-08 9.88228e-08 -0.000999934)
(-2.20709e-08 9.87556e-08 -0.000999943)
(-7.58128e-09 9.85603e-08 -0.000999948)
(-4.84182e-08 6.36966e-08 -0.000999881)
(-4.3551e-08 6.36006e-08 -0.000999896)
(-3.44847e-08 6.35356e-08 -0.000999908)
(-2.20989e-08 6.34888e-08 -0.000999917)
(-7.58822e-09 6.33539e-08 -0.000999922)
(-4.84158e-08 2.19508e-08 -0.000999867)
(-4.3542e-08 2.19134e-08 -0.000999882)
(-3.44681e-08 2.18894e-08 -0.000999894)
(-2.20927e-08 2.18714e-08 -0.000999903)
(-7.59032e-09 2.18194e-08 -0.000999908)
(-6.51882e-08 1.87825e-07 -0.00099998)
(-5.86184e-08 1.87623e-07 -0.000999999)
(-4.64347e-08 1.8745e-07 -0.00100002)
(-2.9788e-08 1.87318e-07 -0.00100003)
(-1.02446e-08 1.86943e-07 -0.00100003)
(-6.54194e-08 1.69586e-07 -0.000999923)
(-5.88426e-08 1.69336e-07 -0.000999942)
(-4.65872e-08 1.69154e-07 -0.000999959)
(-2.98697e-08 1.69009e-07 -0.000999971)
(-1.02662e-08 1.68658e-07 -0.000999978)
(-6.56812e-08 1.34655e-07 -0.000999874)
(-5.90497e-08 1.3444e-07 -0.000999894)
(-4.67377e-08 1.34276e-07 -0.000999911)
(-2.99563e-08 1.34146e-07 -0.000999923)
(-1.02913e-08 1.33856e-07 -0.00099993)
(-6.58882e-08 8.66184e-08 -0.000999838)
(-5.92126e-08 8.64619e-08 -0.000999858)
(-4.68558e-08 8.63381e-08 -0.000999875)
(-3.00259e-08 8.62404e-08 -0.000999888)
(-1.03136e-08 8.60391e-08 -0.000999895)
(-6.5912e-08 2.98543e-08 -0.000999819)
(-5.92266e-08 2.97946e-08 -0.000999839)
(-4.68657e-08 2.97459e-08 -0.000999856)
(-3.00383e-08 2.9706e-08 -0.000999869)
(-1.03214e-08 2.96305e-08 -0.000999876)
(-8.8435e-08 2.55338e-07 -0.000999973)
(-7.94562e-08 2.54996e-07 -0.001)
(-6.29022e-08 2.54702e-07 -0.00100002)
(-4.03521e-08 2.54479e-07 -0.00100004)
(-1.38832e-08 2.53948e-07 -0.00100005)
(-8.88468e-08 2.30573e-07 -0.000999895)
(-7.98522e-08 2.30134e-07 -0.000999922)
(-6.31796e-08 2.29802e-07 -0.000999945)
(-4.05048e-08 2.29546e-07 -0.000999961)
(-1.39261e-08 2.29038e-07 -0.00099997)
(-8.93101e-08 1.83129e-07 -0.000999829)
(-8.02256e-08 1.82744e-07 -0.000999856)
(-6.34585e-08 1.8244e-07 -0.000999879)
(-4.06698e-08 1.822e-07 -0.000999895)
(-1.39753e-08 1.81775e-07 -0.000999905)
(-8.96785e-08 1.17831e-07 -0.000999781)
(-8.05293e-08 1.17548e-07 -0.000999808)
(-6.36899e-08 1.17312e-07 -0.000999831)
(-4.08088e-08 1.1713e-07 -0.000999848)
(-1.40185e-08 1.16837e-07 -0.000999857)
(-8.97669e-08 4.06185e-08 -0.000999755)
(-8.06055e-08 4.05097e-08 -0.000999782)
(-6.37503e-08 4.0416e-08 -0.000999805)
(-4.08502e-08 4.03441e-08 -0.000999822)
(-1.40352e-08 4.02354e-08 -0.000999832)
(-1.19946e-07 3.47128e-07 -0.000999964)
(-1.07669e-07 3.46561e-07 -0.001)
(-8.51768e-08 3.46077e-07 -0.00100003)
(-5.46286e-08 3.45712e-07 -0.00100005)
(-1.87951e-08 3.44959e-07 -0.00100006)
(-1.20649e-07 3.13534e-07 -0.000999858)
(-1.08328e-07 3.12789e-07 -0.000999895)
(-8.56543e-08 3.12205e-07 -0.000999925)
(-5.48938e-08 3.11766e-07 -0.000999947)
(-1.88718e-08 3.11032e-07 -0.00099996)
(-1.21449e-07 2.49118e-07 -0.000999768)
(-1.08996e-07 2.48425e-07 -0.000999805)
(-8.61563e-08 2.47871e-07 -0.000999836)
(-5.51919e-08 2.47447e-07 -0.000999858)
(-1.89618e-08 2.46821e-07 -0.000999871)
(-1.22103e-07 1.60341e-07 -0.000999702)
(-1.09559e-07 1.59824e-07 -0.00099974)
(-8.65862e-08 1.59396e-07 -0.000999771)
(-5.54519e-08 1.59074e-07 -0.000999794)
(-1.9044e-08 1.58634e-07 -0.000999806)
(-1.22323e-07 5.52802e-08 -0.000999667)
(-1.09755e-07 5.50836e-08 -0.000999704)
(-8.67393e-08 5.49157e-08 -0.000999736)
(-5.55533e-08 5.47906e-08 -0.000999759)
(-1.90829e-08 5.46268e-08 -0.000999772)
(-1.62568e-07 4.71925e-07 -0.000999952)
(-1.45789e-07 4.7097e-07 -0.001)
(-1.15196e-07 4.70176e-07 -0.00100004)
(-7.38168e-08 4.69572e-07 -0.00100007)
(-2.53795e-08 4.68494e-07 -0.00100009)
(-1.63774e-07 4.26367e-07 -0.000999808)
(-1.4686e-07 4.25123e-07 -0.000999858)
(-1.16001e-07 4.24109e-07 -0.000999899)
(-7.42806e-08 4.23359e-07 -0.000999929)
(-2.5522e-08 4.22267e-07 -0.000999945)
(-1.65152e-07 3.38954e-07 -0.000999686)
(-1.48043e-07 3.37727e-07 -0.000999736)
(-1.16901e-07 3.36729e-07 -0.000999778)
(-7.4827e-08 3.3598e-07 -0.000999808)
(-2.56964e-08 3.35025e-07 -0.000999825)
(-1.66309e-07 2.18246e-07 -0.000999596)
(-1.49063e-07 2.17328e-07 -0.000999647)
(-1.17684e-07 2.16564e-07 -0.00099969)
(-7.53125e-08 2.15992e-07 -0.00099972)
(-2.58566e-08 2.15318e-07 -0.000999737)
(-1.66781e-07 7.52571e-08 -0.000999548)
(-1.49479e-07 7.4912e-08 -0.000999599)
(-1.18013e-07 7.46183e-08 -0.000999642)
(-7.55299e-08 7.43986e-08 -0.000999673)
(-2.59371e-08 7.41487e-08 -0.00099969)
(-2.20087e-07 6.41499e-07 -0.000999936)
(-1.97076e-07 6.39897e-07 -0.001)
(-1.5546e-07 6.38584e-07 -0.00100006)
(-9.94922e-08 6.37574e-07 -0.0010001)
(-3.41773e-08 6.35995e-07 -0.00100012)
(-2.22151e-07 5.79804e-07 -0.000999741)
(-1.98852e-07 5.77703e-07 -0.000999808)
(-1.56834e-07 5.75942e-07 -0.000999863)
(-1.00325e-07 5.74635e-07 -0.000999903)
(-3.4451e-08 5.72967e-07 -0.000999925)
(-2.24534e-07 4.61263e-07 -0.000999574)
(-2.00934e-07 4.59116e-07 -0.000999642)
(-1.58446e-07 4.57333e-07 -0.000999699)
(-1.01332e-07 4.56001e-07 -0.00099974)
(-3.47864e-08 4.54518e-07 -0.000999762)
(-2.26575e-07 2.97167e-07 -0.000999452)
(-2.02751e-07 2.95555e-07 -0.000999521)
(-1.59862e-07 2.94202e-07 -0.000999579)
(-1.02221e-07 2.9319e-07 -0.000999621)
(-3.50848e-08 2.92146e-07 -0.000999644)
(-2.27514e-07 1.02502e-07 -0.000999387)
(-2.03574e-07 1.01899e-07 -0.000999456)
(-1.60516e-07 1.01388e-07 -0.000999514)
(-1.02651e-07 1.01004e-07 -0.000999556)
(-3.52389e-08 1.0062e-07 -0.00099958)
(-2.97491e-07 8.7172e-07 -0.000999916)
(-2.65767e-07 8.69084e-07 -0.001)
(-2.09232e-07 8.669e-07 -0.00100008)
(-1.33739e-07 8.6522e-07 -0.00100013)
(-4.5916e-08 8.62864e-07 -0.00100016)
(-3.00995e-07 7.88426e-07 -0.000999651)
(-2.68772e-07 7.84831e-07 -0.00099974)
(-2.11602e-07 7.81766e-07 -0.000999815)
(-1.35228e-07 7.79476e-07 -0.000999868)
(-4.64232e-08 7.76902e-07 -0.000999897)
(-3.05137e-07 6.27855e-07 -0.000999424)
(-2.7242e-07 6.2411e-07 -0.000999515)
(-2.14475e-07 6.20947e-07 -0.000999592)
(-1.3705e-07 6.18587e-07 -0.000999647)
(-4.70401e-08 6.16265e-07 -0.000999677)
(-3.08743e-07 4.04861e-07 -0.000999257)
(-2.75639e-07 4.02032e-07 -0.000999351)
(-2.17006e-07 3.99641e-07 -0.000999429)
(-1.38652e-07 3.97857e-07 -0.000999485)
(-4.75816e-08 3.96221e-07 -0.000999517)
(-3.10534e-07 1.39723e-07 -0.000999167)
(-2.77217e-07 1.38666e-07 -0.000999262)
(-2.18264e-07 1.37769e-07 -0.000999341)
(-1.3947e-07 1.37096e-07 -0.000999398)
(-4.78667e-08 1.36499e-07 -0.00099943)
(-4.01239e-07 1.184e-06 -0.00099989)
(-3.57288e-07 1.17972e-06 -0.00100001)
(-2.80686e-07 1.17605e-06 -0.0010001)
(-1.79198e-07 1.17329e-06 -0.00100017)
(-6.15035e-08 1.16972e-06 -0.00100021)
(-4.07179e-07 1.07206e-06 -0.00099953)
(-3.62416e-07 1.06586e-06 -0.000999649)
(-2.8477e-07 1.0605e-06 -0.000999748)
(-1.81808e-07 1.05651e-06 -0.00099982)
(-6.24122e-08 1.05248e-06 -0.000999859)
(-4.14442e-07 8.54972e-07 -0.000999221)
(-3.6884e-07 8.48418e-07 -0.000999344)
(-2.89886e-07 8.42804e-07 -0.000999447)
(-1.85089e-07 8.38637e-07 -0.000999521)
(-6.35425e-08 8.34923e-07 -0.000999562)
(-4.20841e-07 5.52093e-07 -0.000998993)
(-3.74528e-07 5.47128e-07 -0.00099912)
(-2.94392e-07 5.42883e-07 -0.000999226)
(-1.87962e-07 5.39743e-07 -0.000999302)
(-6.45249e-08 5.37119e-07 -0.000999345)
(-4.24187e-07 1.90704e-07 -0.000998869)
(-3.77506e-07 1.88845e-07 -0.000998998)
(-2.9677e-07 1.87249e-07 -0.000999106)
(-1.89498e-07 1.86068e-07 -0.000999184)
(-6.50588e-08 1.85112e-07 -0.000999228)
(-5.3949e-07 1.60693e-06 -0.000999857)
(-4.78316e-07 1.60011e-06 -0.00100001)
(-3.74926e-07 1.59381e-06 -0.00100014)
(-2.3907e-07 1.58935e-06 -0.00100023)
(-8.2036e-08 1.58379e-06 -0.00100028)
(-5.49645e-07 1.45756e-06 -0.00099937)
(-4.87067e-07 1.44689e-06 -0.000999527)
(-3.81929e-07 1.43738e-06 -0.000999659)
(-2.43572e-07 1.43046e-06 -0.000999752)
(-8.36724e-08 1.42395e-06 -0.000999804)
(-5.62537e-07 1.16502e-06 -0.000998948)
(-4.98484e-07 1.15354e-06 -0.000999112)
(-3.91145e-07 1.14345e-06 -0.000999251)
(-2.49582e-07 1.13608e-06 -0.00099935)
(-8.58165e-08 1.12993e-06 -0.000999406)
(-5.73949e-07 7.53944e-07 -0.000998636)
(-5.08555e-07 7.45264e-07 -0.000998806)
(-3.99176e-07 7.37661e-07 -0.000998951)
(-2.54723e-07 7.32152e-07 -0.000999053)
(-8.76126e-08 7.27799e-07 -0.000999112)
(-5.80157e-07 2.60779e-07 -0.000998466)
(-5.1408e-07 2.5753e-07 -0.000998639)
(-4.03622e-07 2.54664e-07 -0.000998788)
(-2.57608e-07 2.52592e-07 -0.000998892)
(-8.86465e-08 2.50985e-07 -0.000998953)
(-7.22156e-07 2.17799e-06 -0.00099982)
(-6.3648e-07 2.16769e-06 -0.00100002)
(-4.97918e-07 2.15631e-06 -0.00100018)
(-3.17167e-07 2.14949e-06 -0.0010003)
(-1.08907e-07 2.14028e-06 -0.00100036)
(-7.39718e-07 1.98097e-06 -0.000999162)
(-6.51242e-07 1.96309e-06 -0.000999363)
(-5.0981e-07 1.94565e-06 -0.000999538)
(-3.24687e-07 1.93386e-06 -0.000999658)
(-1.11928e-07 1.92276e-06 -0.000999727)
(-7.62989e-07 1.58894e-06 -0.000998588)
(-6.7178e-07 1.56915e-06 -0.0009988)
(-5.26861e-07 1.55054e-06 -0.00099899)
(-3.36037e-07 1.5375e-06 -0.000999118)
(-1.16231e-07 1.5268e-06 -0.000999197)
(-7.83447e-07 1.03176e-06 -0.000998158)
(-6.89546e-07 1.01694e-06 -0.000998379)
(-5.41161e-07 1.00307e-06 -0.000998581)
(-3.45134e-07 9.93527e-07 -0.000998715)
(-1.19557e-07 9.86056e-07 -0.000998799)
(-7.94944e-07 3.57595e-07 -0.000997921)
(-6.99639e-07 3.52065e-07 -0.000998148)
(-5.49484e-07 3.46807e-07 -0.000998357)
(-3.50564e-07 3.43161e-07 -0.000998495)
(-1.21599e-07 3.40339e-07 -0.000998583)
(-9.60557e-07 2.94375e-06 -0.000999785)
(-8.39383e-07 2.93171e-06 -0.00100003)
(-6.56566e-07 2.90862e-06 -0.00100024)
(-4.17999e-07 2.90045e-06 -0.00100039)
(-1.44146e-07 2.88349e-06 -0.00100047)
(-9.90967e-07 2.68957e-06 -0.000998906)
(-8.63188e-07 2.66268e-06 -0.000999139)
(-6.76158e-07 2.62826e-06 -0.00099938)
(-4.29199e-07 2.60954e-06 -0.000999519)
(-1.49965e-07 2.58897e-06 -0.000999616)
(-1.03409e-06 2.16921e-06 -0.000998125)
(-9.00675e-07 2.13723e-06 -0.000998372)
(-7.09322e-07 2.10086e-06 -0.000998649)
(-4.51713e-07 2.0784e-06 -0.000998806)
(-1.59436e-07 2.05838e-06 -0.000998924)
(-1.07115e-06 1.41589e-06 -0.000997533)
(-9.31405e-07 1.39255e-06 -0.000997787)
(-7.3459e-07 1.36603e-06 -0.000998089)
(-4.67106e-07 1.35045e-06 -0.00099825)
(-1.65684e-07 1.33704e-06 -0.000998378)
(-1.09264e-06 4.92205e-07 -0.000997203)
(-9.49574e-07 4.83559e-07 -0.000997462)
(-7.50496e-07 4.73284e-07 -0.000997781)
(-4.77329e-07 4.67018e-07 -0.000997948)
(-1.69912e-07 4.61724e-07 -0.000998085)
(-1.26592e-06 3.95361e-06 -0.000999783)
(-1.09187e-06 3.9589e-06 -0.00100004)
(-8.60224e-07 3.90058e-06 -0.00100033)
(-5.47371e-07 3.90295e-06 -0.00100051)
(-1.91945e-07 3.86603e-06 -0.00100064)
(-1.31744e-06 3.64079e-06 -0.000998632)
(-1.12522e-06 3.61624e-06 -0.000998809)
(-8.89773e-07 3.53744e-06 -0.000999186)
(-5.56561e-07 3.51553e-06 -0.000999292)
(-2.04248e-07 3.47191e-06 -0.000999444)
(-1.40128e-06 2.96177e-06 -0.000997581)
(-1.1952e-06 2.92072e-06 -0.00099776)
(-9.60401e-07 2.84123e-06 -0.000998236)
(-6.05098e-07 2.80616e-06 -0.000998383)
(-2.28065e-07 2.76418e-06 -0.000998596)
(-1.47003e-06 1.94824e-06 -0.000996765)
(-1.24559e-06 1.92089e-06 -0.000996926)
(-1.0038e-06 1.86479e-06 -0.000997462)
(-6.27152e-07 1.84462e-06 -0.00099759)
(-2.40048e-07 1.81875e-06 -0.000997821)
(-1.51143e-06 6.80288e-07 -0.000996302)
(-1.27767e-06 6.70092e-07 -0.000996456)
(-1.03564e-06 6.47547e-07 -0.000997037)
(-6.46557e-07 6.37674e-07 -0.000997172)
(-2.4976e-07 6.26482e-07 -0.000997426)
(-1.64559e-06 5.23011e-06 -0.000999903)
(-1.39081e-06 5.34815e-06 -0.00100006)
(-1.13015e-06 5.16462e-06 -0.00100053)
(-7.1642e-07 5.2397e-06 -0.00100073)
(-2.65357e-07 5.14315e-06 -0.00100095)
(-1.72692e-06 4.89174e-06 -0.00099846)
(-1.41732e-06 4.94077e-06 -0.00099826)
(-1.15961e-06 4.72738e-06 -0.00099899)
(-6.80618e-07 4.73827e-06 -0.000998844)
(-2.95038e-07 4.62957e-06 -0.000999132)
(-1.90276e-06 4.03606e-06 -0.000997048)
(-1.55511e-06 4.01947e-06 -0.000996835)
(-1.3319e-06 3.82474e-06 -0.000997816)
(-8.03055e-07 3.78093e-06 -0.000997829)