/*--------------------------------*- C++ -*----------------------------------*\
| =========                 |                                                 |
| \\      /  F ield         | OpenFOAM: The Open Source CFD Toolbox           |
|  \\    /   O peration     | Version:  5.x                                   |
|   \\  /    A nd           | Web:      www.OpenFOAM.org                      |
|    \\/     M anipulation  |                                                 |
\*---------------------------------------------------------------------------*/
FoamFile
{
    version     2.0;
    format      ascii;
    class       volVectorField;
    location    "100000";
    object      stored_U;
}
// * * * * * * * * * * * * * * * * * * * * * * * * * * * * * * * * * * * * * //

dimensions      [0 1 -1 0 0 0 0];

internalField   nonuniform List<vector> 
2250
(
(-6.74124e-12 2.56107e-10 -0.000999999)
(6.5385e-12 2.50426e-10 -0.000999999)
(7.60601e-12 2.35943e-10 -0.000999999)
(7.66504e-11 2.05285e-10 -0.000999999)
(-1.13001e-10 2.66368e-10 -0.000999999)
(-1.09155e-11 2.50225e-10 -0.000999999)
(-1.33465e-11 2.47794e-10 -0.000999999)
(-2.4045e-11 2.27468e-10 -0.000999999)
(-3.28043e-11 2.0972e-10 -0.000999999)
(-3.93859e-11 1.10262e-10 -0.000999999)
(-9.63349e-12 2.0043e-10 -0.000999998)
(-1.66963e-11 2.02999e-10 -0.000999998)
(-3.05005e-11 1.93909e-10 -0.000999998)
(-4.05646e-11 1.88382e-10 -0.000999999)
(-5.73286e-11 1.77447e-10 -0.000999999)
(-8.69058e-12 1.37534e-10 -0.000999998)
(-2.02477e-11 1.39105e-10 -0.000999998)
(-3.86781e-11 1.33084e-10 -0.000999998)
(-4.92512e-11 1.26038e-10 -0.000999998)
(-6.20188e-11 1.22305e-10 -0.000999998)
(-8.25876e-12 5.02627e-11 -0.000999998)
(-2.13519e-11 5.07643e-11 -0.000999998)
(-4.35121e-11 4.92143e-11 -0.000999998)
(-5.11506e-11 4.58964e-11 -0.000999998)
(-6.124e-11 4.70997e-11 -0.000999998)
(-8.01156e-12 6.78265e-10 -0.000999999)
(2.01457e-11 6.61666e-10 -0.000999999)
(-6.25639e-12 6.27725e-10 -0.000999999)
(1.3086e-10 5.57565e-10 -0.000999999)
(-2.94843e-10 7.37316e-10 -0.000999999)
(-1.70505e-11 6.66468e-10 -0.000999999)
(-2.64226e-11 6.57839e-10 -0.000999999)
(-7.38375e-11 6.10634e-10 -0.000999999)
(-9.2595e-11 5.77843e-10 -0.000999999)
(-1.39902e-10 3.64426e-10 -0.000999999)
(-1.76784e-11 5.30707e-10 -0.000999998)
(-3.68308e-11 5.32433e-10 -0.000999998)
(-8.63294e-11 5.12017e-10 -0.000999998)
(-1.15373e-10 5.04334e-10 -0.000999998)
(-1.61012e-10 4.74007e-10 -0.000999998)
(-1.61774e-11 3.65135e-10 -0.000999998)
(-4.60491e-11 3.66993e-10 -0.000999998)
(-1.01974e-10 3.51392e-10 -0.000999998)
(-1.3057e-10 3.4108e-10 -0.000999998)
(-1.64275e-10 3.3286e-10 -0.000999998)
(-1.63679e-11 1.34133e-10 -0.000999998)
(-5.11323e-11 1.34143e-10 -0.000999998)
(-1.12104e-10 1.29242e-10 -0.000999998)
(-1.33475e-10 1.23908e-10 -0.000999998)
(-1.60423e-10 1.25868e-10 -0.000999998)
(-1.1518e-11 1.153e-09 -0.000999999)
(-2.53299e-11 1.13574e-09 -0.000999999)
(-1.25083e-10 1.10178e-09 -0.000999999)
(-7.50291e-11 1.04056e-09 -0.000999999)
(-4.16644e-10 1.22011e-09 -0.000999999)
(-2.19477e-11 1.11568e-09 -0.000999998)
(-6.89633e-11 1.10363e-09 -0.000999998)
(-1.73874e-10 1.05992e-09 -0.000999998)
(-2.22641e-10 1.04557e-09 -0.000999998)
(-3.13484e-10 8.9325e-10 -0.000999999)
(-2.53617e-11 8.97681e-10 -0.000999998)
(-8.30924e-11 8.94417e-10 -0.000999998)
(-1.83259e-10 8.7334e-10 -0.000999998)
(-2.41638e-10 8.71057e-10 -0.000999998)
(-3.07162e-10 8.45198e-10 -0.000999998)
(-2.66923e-11 6.09363e-10 -0.000999997)
(-9.492e-11 6.09111e-10 -0.000999997)
(-1.97289e-10 5.89429e-10 -0.000999998)
(-2.50722e-10 5.80189e-10 -0.000999998)
(-3.02824e-10 5.78017e-10 -0.000999998)
(-2.66148e-11 2.19574e-10 -0.000999997)
(-1.04007e-10 2.20007e-10 -0.000999997)
(-2.11906e-10 2.10799e-10 -0.000999997)
(-2.52446e-10 2.05161e-10 -0.000999997)
(-2.96592e-10 2.08423e-10 -0.000999998)
(-3.67898e-11 1.72772e-09 -0.000999998)
(-1.42986e-10 1.72164e-09 -0.000999998)
(-3.27293e-10 1.70989e-09 -0.000999999)
(-4.12967e-10 1.68746e-09 -0.000999999)
(-4.80021e-10 1.7537e-09 -0.000999999)
(-4.39297e-11 1.63122e-09 -0.000999998)
(-1.58931e-10 1.62609e-09 -0.000999998)
(-3.21811e-10 1.60923e-09 -0.000999998)
(-4.15275e-10 1.62801e-09 -0.000999998)
(-4.94963e-10 1.6035e-09 -0.000999998)
(-4.47334e-11 1.32322e-09 -0.000999997)
(-1.68076e-10 1.32217e-09 -0.000999997)
(-3.25629e-10 1.3042e-09 -0.000999997)
(-4.18729e-10 1.30337e-09 -0.000999998)
(-4.86393e-10 1.29621e-09 -0.000999998)
(-4.73298e-11 8.79133e-10 -0.000999997)
(-1.8048e-10 8.71896e-10 -0.000999997)
(-3.40752e-10 8.53128e-10 -0.000999997)
(-4.23192e-10 8.42826e-10 -0.000999997)
(-4.8382e-10 8.46203e-10 -0.000999997)
(-5.34145e-11 3.09938e-10 -0.000999997)
(-1.95431e-10 3.04324e-10 -0.000999997)
(-3.542e-10 2.95345e-10 -0.000999997)
(-4.24801e-10 2.90401e-10 -0.000999997)
(-4.791e-10 2.9292e-10 -0.000999997)
(-8.61385e-11 2.48197e-09 -0.000999998)
(-2.92013e-10 2.49988e-09 -0.000999998)
(-5.3331e-10 2.50081e-09 -0.000999998)
(-7.10812e-10 2.50485e-09 -0.000999999)
(-5.82786e-10 2.45603e-09 -0.000999999)
(-8.00955e-11 2.3002e-09 -0.000999997)
(-2.82425e-10 2.30942e-09 -0.000999997)
(-5.05377e-10 2.30566e-09 -0.000999998)
(-6.36286e-10 2.32999e-09 -0.000999998)
(-6.84306e-10 2.37683e-09 -0.000999998)
(-8.09115e-11 1.86329e-09 -0.000999997)
(-2.90907e-10 1.85875e-09 -0.000999997)
(-5.13077e-10 1.84207e-09 -0.000999997)
(-6.3969e-10 1.83539e-09 -0.000999997)
(-7.02776e-10 1.82894e-09 -0.000999997)
(-8.78963e-11 1.20611e-09 -0.000999996)
(-3.0714e-10 1.19002e-09 -0.000999996)
(-5.28907e-10 1.17584e-09 -0.000999996)
(-6.49291e-10 1.16756e-09 -0.000999997)
(-7.11721e-10 1.16543e-09 -0.000999997)
(-9.88642e-11 4.15219e-10 -0.000999996)
(-3.2283e-10 4.048e-10 -0.000999996)
(-5.34706e-10 3.99793e-10 -0.000999996)
(-6.48799e-10 3.98154e-10 -0.000999996)
(-7.1006e-10 3.99034e-10 -0.000999997)
(-1.40189e-10 3.4889e-09 -0.000999998)
(-4.43324e-10 3.51768e-09 -0.000999998)
(-7.35405e-10 3.52013e-09 -0.000999998)
(-9.75594e-10 3.52141e-09 -0.000999999)
(-8.05762e-10 3.41859e-09 -0.000999999)
(-1.32233e-10 3.19683e-09 -0.000999997)
(-4.35258e-10 3.20567e-09 -0.000999997)
(-7.1891e-10 3.19886e-09 -0.000999997)
(-8.97008e-10 3.20947e-09 -0.000999997)
(-9.26542e-10 3.27213e-09 -0.000999998)
(-1.36886e-10 2.56446e-09 -0.000999996)
(-4.47306e-10 2.55509e-09 -0.000999996)
(-7.32056e-10 2.54167e-09 -0.000999996)
(-9.02368e-10 2.52962e-09 -0.000999996)
(-9.72342e-10 2.52732e-09 -0.000999997)
(-1.45985e-10 1.63294e-09 -0.000999995)
(-4.62798e-10 1.61647e-09 -0.000999995)
(-7.44616e-10 1.61122e-09 -0.000999996)
(-9.11221e-10 1.60806e-09 -0.000999996)
(-9.86033e-10 1.60929e-09 -0.000999996)
(-1.55805e-10 5.55325e-10 -0.000999995)
(-4.71168e-10 5.46177e-10 -0.000999995)
(-7.3931e-10 5.4717e-10 -0.000999995)
(-9.02548e-10 5.50258e-10 -0.000999995)
(-9.84281e-10 5.54194e-10 -0.000999996)
(-2.06002e-10 4.81459e-09 -0.000999998)
(-6.27447e-10 4.84141e-09 -0.000999998)
(-9.94208e-10 4.84857e-09 -0.000999998)
(-1.29042e-09 4.85535e-09 -0.000999998)
(-1.16793e-09 4.74502e-09 -0.000999999)
(-2.03943e-10 4.37503e-09 -0.000999996)
(-6.26049e-10 4.37997e-09 -0.000999996)
(-9.81178e-10 4.37864e-09 -0.000999996)
(-1.22221e-09 4.39088e-09 -0.000999997)
(-1.25733e-09 4.45896e-09 -0.000999997)
(-2.08671e-10 3.48703e-09 -0.000999995)
(-6.32034e-10 3.48314e-09 -0.000999995)
(-9.83893e-10 3.48228e-09 -0.000999995)
(-1.21007e-09 3.47857e-09 -0.000999996)
(-1.31155e-09 3.49458e-09 -0.000999996)
(-2.13815e-10 2.21752e-09 -0.000999994)
(-6.37261e-10 2.2115e-09 -0.000999994)
(-9.8606e-10 2.21768e-09 -0.000999994)
(-1.20971e-09 2.22107e-09 -0.000999995)
(-1.32435e-09 2.22987e-09 -0.000999995)
(-2.18069e-10 7.54562e-10 -0.000999993)
(-6.34804e-10 7.51209e-10 -0.000999994)
(-9.72814e-10 7.57276e-10 -0.000999994)
(-1.19564e-09 7.62833e-10 -0.000999994)
(-1.32287e-09 7.69244e-10 -0.000999994)
(-2.98699e-10 6.57107e-09 -0.000999997)
(-8.72921e-10 6.59854e-09 -0.000999997)
(-1.33594e-09 6.61706e-09 -0.000999998)
(-1.69176e-09 6.63685e-09 -0.000999998)
(-1.66856e-09 6.57302e-09 -0.000999998)
(-2.94026e-10 5.94369e-09 -0.000999995)
(-8.56585e-10 5.96002e-09 -0.000999995)
(-1.3046e-09 5.9788e-09 -0.000999995)
(-1.62151e-09 6.0027e-09 -0.000999996)
(-1.71861e-09 6.07157e-09 -0.000999996)
(-2.9271e-10 4.7336e-09 -0.000999993)
(-8.48939e-10 4.74475e-09 -0.000999993)
(-1.29412e-09 4.75706e-09 -0.000999994)
(-1.59902e-09 4.76165e-09 -0.000999994)
(-1.75778e-09 4.78054e-09 -0.000999995)
(-2.90961e-10 3.02766e-09 -0.000999992)
(-8.41797e-10 3.03477e-09 -0.000999992)
(-1.28814e-09 3.04615e-09 -0.000999992)
(-1.59774e-09 3.04869e-09 -0.000999993)
(-1.77684e-09 3.04944e-09 -0.000999993)
(-2.90271e-10 1.03636e-09 -0.000999991)
(-8.34539e-10 1.03832e-09 -0.000999992)
(-1.2783e-09 1.04409e-09 -0.000999992)
(-1.59282e-09 1.04616e-09 -0.000999992)
(-1.78181e-09 1.04631e-09 -0.000999993)
(-4.10223e-10 8.9471e-09 -0.000999996)
(-1.16394e-09 8.97721e-09 -0.000999996)
(-1.74725e-09 8.99473e-09 -0.000999997)
(-2.18362e-09 9.01665e-09 -0.000999997)
(-2.31751e-09 9.0061e-09 -0.000999998)
(-3.98432e-10 8.08667e-09 -0.000999993)
(-1.13438e-09 8.11887e-09 -0.000999994)
(-1.71614e-09 8.14484e-09 -0.000999994)
(-2.13431e-09 8.15605e-09 -0.000999995)
(-2.34811e-09 8.18803e-09 -0.000999995)
(-3.91892e-10 6.43608e-09 -0.000999991)
(-1.12077e-09 6.45781e-09 -0.000999991)
(-1.71124e-09 6.46866e-09 -0.000999992)
(-2.14045e-09 6.46068e-09 -0.000999992)
(-2.37432e-09 6.44498e-09 -0.000999993)
(-3.87616e-10 4.13449e-09 -0.000999989)
(-1.1135e-09 4.14618e-09 -0.00099999)
(-1.71386e-09 4.14929e-09 -0.00099999)
(-2.15761e-09 4.13756e-09 -0.000999991)
(-2.40752e-09 4.11515e-09 -0.000999991)
(-3.86603e-10 1.42151e-09 -0.000999988)
(-1.11163e-09 1.4243e-09 -0.000999989)
(-1.71735e-09 1.42415e-09 -0.000999989)
(-2.17069e-09 1.41824e-09 -0.00099999)
(-2.42069e-09 1.40756e-09 -0.00099999)
(-5.31618e-10 1.21777e-08 -0.000999995)
(-1.50513e-09 1.22021e-08 -0.000999995)
(-2.27464e-09 1.22e-08 -0.000999996)
(-2.84731e-09 1.22048e-08 -0.000999996)
(-3.1411e-09 1.21924e-08 -0.000999997)
(-5.2365e-10 1.10095e-08 -0.000999991)
(-1.49235e-09 1.10391e-08 -0.000999991)
(-2.27848e-09 1.10432e-08 -0.000999992)
(-2.84911e-09 1.10159e-08 -0.000999993)
(-3.19048e-09 1.09827e-08 -0.000999994)
(-5.20705e-10 8.74428e-09 -0.000999988)
(-1.49177e-09 8.76185e-09 -0.000999988)
(-2.29936e-09 8.75505e-09 -0.000999989)
(-2.90782e-09 8.72071e-09 -0.00099999)
(-3.22282e-09 8.65595e-09 -0.000999991)
(-5.20934e-10 5.62269e-09 -0.000999986)
(-1.49754e-09 5.62939e-09 -0.000999986)
(-2.32044e-09 5.61777e-09 -0.000999987)
(-2.94769e-09 5.59111e-09 -0.000999987)
(-3.26721e-09 5.55253e-09 -0.000999988)
(-5.22735e-10 1.93638e-09 -0.000999984)
(-1.50445e-09 1.93702e-09 -0.000999985)
(-2.33428e-09 1.9306e-09 -0.000999985)
(-2.96773e-09 1.91978e-09 -0.000999986)
(-3.28153e-09 1.90585e-09 -0.000999987)
(-6.85825e-10 1.65466e-08 -0.000999993)
(-1.97148e-09 1.65602e-08 -0.000999993)
(-3.03073e-09 1.65392e-08 -0.000999994)
(-3.80641e-09 1.65218e-08 -0.000999995)
(-4.25541e-09 1.64804e-08 -0.000999996)
(-6.93227e-10 1.49473e-08 -0.000999988)
(-1.99231e-09 1.49592e-08 -0.000999988)
(-3.07423e-09 1.49362e-08 -0.000999989)
(-3.86719e-09 1.48779e-08 -0.00099999)
(-4.31219e-09 1.47927e-08 -0.000999991)
(-6.99372e-10 1.18552e-08 -0.000999984)
(-2.01028e-09 1.18629e-08 -0.000999984)
(-3.11424e-09 1.18417e-08 -0.000999985)
(-3.95002e-09 1.17961e-08 -0.000999986)
(-4.36055e-09 1.17191e-08 -0.000999987)
(-7.05763e-10 7.62099e-09 -0.000999981)
(-2.0275e-09 7.6237e-09 -0.000999981)
(-3.14211e-09 7.60634e-09 -0.000999982)
(-3.98905e-09 7.58114e-09 -0.000999983)
(-4.39942e-09 7.55178e-09 -0.000999984)
(-7.08499e-10 2.62577e-09 -0.000999979)
(-2.0355e-09 2.62635e-09 -0.000999979)
(-3.15235e-09 2.61938e-09 -0.00099998)
(-3.99753e-09 2.61161e-09 -0.000999981)
(-4.4057e-09 2.60468e-09 -0.000999982)
(-9.15064e-10 2.2456e-08 -0.00099999)
(-2.65797e-09 2.24699e-08 -0.000999991)
(-4.12427e-09 2.24488e-08 -0.000999992)
(-5.17833e-09 2.24229e-08 -0.000999993)
(-5.80657e-09 2.23961e-08 -0.000999995)
(-9.33319e-10 2.02569e-08 -0.000999984)
(-2.69381e-09 2.02621e-08 -0.000999984)
(-4.17541e-09 2.02364e-08 -0.000999985)
(-5.25839e-09 2.01834e-08 -0.000999987)
(-5.83139e-09 2.0099e-08 -0.000999988)
(-9.44736e-10 1.60674e-08 -0.000999978)
(-2.71627e-09 1.60759e-08 -0.000999978)
(-4.20586e-09 1.60598e-08 -0.000999979)
(-5.31588e-09 1.60336e-08 -0.000999981)
(-5.87037e-09 1.59879e-08 -0.000999983)
(-9.52387e-10 1.03302e-08 -0.000999974)
(-2.73099e-09 1.03396e-08 -0.000999974)
(-4.21928e-09 1.03309e-08 -0.000999975)
(-5.32929e-09 1.0323e-08 -0.000999977)
(-5.889e-09 1.03165e-08 -0.000999978)
(-9.5138e-10 3.56086e-09 -0.000999971)
(-2.72995e-09 3.56638e-09 -0.000999972)
(-4.21669e-09 3.56416e-09 -0.000999973)
(-5.32104e-09 3.56302e-09 -0.000999974)
(-5.88456e-09 3.56424e-09 -0.000999976)
(-1.24638e-09 3.04922e-08 -0.000999987)
(-3.62261e-09 3.05234e-08 -0.000999988)
(-5.62563e-09 3.0515e-08 -0.000999989)
(-7.07181e-09 3.05054e-08 -0.000999991)
(-7.93727e-09 3.05361e-08 -0.000999994)
(-1.26312e-09 2.7483e-08 -0.000999978)
(-3.64732e-09 2.75044e-08 -0.000999978)
(-5.65503e-09 2.74984e-08 -0.00099998)
(-7.11609e-09 2.74759e-08 -0.000999982)
(-7.8962e-09 2.74431e-08 -0.000999984)
(-1.27247e-09 2.18135e-08 -0.00099997)
(-3.65861e-09 2.18377e-08 -0.000999971)
(-5.65818e-09 2.18393e-08 -0.000999972)
(-7.12723e-09 2.18433e-08 -0.000999974)
(-7.90149e-09 2.18393e-08 -0.000999976)
(-1.27627e-09 1.4033e-08 -0.000999964)
(-3.66153e-09 1.4057e-08 -0.000999965)
(-5.65156e-09 1.40599e-08 -0.000999966)
(-7.11475e-09 1.40661e-08 -0.000999968)
(-7.90027e-09 1.40746e-08 -0.000999971)
(-1.27018e-09 4.84005e-09 -0.000999961)
(-3.65128e-09 4.85232e-09 -0.000999962)
(-5.6414e-09 4.85348e-09 -0.000999963)
(-7.10028e-09 4.85458e-09 -0.000999965)
(-7.88932e-09 4.85716e-09 -0.000999967)
(-1.69478e-09 4.14536e-08 -0.000999982)
(-4.91452e-09 4.1509e-08 -0.000999984)
(-7.62706e-09 4.15095e-08 -0.000999985)
(-9.60113e-09 4.15202e-08 -0.000999988)
(-1.08063e-08 4.1612e-08 -0.000999991)
(-1.70565e-09 3.73653e-08 -0.00099997)
(-4.92651e-09 3.74135e-08 -0.000999971)
(-7.64017e-09 3.74217e-08 -0.000999973)
(-9.61354e-09 3.7418e-08 -0.000999976)
(-1.07014e-08 3.74205e-08 -0.000999979)
(-1.71083e-09 2.96714e-08 -0.000999959)
(-4.92775e-09 2.9716e-08 -0.00099996)
(-7.62807e-09 2.97262e-08 -0.000999962)
(-9.60251e-09 2.9741e-08 -0.000999965)
(-1.06793e-08 2.97517e-08 -0.000999968)
(-1.71168e-09 1.90983e-08 -0.000999951)
(-4.92594e-09 1.9134e-08 -0.000999952)
(-7.61798e-09 1.91365e-08 -0.000999954)
(-9.5862e-09 1.91398e-08 -0.000999957)
(-1.06702e-08 1.91453e-08 -0.00099996)
(-1.70471e-09 6.58945e-09 -0.000999947)
(-4.91627e-09 6.60485e-09 -0.000999948)
(-7.612e-09 6.60359e-09 -0.00099995)
(-9.57739e-09 6.60029e-09 -0.000999953)
(-1.06563e-08 6.598e-09 -0.000999956)
(-2.29335e-09 5.63938e-08 -0.000999976)
(-6.64145e-09 5.64702e-08 -0.000999978)
(-1.03107e-08 5.64629e-08 -0.00099998)
(-1.29826e-08 5.64702e-08 -0.000999984)
(-1.46326e-08 5.65827e-08 -0.000999988)
(-2.30432e-09 5.0863e-08 -0.000999959)
(-6.66207e-09 5.09333e-08 -0.000999961)
(-1.03415e-08 5.09284e-08 -0.000999963)
(-1.30177e-08 5.09072e-08 -0.000999967)
(-1.45076e-08 5.08838e-08 -0.000999971)
(-2.31009e-09 4.0398e-08 -0.000999944)
(-6.67044e-09 4.04568e-08 -0.000999946)
(-1.03443e-08 4.04534e-08 -0.000999949)
(-1.30274e-08 4.04495e-08 -0.000999952)
(-1.44881e-08 4.04377e-08 -0.000999957)
(-2.31403e-09 2.60081e-08 -0.000999934)
(-6.68018e-09 2.60472e-08 -0.000999935)
(-1.03527e-08 2.60352e-08 -0.000999938)
(-1.3031e-08 2.60195e-08 -0.000999942)
(-1.44863e-08 2.60069e-08 -0.000999946)
(-2.31111e-09 8.97344e-09 -0.000999928)
(-6.67977e-09 8.98785e-09 -0.000999929)
(-1.03582e-08 8.98002e-09 -0.000999932)
(-1.30336e-08 8.96816e-09 -0.000999936)
(-1.44712e-08 8.95786e-09 -0.00099994)
(-3.10729e-09 7.67226e-08 -0.000999968)
(-8.99489e-09 7.6817e-08 -0.00099997)
(-1.39694e-08 7.67851e-08 -0.000999974)
(-1.75796e-08 7.67559e-08 -0.000999979)
(-1.97526e-08 7.68354e-08 -0.000999984)
(-3.12639e-09 6.92482e-08 -0.000999945)
(-9.04585e-09 6.93337e-08 -0.000999946)
(-1.40482e-08 6.92914e-08 -0.00099995)
(-1.76794e-08 6.92231e-08 -0.000999955)
(-1.96643e-08 6.91324e-08 -0.000999961)
(-3.13983e-09 5.50069e-08 -0.000999925)
(-9.07977e-09 5.50741e-08 -0.000999927)
(-1.40903e-08 5.50397e-08 -0.00099993)
(-1.77389e-08 5.49963e-08 -0.000999935)
(-1.96814e-08 5.49372e-08 -0.000999941)
(-3.15223e-09 3.54137e-08 -0.00099991)
(-9.11281e-09 3.54532e-08 -0.000999912)
(-1.41312e-08 3.54187e-08 -0.000999916)
(-1.77786e-08 3.53746e-08 -0.000999921)
(-1.97034e-08 3.53332e-08 -0.000999927)
(-3.15479e-09 1.22166e-08 -0.000999902)
(-9.12426e-09 1.22296e-08 -0.000999904)
(-1.41501e-08 1.22136e-08 -0.000999908)
(-1.77944e-08 1.21915e-08 -0.000999913)
(-1.96913e-08 1.21714e-08 -0.000999919)
(-4.22518e-09 1.0436e-07 -0.000999957)
(-1.22305e-08 1.04476e-07 -0.000999959)
(-1.89872e-08 1.0441e-07 -0.000999964)
(-2.38689e-08 1.04322e-07 -0.000999971)
(-2.66666e-08 1.04331e-07 -0.000999979)
(-4.25803e-09 9.42531e-08 -0.000999925)
(-1.23222e-08 9.43537e-08 -0.000999927)
(-1.91249e-08 9.42644e-08 -0.000999932)
(-2.40416e-08 9.4135e-08 -0.000999939)
(-2.66524e-08 9.39687e-08 -0.000999947)
(-4.28477e-09 7.48835e-08 -0.000999898)
(-1.23931e-08 7.49597e-08 -0.0009999)
(-1.92197e-08 7.48859e-08 -0.000999905)
(-2.41651e-08 7.47898e-08 -0.000999912)
(-2.67336e-08 7.46684e-08 -0.00099992)
(-4.30806e-09 4.82108e-08 -0.000999878)
(-1.24553e-08 4.82532e-08 -0.00099988)
(-1.9302e-08 4.81918e-08 -0.000999886)
(-2.42545e-08 4.81145e-08 -0.000999893)
(-2.67985e-08 4.80343e-08 -0.000999901)
(-4.31632e-09 1.66294e-08 -0.000999867)
(-1.24793e-08 1.66424e-08 -0.00099987)
(-1.9333e-08 1.6617e-08 -0.000999875)
(-2.42821e-08 1.65853e-08 -0.000999882)
(-2.68012e-08 1.65537e-08 -0.00099989)
(-5.75579e-09 1.41933e-07 -0.000999941)
(-1.66664e-08 1.42081e-07 -0.000999945)
(-2.5849e-08 1.41975e-07 -0.000999952)
(-3.24361e-08 1.41814e-07 -0.000999961)
(-3.60474e-08 1.41726e-07 -0.000999972)
(-5.80834e-09 1.28252e-07 -0.000999898)
(-1.68049e-08 1.28372e-07 -0.000999901)
(-2.60495e-08 1.28233e-07 -0.000999908)
(-3.2692e-08 1.2803e-07 -0.000999918)
(-3.61332e-08 1.27771e-07 -0.000999929)
(-5.85314e-09 1.0193e-07 -0.000999861)
(-1.6922e-08 1.0202e-07 -0.000999864)
(-2.62106e-08 1.01898e-07 -0.000999871)
(-3.28979e-08 1.01735e-07 -0.000999881)
(-3.63081e-08 1.01531e-07 -0.000999892)
(-5.89055e-09 6.56315e-08 -0.000999834)
(-1.7021e-08 6.56792e-08 -0.000999838)
(-2.63441e-08 6.55869e-08 -0.000999845)
(-3.30527e-08 6.54707e-08 -0.000999854)
(-3.64392e-08 6.53385e-08 -0.000999865)
(-5.90574e-09 2.26381e-08 -0.000999819)
(-1.7058e-08 2.26518e-08 -0.000999823)
(-2.63851e-08 2.26171e-08 -0.00099983)
(-3.30919e-08 2.25759e-08 -0.00099984)
(-3.6474e-08 2.25301e-08 -0.000999851)
(-7.8484e-09 1.93034e-07 -0.00099992)
(-2.27291e-08 1.9323e-07 -0.000999925)
(-3.5204e-08 1.93072e-07 -0.000999934)
(-4.40779e-08 1.92823e-07 -0.000999947)
(-4.88056e-08 1.92619e-07 -0.000999962)
(-7.92627e-09 1.74508e-07 -0.000999861)
(-2.29213e-08 1.74655e-07 -0.000999866)
(-3.54796e-08 1.74457e-07 -0.000999876)
(-4.44506e-08 1.74155e-07 -0.000999888)
(-4.90151e-08 1.73767e-07 -0.000999903)
(-7.9958e-09 1.38767e-07 -0.000999811)
(-2.31005e-08 1.38871e-07 -0.000999816)
(-3.57296e-08 1.38687e-07 -0.000999825)
(-4.47683e-08 1.38433e-07 -0.000999838)
(-4.93221e-08 1.3812e-07 -0.000999853)
(-8.05417e-09 8.93738e-08 -0.000999774)
(-2.32505e-08 8.94287e-08 -0.000999779)
(-3.59311e-08 8.92962e-08 -0.000999789)
(-4.50094e-08 8.91228e-08 -0.000999802)
(-4.95515e-08 8.892e-08 -0.000999817)
(-8.07702e-09 3.08304e-08 -0.000999754)
(-2.33024e-08 3.08467e-08 -0.000999759)
(-3.59901e-08 3.08005e-08 -0.000999769)
(-4.50719e-08 3.07412e-08 -0.000999782)
(-4.96343e-08 3.06744e-08 -0.000999797)
(-1.07094e-08 2.62578e-07 -0.000999892)
(-3.0992e-08 2.62839e-07 -0.000999899)
(-4.79252e-08 2.62599e-07 -0.000999911)
(-5.99063e-08 2.62222e-07 -0.000999929)
(-6.61605e-08 2.61895e-07 -0.000999949)
(-1.08171e-08 2.37518e-07 -0.000999811)
(-3.12576e-08 2.377e-07 -0.000999818)
(-4.8317e-08 2.37408e-07 -0.000999831)
(-6.04409e-08 2.36957e-07 -0.000999849)
(-6.65196e-08 2.36391e-07 -0.000999869)
(-1.09253e-08 1.89005e-07 -0.000999743)
(-3.15348e-08 1.8912e-07 -0.00099975)
(-4.87035e-08 1.88835e-07 -0.000999763)
(-6.0925e-08 1.88439e-07 -0.00099978)
(-6.70188e-08 1.87964e-07 -0.000999801)
(-1.10163e-08 1.21788e-07 -0.000999693)
(-3.17652e-08 1.21847e-07 -0.000999699)
(-4.90159e-08 1.21643e-07 -0.000999713)
(-6.13008e-08 1.21363e-07 -0.00099973)
(-6.741e-08 1.21041e-07 -0.000999751)
(-1.10499e-08 4.20223e-08 -0.000999666)
(-3.18488e-08 4.20421e-08 -0.000999672)
(-4.91281e-08 4.19694e-08 -0.000999686)
(-6.14301e-08 4.18684e-08 -0.000999704)
(-6.75685e-08 4.17561e-08 -0.000999724)
(-1.46047e-08 3.57268e-07 -0.000999853)
(-4.2213e-08 3.57592e-07 -0.000999863)
(-6.51853e-08 3.57201e-07 -0.00099988)
(-8.13884e-08 3.56615e-07 -0.000999904)
(-8.96725e-08 3.56109e-07 -0.000999931)
(-1.47631e-08 3.23464e-07 -0.000999744)
(-4.26227e-08 3.23669e-07 -0.000999754)
(-6.5796e-08 3.23188e-07 -0.000999771)
(-8.21762e-08 3.22472e-07 -0.000999795)
(-9.02742e-08 3.21618e-07 -0.000999822)
(-1.49399e-08 2.57626e-07 -0.00099965)
(-4.30772e-08 2.57728e-07 -0.00099966)
(-6.64298e-08 2.57251e-07 -0.000999678)
(-8.29595e-08 2.56592e-07 -0.000999702)
(-9.10937e-08 2.55818e-07 -0.00099973)
(-1.50869e-08 1.66124e-07 -0.000999582)
(-4.34563e-08 1.66169e-07 -0.000999591)
(-6.69568e-08 1.65815e-07 -0.000999609)
(-8.35936e-08 1.65328e-07 -0.000999634)
(-9.17835e-08 1.64769e-07 -0.000999662)
(-1.51455e-08 5.73456e-08 -0.000999544)
(-4.36175e-08 5.73597e-08 -0.000999554)
(-6.7192e-08 5.72274e-08 -0.000999572)
(-8.38775e-08 5.70439e-08 -0.000999597)
(-9.20906e-08 5.68331e-08 -0.000999626)
(-1.99025e-08 4.86211e-07 -0.000999802)
(-5.74647e-08 4.86565e-07 -0.000999815)
(-8.8626e-08 4.859e-07 -0.000999838)
(-1.10497e-07 4.84965e-07 -0.00099987)
(-1.21397e-07 4.84105e-07 -0.000999907)
(-2.01668e-08 4.40807e-07 -0.000999653)
(-5.81653e-08 4.40973e-07 -0.000999666)
(-8.96453e-08 4.40119e-07 -0.00099969)
(-1.11744e-07 4.38917e-07 -0.000999722)
(-1.22481e-07 4.37528e-07 -0.000999759)
(-2.04671e-08 3.51511e-07 -0.000999524)
(-5.89481e-08 3.51536e-07 -0.000999537)
(-9.07465e-08 3.50685e-07 -0.000999562)
(-1.13091e-07 3.49528e-07 -0.000999595)
(-1.23883e-07 3.48188e-07 -0.000999633)
(-2.07175e-08 2.26895e-07 -0.00099943)
(-5.96114e-08 2.26869e-07 -0.000999443)
(-9.16867e-08 2.26227e-07 -0.000999468)
(-1.1422e-07 2.25359e-07 -0.000999502)
(-1.25113e-07 2.24362e-07 -0.000999541)
(-2.08323e-08 7.83713e-08 -0.000999379)
(-5.9931e-08 7.83557e-08 -0.000999392)
(-9.21534e-08 7.81128e-08 -0.000999418)
(-1.14788e-07 7.77841e-08 -0.000999452)
(-1.25711e-07 7.74013e-08 -0.000999491)
(-2.7149e-08 6.61804e-07 -0.000999732)
(-7.83146e-08 6.62131e-07 -0.00099975)
(-1.20581e-07 6.61006e-07 -0.000999782)
(-1.49994e-07 6.59479e-07 -0.000999826)
(-1.64157e-07 6.57971e-07 -0.000999875)
(-2.76084e-08 6.01168e-07 -0.000999528)
(-7.95307e-08 6.01176e-07 -0.000999546)
(-1.22308e-07 5.99654e-07 -0.000999579)
(-1.52042e-07 5.97584e-07 -0.000999624)
(-1.6612e-07 5.95256e-07 -0.000999675)
(-2.8128e-08 4.80227e-07 -0.000999352)
(-8.09057e-08 4.80041e-07 -0.000999371)
(-1.24261e-07 4.78505e-07 -0.000999405)
(-1.54394e-07 4.76442e-07 -0.000999451)
(-1.68575e-07 4.74099e-07 -0.000999503)
(-2.85717e-08 3.1042e-07 -0.000999223)
(-8.20922e-08 3.10213e-07 -0.000999241)
(-1.25954e-07 3.09054e-07 -0.000999276)
(-1.5642e-07 3.07502e-07 -0.000999323)
(-1.70748e-07 3.05744e-07 -0.000999377)
(-2.87945e-08 1.07308e-07 -0.000999152)
(-8.27007e-08 1.0722e-07 -0.000999171)
(-1.26838e-07 1.06786e-07 -0.000999207)
(-1.57485e-07 1.06202e-07 -0.000999254)
(-1.71883e-07 1.05537e-07 -0.000999309)
(-3.71232e-08 9.0099e-07 -0.000999639)
(-1.06962e-07 9.01192e-07 -0.000999663)
(-1.64256e-07 8.99299e-07 -0.000999708)
(-2.03594e-07 8.9675e-07 -0.000999767)
(-2.21712e-07 8.94162e-07 -0.000999834)
(-3.7917e-08 8.20671e-07 -0.00099936)
(-1.09052e-07 8.20293e-07 -0.000999385)
(-1.67201e-07 8.17599e-07 -0.000999431)
(-2.0702e-07 8.1399e-07 -0.000999492)
(-2.25185e-07 8.10051e-07 -0.000999561)
(-3.88333e-08 6.57222e-07 -0.000999118)
(-1.11488e-07 6.56554e-07 -0.000999144)
(-1.70678e-07 6.53788e-07 -0.000999191)
(-2.11145e-07 6.50085e-07 -0.000999255)
(-2.29513e-07 6.45994e-07 -0.000999326)
(-3.96338e-08 4.25675e-07 -0.000998939)
(-1.13619e-07 4.25076e-07 -0.000998965)
(-1.73732e-07 4.22992e-07 -0.000999015)
(-2.14777e-07 4.2019e-07 -0.00099908)
(-2.33352e-07 4.17101e-07 -0.000999154)
(-4.00536e-08 1.47313e-07 -0.000998841)
(-1.14758e-07 1.47079e-07 -0.000998868)
(-1.75396e-07 1.463e-07 -0.000998918)
(-2.16755e-07 1.45246e-07 -0.000998985)
(-2.35459e-07 1.44089e-07 -0.00099906)
(-5.08949e-08 1.22695e-06 -0.000999514)
(-1.46418e-07 1.22678e-06 -0.000999548)
(-2.23977e-07 1.22357e-06 -0.000999609)
(-2.76135e-07 1.2192e-06 -0.00099969)
(-2.98901e-07 1.21483e-06 -0.00099978)
(-5.22804e-08 1.12188e-06 -0.000999133)
(-1.50041e-07 1.12062e-06 -0.000999168)
(-2.29104e-07 1.11585e-06 -0.000999231)
(-2.8204e-07 1.1094e-06 -0.000999315)
(-3.05013e-07 1.10262e-06 -0.000999409)
(-5.39364e-08 9.01654e-07 -0.000998798)
(-1.54409e-07 8.9994e-07 -0.000998835)
(-2.35365e-07 8.94954e-07 -0.000998902)
(-2.89369e-07 8.88197e-07 -0.000998991)
(-3.12699e-07 8.8105e-07 -0.000999088)
(-5.54034e-08 5.85637e-07 -0.000998549)
(-1.58271e-07 5.84206e-07 -0.000998587)
(-2.40934e-07 5.80433e-07 -0.000998657)
(-2.95894e-07 5.75282e-07 -0.00099875)
(-3.19531e-07 5.69886e-07 -0.000998851)
(-5.62054e-08 2.02991e-07 -0.000998412)
(-1.60415e-07 2.02442e-07 -0.000998451)
(-2.44081e-07 2.01031e-07 -0.000998523)
(-2.99562e-07 1.99092e-07 -0.000998618)
(-3.23391e-07 1.9708e-07 -0.000998722)
(-6.99153e-08 1.67136e-06 -0.00099935)
(-2.0087e-07 1.67022e-06 -0.000999397)
(-3.05701e-07 1.66473e-06 -0.000999481)
(-3.74079e-07 1.6569e-06 -0.00099959)
(-4.01991e-07 1.64975e-06 -0.000999711)
(-7.2421e-08 1.53665e-06 -0.000998826)
(-2.07281e-07 1.53346e-06 -0.000998876)
(-3.14889e-07 1.52494e-06 -0.000998965)
(-3.8448e-07 1.513e-06 -0.000999081)
(-4.12809e-07 1.50142e-06 -0.000999207)
(-7.55065e-08 1.2413e-06 -0.000998361)
(-2.15218e-07 1.23731e-06 -0.000998414)
(-3.26376e-07 1.22833e-06 -0.000998509)
(-3.97605e-07 1.21563e-06 -0.000998635)
(-4.26557e-07 1.20341e-06 -0.000998767)
(-7.82902e-08 8.09434e-07 -0.000998011)
(-2.22306e-07 8.06179e-07 -0.000998067)
(-3.36688e-07 7.99412e-07 -0.000998167)
(-4.09328e-07 7.89655e-07 -0.000998302)
(-4.38739e-07 7.80532e-07 -0.00099844)
(-7.98867e-08 2.81177e-07 -0.000997817)
(-2.26341e-07 2.79927e-07 -0.000997876)
(-3.42656e-07 2.77417e-07 -0.000997979)
(-4.16056e-07 2.73728e-07 -0.000998119)
(-4.45705e-07 2.70363e-07 -0.00099826)
(-9.60787e-08 2.27742e-06 -0.000999137)
(-2.76218e-07 2.27381e-06 -0.000999201)
(-4.1778e-07 2.26462e-06 -0.000999319)
(-5.05931e-07 2.2496e-06 -0.000999467)
(-5.39165e-07 2.23912e-06 -0.000999626)
(-1.00853e-07 2.11069e-06 -0.000998415)
(-2.87758e-07 2.10307e-06 -0.000998485)
(-4.34765e-07 2.08812e-06 -0.000998611)
(-5.24218e-07 2.06481e-06 -0.000998775)
(-5.5847e-07 2.04639e-06 -0.000998939)
(-1.06873e-07 1.71734e-06 -0.000997763)
(-3.02307e-07 1.70821e-06 -0.000997841)
(-4.56343e-07 1.6925e-06 -0.000997975)
(-5.47672e-07 1.66729e-06 -0.000998162)
(-5.83177e-07 1.64801e-06 -0.000998332)
(-1.12474e-07 1.12598e-06 -0.000997264)
(-3.15342e-07 1.11851e-06 -0.000997352)
(-4.75844e-07 1.10701e-06 -0.000997492)
(-5.68618e-07 1.08731e-06 -0.0009977)
(-6.04715e-07 1.07345e-06 -0.000997874)
(-1.15832e-07 3.92282e-07 -0.000996986)
(-3.22784e-07 3.89397e-07 -0.00099708)
(-4.87287e-07 3.85256e-07 -0.000997223)
(-5.80745e-07 3.77722e-07 -0.000997445)
(-6.17034e-07 3.72789e-07 -0.00099762)
(-1.31474e-07 3.10341e-06 -0.000998871)
(-3.80797e-07 3.09349e-06 -0.000998954)
(-5.71948e-07 3.07967e-06 -0.000999124)
(-6.81559e-07 3.04744e-06 -0.000999322)
(-7.2122e-07 3.03769e-06 -0.000999526)
(-1.41238e-07 2.91107e-06 -0.000997869)
(-4.01604e-07 2.89287e-06 -0.000997969)
(-6.04723e-07 2.86855e-06 -0.000998145)
(-7.13065e-07 2.81839e-06 -0.000998387)
(-7.56627e-07 2.79585e-06 -0.000998581)
(-1.53831e-07 2.39265e-06 -0.000996941)
(-4.27983e-07 2.3709e-06 -0.000997063)
(-6.46835e-07 2.34652e-06 -0.000997247)
(-7.54273e-07 2.29067e-06 -0.000997547)
(-8.01198e-07 2.26841e-06 -0.000997729)
(-1.6619e-07 1.58045e-06 -0.000996219)
(-4.51346e-07 1.56216e-06 -0.000996367)
(-6.85173e-07 1.54619e-06 -0.000996549)
(-7.91061e-07 1.50105e-06 -0.00099691)
(-8.38514e-07 1.48758e-06 -0.000997074)
(-1.74032e-07 5.52726e-07 -0.000995813)
(-4.64294e-07 5.45516e-07 -0.000995978)
(-7.07722e-07 5.40412e-07 -0.000996154)
(-8.12393e-07 5.22803e-07 -0.000996555)
(-8.59544e-07 5.18807e-07 -0.000996703)
(-1.76716e-07 4.22604e-06 -0.000998564)
(-5.26362e-07 4.19874e-06 -0.00099866)
(-7.85148e-07 4.18594e-06 -0.000998916)
(-9.08697e-07 4.10462e-06 -0.000999172)
(-9.64638e-07 4.12403e-06 -0.000999415)
(-1.98735e-07 4.04021e-06 -0.000997152)
(-5.62747e-07 3.99412e-06 -0.000997294)
(-8.53296e-07 3.96484e-06 -0.00099754)
(-9.59881e-07 3.83951e-06 -0.000997928)
(-1.03326e-06 3.84408e-06 -0.000998082)
(-2.27988e-07 3.36717e-06 -0.000995809)
(-6.07802e-07 3.31028e-06 -0.000996014)
(-9.40301e-07 3.28848e-06 -0.000996235)
(-1.02947e-06 3.14448e-06 -0.000996791)
(-1.11316e-06 3.15549e-06 -0.000996852)
(-2.59425e-07 2.24651e-06 -0.000994737)
(-6.46052e-07 2.1961e-06 -0.000995019)
(-1.01941e-06 2.19169e-06 -0.000995193)
(-1.09273e-06 2.07126e-06 -0.000995924)
(-1.17499e-06 2.09111e-06 -0.000995884)
(-2.80591e-07 7.89485e-07 -0.000994127)
(-6.65333e-07 7.69095e-07 -0.000994461)
(-1.06505e-06 7.71136e-07 -0.00099459)
(-1.1297e-06 7.23502e-07 -0.000995436)
(-1.20833e-06 7.34149e-07 -0.000995325)
(-2.23512e-07 5.73741e-06 -0.000998295)
(-7.29085e-07 5.66057e-06 -0.000998357)
(-1.0838e-06 5.6846e-06 -0.000998789)
(-1.17989e-06 5.45049e-06 -0.000999081)
(-1.30088e-06 5.62075e-06 -0.000999312)
(-2.79822e-07 5.6665e-06 -0.00099623)
(-7.87328e-07 5.5389e-06 -0.000996425)
(-1.23943e-06 5.54959e-06 -0.00099676)
(-1.25516e-06 5.19924e-06 -0.000997453)