/*--------------------------------*- C++ -*----------------------------------*\
| =========                 |                                                 |
| \\      /  F ield         | OpenFOAM: The Open Source CFD Toolbox           |
|  \\    /   O peration     | Version:  5.x                                   |
|   \\  /    A nd           | Web:      www.OpenFOAM.org                      |
|    \\/     M anipulation  |                                                 |
\*---------------------------------------------------------------------------*/
FoamFile
{
    version     2.0;
    format      ascii;
    class       volScalarField;
    location    "0.1";
    object      p;
}
// * * * * * * * * * * * * * * * * * * * * * * * * * * * * * * * * * * * * * //

dimensions      [0 2 -2 0 0 0 0];

internalField   nonuniform List<scalar> 
2250
(
-3.36902e-09
-3.32359e-09
-3.29184e-09
-3.30945e-09
-3.30785e-09
-3.3847e-09
-3.32354e-09
-3.27422e-09
-3.27636e-09
-3.26226e-09
-3.35039e-09
-3.26252e-09
-3.24854e-09
-3.24274e-09
-3.21578e-09
-3.30327e-09
-3.23211e-09
-3.22134e-09
-3.19692e-09
-3.17231e-09
-3.24124e-09
-3.19872e-09
-3.18037e-09
-3.1649e-09
-3.1532e-09
-1.00002e-08
-9.84796e-09
-9.78698e-09
-9.80344e-09
-9.77137e-09
-9.96266e-09
-9.80261e-09
-9.69128e-09
-9.65492e-09
-9.6134e-09
-9.83792e-09
-9.64125e-09
-9.56944e-09
-9.53088e-09
-9.47547e-09
-9.67971e-09
-9.51176e-09
-9.45094e-09
-9.4191e-09
-9.37018e-09
-9.51834e-09
-9.4052e-09
-9.35861e-09
-9.33714e-09
-9.2906e-09
-1.63053e-08
-1.60382e-08
-1.59376e-08
-1.58876e-08
-1.58101e-08
-1.60904e-08
-1.58668e-08
-1.57201e-08
-1.5633e-08
-1.55584e-08
-1.58392e-08
-1.56239e-08
-1.55248e-08
-1.54683e-08
-1.53884e-08
-1.56018e-08
-1.54381e-08
-1.53782e-08
-1.53495e-08
-1.52899e-08
-1.54428e-08
-1.53187e-08
-1.52809e-08
-1.52589e-08
-1.5194e-08
-2.20852e-08
-2.17724e-08
-2.15772e-08
-2.14094e-08
-2.12643e-08
-2.1721e-08
-2.14856e-08
-2.13003e-08
-2.11638e-08
-2.10681e-08
-2.1373e-08
-2.12159e-08
-2.11115e-08
-2.10528e-08
-2.09862e-08
-2.11361e-08
-2.1038e-08
-2.10097e-08
-2.09977e-08
-2.09617e-08
-2.10249e-08
-2.09497e-08
-2.09574e-08
-2.09545e-08
-2.09168e-08
-2.7531e-08
-2.71539e-08
-2.6817e-08
-2.65429e-08
-2.63806e-08
-2.7062e-08
-2.68199e-08
-2.65941e-08
-2.64475e-08
-2.63814e-08
-2.66737e-08
-2.6584e-08
-2.64981e-08
-2.64637e-08
-2.64572e-08
-2.64817e-08
-2.64752e-08
-2.64918e-08
-2.65197e-08
-2.65171e-08
-2.64252e-08
-2.64475e-08
-2.65147e-08
-2.65353e-08
-2.65247e-08
-3.27768e-08
-3.2367e-08
-3.19633e-08
-3.17007e-08
-3.16191e-08
-3.23182e-08
-3.20842e-08
-3.18709e-08
-3.17773e-08
-3.17616e-08
-3.19904e-08
-3.19434e-08
-3.18948e-08
-3.18877e-08
-3.19234e-08
-3.18685e-08
-3.19234e-08
-3.19579e-08
-3.20052e-08
-3.2013e-08
-3.18558e-08
-3.19378e-08
-3.20173e-08
-3.20413e-08
-3.20313e-08
-3.78221e-08
-3.75483e-08
-3.72431e-08
-3.71079e-08
-3.71411e-08
-3.75799e-08
-3.73888e-08
-3.72414e-08
-3.72176e-08
-3.723e-08
-3.74089e-08
-3.73494e-08
-3.73169e-08
-3.73183e-08
-3.73508e-08
-3.7341e-08
-3.73732e-08
-3.73803e-08
-3.74153e-08
-3.74081e-08
-3.73314e-08
-3.73825e-08
-3.74191e-08
-3.74285e-08
-3.73981e-08
-4.28249e-08
-4.27564e-08
-4.26147e-08
-4.26112e-08
-4.27072e-08
-4.28506e-08
-4.2688e-08
-4.25945e-08
-4.26061e-08
-4.26182e-08
-4.28059e-08
-4.26775e-08
-4.26272e-08
-4.2622e-08
-4.26236e-08
-4.27282e-08
-4.26745e-08
-4.26407e-08
-4.26489e-08
-4.26108e-08
-4.26747e-08
-4.26481e-08
-4.26309e-08
-4.26128e-08
-4.25522e-08
-4.79776e-08
-4.79367e-08
-4.78757e-08
-4.79257e-08
-4.80179e-08
-4.80294e-08
-4.78367e-08
-4.7755e-08
-4.77645e-08
-4.77637e-08
-4.79677e-08
-4.77665e-08
-4.76954e-08
-4.76739e-08
-4.7633e-08
-4.78238e-08
-4.76983e-08
-4.76394e-08
-4.76039e-08
-4.75278e-08
-4.77199e-08
-4.76361e-08
-4.75727e-08
-4.75082e-08
-4.74228e-08
-5.31033e-08
-5.29269e-08
-5.28707e-08
-5.29176e-08
-5.29812e-08
-5.29166e-08
-5.26932e-08
-5.26222e-08
-5.26202e-08
-5.26044e-08
-5.27354e-08
-5.25266e-08
-5.24592e-08
-5.24114e-08
-5.2333e-08
-5.25375e-08
-5.23994e-08
-5.23224e-08
-5.22275e-08
-5.21323e-08
-5.24333e-08
-5.23139e-08
-5.22002e-08
-5.20869e-08
-5.20005e-08
-5.77825e-08
-5.75946e-08
-5.75909e-08
-5.76405e-08
-5.76833e-08
-5.73633e-08
-5.72151e-08
-5.72022e-08
-5.72075e-08
-5.7187e-08
-5.70889e-08
-5.69601e-08
-5.6925e-08
-5.68637e-08
-5.67818e-08
-5.68989e-08
-5.67911e-08
-5.67012e-08
-5.65726e-08
-5.65017e-08
-5.68481e-08
-5.66874e-08
-5.65361e-08
-5.64147e-08
-5.63491e-08
-6.19486e-08
-6.20001e-08
-6.21505e-08
-6.22399e-08
-6.22787e-08
-6.1435e-08
-6.14952e-08
-6.15914e-08
-6.16413e-08
-6.16445e-08
-6.11233e-08
-6.11386e-08
-6.11699e-08
-6.11486e-08
-6.11122e-08
-6.09581e-08
-6.09111e-08
-6.08533e-08
-6.07654e-08
-6.07506e-08
-6.09396e-08
-6.0773e-08
-6.06521e-08
-6.05868e-08
-6.05474e-08
-6.5996e-08
-6.6369e-08
-6.67147e-08
-6.6876e-08
-6.69319e-08
-6.5366e-08
-6.56978e-08
-6.59277e-08
-6.60619e-08
-6.61191e-08
-6.49575e-08
-6.51581e-08
-6.53038e-08
-6.53856e-08
-6.54287e-08
-6.47183e-08
-6.4799e-08
-6.48582e-08
-6.48887e-08
-6.49357e-08
-6.46276e-08
-6.45873e-08
-6.46014e-08
-6.4643e-08
-6.46487e-08
-7.03461e-08
-7.09195e-08
-7.14106e-08
-7.16581e-08
-7.17588e-08
-6.93814e-08
-6.99495e-08
-7.03113e-08
-7.05531e-08
-7.06822e-08
-6.86791e-08
-6.90937e-08
-6.93987e-08
-6.96188e-08
-6.97571e-08
-6.81891e-08
-6.84952e-08
-6.87468e-08
-6.89434e-08
-6.90624e-08
-6.79188e-08
-6.81667e-08
-6.84008e-08
-6.85862e-08
-6.86938e-08
-7.51578e-08
-7.57429e-08
-7.62861e-08
-7.663e-08
-7.68113e-08
-7.35851e-08
-7.42833e-08
-7.4767e-08
-7.51281e-08
-7.53411e-08
-7.23523e-08
-7.29797e-08
-7.34674e-08
-7.38391e-08
-7.40778e-08
-7.14673e-08
-7.20476e-08
-7.25234e-08
-7.29083e-08
-7.31256e-08
-7.09786e-08
-7.15681e-08
-7.20547e-08
-7.24223e-08
-7.26704e-08
-8.02887e-08
-8.08026e-08
-8.13624e-08
-8.1828e-08
-8.21103e-08
-7.7917e-08
-7.86579e-08
-7.92737e-08
-7.97639e-08
-8.00574e-08
-7.59904e-08
-7.67952e-08
-7.74688e-08
-7.79939e-08
-7.83138e-08
-7.46408e-08
-7.54525e-08
-7.61471e-08
-7.67195e-08
-7.70332e-08
-7.39233e-08
-7.47744e-08
-7.55039e-08
-7.60686e-08
-7.64057e-08
-8.539e-08
-8.59751e-08
-8.66338e-08
-8.72338e-08
-8.75843e-08
-8.21354e-08
-8.29555e-08
-8.37398e-08
-8.43492e-08
-8.469e-08
-7.94309e-08
-8.03938e-08
-8.12434e-08
-8.19029e-08
-8.2261e-08
-7.75397e-08
-7.85289e-08
-7.94255e-08
-8.01499e-08
-8.05101e-08
-7.65388e-08
-7.75752e-08
-7.85182e-08
-7.92347e-08
-7.95767e-08
-9.02513e-08
-9.11183e-08
-9.1977e-08
-9.26808e-08
-9.30472e-08
-8.59236e-08
-8.69524e-08
-8.79357e-08
-8.86441e-08
-8.90079e-08
-8.22983e-08
-8.34549e-08
-8.44742e-08
-8.52446e-08
-8.56218e-08
-7.97061e-08
-8.08946e-08
-8.19829e-08
-8.28085e-08
-8.31842e-08
-7.83295e-08
-7.95678e-08
-8.06932e-08
-8.15002e-08
-8.18403e-08
-9.49058e-08
-9.61233e-08
-9.72179e-08
-9.80226e-08
-9.84245e-08
-8.90266e-08
-9.03735e-08
-9.15837e-08
-9.24271e-08
-9.28539e-08
-8.41561e-08
-8.55763e-08
-8.68028e-08
-8.77035e-08
-8.81432e-08
-8.06268e-08
-8.20866e-08
-8.33797e-08
-8.43005e-08
-8.47291e-08
-7.87468e-08
-8.02599e-08
-8.15687e-08
-8.24663e-08
-8.28523e-08
-9.92094e-08
-1.00894e-07
-1.02342e-07
-1.03386e-07
-1.03935e-07
-9.11964e-08
-9.29981e-08
-9.45408e-08
-9.56464e-08
-9.62307e-08
-8.45996e-08
-8.64052e-08
-8.79529e-08
-8.90664e-08
-8.96441e-08
-7.9826e-08
-8.16555e-08
-8.32132e-08
-8.42971e-08
-8.4833e-08
-7.72715e-08
-7.9153e-08
-8.06944e-08
-8.17424e-08
-8.22179e-08
-1.0294e-07
-1.05444e-07
-1.07554e-07
-1.091e-07
-1.09938e-07
-9.21894e-08
-9.46989e-08
-9.67928e-08
-9.8328e-08
-9.91572e-08
-8.3236e-08
-8.56378e-08
-8.76746e-08
-8.91276e-08
-8.98981e-08
-7.67862e-08
-7.91323e-08
-8.10733e-08
-8.24315e-08
-8.31259e-08
-7.3379e-08
-7.57087e-08
-7.75728e-08
-7.88723e-08
-7.95331e-08
-1.06332e-07
-1.0999e-07
-1.13099e-07
-1.15394e-07
-1.16603e-07
-9.18406e-08
-9.53355e-08
-9.8242e-08
-1.00361e-07
-1.01486e-07
-7.96185e-08
-8.28731e-08
-8.55929e-08
-8.75375e-08
-8.85504e-08
-7.08384e-08
-7.39023e-08
-7.64151e-08
-7.81943e-08
-7.91533e-08
-6.62972e-08
-6.91952e-08
-7.15602e-08
-7.32951e-08
-7.42818e-08
-1.0966e-07
-1.14709e-07
-1.19038e-07
-1.22212e-07
-1.23808e-07
-8.98249e-08
-9.45581e-08
-9.85317e-08
-1.01386e-07
-1.02861e-07
-7.30396e-08
-7.74257e-08
-8.10653e-08
-8.36777e-08
-8.50273e-08
-6.09877e-08
-6.50356e-08
-6.83856e-08
-7.07983e-08
-7.21505e-08
-5.47635e-08
-5.85235e-08
-6.17026e-08
-6.41105e-08
-6.54818e-08
-1.12653e-07
-1.19473e-07
-1.25246e-07
-1.29396e-07
-1.3144e-07
-8.54106e-08
-9.17069e-08
-9.70142e-08
-1.00799e-07
-1.02728e-07
-6.23469e-08
-6.81753e-08
-7.30221e-08
-7.65209e-08
-7.83366e-08
-4.57486e-08
-5.11033e-08
-5.56148e-08
-5.89156e-08
-6.07139e-08
-3.70593e-08
-4.21116e-08
-4.64738e-08
-4.97379e-08
-5.1493e-08
-1.1467e-07
-1.23825e-07
-1.31486e-07
-1.36893e-07
-1.39583e-07
-7.73789e-08
-8.57081e-08
-9.27178e-08
-9.77325e-08
-1.00286e-07
-4.57769e-08
-5.34293e-08
-5.98561e-08
-6.45279e-08
-6.69278e-08
-2.29344e-08
-3.00129e-08
-3.60629e-08
-4.04828e-08
-4.27629e-08
-1.08651e-08
-1.76922e-08
-2.35616e-08
-2.78389e-08
-3.00709e-08
-1.14761e-07
-1.27062e-07
-1.37372e-07
-1.4463e-07
-1.48309e-07
-6.3869e-08
-7.49535e-08
-8.42705e-08
-9.09796e-08
-9.4389e-08
-2.07324e-08
-3.08259e-08
-3.93617e-08
-4.55663e-08
-4.86816e-08
1.05472e-08
1.13004e-09
-6.89408e-09
-1.26911e-08
-1.56162e-08
2.71053e-08
1.79455e-08
1.02331e-08
4.63823e-09
1.77331e-09
-1.11849e-07
-1.28551e-07
-1.42485e-07
-1.5242e-07
-1.57531e-07
-4.25228e-08
-5.74142e-08
-6.98794e-08
-7.89217e-08
-8.34913e-08
1.62278e-08
2.7402e-09
-8.5647e-09
-1.67786e-08
-2.08263e-08
5.88136e-08
4.62108e-08
3.57015e-08
2.80702e-08
2.42659e-08
8.13531e-08
6.9141e-08
5.91166e-08
5.17302e-08
4.81089e-08
-1.05067e-07
-1.27792e-07
-1.4655e-07
-1.60199e-07
-1.6719e-07
-1.05342e-08
-3.0668e-08
-4.72724e-08
-5.95235e-08
-6.564e-08
6.94804e-08
5.12866e-08
3.65373e-08
2.56085e-08
2.04034e-08
1.27261e-07
1.10293e-07
9.67458e-08
8.65179e-08
8.1654e-08
1.57852e-07
1.415e-07
1.28723e-07
1.18931e-07
1.14498e-07
-9.3097e-08
-1.24097e-07
-1.49303e-07
-1.68196e-07
-1.77551e-07
3.6041e-08
8.39576e-09
-1.33877e-08
-3.02592e-08
-3.83854e-08
1.45001e-07
1.1999e-07
1.01511e-07
8.67457e-08
8.05262e-08
2.23158e-07
1.99743e-07
1.82956e-07
1.68754e-07
1.62773e-07
2.64829e-07
2.4214e-07
2.26993e-07
2.13501e-07
2.0864e-07
-7.30877e-08
-1.16639e-07
-1.50023e-07
-1.76725e-07
-1.88747e-07
1.03321e-07
6.36243e-08
3.63012e-08
1.19408e-08
1.21224e-09
2.52041e-07
2.15152e-07
1.94965e-07
1.73933e-07
1.68305e-07
3.57005e-07
3.21779e-07
3.03762e-07
2.81975e-07
2.75625e-07
4.14596e-07
3.79248e-07
3.65856e-07
3.44583e-07
3.41685e-07
-3.95542e-08
-1.05682e-07
-1.4671e-07
-1.86374e-07
-1.99186e-07
2.01526e-07
1.38433e-07
1.09211e-07
6.99792e-08
5.64921e-08
4.06755e-07
3.42881e-07
3.32059e-07
2.96512e-07
2.97763e-07
5.4452e-07
4.83154e-07
4.73681e-07
4.3403e-07
4.31381e-07
6.26435e-07
5.60929e-07
5.64513e-07
5.23124e-07
5.30179e-07
1.87479e-08
-9.60434e-08
-1.33387e-07
-2.00794e-07
-2.04591e-07
3.46208e-07
2.36045e-07
2.18219e-07
1.46997e-07
1.33157e-07
6.35686e-07
5.0949e-07
5.37075e-07
4.66609e-07
4.90852e-07
8.07046e-07
6.92718e-07
7.12804e-07
6.35867e-07
6.45447e-07
9.28815e-07
7.9776e-07
8.49467e-07
7.64461e-07
7.98011e-07
1.26827e-07
-9.74859e-08
-9.46802e-08
-2.26037e-07
-1.94388e-07
5.56125e-07
3.6839e-07
3.80838e-07
2.5239e-07
2.39362e-07
9.77567e-07
7.24706e-07
8.40959e-07
7.05725e-07
7.83105e-07
1.1711e-06
9.66672e-07
1.04334e-06
9.05064e-07
9.35939e-07
1.36127e-06
1.10576e-06
1.25405e-06
1.09103e-06
1.18046e-06
3.39068e-07
-1.17077e-07
-1.27804e-09
-2.65303e-07
-1.3733e-07
8.5038e-07
5.61568e-07
6.16766e-07
4.03529e-07
3.80139e-07
1.48823e-06
9.96021e-07
1.28365e-06
1.05016e-06
1.23825e-06
1.66486e-06
1.32759e-06
1.48767e-06
1.2655e-06
1.3232e-06
1.97929e-06
1.50316e-06
1.82153e-06
1.53194e-06
1.73548e-06
7.14187e-07
-1.91221e-07
1.33537e-07
-3.7992e-07
-3.02731e-08
1.22146e-06
8.06225e-07
9.06219e-07
5.83184e-07
5.16298e-07
2.21654e-06
1.29475e-06
1.85965e-06
1.48254e-06
1.88479e-06
2.2922e-06
1.78797e-06
2.03309e-06
1.73321e-06
1.80627e-06
2.83398e-06
1.99322e-06
2.57035e-06
2.08213e-06
2.50626e-06
8.82713e-07
-7.61939e-07
-5.79091e-07
-1.38312e-06
-9.94448e-07
1.58107e-06
8.21525e-07
6.54148e-07
2.04848e-07
-1.01743e-07
2.99698e-06
1.42174e-06
2.01383e-06
1.24296e-06
1.58947e-06
2.96684e-06
2.28526e-06
2.38844e-06
1.90358e-06
1.86912e-06
3.82196e-06
2.56248e-06
3.2832e-06
2.38394e-06
2.72948e-06
6.03038e-06
2.15458e-06
4.33812e-06
2.51685e-06
4.74038e-06
4.09415e-06
3.76597e-06
4.93003e-06
4.03168e-06
3.58567e-06
7.84171e-06
4.25612e-06
6.80224e-06
6.44009e-06
8.30264e-06
6.21389e-06
4.95461e-06
6.244e-06
5.85841e-06
5.81568e-06
8.53443e-06
4.76582e-06
7.84785e-06
6.43453e-06
8.66846e-06
-2.29658e-07
-4.43627e-06
-5.75962e-06
-7.3181e-06
-5.95396e-06
6.43781e-07
-1.78581e-06
-2.74355e-06
-3.2827e-06
-4.50328e-06
1.7588e-06
-9.50145e-07
-1.06198e-06
-2.07325e-06
-1.46305e-06
1.71979e-06
1.76353e-06
-1.15036e-08
-2.05975e-07
-5.35947e-07
3.3593e-06
2.47276e-06
2.14153e-06
7.83623e-07
1.45828e-06
2.87968e-05
7.17411e-06
1.69039e-05
6.96806e-06
2.21499e-05
6.7008e-06
9.05823e-06
1.67026e-05
1.23367e-05
7.50049e-06
2.37155e-05
7.86198e-06
1.5691e-05
1.94675e-05
2.74461e-05
1.43246e-05
1.20441e-05
1.39009e-05
1.47662e-05
1.01536e-05
2.69289e-05
8.56038e-06
2.00542e-05
1.34342e-05
2.71657e-05
-2.6875e-05
-1.15313e-05
-2.03821e-05
-1.89565e-05
-2.57605e-05
5.73725e-06
-1.00042e-05
-1.51658e-05
-1.17021e-05
-1.24077e-05
-9.68801e-06
-6.88014e-06
-1.07912e-05
-1.87652e-05
-2.47974e-05
-5.41689e-06
2.22627e-06
-7.45765e-06
-7.24169e-06
-3.34161e-06
-1.28613e-05
5.42989e-06
4.62839e-07
-1.85572e-06
-2.72955e-06
0.000138131
1.27115e-07
3.76692e-05
-2.2596e-05
0.000120542
-8.23841e-05
3.03162e-06
5.92645e-05
2.89952e-05
-1.01709e-05
5.20542e-05
-6.74069e-06
7.16183e-07
5.45477e-05
7.69787e-05
1.27444e-05
1.96272e-05
1.09532e-05
2.89277e-05
-3.03103e-05
0.000103507
1.84765e-05
1.59842e-05
-6.15515e-06
0.000105561
0.000978153
0.000958475
0.000888558
0.000763121
0.000797515
0.000882305
0.000861317
0.000955693
0.000834803
0.0012977
0.000805893
0.00109719
0.000795809
0.000844007
0.00108673
0.000684264
0.000903099
0.00089326
0.000771419
0.00121068
0.000511039
0.000663547
0.000865637
0.00107351
0.00122685
0.00157314
0.00157055
0.00102115
0.00184603
0.00162512
0.0016007
0.00171532
0.00139261
0.00182311
0.00230047
0.00168677
0.00164033
0.00144285
0.00143726
0.0019417
0.00140972
0.00146247
0.00188862
0.00166644
0.00205537
0.000693241
0.00153577
0.00158335
0.00182706
0.00170128
0.00199572
0.00234629
0.0031705
0.00300265
0.00291267
0.00191966
0.00238575
0.00250811
0.00278912
0.00306962
0.00219099
0.00231861
0.00312085
0.00290939
0.00299121
0.00198322
0.00269242
0.00270244
0.00260051
0.00273373
0.00247238
0.0020944
0.00226682
0.00241083
0.00235344
0.00232723
0.00312509
0.00354039
0.00333099
0.00372232
0.00308896
0.00306508
0.00325503
0.00331929
0.00333733
0.00236238
0.00334777
0.00347825
0.00346897
0.00333574
0.00331063
0.00343725
0.00362832
0.00330466
0.00361686
0.00361028
0.00331415
0.00342361
0.00304735
0.00277108
0.00423618
0.00404466
0.00359514
0.00395354
0.00414306
0.00446969
0.0041501
0.00411604
0.00444666
0.0037918
0.00284254
0.00428055
0.0042391
0.0042548
0.00408452
0.00429164
0.0038591
0.00435279
0.00400672
0.00389842
0.00468619
0.00401622
0.00425845
0.0037093
0.00451714
0.00587185
0.00529653
0.00460341
0.00514473
0.00547475
0.00519067
0.00520408
0.00496431
0.00495312
0.004898
0.00514053
0.00529523
0.00508945
0.00519507
0.00540223
0.00520157
0.00520419
0.00473128
0.00520556
0.00424805
0.00502726
0.00488279
0.0046984
0.00490456
0.00465693
0.00575088
0.00622439
0.00687375
0.00693294
0.00673729
0.00593783
0.00603772
0.00594963
0.00575217
0.00586072
0.00655581
0.0060469
0.00581113
0.00587247
0.00574378
0.00584414
0.00602368
0.00555428
0.0059945
0.00583054
0.00604561
0.00590849
0.00549906
0.00646024
0.00552063
0.00650774
0.00727195
0.00707729
0.00710035
0.00669716
0.00697181
0.00724217
0.00696835
0.00742619
0.0072962
0.00721525
0.00676128
0.0073288
0.00678123
0.00744415
0.00710163
0.00681813
0.00654436
0.006915
0.00718467
0.00698344
0.00773526
0.00700236
0.00706457
0.00716464
0.00798092
0.00815073
0.00762453
0.00789569
0.00735999
0.00779425
0.00806491
0.00792303
0.00833838
0.00808289
0.00784711
0.00792677
0.00776542
0.00804081
0.00802108
0.00796965
0.00813838
0.00797353
0.00814018
0.00791639
0.00800439
0.00851031
0.00786889
0.00777682
0.00733715
0.00854784
0.00856543
0.00898526
0.00899249
0.00875318
0.00918647
0.00861501
0.00895484
0.00886845
0.00883243
0.00860452
0.00896114
0.00876136
0.00884572
0.00844809
0.00861967
0.00895954
0.00889421
0.00886882
0.00879957
0.00908457
0.00892375
0.0089616
0.00909347
0.00893848
0.00912673
0.00914578
0.00922818
0.00916893
0.00919786
0.00925161
0.00919218
0.00920711
0.00913608
0.00913056
0.00911967
0.00920384
0.00922715
0.00917381
0.00914185
0.00920024
0.0091852
0.00921457
0.0091789
0.00920942
0.00920168
0.0091684
0.00920547
0.00920802
0.0092556
0.00919868
0.00920889
0.00917553
0.00919265
0.00919137
0.00918962
0.0092052
0.00919787
0.00919772
0.00918772
0.0091998
0.00919537
0.00917961
0.00920371
0.00918917
0.00919693
0.00919411
0.00919992
0.00920854
0.00921237
0.00918759
0.00919142
0.00919636
0.00919849
0.0092151
0.00919993
0.00919338
0.00920271
0.00919282
0.00919649
0.00920478
0.00919987
0.00920487
0.00919836
0.00920005
0.00919295
0.00919549
0.00920528
0.00919816
0.00920363
0.00920029
0.00919525
0.00920624
0.00920149
0.00920749
0.00919881
0.00919143
0.00920497
0.0092025
0.00921133
0.00919282
0.00919367
0.00919134
0.00919238
0.00919276
0.00919435
0.00919584
0.00919619
0.00919575
0.00919525
0.00919351
0.00919392
0.00919392
0.00919579
0.00919541
0.00919513
0.00919413
0.00919814
0.00919792
0.00919987
0.00919331
0.00919253
0.00919762
0.0091971
0.0091994
0.00919181
0.00919196
0.00919293
0.00919217
0.00919261
0.00919394
0.00919383
0.00919528
0.00919455
0.00919496
0.00919249
0.00919284
0.00919498
0.00919454
0.00919544
0.00919404
0.00919334
0.00919653
0.00919598
0.00919735
0.00919342
0.00919253
0.00919634
0.00919573
0.0091975
0.00919101
0.00919124
0.0091918
0.00919169
0.00919201
0.00919243
0.00919251
0.00919353
0.00919331
0.00919364
0.00919179
0.009192
0.00919343
0.00919332
0.00919393
0.00919276
0.00919252
0.00919459
0.00919433
0.00919515
0.00919245
0.00919215
0.0091945
0.00919419
0.00919515
0.00919061
0.00919083
0.0091913
0.00919131
0.00919154
0.00919155
0.00919167
0.0091924
0.00919238
0.00919262
0.00919136
0.00919149
0.00919251
0.00919245
0.00919287
0.0091919
0.00919188
0.00919323
0.00919312
0.00919364
0.00919174
0.00919171
0.00919321
0.00919308
0.00919367
0.00919039
0.00919058
0.00919095
0.009191
0.00919117
0.00919099
0.00919116
0.00919164
0.00919168
0.00919185
0.00919094
0.00919104
0.00919181
0.00919181
0.0091921
0.0091913
0.00919138
0.00919227
0.00919225
0.00919258
0.00919122
0.00919132
0.00919229
0.00919224
0.00919263
0.00919027
0.00919042
0.0091907
0.00919076
0.00919087
0.00919063
0.00919079
0.00919112
0.00919118
0.0091913
0.00919066
0.00919078
0.00919131
0.00919133
0.00919153
0.00919089
0.009191
0.00919159
0.00919161
0.00919183
0.00919087
0.00919098
0.00919163
0.00919164
0.00919189
0.00919018
0.00919031
0.0091905
0.00919057
0.00919064
0.00919041
0.00919053
0.00919077
0.00919083
0.00919091
0.00919047
0.00919057
0.00919095
0.00919098
0.00919112
0.00919061
0.00919071
0.00919112
0.00919115
0.0091913
0.00919062
0.00919072
0.00919116
0.00919119
0.00919136
0.00919012
0.00919022
0.00919036
0.00919041
0.00919046
0.00919026
0.00919036
0.00919053
0.00919058
0.00919065
0.00919033
0.00919042
0.00919068
0.00919071
0.0091908
0.00919042
0.0091905
0.00919078
0.00919082
0.00919092
0.00919043
0.00919052
0.00919082
0.00919086
0.00919098
0.00919008
0.00919015
0.00919025
0.00919029
0.00919033
0.00919017
0.00919025
0.00919037
0.00919041
0.00919045
0.00919023
0.0091903
0.00919047
0.00919051
0.00919057
0.00919028
0.00919036
0.00919055
0.00919058
0.00919065
0.0091903
0.00919038
0.00919058
0.00919062
0.0091907
0.00919004
0.0091901
0.00919017
0.0091902
0.00919023
0.00919011
0.00919017
0.00919025
0.00919028
0.00919032
0.00919016
0.00919022
0.00919033
0.00919036
0.0091904
0.00919019
0.00919025
0.00919038
0.00919041
0.00919046
0.00919021
0.00919027
0.0091904
0.00919044
0.00919049
0.00919002
0.00919006
0.00919011
0.00919013
0.00919015
0.00919007
0.00919011
0.00919017
0.00919019
0.00919022
0.00919011
0.00919015
0.00919022
0.00919025
0.00919027
0.00919013
0.00919017
0.00919026
0.00919029
0.00919032
0.00919014
0.00919019
0.00919028
0.00919031
0.00919034
0.00919
0.00919003
0.00919007
0.00919009
0.0091901
0.00919004
0.00919007
0.00919011
0.00919013
0.00919014
0.00919006
0.0091901
0.00919015
0.00919017
0.00919018
0.00919009
0.00919012
0.00919018
0.00919019
0.00919022
0.00919009
0.00919013
0.00919019
0.00919021
0.00919023
0.00918999
0.00919001
0.00919004
0.00919005
0.00919006
0.00919001
0.00919004
0.00919007
0.00919008
0.00919009
0.00919004
0.00919006
0.00919009
0.00919011
0.00919012
0.00919005
0.00919008
0.00919011
0.00919013
0.00919014
0.00919006
0.00919008
0.00919012
0.00919014
0.00919015
0.00918998
0.00919
0.00919001
0.00919002
0.00919003
0.00919
0.00919002
0.00919004
0.00919005
0.00919005
0.00919001
0.00919003
0.00919005
0.00919007
0.00919007
0.00919003
0.00919005
0.00919007
0.00919008
0.00919009
0.00919003
0.00919005
0.00919008
0.00919009
0.0091901
0.00918997
0.00918999
0.00919
0.00919001
0.00919001
0.00918999
0.00919
0.00919001
0.00919002
0.00919003
0.00919
0.00919001
0.00919003
0.00919004
0.00919004
0.00919001
0.00919002
0.00919004
0.00919005
0.00919005
0.00919001
0.00919002
0.00919004
0.00919005
0.00919006
0.00918997
0.00918998
0.00918999
0.00918999
0.00918999
0.00918998
0.00918999
0.00919
0.00919
0.00919001
0.00918998
0.00919
0.00919001
0.00919001
0.00919002
0.00918999
0.00919
0.00919001
0.00919002
0.00919002
0.00918999
0.00919001
0.00919002
0.00919002
0.00919003
0.00918996
0.00918997
0.00918998
0.00918998
0.00918998
0.00918997
0.00918998
0.00918998
0.00918999
0.00918999
0.00918998
0.00918998
0.00918999
0.00919
0.00919
0.00918998
0.00918999
0.00919
0.00919
0.00919
0.00918998
0.00918999
0.00919
0.00919
0.00919001
0.00918996
0.00918996
0.00918997
0.00918997
0.00918997
0.00918996
0.00918997
0.00918997
0.00918998
0.00918998
0.00918997
0.00918997
0.00918998
0.00918998
0.00918998
0.00918997
0.00918998
0.00918998
0.00918999
0.00918999
0.00918997
0.00918998
0.00918998
0.00918999
0.00918999
0.00918995
0.00918996
0.00918996
0.00918996
0.00918997
0.00918996
0.00918996
0.00918997
0.00918997
0.00918997
0.00918996
0.00918997
0.00918997
0.00918997
0.00918997
0.00918996
0.00918997
0.00918997
0.00918997
0.00918998
0.00918997
0.00918997
0.00918997
0.00918998
0.00918998
0.00918995
0.00918995
0.00918996
0.00918996
0.00918996
0.00918995
0.00918996
0.00918996
0.00918996
0.00918996
0.00918996
0.00918996
0.00918996
0.00918997
0.00918997
0.00918996
0.00918996
0.00918996
0.00918997
0.00918997
0.00918996
0.00918996
0.00918997
0.00918997
0.00918997
0.00918995
0.00918995
0.00918995
0.00918996
0.00918996
0.00918995
0.00918995
0.00918996
0.00918996
0.00918996
0.00918995
0.00918996
0.00918996
0.00918996
0.00918996
0.00918996
0.00918996
0.00918996
0.00918996
0.00918996
0.00918996
0.00918996
0.00918996
0.00918996
0.00918996
0.00918995
0.00918995
0.00918995
0.00918995
0.00918995
0.00918995
0.00918995
0.00918995
0.00918995
0.00918996
0.00918995
0.00918995
0.00918995
0.00918996
0.00918996
0.00918995
0.00918995
0.00918996
0.00918996
0.00918996
0.00918995
0.00918996
0.00918996
0.00918996
0.00918996
0.00918995
0.00918995
0.00918995
0.00918995
0.00918995
0.00918995
0.00918995
0.00918995
0.00918995
0.00918995
0.00918995
0.00918995
0.00918995
0.00918995
0.00918995
0.00918995
0.00918995
0.00918995
0.00918995
0.00918995
0.00918995
0.00918995
0.00918995
0.00918995
0.00918995
0.00918995
0.00918995
0.00918995
0.00918995
0.00918995
0.00918995
0.00918995
0.00918995
0.00918995
0.00918995
0.00918995
0.00918995
0.00918995
0.00918995
0.00918995
0.00918995
0.00918995
0.00918995
0.00918995
0.00918995
0.00918995
0.00918995
0.00918995
0.00918995
0.00918995
0.00918995
0.00918995
0.00918995
0.00918995
0.00918995
0.00918995
0.00918995
0.00918995
0.00918995
0.00918995
0.00918995
0.00918995
0.00918995
0.00918995
0.00918995
0.00918995
0.00918995
0.00918995
0.00918995
0.00918995
0.00918995
0.00918995
0.00918995
0.00918995
0.00918995
0.00918995
0.00918995
0.00918995
0.00918995
0.00918995
0.00918995
0.00918995
0.00918995
0.00918995
0.00918995
0.00918995
0.00918995
0.00918995
0.00918995
0.00918995
0.00918995
0.00918995
0.00918995
0.00918995
0.00918995
0.00918995
0.00918995
0.00918995
0.00918995
0.00918995
0.00918995
0.00918995
0.00918995
0.00918995
0.00918995
0.00918995
0.00918995
0.00918995
0.00918995
0.00918995
0.00918995
0.00918995
0.00918995
0.00918995
0.00918995
0.00918995
0.00918995
0.00918995
0.00918995
0.00918995
0.00918995
0.00918995
0.00918995
0.00918995
0.00918995
0.00918995
0.00918995
0.00918995
0.00918995
0.00918995
0.00918995
0.00918995
0.00918995
0.00918995
0.00918995
0.00918995
0.00918995
0.00918995
0.00918995
0.00918995
0.00918995
0.00918995
0.00918995
0.00918995
0.00918995
0.00918995
0.00918995
0.00918995
0.00918995
0.00918995
0.00918995
0.00918995
0.00918995
0.00918995
0.00918995
0.00918995
0.00918995
0.00918995
0.00918995
0.00918995
0.00918995
0.00918995
0.00918995
0.00918995
0.00918995
0.00918995
0.00918995
0.00918995
0.00918995
0.00918995
0.00918995
0.00918995
0.00918995
0.00918995
0.00918995
0.00918995
0.00918995
0.00918995
0.00918995
0.00918995
0.00918995
0.00918995
0.00918995
0.00918995
0.00918995
0.00918995
0.00918995
0.00918995
0.00918995
0.00918995
0.00918995
0.00918995
0.00918995
0.00918995
0.00918995
0.00918995
0.00918995
0.00918995
0.00918995
0.00918995
0.00918995
0.00918995
0.00918995
0.00918995
0.00918995
0.00918995
0.00918995
0.00918995
0.00918995
0.00918995
0.00918995
0.00918995
0.00918995
0.00918995
0.00918995
0.00918995
0.00918995
0.00918995
0.00918995
0.00918995
0.00918995
0.00918995
0.00918995
0.00918995
0.00918995
0.00918995
0.00918995
0.00918995
0.00918995
0.00918995
0.00918995
0.00918995
0.00918995
0.00918995
0.00918995
0.00918995
0.00918995
0.00918995
0.00918995
0.00918995
0.00918995
0.00918995
0.00918995
0.00918995
0.00918995
0.00918995
0.00918995
0.00918995
0.00918995
0.00918995
0.00918995
0.00918995
0.00918995
0.00918995
0.00918995
0.00918995
0.00918995
0.00918995
0.00918995
0.00918995
0.00918995
0.00918995
0.00918995
0.00918995
0.00918995
0.00918995
0.00918995
0.00918995
0.00918995
0.00918995
0.00918995
0.00918995
0.00918995
0.00918995
0.00918995
0.00918995
0.00918995
0.00918995
0.00918995
0.00918995
0.00918995
0.00918995
0.00918995
0.00918995
0.00918995
0.00918995
0.00918995
0.00918995
0.00918995
0.00918995
0.00918995
0.00918995
0.00918995
0.00918995
0.00918995
0.00918995
0.00918995
0.00918995
0.00918995
0.00918995
0.00918995
0.00918995
0.00918995
0.00918995
0.00918995
0.00918995
0.00918995
0.00918995
0.00918995
0.00918995
0.00918995
0.00918995
0.00918995
0.00918995
0.00918995
0.00918995
0.00918995
0.00918995
0.00918995
0.00918995
0.00918995
0.00918995
0.00918995
0.00918995
0.00918995
0.00918995
0.00918995
0.00918995
0.00918995
0.00918995
0.00918995
0.00918995
0.00918995
0.00918995
0.00918995
0.00918995
0.00918995
0.00918995
0.00918995
0.00918995
0.00918995
0.00918995
0.00918995
0.00918995
0.00918995
0.00918995
0.00918995
0.00918995
0.00918995
0.00918995
)
;

boundaryField
{
    inlet
    {
        type            zeroGradient;
    }
    outlet
    {
        type            fixedValue;
        value           uniform 0;
    }
    repeat_boundary
    {
        type            zeroGradient;
    }
    procBoundary3to1
    {
        type            processor;
        value           nonuniform List<scalar> 
450
(
-3.26435e-09
-3.27135e-09
-3.27859e-09
-3.30703e-09
-3.3093e-09
-9.7426e-09
-9.73654e-09
-9.76667e-09
-9.81545e-09
-9.78241e-09
-1.58828e-08
-1.58937e-08
-1.59353e-08
-1.59307e-08
-1.58344e-08
-2.16796e-08
-2.16657e-08
-2.16124e-08
-2.14849e-08
-2.13124e-08
-2.737e-08
-2.71594e-08
-2.69028e-08
-2.66406e-08
-2.64531e-08
-3.29657e-08
-3.24955e-08
-3.21e-08
-3.18155e-08
-3.17099e-08
-3.82788e-08
-3.77436e-08
-3.74095e-08
-3.72471e-08
-3.72587e-08
-4.34271e-08
-4.29878e-08
-4.28096e-08
-4.27994e-08
-4.28768e-08
-4.86119e-08
-4.82408e-08
-4.81404e-08
-4.81975e-08
-4.8271e-08
-5.36257e-08
-5.33311e-08
-5.32477e-08
-5.32999e-08
-5.33447e-08
-5.81915e-08
-5.81055e-08
-5.80976e-08
-5.8151e-08
-5.81803e-08
-6.24554e-08
-6.26624e-08
-6.28114e-08
-6.29092e-08
-6.29421e-08
-6.67402e-08
-6.72469e-08
-6.75856e-08
-6.77642e-08
-6.78195e-08
-7.12599e-08
-7.20641e-08
-7.25778e-08
-7.2854e-08
-7.29581e-08
-7.62414e-08
-7.72452e-08
-7.78765e-08
-7.82586e-08
-7.84456e-08
-8.18643e-08
-8.286e-08
-8.35586e-08
-8.40682e-08
-8.43568e-08
-8.80349e-08
-8.89298e-08
-8.97059e-08
-9.03454e-08
-9.07047e-08
-9.445e-08
-9.54104e-08
-9.63139e-08
-9.70322e-08
-9.7413e-08
-1.00868e-07
-1.02178e-07
-1.03306e-07
-1.04098e-07
-1.04519e-07
-1.07263e-07
-1.09204e-07
-1.10767e-07
-1.11804e-07
-1.12377e-07
-1.13856e-07
-1.16775e-07
-1.19089e-07
-1.20672e-07
-1.21548e-07
-1.21248e-07
-1.25467e-07
-1.28835e-07
-1.31225e-07
-1.32507e-07
-1.30231e-07
-1.35899e-07
-1.40553e-07
-1.43886e-07
-1.45601e-07
-1.41251e-07
-1.48549e-07
-1.54738e-07
-1.59165e-07
-1.61379e-07
-1.54299e-07
-1.63779e-07
-1.7196e-07
-1.77836e-07
-1.80762e-07
-1.69157e-07
-1.81987e-07
-1.93018e-07
-2.00959e-07
-2.04953e-07
-1.86056e-07
-2.03906e-07
-2.19054e-07
-2.29954e-07
-2.35509e-07
-2.06358e-07
-2.30999e-07
-2.51831e-07
-2.66939e-07
-2.74719e-07
-2.31486e-07
-2.65393e-07
-2.94079e-07
-3.15143e-07
-3.2608e-07
-2.61887e-07
-3.09323e-07
-3.49068e-07
-3.78735e-07
-3.94172e-07
-2.97067e-07
-3.63991e-07
-4.19117e-07
-4.61762e-07
-4.84191e-07
-3.32674e-07
-4.26409e-07
-5.0376e-07
-5.66545e-07
-6.02217e-07
-3.59227e-07
-4.88755e-07
-6.02581e-07
-6.9481e-07
-7.5846e-07
-3.65531e-07
-5.34735e-07
-7.14967e-07
-8.49527e-07
-9.71976e-07
-3.70544e-07
-5.63692e-07
-8.86274e-07
-1.07176e-06
-1.3215e-06
-7.27094e-07
-9.97894e-07
-1.86393e-06
-1.80977e-06
-2.51003e-06
2.45891e-06
2.59407e-06
2.15358e-06
1.34135e-06
5.50946e-07
-4.96751e-06
-4.2247e-06
-8.21643e-06
-6.35311e-06
-9.36816e-06
1.12628e-05