/*--------------------------------*- C++ -*----------------------------------*\
| =========                 |                                                 |
| \\      /  F ield         | OpenFOAM: The Open Source CFD Toolbox           |
|  \\    /   O peration     | Version:  5.x                                   |
|   \\  /    A nd           | Web:      www.OpenFOAM.org                      |
|    \\/     M anipulation  |                                                 |
\*---------------------------------------------------------------------------*/
FoamFile
{
    version     2.0;
    format      ascii;
    class       surfaceScalarField;
    location    "0.1";
    object      phi;
}
// * * * * * * * * * * * * * * * * * * * * * * * * * * * * * * * * * * * * * //

dimensions      [0 3 -1 0 0 0 0];

internalField   nonuniform List<scalar> 
5825
(
-1.7489e-16
-1.39066e-16
-1e-09
-1.84933e-16
-1.88009e-16
-1e-09
-1.35529e-16
-1.97385e-16
-1e-09
-7.40732e-17
-1.88995e-16
-1e-09
-1.8226e-16
-1e-09
-2.25405e-16
-1.57378e-16
-1e-09
-1.90185e-16
-1.67672e-16
-1e-09
-1.25998e-16
-1.55565e-16
-1e-09
-6.69232e-17
-1.47731e-16
-1e-09
-1.44948e-16
-1e-09
-2.39626e-16
-1.19795e-16
-1e-09
-1.78173e-16
-1.1379e-16
-1e-09
-1.18993e-16
-1.06106e-16
-1e-09
-6.48062e-17
-1.00171e-16
-1e-09
-1.00558e-16
-1e-09
-2.34225e-16
-6.78503e-17
-1e-09
-1.69927e-16
-6.18636e-17
-1e-09
-1.13119e-16
-5.83458e-17
-1e-09
-6.51581e-17
-5.83884e-17
-1e-09
-6.27138e-17
-1e-09
-2.2774e-16
-1e-09
-1.66026e-16
-1e-09
-1.13058e-16
-1e-09
-6.94457e-17
-1e-09
-1e-09
-5.60535e-16
-4.8107e-16
-1e-09
-5.0291e-16
-5.25486e-16
-1e-09
-3.6874e-16
-5.39621e-16
-1e-09
-2.02347e-16
-5.18773e-16
-1e-09
-5.0656e-16
-1e-09
-6.0425e-16
-4.46223e-16
-1e-09
-5.07658e-16
-4.55559e-16
-1e-09
-3.43075e-16
-4.2041e-16
-1e-09
-1.87541e-16
-3.96816e-16
-1e-09
-3.95686e-16
-1e-09
-6.25482e-16
-3.33145e-16
-1e-09
-4.72679e-16
-3.11002e-16
-1e-09
-3.21679e-16
-2.87534e-16
-1e-09
-1.87482e-16
-2.76708e-16
-1e-09
-2.86074e-16
-1e-09
-6.06659e-16
-1.85325e-16
-1e-09
-4.47811e-16
-1.69258e-16
-1e-09
-3.11199e-16
-1.66142e-16
-1e-09
-1.97016e-16
-1.75798e-16
-1e-09
-1.94089e-16
-1e-09
-5.90181e-16
-1e-09
-4.4396e-16
-1e-09
-3.20258e-16
-1e-09
-2.14972e-16
-1e-09
-1e-09
-1.12901e-15
-1.01638e-15
-1e-09
-9.24817e-16
-9.58839e-16
-1e-09
-6.72605e-16
-9.41061e-16
-1e-09
-3.682e-16
-9.07258e-16
-1e-09
-8.95684e-16
-1e-09
-1.07539e-15
-8.32189e-16
-1e-09
-9.02792e-16
-8.03244e-16
-1e-09
-6.32515e-16
-7.38463e-16
-1e-09
-3.52936e-16
-6.98863e-16
-1e-09
-6.98559e-16
-1e-09
-1.04955e-15
-5.97329e-16
-1e-09
-8.3832e-16
-5.55851e-16
-1e-09
-5.95158e-16
-5.15659e-16
-1e-09
-3.53991e-16
-5.01279e-16
-1e-09
-5.15443e-16
-1e-09
-1.01131e-15
-3.16449e-16
-1e-09
-7.96839e-16
-3.00868e-16
-1e-09
-5.81168e-16
-3.01988e-16
-1e-09
-3.68264e-16
-3.1865e-16
-1e-09
-3.46611e-16
-1e-09
-9.93974e-16
-1e-09
-7.95786e-16
-1e-09
-5.96536e-16
-1e-09
-3.95811e-16
-1e-09
-1e-09
-1.87239e-15
-1.68343e-15
-1e-09
-1.47282e-15
-1.46883e-15
-1e-09
-1.06547e-15
-1.39346e-15
-1e-09
-5.72379e-16
-1.33997e-15
-1e-09
-1.322e-15
-1e-09
-1.6699e-15
-1.29043e-15
-1e-09
-1.40868e-15
-1.20932e-15
-1e-09
-1.01026e-15
-1.11758e-15
-1e-09
-5.55041e-16
-1.06542e-15
-1e-09
-1.05916e-15
-1e-09
-1.57294e-15
-9.08198e-16
-1e-09
-1.31728e-15
-8.51362e-16
-1e-09
-9.59285e-16
-7.97023e-16
-1e-09
-5.50803e-16
-7.76353e-16
-1e-09
-7.85212e-16
-1.00001e-09
-1.51573e-15
-4.67004e-16
-1e-09
-1.26208e-15
-4.57157e-16
-1e-09
-9.38517e-16
-4.54524e-16
-1e-09
-5.60819e-16
-4.67453e-16
-1.00001e-09
-4.91194e-16
-1.00001e-09
-1.50181e-15
-1e-09
-1.25658e-15
-1e-09
-9.48767e-16
-1e-09
-5.84322e-16
-1.00001e-09
-1.00001e-09
-2.78098e-15
-2.42368e-15
-1e-09
-2.17451e-15
-2.07486e-15
-1e-09
-1.55165e-15
-1.92152e-15
-1e-09
-8.08427e-16
-1.84914e-15
-1e-09
-1.82374e-15
-1e-09
-2.45361e-15
-1.83232e-15
-1e-09
-2.0603e-15
-1.69732e-15
-1e-09
-1.48196e-15
-1.58645e-15
-1e-09
-7.88425e-16
-1.53125e-15
-1.00001e-09
-1.52105e-15
-1.00001e-09
-2.27932e-15
-1.28405e-15
-1e-09
-1.94973e-15
-1.21015e-15
-1e-09
-1.42742e-15
-1.14894e-15
-1.00001e-09
-7.81297e-16
-1.12485e-15
-1.00001e-09
-1.12787e-15
-1.00001e-09
-2.20095e-15
-6.56431e-16
-1e-09
-1.88769e-15
-6.42702e-16
-1.00001e-09
-1.40333e-15
-6.32915e-16
-1.00001e-09
-7.86831e-16
-6.37568e-16
-1.00001e-09
-6.50799e-16
-1.00001e-09
-2.1797e-15
-1e-09
-1.87363e-15
-1.00001e-09
-1.40458e-15
-1.00001e-09
-7.99669e-16
-1.00001e-09
-1.00001e-09
-3.68486e-15
-3.06443e-15
-1e-09
-3.01662e-15
-2.78607e-15
-1e-09
-2.13049e-15
-2.61581e-15
-1e-09
-1.08806e-15
-2.54241e-15
-1.00001e-09
-2.51949e-15
-1.00001e-09
-3.42435e-15
-2.47144e-15
-1e-09
-2.87301e-15
-2.30315e-15
-1e-09
-2.06218e-15
-2.20147e-15
-1.00001e-09
-1.07394e-15
-2.1607e-15
-1.00001e-09
-2.15412e-15
-1.00001e-09
-3.23419e-15
-1.74711e-15
-1e-09
-2.77155e-15
-1.65795e-15
-1.00001e-09
-2.02303e-15
-1.60781e-15
-1.00001e-09
-1.07251e-15
-1.59e-15
-1.00001e-09
-1.58917e-15
-1.00001e-09
-3.14071e-15
-8.99707e-16
-1e-09
-2.71946e-15
-8.74121e-16
-1.00001e-09
-2.00543e-15
-8.63559e-16
-1.00001e-09
-1.07483e-15
-8.60707e-16
-1.00001e-09
-8.6166e-16
-1.00001e-09
-3.10554e-15
-1.00001e-09
-2.70196e-15
-1.00001e-09
-1.99864e-15
-1.00001e-09
-1.07524e-15
-1.00001e-09
-1.00001e-09
-4.76004e-15
-3.81716e-15
-1e-09
-4.01278e-15
-3.68181e-15
-1e-09
-2.8405e-15
-3.57799e-15
-1.00001e-09
-1.45015e-15
-3.53794e-15
-1.00001e-09
-3.53213e-15
-1.00001e-09
-4.63424e-15
-3.23829e-15
-1e-09
-3.90467e-15
-3.09974e-15
-1.00001e-09
-2.80228e-15
-3.03573e-15
-1.00001e-09
-1.45504e-15
-3.02193e-15
-1.00001e-09
-3.02151e-15
-1.00001e-09
-4.50068e-15
-2.32958e-15
-1.00001e-09
-3.84058e-15
-2.24649e-15
-1.00001e-09
-2.79139e-15
-2.22183e-15
-1.00001e-09
-1.46207e-15
-2.21419e-15
-1.00001e-09
-2.20842e-15
-1.00001e-09
-4.41687e-15
-1.21546e-15
-1.00001e-09
-3.81281e-15
-1.18347e-15
-1.00001e-09
-2.78393e-15
-1.17626e-15
-1.00001e-09
-1.46011e-15
-1.1678e-15
-1.00001e-09
-1.1613e-15
-1.00001e-09
-4.37329e-15
-1.00001e-09
-3.7954e-15
-1.00001e-09
-2.7702e-15
-1.00001e-09
-1.45246e-15
-1.00001e-09
-1.00001e-09
-6.14557e-15
-4.84989e-15
-1e-09
-5.2669e-15
-4.89515e-15
-1.00001e-09
-3.77264e-15
-4.89884e-15
-1.00001e-09
-1.95231e-15
-4.91379e-15
-1.00001e-09
-4.92855e-15
-1.00001e-09
-6.20527e-15
-4.22384e-15
-1.00001e-09
-5.26547e-15
-4.1863e-15
-1.00001e-09
-3.7896e-15
-4.16793e-15
-1.00001e-09
-1.98088e-15
-4.17693e-15
-1.00001e-09
-4.17812e-15
-1.00001e-09
-6.17063e-15
-3.0959e-15
-1.00001e-09
-5.2471e-15
-3.04834e-15
-1.00001e-09
-3.80169e-15
-3.04452e-15
-1.00001e-09
-1.99198e-15
-3.04253e-15
-1.00001e-09
-3.03314e-15
-1.00001e-09
-6.12208e-15
-1.64097e-15
-1.00001e-09
-5.23968e-15
-1.60973e-15
-1.00001e-09
-3.79974e-15
-1.60243e-15
-1.00001e-09
-1.98733e-15
-1.59351e-15
-1.00001e-09
-1.58696e-15
-1.00001e-09
-6.07611e-15
-1.00001e-09
-5.2191e-15
-1.00001e-09
-3.78378e-15
-1.00001e-09
-1.97933e-15
-1.00001e-09
-1.00002e-09
-8.13727e-15
-6.42068e-15
-1e-09
-7.01161e-15
-6.59225e-15
-1.00001e-09
-5.07347e-15
-6.68397e-15
-1.00001e-09
-2.66108e-15
-6.73933e-15
-1.00001e-09
-6.76218e-15
-1.00001e-09
-8.33098e-15
-5.62137e-15
-1.00001e-09
-7.10361e-15
-5.67758e-15
-1.00001e-09
-5.13422e-15
-5.69119e-15
-1.00001e-09
-2.70206e-15
-5.70864e-15
-1.00001e-09
-5.7074e-15
-1.00002e-09
-8.38794e-15
-4.15705e-15
-1.00001e-09
-7.11705e-15
-4.14515e-15
-1.00001e-09
-5.1544e-15
-4.14736e-15
-1.00001e-09
-2.71381e-15
-4.14851e-15
-1.00002e-09
-4.13991e-15
-1.00002e-09
-8.37336e-15
-2.22213e-15
-1.00001e-09
-7.11508e-15
-2.19266e-15
-1.00001e-09
-5.15562e-15
-2.18455e-15
-1.00002e-09
-2.71254e-15
-2.18219e-15
-1.00002e-09
-2.17746e-15
-1.00002e-09
-8.32399e-15
-1.00001e-09
-7.09051e-15
-1.00001e-09
-5.14353e-15
-1.00002e-09
-2.70634e-15
-1.00002e-09
-1.00002e-09
-1.11245e-14
-8.86695e-15
-1.00001e-09
-9.51202e-15
-9.00254e-15
-1.00001e-09
-6.90646e-15
-9.09998e-15
-1.00001e-09
-3.64383e-15
-9.15622e-15
-1.00002e-09
-9.16804e-15
-1.00002e-09
-1.12838e-14
-7.65131e-15
-1.00001e-09
-9.60939e-15
-7.72306e-15
-1.00001e-09
-6.96934e-15
-7.74406e-15
-1.00002e-09
-3.68004e-15
-7.75947e-15
-1.00002e-09
-7.75435e-15
-1.00002e-09
-1.13579e-14
-5.63756e-15
-1.00001e-09
-9.62975e-15
-5.63873e-15
-1.00002e-09
-6.98777e-15
-5.63991e-15
-1.00002e-09
-3.69303e-15
-5.6451e-15
-1.00002e-09
-5.6377e-15
-1.00002e-09
-1.13543e-14
-3.00733e-15
-1.00001e-09
-9.62624e-15
-2.98579e-15
-1.00002e-09
-6.99309e-15
-2.98269e-15
-1.00002e-09
-3.6969e-15
-2.98657e-15
-1.00002e-09
-2.97992e-15
-1.00003e-09
-1.13048e-14
-1.00002e-09
-9.60135e-15
-1.00002e-09
-6.98298e-15
-1.00002e-09
-3.68881e-15
-1.00003e-09
-1.00003e-09
-1.52957e-14
-1.23255e-14
-1.00001e-09
-1.2992e-14
-1.23485e-14
-1.00001e-09
-9.43159e-15
-1.23903e-14
-1.00002e-09
-4.97778e-15
-1.24161e-14
-1.00002e-09
-1.24057e-14
-1.00002e-09
-1.53331e-14
-1.04986e-14
-1.00001e-09
-1.30228e-14
-1.05218e-14
-1.00002e-09
-9.46248e-15
-1.05348e-14
-1.00002e-09
-4.99862e-15
-1.05434e-14
-1.00003e-09
-1.05309e-14
-1.00003e-09
-1.53675e-14
-7.67504e-15
-1.00002e-09
-1.3035e-14
-7.67367e-15
-1.00002e-09
-9.47545e-15
-7.6753e-15
-1.00003e-09
-5.01101e-15
-7.67962e-15
-1.00003e-09
-7.66667e-15
-1.00003e-09
-1.53619e-14
-4.07032e-15
-1.00002e-09
-1.30316e-14
-4.06822e-15
-1.00002e-09
-9.47992e-15
-4.07111e-15
-1.00003e-09
-5.014e-15
-4.07185e-15
-1.00003e-09
-4.06256e-15
-1.00003e-09
-1.53228e-14
-1.00002e-09
-1.30048e-14
-1.00003e-09
-9.46109e-15
-1.00003e-09
-5.0028e-15
-1.00003e-09
-1.00004e-09
-2.09196e-14
-1.70105e-14
-1.00001e-09
-1.77023e-14
-1.69134e-14
-1.00002e-09
-1.28491e-14
-1.68862e-14
-1.00002e-09
-6.77559e-15
-1.68726e-14
-1.00003e-09
-1.68333e-14
-1.00003e-09
-2.08238e-14
-1.43819e-14
-1.00002e-09
-1.76687e-14
-1.43569e-14
-1.00002e-09
-1.28402e-14
-1.43488e-14
-1.00003e-09
-6.77582e-15
-1.4342e-14
-1.00003e-09
-1.43126e-14
-1.00004e-09
-2.08043e-14
-1.04627e-14
-1.00002e-09
-1.76603e-14
-1.04563e-14
-1.00003e-09
-1.28379e-14
-1.04506e-14
-1.00003e-09
-6.77966e-15
-1.04412e-14
-1.00004e-09
-1.0414e-14
-1.00004e-09
-2.07934e-14
-5.52886e-15
-1.00002e-09
-1.76503e-14
-5.54371e-15
-1.00003e-09
-1.28286e-14
-5.54233e-15
-1.00004e-09
-6.77423e-15
-5.5315e-15
-1.00004e-09
-5.52164e-15
-1.00005e-09
-2.07593e-14
-1.00003e-09
-1.76089e-14
-1.00003e-09
-1.27907e-14
-1.00004e-09
-6.76154e-15
-1.00005e-09
-1.00005e-09
-2.84214e-14
-2.32645e-14
-1.00001e-09
-2.4065e-14
-2.30905e-14
-1.00002e-09
-1.74702e-14
-2.30111e-14
-1.00003e-09
-9.20689e-15
-2.29535e-14
-1.00004e-09
-2.2873e-14
-1.00004e-09
-2.82438e-14
-1.96669e-14
-1.00002e-09
-2.39852e-14
-1.96001e-14
-1.00003e-09
-1.74197e-14
-1.95509e-14
-1.00004e-09
-9.17939e-15
-1.95109e-14
-1.00005e-09
-1.94505e-14
-1.00005e-09
-2.81757e-14
-1.42818e-14
-1.00003e-09
-2.3936e-14
-1.42562e-14
-1.00004e-09
-1.73835e-14
-1.42216e-14
-1.00005e-09
-9.16292e-15
-1.41852e-14
-1.00005e-09
-1.41384e-14
-1.00006e-09
-2.81426e-14
-7.53515e-15
-1.00003e-09
-2.38978e-14
-7.53948e-15
-1.00004e-09
-1.7347e-14
-7.52003e-15
-1.00005e-09
-9.14616e-15
-7.49816e-15
-1.00006e-09
-7.48537e-15
-1.00006e-09
-2.80812e-14
-1.00004e-09
-2.38243e-14
-1.00005e-09
-1.72877e-14
-1.00005e-09
-9.12958e-15
-1.00006e-09
-1.00006e-09
-3.85456e-14
-3.16791e-14
-1.00002e-09
-3.26983e-14
-3.14354e-14
-1.00003e-09
-2.37464e-14
-3.13059e-14
-1.00004e-09
-1.25021e-14
-3.11963e-14
-1.00005e-09
-3.10668e-14
-1.00005e-09
-3.82983e-14
-2.68481e-14
-1.00003e-09
-3.2569e-14
-2.6722e-14
-1.00004e-09
-2.36451e-14
-2.66091e-14
-1.00005e-09
-1.24448e-14
-2.65183e-14
-1.00006e-09
-2.64152e-14
-1.00007e-09
-3.81703e-14
-1.94888e-14
-1.00004e-09
-3.24559e-14
-1.94151e-14
-1.00005e-09
-2.35583e-14
-1.93313e-14
-1.00006e-09
-1.24015e-14
-1.92644e-14
-1.00007e-09
-1.91967e-14
-1.00008e-09
-3.80876e-14
-1.02629e-14
-1.00004e-09
-3.23677e-14
-1.02256e-14
-1.00006e-09
-2.3491e-14
-1.01839e-14
-1.00007e-09
-1.23761e-14
-1.01591e-14
-1.00008e-09
-1.01381e-14
-1.00008e-09
-3.79623e-14
-1.00005e-09
-3.22522e-14
-1.00006e-09
-2.3414e-14
-1.00007e-09
-1.235e-14
-1.00008e-09
-1.00009e-09
-5.2331e-14
-4.30654e-14
-1.00002e-09
-4.44554e-14
-4.27351e-14
-1.00004e-09
-3.22926e-14
-4.25285e-14
-1.00006e-09
-1.69799e-14
-4.2358e-14
-1.00007e-09
-4.21836e-14
-1.00007e-09
-5.19962e-14
-3.65745e-14
-1.00004e-09
-4.42474e-14
-3.63531e-14
-1.00005e-09
-3.21294e-14
-3.61597e-14
-1.00007e-09
-1.69028e-14
-3.60125e-14
-1.00008e-09
-3.58655e-14
-1.00009e-09
-5.17759e-14
-2.65353e-14
-1.00005e-09
-4.40535e-14
-2.63904e-14
-1.00007e-09
-3.19877e-14
-2.6254e-14
-1.00008e-09
-1.6838e-14
-2.6163e-14
-1.0001e-09
-2.60719e-14
-1.0001e-09
-5.16228e-14
-1.3941e-14
-1.00006e-09
-4.39105e-14
-1.38591e-14
-1.00008e-09
-3.18961e-14
-1.38026e-14
-1.00009e-09
-1.68054e-14
-1.37785e-14
-1.00011e-09
-1.37437e-14
-1.00011e-09
-5.14226e-14
-1.00006e-09
-4.37527e-14
-1.00008e-09
-3.18e-14
-1.0001e-09
-1.67636e-14
-1.00011e-09
-1.00012e-09
-7.11854e-14
-5.85521e-14
-1.00003e-09
-6.05031e-14
-5.80937e-14
-1.00005e-09
-4.3954e-14
-5.77594e-14
-1.00007e-09
-2.31e-14
-5.75087e-14
-1.00009e-09
-5.72838e-14
-1.0001e-09
-7.07216e-14
-4.97505e-14
-1.00005e-09
-6.01719e-14
-4.93962e-14
-1.00007e-09
-4.37127e-14
-4.91018e-14
-1.0001e-09
-2.30071e-14
-4.88951e-14
-1.00011e-09
-4.8699e-14
-1.00012e-09
-7.03645e-14
-3.60646e-14
-1.00007e-09
-5.98767e-14
-3.58373e-14
-1.00009e-09
-4.35137e-14
-3.56491e-14
-1.00011e-09
-2.29234e-14
-3.5529e-14
-1.00013e-09
-3.53983e-14
-1.00014e-09
-7.01263e-14
-1.89253e-14
-1.00008e-09
-5.96796e-14
-1.88158e-14
-1.00011e-09
-4.3393e-14
-1.87445e-14
-1.00013e-09
-2.28721e-14
-1.87069e-14
-1.00014e-09
-1.86466e-14
-1.00015e-09
-6.98549e-14
-1.00009e-09
-5.94705e-14
-1.00011e-09
-4.32573e-14
-1.00013e-09
-2.2802e-14
-1.00015e-09
-1.00016e-09
-9.69141e-14
-7.96231e-14
-1.00003e-09
-8.23939e-14
-7.89685e-14
-1.00007e-09
-5.9869e-14
-7.84432e-14
-1.0001e-09
-3.14864e-14
-7.80744e-14
-1.00012e-09
-7.77549e-14
-1.00014e-09
-9.62499e-14
-6.76242e-14
-1.00006e-09
-8.18812e-14
-6.70987e-14
-1.0001e-09
-5.95165e-14
-6.66648e-14
-1.00013e-09
-3.1347e-14
-6.63691e-14
-1.00015e-09
-6.60899e-14
-1.00016e-09
-9.57107e-14
-4.90021e-14
-1.00009e-09
-8.14467e-14
-4.867e-14
-1.00012e-09
-5.92309e-14
-4.84014e-14
-1.00015e-09
-3.12201e-14
-4.82154e-14
-1.00018e-09
-4.80151e-14
-1.00019e-09
-9.53595e-14
-2.57256e-14
-1.00011e-09
-8.1167e-14
-2.55834e-14
-1.00014e-09
-5.90441e-14
-2.54729e-14
-1.00017e-09
-3.11271e-14
-2.53934e-14
-1.00019e-09
-2.52901e-14
-1.00021e-09
-9.49946e-14
-1.00012e-09
-8.08696e-14
-1.00015e-09
-5.88307e-14
-1.00018e-09
-3.10104e-14
-1.0002e-09
-1.00022e-09
-1.31832e-13
-1.08193e-13
-1.00005e-09
-1.12148e-13
-1.07242e-13
-1.0001e-09
-8.1523e-14
-1.0646e-13
-1.00014e-09
-4.29237e-14
-1.05916e-13
-1.00017e-09
-1.05424e-13
-1.00018e-09
-1.3087e-13
-9.18432e-14
-1.00009e-09
-1.11382e-13
-9.10942e-14
-1.00013e-09
-8.10017e-14
-9.04607e-14
-1.00018e-09
-4.26774e-14
-9.00125e-14
-1.00021e-09
-8.95943e-14
-1.00022e-09
-1.30103e-13
-6.6581e-14
-1.00012e-09
-1.10748e-13
-6.60879e-14
-1.00017e-09
-8.05666e-14
-6.56732e-14
-1.00021e-09
-4.24658e-14
-6.53686e-14
-1.00024e-09
-6.50687e-14
-1.00026e-09
-1.29583e-13
-3.49922e-14
-1.00015e-09
-1.10318e-13
-3.47745e-14
-1.00019e-09
-8.02603e-14
-3.45844e-14
-1.00023e-09
-4.23114e-14
-3.44374e-14
-1.00026e-09
-3.42793e-14
-1.00028e-09
-1.29061e-13
-1.00016e-09
-1.09873e-13
-1.00021e-09
-7.99309e-14
-1.00025e-09
-4.21349e-14
-1.00028e-09
-1.00029e-09
-1.79172e-13
-1.46901e-13
-1.00006e-09
-1.52519e-13
-1.45502e-13
-1.00013e-09
-1.10904e-13
-1.44349e-13
-1.00019e-09
-5.84356e-14
-1.43543e-13
-1.00023e-09
-1.42802e-13
-1.00025e-09
-1.77765e-13
-1.24652e-13
-1.00012e-09
-1.51378e-13
-1.23565e-13
-1.00018e-09
-1.10125e-13
-1.22632e-13
-1.00024e-09
-5.80282e-14
-1.21955e-13
-1.00028e-09
-1.21341e-13
-1.0003e-09
-1.76663e-13
-9.04195e-14
-1.00016e-09
-1.50445e-13
-8.96679e-14
-1.00023e-09
-1.09464e-13
-8.90251e-14
-1.00028e-09
-5.76963e-14
-8.85529e-14
-1.00032e-09
-8.81216e-14
-1.00035e-09
-1.7588e-13
-4.75734e-14
-1.0002e-09
-1.4978e-13
-4.72075e-14
-1.00026e-09
-1.08989e-13
-4.6893e-14
-1.00032e-09
-5.7463e-14
-4.66576e-14
-1.00036e-09
-4.64273e-14
-1.00038e-09
-1.75102e-13
-1.00021e-09
-1.49116e-13
-1.00028e-09
-1.08505e-13
-1.00033e-09
-5.72074e-14
-1.00037e-09
-1.0004e-09
-2.43428e-13
-1.99355e-13
-1.00009e-09
-2.07306e-13
-1.973e-13
-1.00018e-09
-1.50776e-13
-1.956e-13
-1.00025e-09
-7.94688e-14
-1.94401e-13
-1.00031e-09
-1.93326e-13
-1.00034e-09
-2.4137e-13
-1.69122e-13
-1.00016e-09
-2.05612e-13
-1.6749e-13
-1.00025e-09
-1.4961e-13
-1.66102e-13
-1.00032e-09
-7.88499e-14
-1.65095e-13
-1.00038e-09
-1.64215e-13
-1.00041e-09
-2.39729e-13
-1.22698e-13
-1.00022e-09
-2.04221e-13
-1.21544e-13
-1.00031e-09
-1.48625e-13
-1.20569e-13
-1.00038e-09
-7.83537e-14
-1.19858e-13
-1.00044e-09
-1.19232e-13
-1.00047e-09
-2.38536e-13
-6.45984e-14
-1.00027e-09
-2.03214e-13
-6.39992e-14
-1.00035e-09
-1.47909e-13
-6.35037e-14
-1.00043e-09
-7.79976e-14
-6.31385e-14
-1.00048e-09
-6.27942e-14
-1.00051e-09
-2.37378e-13
-1.00029e-09
-2.0224e-13
-1.00038e-09
-1.47205e-13
-1.00045e-09
-7.76185e-14
-1.00051e-09
-1.00054e-09
-3.30698e-13
-2.70394e-13
-1.00012e-09
-2.81713e-13
-2.67397e-13
-1.00024e-09
-2.04975e-13
-2.64912e-13
-1.00034e-09
-1.08063e-13
-2.63123e-13
-1.00042e-09
-2.61579e-13
-1.00046e-09
-3.277e-13
-2.29367e-13
-1.00022e-09
-2.79229e-13
-2.26897e-13
-1.00034e-09
-2.03228e-13
-2.24815e-13
-1.00044e-09
-1.0714e-13
-2.23304e-13
-1.00052e-09
-2.22027e-13
-1.00056e-09
-3.25223e-13
-1.66378e-13
-1.0003e-09
-2.77142e-13
-1.64608e-13
-1.00042e-09
-2.01746e-13
-1.63121e-13
-1.00052e-09
-1.06387e-13
-1.62033e-13
-1.0006e-09
-1.611e-13
-1.00064e-09
-3.234e-13
-8.7573e-14
-1.00036e-09
-2.75612e-13
-8.66511e-14
-1.00048e-09
-2.00651e-13
-8.5882e-14
-1.00058e-09
-1.05821e-13
-8.53079e-14
-1.00065e-09
-8.47915e-14
-1.00069e-09
-3.21713e-13
-1.00039e-09
-2.7419e-13
-1.00051e-09
-1.99614e-13
-1.00061e-09
-1.05256e-13
-1.00069e-09
-1.00073e-09
-4.49343e-13
-3.66651e-13
-1.00016e-09
-3.82906e-13
-3.62227e-13
-1.00033e-09
-2.78747e-13
-3.58556e-13
-1.00047e-09
-1.46999e-13
-3.55856e-13
-1.00057e-09
-3.53615e-13
-1.00063e-09
-4.44914e-13
-3.10925e-13
-1.00029e-09
-3.79232e-13
-3.07164e-13
-1.00046e-09
-2.76103e-13
-3.04004e-13
-1.0006e-09
-1.45606e-13
-3.01694e-13
-1.0007e-09
-2.99807e-13
-1.00076e-09
-4.41141e-13
-2.25467e-13
-1.00041e-09
-3.76064e-13
-2.22719e-13
-1.00057e-09
-2.73834e-13
-2.20414e-13
-1.00071e-09
-1.44433e-13
-2.18719e-13
-1.00081e-09
-2.17322e-13
-1.00086e-09
-4.3832e-13
-1.18586e-13
-1.00049e-09
-3.73698e-13
-1.17176e-13
-1.00065e-09
-2.72128e-13
-1.15975e-13
-1.00079e-09
-1.43536e-13
-1.15075e-13
-1.00089e-09
-1.14311e-13
-1.00094e-09
-4.35863e-13
-1.00053e-09
-3.71602e-13
-1.00069e-09
-2.70592e-13
-1.00083e-09
-1.42704e-13
-1.00093e-09
-1.00098e-09
-6.10827e-13
-4.97232e-13
-1.00022e-09
-5.2073e-13
-4.90523e-13
-1.00044e-09
-3.79256e-13
-4.84926e-13
-1.00064e-09
-2.00064e-13
-4.80785e-13
-1.00078e-09
-4.77497e-13
-1.00086e-09
-6.04103e-13
-4.2129e-13
-1.0004e-09
-5.15129e-13
-4.1547e-13
-1.00062e-09
-3.75192e-13
-4.10602e-13
-1.00081e-09
-1.97935e-13
-4.07036e-13
-1.00095e-09
-4.04226e-13
-1.00103e-09
-5.98261e-13
-3.05289e-13
-1.00055e-09
-5.10246e-13
-3.00985e-13
-1.00077e-09
-3.71681e-13
-2.97382e-13
-1.00096e-09
-1.96101e-13
-2.94737e-13
-1.0011e-09
-2.9266e-13
-1.00117e-09
-5.9385e-13
-1.60473e-13
-1.00066e-09
-5.06553e-13
-1.58253e-13
-1.00088e-09
-3.69017e-13
-1.56362e-13
-1.00106e-09
-1.94702e-13
-1.5496e-13
-1.0012e-09
-1.53836e-13
-1.00127e-09
-5.90189e-13
-1.00072e-09
-5.03433e-13
-1.00094e-09
-3.66743e-13
-1.00112e-09
-1.93481e-13
-1.00126e-09
-1.00133e-09
-8.30633e-13
-6.7424e-13
-1.0003e-09
-7.08548e-13
-6.63915e-13
-1.0006e-09
-5.16308e-13
-6.55245e-13
-1.00087e-09
-2.72452e-13
-6.48834e-13
-1.00106e-09
-6.43976e-13
-1.00117e-09
-8.20284e-13
-5.70427e-13
-1.00054e-09
-6.99869e-13
-5.61341e-13
-1.00085e-09
-5.10004e-13
-5.53779e-13
-1.0011e-09
-2.69177e-13
-5.48252e-13
-1.00129e-09
-5.44077e-13
-1.0014e-09
-8.11161e-13
-4.12871e-13
-1.00075e-09
-6.92279e-13
-4.06111e-13
-1.00105e-09
-5.0455e-13
-4.00471e-13
-1.0013e-09
-2.66332e-13
-3.96346e-13
-1.00149e-09
-3.93259e-13
-1.00159e-09
-8.04244e-13
-2.16917e-13
-1.0009e-09
-6.865e-13
-2.13369e-13
-1.00119e-09
-5.00392e-13
-2.10393e-13
-1.00144e-09
-2.64163e-13
-2.08211e-13
-1.00162e-09
-2.06566e-13
-1.00172e-09
-7.98715e-13
-1.00098e-09
-6.81831e-13
-1.00127e-09
-4.97011e-13
-1.00152e-09
-2.62378e-13
-1.0017e-09
-1.0018e-09
-1.12975e-12
-9.13639e-13
-1.00041e-09
-9.64482e-13
-8.97713e-13
-1.00083e-09
-7.03273e-13
-8.84349e-13
-1.00118e-09
-3.7129e-13
-8.7446e-13
-1.00145e-09
-8.67268e-13
-1.00159e-09
-1.11379e-12
-7.71406e-13
-1.00074e-09
-9.51092e-13
-7.5722e-13
-1.00115e-09
-6.93533e-13
-7.45495e-13
-1.0015e-09
-3.66261e-13
-7.36947e-13
-1.00176e-09
-7.30792e-13
-1.0019e-09
-1.09955e-12
-5.57465e-13
-1.00102e-09
-9.39314e-13
-5.46779e-13
-1.00142e-09
-6.85088e-13
-5.3794e-13
-1.00176e-09
-3.61915e-13
-5.31497e-13
-1.00201e-09
-5.26918e-13
-1.00215e-09
-1.08863e-12
-2.9271e-13
-1.00121e-09
-9.30252e-13
-2.87025e-13
-1.00161e-09
-6.78581e-13
-2.82356e-13
-1.00195e-09
-3.58561e-13
-2.78977e-13
-1.0022e-09
-2.76596e-13
-1.00233e-09
-1.08022e-12
-1.00132e-09
-9.23243e-13
-1.00171e-09
-6.73552e-13
-1.00205e-09
-3.55974e-13
-1.0023e-09
-1.00243e-09
-1.53685e-12
-1.23674e-12
-1.00056e-09
-1.31339e-12
-1.2121e-12
-1.00113e-09
-9.58456e-13
-1.19169e-12
-1.00162e-09
-5.06403e-13
-1.17655e-12
-1.00198e-09
-1.16597e-12
-1.00218e-09
-1.51218e-12
-1.04133e-12
-1.00101e-09
-1.29291e-12
-1.01913e-12
-1.00156e-09
-9.43546e-13
-1.00111e-12
-1.00204e-09
-4.98758e-13
-9.88013e-13
-1.00239e-09
-9.79101e-13
-1.00258e-09
-1.48992e-12
-7.51031e-13
-1.00138e-09
-1.27478e-12
-7.33967e-13
-1.00192e-09
-9.30627e-13
-7.20114e-13
-1.00239e-09
-4.92306e-13
-7.09984e-13
-1.00273e-09
-7.03167e-13
-1.00292e-09
-1.4725e-12
-3.94158e-13
-1.00164e-09
-1.26052e-12
-3.84975e-13
-1.00217e-09
-9.2036e-13
-3.77725e-13
-1.00263e-09
-4.87078e-13
-3.72498e-13
-1.00297e-09
-3.69099e-13
-1.00315e-09
-1.45956e-12
-1.00178e-09
-1.25001e-12
-1.00231e-09
-9.12885e-13
-1.00276e-09
-4.83373e-13
-1.0031e-09
-1.00328e-09
-2.09092e-12
-1.67188e-12
-1.00077e-09
-1.78965e-12
-1.6335e-12
-1.00155e-09
-1.30716e-12
-1.60268e-12
-1.00222e-09
-6.91506e-13
-1.57953e-12
-1.00271e-09
-1.56413e-12
-1.00298e-09
-2.05263e-12
-1.40246e-12
-1.00137e-09
-1.75858e-12
-1.36739e-12
-1.00212e-09
-1.28439e-12
-1.34019e-12
-1.00278e-09
-6.80007e-13
-1.32035e-12
-1.00325e-09
-1.30798e-12
-1.00352e-09
-2.01762e-12
-1.00869e-12
-1.00186e-09
-1.73115e-12
-9.80981e-13
-1.00259e-09
-1.26503e-12
-9.5924e-13
-1.00323e-09
-6.70988e-13
-9.42858e-13
-1.0037e-09
-9.32516e-13
-1.00397e-09
-1.98938e-12
-5.29543e-13
-1.00221e-09
-1.70851e-12
-5.14446e-13
-1.00292e-09
-1.24834e-12
-5.0349e-13
-1.00355e-09
-6.62548e-13
-4.95329e-13
-1.004e-09
-4.90815e-13
-1.00426e-09
-1.96919e-12
-1.0024e-09
-1.69296e-12
-1.0031e-09
-1.23725e-12
-1.00372e-09
-6.57591e-13
-1.00417e-09
-1.00443e-09
-2.84443e-12
-2.25617e-12
-1.00108e-09
-2.44096e-12
-2.1953e-12
-1.00212e-09
-1.78423e-12
-2.15006e-12
-1.00305e-09
-9.46067e-13
-2.11417e-12
-1.00372e-09
-2.09198e-12
-1.0041e-09
-2.78427e-12
-1.88324e-12
-1.00188e-09
-2.39465e-12
-1.82667e-12
-1.00288e-09
-1.74905e-12
-1.78745e-12
-1.00379e-09
-9.28689e-13
-1.75786e-12
-1.00443e-09
-1.74277e-12
-1.0048e-09
-2.72852e-12
-1.34889e-12
-1.00253e-09
-2.35483e-12
-1.30235e-12
-1.00349e-09
-1.7212e-12
-1.26793e-12
-1.00439e-09
-9.18344e-13
-1.23924e-12
-1.00502e-09
-1.22269e-12
-1.00541e-09
-2.68129e-12
-7.10113e-13
-1.00298e-09
-2.31799e-12
-6.84333e-13
-1.0039e-09
-1.69186e-12
-6.69092e-13
-1.00477e-09
-9.03265e-13
-6.56045e-13
-1.00537e-09
-6.51694e-13
-1.00573e-09
-2.64888e-12
-1.00324e-09
-2.29612e-12
-1.00414e-09
-1.67571e-12
-1.00501e-09
-8.98492e-13
-1.00561e-09
-1.00598e-09
-3.86577e-12
-3.038e-12
-1.00154e-09
-3.33478e-12
-2.9366e-12
-1.00292e-09
-2.43673e-12
-2.87486e-12
-1.00421e-09
-1.29862e-12
-2.81638e-12
-1.00512e-09
-2.78404e-12
-1.00566e-09
-3.76753e-12
-2.52006e-12
-1.0026e-09
-3.26812e-12
-2.42412e-12
-1.00389e-09
-2.37977e-12
-2.3752e-12
-1.00517e-09
-1.27075e-12
-2.33205e-12
-1.00602e-09
-2.32212e-12
-1.00653e-09
-3.67526e-12
-1.79201e-12
-1.00347e-09
-3.21706e-12
-1.70888e-12
-1.00466e-09
-2.34418e-12
-1.65353e-12
-1.00598e-09
-1.2693e-12
-1.59712e-12
-1.00683e-09
-1.57012e-12
-1.00743e-09
-3.59143e-12
-9.53331e-13
-1.00403e-09
-3.15295e-12
-9.05155e-13
-1.00514e-09
-2.28316e-12
-8.89868e-13
-1.00641e-09
-1.23555e-12
-8.67033e-13
-1.00715e-09
-8.69178e-13
-1.00767e-09
-3.53541e-12
-1.00441e-09
-3.12754e-12
-1.00545e-09
-2.26061e-12
-1.00677e-09
-1.23955e-12
-1.00749e-09
-1.00809e-09
-5.23169e-12
-4.08157e-12
-1.00229e-09
-4.57091e-12
-3.89341e-12
-1.004e-09
-3.325e-12
-3.82664e-12
-1.00587e-09
-1.7957e-12
-3.71705e-12
-1.00706e-09
-3.66665e-12
-1.0079e-09
-5.05587e-12
-3.36545e-12
-1.0037e-09
-4.4806e-12
-3.18127e-12
-1.00518e-09
-3.21851e-12
-3.15317e-12
-1.00711e-09
-1.73891e-12
-3.08616e-12
-1.00814e-09
-3.11114e-12
-1.00883e-09
-4.8924e-12
-2.35477e-12
-1.0049e-09
-4.44245e-12
-2.19378e-12
-1.0061e-09
-3.1892e-12
-2.11193e-12
-1.00828e-09
-1.79311e-12
-1.99118e-12
-1.00933e-09
-1.95516e-12
-1.01038e-09
-4.73492e-12
-1.29332e-12
-1.00552e-09
-4.31289e-12
-1.18546e-12
-1.00657e-09
-3.03585e-12
-1.1972e-12
-1.0086e-09
-1.69775e-12
-1.1423e-12
-1.00934e-09
-1.17217e-12
-1.01015e-09
-4.63502e-12
-1.00617e-09
-4.30613e-12
-1.00696e-09
-3.01434e-12
-1.00926e-09
-1.74408e-12
-1.00991e-09
-1.01101e-09
-6.98964e-12
-5.47969e-12
-1.00368e-09
-6.3101e-12
-5.06537e-12
-1.00533e-09
-4.51133e-12
-5.06531e-12
-1.00832e-09
-2.53243e-12
-4.81857e-12
-1.00972e-09
-4.76182e-12
-1.01123e-09
-6.67616e-12
-4.52113e-12
-1.0055e-09
-6.19318e-12
-4.0831e-12
-1.00664e-09
-4.27256e-12
-4.21096e-12
-1.00988e-09
-2.36304e-12
-4.05316e-12
-1.01081e-09
-4.19989e-12
-1.01175e-09
-6.40519e-12
-3.04396e-12
-1.00736e-09
-6.26612e-12
-2.71301e-12
-1.00761e-09
-4.34022e-12
-2.638e-12
-1.01178e-09
-2.63398e-12
-2.35723e-12
-1.01273e-09
-2.33952e-12
-1.01487e-09
-6.11216e-12
-1.8027e-12
-1.00774e-09
-5.95027e-12
-1.51891e-12
-1.00793e-09
-3.95078e-12
-1.65417e-12
-1.01158e-09
-2.34808e-12
-1.47688e-12
-1.01182e-09
-1.60164e-12
-1.01324e-09
-5.94618e-12
-1.00904e-09
-6.02755e-12
-1.0084e-09
-3.98794e-12
-1.01295e-09
-2.52927e-12
-1.01284e-09
-1.01514e-09
-9.16507e-12
-7.34902e-12
-1.00661e-09
-8.81842e-12
-6.37915e-12
-1.00665e-09
-6.07667e-12
-6.68893e-12
-1.01214e-09
-3.72556e-12
-6.09991e-12
-1.01311e-09
-6.13015e-12
-1.01642e-09
-8.70798e-12
-6.1642e-12
-1.00853e-09
-8.61391e-12
-5.01901e-12
-1.0081e-09
-5.54373e-12
-5.67235e-12
-1.01397e-09
-3.147e-12
-5.21504e-12
-1.01409e-09
-5.7166e-12
-1.01531e-09
-8.28738e-12
-3.85607e-12
-1.01188e-09
-9.03119e-12
-3.18369e-12
-1.0087e-09
-6.04293e-12
-3.2118e-12
-1.01722e-09
-4.06659e-12
-2.54816e-12
-1.01737e-09
-2.63215e-12
-1.02202e-09
-7.76641e-12
-2.61447e-12
-1.01104e-09
-8.21798e-12
-1.8683e-12
-1.00879e-09
-5.08062e-12
-2.36955e-12
-1.01556e-09
-3.23429e-12
-1.82902e-12
-1.01439e-09
-2.23115e-12
-1.01687e-09
-7.47104e-12
-1.01395e-09
-8.51257e-12
-1.00923e-09
-5.32205e-12
-1.01851e-09
-3.78252e-12
-1.01621e-09
-1.02115e-09
-1.17575e-11
-9.77704e-12
-1.0133e-09
-1.23927e-11
-7.59486e-12
-1.00744e-09
-8.2784e-12
-8.77457e-12
-1.01844e-09
-5.82432e-12
-7.49329e-12
-1.01714e-09
-7.80076e-12
-1.02508e-09
-1.13435e-11
-8.46298e-12
-1.01343e-09
-1.19229e-11
-5.65264e-12
-1.00946e-09
-7.06852e-12
-7.62815e-12
-1.01997e-09
-3.93623e-12
-6.55868e-12
-1.01816e-09
-7.89746e-12
-1.01915e-09
-1.05651e-11
-4.72669e-12
-1.0203e-09
-1.31808e-11
-3.4872e-12
-1.00825e-09
-8.82861e-12
-3.72259e-12
-1.02548e-09
-6.63402e-12
-2.26759e-12
-1.02386e-09
-2.62333e-12
-1.03393e-09
-9.74205e-12
-3.97548e-12
-1.01574e-09
-1.12364e-11
-2.14132e-12
-1.00864e-09
-6.47451e-12
-3.55169e-12
-1.02049e-09
-4.3418e-12
-2.07849e-12
-1.01671e-09
-3.21251e-12
-1.02063e-09
-9.08777e-12
-1.02255e-09
-1.20297e-11
-1.00843e-09
-7.2343e-12
-1.02686e-09
-5.87527e-12
-1.01965e-09
-1.03024e-09
-1.44794e-11
-1.27586e-11
-1.02915e-09
-1.71349e-11
-7.6193e-12
-1.00734e-09
-1.15761e-11
-1.11938e-11
-1.02911e-09
-9.86631e-12
-8.91788e-12
-1.02091e-09
-9.71797e-12
-1.04085e-09
-1.49539e-11
-1.14617e-11
-1.02102e-09
-1.63124e-11
-5.32096e-12
-1.0104e-09
-8.72505e-12
-1.00109e-11
-1.02874e-09
-4.15764e-12
-8.15477e-12
-1.02349e-09
-1.1192e-11
-1.02183e-09
-1.29963e-11
-5.44597e-12
-1.03592e-09
-1.93991e-11
-3.61707e-12
-1.00355e-09
-1.38242e-11
-3.92907e-12
-1.03714e-09
-1.16011e-11
-1.00432e-12
-1.03323e-09
-1.93374e-12
-1.05479e-09
-1.21049e-11
-6.44011e-12
-1.02195e-09
-1.50982e-11
-2.09325e-12
-1.00717e-09
-8.12608e-12
-5.6904e-12
-1.0257e-09
-5.53328e-12
-1.84804e-12
-1.01846e-09
-4.88668e-12
-1.02321e-09
-1.03176e-11
-1.03812e-09
-1.68714e-11
-1.00397e-09
-1.00984e-11
-1.03932e-09
-9.6542e-12
-1.02194e-09
-1.04478e-09
-1.62365e-11
-1.61e-11
-1.06723e-09
-2.20994e-11
-3.56959e-12
-1.00751e-09
-1.66348e-11
-1.37768e-11
-1.04664e-09
-1.83656e-11
-9.36778e-12
-1.02173e-09
-1.16495e-11
-1.07167e-09
-2.00437e-11
-1.47601e-11
-1.03293e-09
-2.19822e-11
-3.73392e-12
-1.0083e-09
-1.00456e-11
-1.23714e-11
-1.04208e-09
-2.13807e-12
-1.03162e-11
-1.03045e-09
-1.62587e-11
-1.01936e-09
-1.45396e-11
-5.65625e-12
-1.06444e-09
-2.85736e-11
-3.43571e-12
-9.89816e-10
-2.35481e-11
-3.69353e-12
-1.05084e-09
-2.16415e-11
3.23526e-12
-1.04869e-09
-3.50087e-14
-1.09266e-09
-1.51272e-11
-1.13756e-11
-1.02911e-09
-1.95078e-11
-1.41786e-12
-1.00481e-09
-9.8802e-12
-1.01669e-11
-1.02886e-09
-6.16771e-12
1.80624e-14
-1.01895e-09
-8.07704e-12
-1.02133e-09
-9.92076e-12
-1.06715e-09
-2.31789e-11
-9.92127e-10
-1.44766e-11
-1.05819e-09
-1.67511e-11
-1.01965e-09
-1.06961e-09
-1.27935e-11
-2.0394e-11
-1.15153e-09
-1.97331e-11
6.6875e-12
-1.01257e-09
-2.22514e-11
-1.77973e-11
-1.0659e-09
-3.12152e-11
-6.75315e-12
-1.01398e-09
-1.31598e-11
-1.12241e-09
-2.53488e-11
-1.6784e-11
-1.05541e-09
-2.62843e-11
-9.25113e-13
-9.99751e-10
-8.90189e-12
-1.49665e-11
-1.0623e-09
6.79089e-12
-1.23986e-11
-1.0405e-09
-2.27965e-11
-1.00294e-09
-1.22123e-11
-5.09251e-12
-1.11523e-09
-3.71936e-11
-3.98794e-12
-9.61772e-10
-3.75437e-11
-4.64622e-12
-1.06081e-09
-3.45964e-11
9.32779e-12