/*--------------------------------*- C++ -*----------------------------------*\
| =========                 |                                                 |
| \\      /  F ield         | OpenFOAM: The Open Source CFD Toolbox           |
|  \\    /   O peration     | Version:  5.x                                   |
|   \\  /    A nd           | Web:      www.OpenFOAM.org                      |
|    \\/     M anipulation  |                                                 |
\*---------------------------------------------------------------------------*/
FoamFile
{
    version     2.0;
    format      ascii;
    class       volScalarField;
    location    "100";
    object      p;
}
// * * * * * * * * * * * * * * * * * * * * * * * * * * * * * * * * * * * * * //

dimensions      [0 2 -2 0 0 0 0];

internalField   nonuniform List<scalar> 
90
(
-2.47468e-11
-4.95916e-11
-1.70075e-11
9.3898e-11
3.15841e-10
6.81671e-10
1.22279e-09
1.96697e-09
2.93561e-09
4.14057e-09
5.58109e-09
7.24147e-09
9.08997e-09
1.10799e-08
1.31529e-08
1.52453e-08
1.72972e-08
1.92634e-08
2.11268e-08
2.29118e-08
2.46983e-08
2.66346e-08
2.89496e-08
3.19664e-08
3.61191e-08
4.19846e-08
5.03467e-08
6.20788e-08
7.69538e-08
9.54955e-08
1.21282e-07
1.56114e-07
2.02495e-07
2.63778e-07
3.43254e-07
4.39792e-07
5.70123e-07
1.16602e-06
5.23618e-06
-1.40305e-05
1.99106e-05
0.000590362
0.00133059
0.00216786
0.00299351
0.00390286
0.00490112
0.00566508
0.00629833
0.0070574
0.00770993
0.00835943
0.00846915
0.00846705
0.00846665
0.0084667
0.00846679
0.00846687
0.00846694
0.00846699
0.00846704
0.00846707
0.0084671
0.00846712
0.00846714
0.00846715
0.00846716
0.00846717
0.00846718
0.00846718
0.00846719
0.00846719
0.00846719
0.00846719
0.00846719
0.0084672
0.0084672
0.0084672
0.00846719
0.00846719
0.00846719
0.00846719
0.00846719
0.0084672
0.0084672
0.0084672
0.0084672
0.0084672
0.0084672
0.0084672
)
;

boundaryField
{
    inlet
    {
        type            zeroGradient;
    }
    outlet
    {
        type            fixedValue;
        value           uniform 0;
    }
    repeat_boundary
    {
        type            zeroGradient;
    }
    procBoundary1to0
    {
        type            processor;
        value           nonuniform List<scalar> 
90
(
7.11449e-11
2.37505e-10
4.63658e-10
7.78875e-10
1.21326e-09
1.79483e-09
2.54888e-09
3.49684e-09
4.65493e-09
6.03213e-09
7.62767e-09
9.42817e-09
1.14048e-08
1.3511e-08
1.56813e-08
1.78316e-08
1.98618e-08
2.16596e-08
2.31055e-08
2.40782e-08
2.44572e-08
2.41226e-08
2.2948e-08
2.0785e-08
1.74391e-08
1.26329e-08
5.95973e-09
-3.18239e-09
-1.57025e-08
-3.27533e-08
-5.62173e-08
-8.78323e-08
-1.29983e-07
-1.85766e-07
-2.59682e-07
-3.59666e-07
-4.73308e-07
-3.18261e-07
1.64063e-06
-1.20514e-05
7.10839e-06
0.000445713
0.00122875
0.00193639
0.00268861
0.00367582
0.00470496
0.00565981
0.00641944
0.00698668
0.00774915
0.00837347
0.00846061
0.00846459
0.00846474
0.00846527
0.00846575
0.00846611
0.00846638
0.00846658
0.00846673
0.00846684
0.00846693
0.00846699
0.00846704
0.00846708
0.00846711
0.00846713
0.00846715
0.00846716
0.00846717
0.00846718
0.00846718
0.00846719
0.00846719
0.00846719
0.00846719
0.00846719
0.00846719
0.00846719
0.00846719
0.0084672
0.0084672
0.0084672
0.0084672
0.0084672
0.0084672
0.0084672
0.0084672
0.0084672
)
;
    }
    procBoundary1to3
    {
        type            processor;
        value           nonuniform List<scalar> 
90
(
6.35214e-11
2.1418e-10
4.23384e-10
7.19555e-10
1.1319e-09
1.6874e-09
2.41013e-09
3.32021e-09
4.43233e-09
5.75365e-09
7.28137e-09
8.99986e-09
1.08779e-08
1.28664e-08
1.48977e-08
1.68858e-08
1.87297e-08
2.03178e-08
2.15342e-08
2.22656e-08
2.24064e-08
2.18611e-08
2.05416e-08
1.83571e-08
1.51941e-08
1.08806e-08
5.12059e-09
-2.36887e-09
-1.05814e-08
-1.90752e-08
-2.96987e-08
-4.26064e-08
-5.77267e-08
-7.46995e-08
-9.33244e-08
-1.16182e-07
-1.26071e-07
2.30968e-07
3.33163e-06
-1.23787e-05
1.14753e-05
0.000543856
0.00124134
0.00209512
0.00313663
0.00395872
0.00467967
0.005408
0.00621011
0.00714995
0.00787285
0.00837187
0.00847061
0.00847093
0.00846962
0.00846902
0.00846863
0.00846833
0.00846808
0.00846789
0.00846774
0.00846762
0.00846753
0.00846746
0.00846741
0.00846736
0.00846733
0.0084673
0.00846727
0.00846726
0.00846724
0.00846723
0.00846722
0.00846722
0.00846721
0.00846721
0.0084672
0.0084672
0.0084672
0.0084672
0.0084672
0.0084672
0.0084672
0.0084672
0.0084672
0.0084672
0.0084672
0.0084672
0.0084672
0.0084672
)
;
    }
}


// ************************************************************************* //
