/*--------------------------------*- C++ -*----------------------------------*\
| =========                 |                                                 |
| \\      /  F ield         | OpenFOAM: The Open Source CFD Toolbox           |
|  \\    /   O peration     | Version:  5.x                                   |
|   \\  /    A nd           | Web:      www.OpenFOAM.org                      |
|    \\/     M anipulation  |                                                 |
\*---------------------------------------------------------------------------*/
FoamFile
{
    version     2.0;
    format      ascii;
    class       volVectorField;
    location    "100";
    object      stored_U;
}
// * * * * * * * * * * * * * * * * * * * * * * * * * * * * * * * * * * * * * //

dimensions      [0 1 -1 0 0 0 0];

internalField   nonuniform List<vector> 
90
(
(6.27182e-10 -5.74911e-10 -0.000999988)
(1.7247e-09 -1.58447e-09 -0.000999987)
(2.90687e-09 -2.66851e-09 -0.000999986)
(4.18948e-09 -3.83967e-09 -0.000999983)
(5.62845e-09 -5.14759e-09 -0.00099998)
(7.29355e-09 -6.65494e-09 -0.000999975)
(9.27042e-09 -8.43819e-09 -0.000999969)
(1.16629e-08 -1.05896e-08 -0.000999962)
(1.4594e-08 -1.32183e-08 -0.000999953)
(1.82082e-08 -1.64511e-08 -0.000999943)
(2.26729e-08 -2.04326e-08 -0.00099993)
(2.81795e-08 -2.53256e-08 -0.000999915)
(3.49448e-08 -3.13096e-08 -0.000999897)
(4.32106e-08 -3.8579e-08 -0.000999876)
(5.3243e-08 -4.73389e-08 -0.000999851)
(6.53279e-08 -5.77966e-08 -0.000999821)
(7.97617e-08 -7.0147e-08 -0.000999785)
(9.68323e-08 -8.45475e-08 -0.000999743)
(1.16788e-07 -1.01077e-07 -0.000999693)
(1.39781e-07 -1.1967e-07 -0.000999634)
(1.65791e-07 -1.40021e-07 -0.000999566)
(1.94491e-07 -1.61438e-07 -0.000999487)
(2.25059e-07 -1.82623e-07 -0.000999398)
(2.55904e-07 -2.01366e-07 -0.000999298)
(2.84255e-07 -2.14098e-07 -0.000999191)
(3.05583e-07 -2.15243e-07 -0.000999081)
(3.12745e-07 -1.96306e-07 -0.000998977)
(2.94741e-07 -1.44524e-07 -0.000998893)
(2.34741e-07 -4.07785e-08 -0.000998852)
(1.08704e-07 1.4167e-07 -0.000998866)
(-1.13229e-07 4.36839e-07 -0.000998983)
(-4.80112e-07 8.99459e-07 -0.00099929)
(-1.06328e-06 1.60752e-06 -0.000999887)
(-1.96342e-06 2.67057e-06 -0.00100091)
(-3.32445e-06 4.24441e-06 -0.00100253)
(-5.39424e-06 6.59609e-06 -0.00100597)
(-8.23747e-06 9.78882e-06 -0.00101534)
(-1.30697e-05 1.49028e-05 -0.00101574)
(-1.98639e-05 2.13651e-05 -0.00058121)
(6.78166e-06 1.05644e-05 -0.00234187)
(-7.04859e-06 3.51499e-06 -0.00127639)
(-6.31526e-05 1.99264e-05 -0.00282971)
(-2.75124e-05 2.15963e-05 -0.00199248)
(-8.34558e-05 2.34838e-05 -0.00304046)
(-0.000124536 -5.81234e-05 -0.00232662)
(-7.49185e-05 -1.88144e-05 -0.00310346)
(-5.23326e-05 4.80719e-05 -0.00201765)
(-3.7794e-06 0.000119949 -0.00316408)
(2.22926e-05 3.43204e-05 -0.00235648)
(-3.25727e-05 -4.30365e-05 -0.00247716)
(1.59507e-05 -9.41972e-05 -0.00282787)
(6.05639e-05 -3.16441e-05 -0.00144612)
(0.000201208 6.11019e-05 -0.00220105)
(5.61884e-05 -8.88535e-06 -0.00110121)
(3.75972e-05 -1.56802e-05 -0.00102382)
(2.80223e-05 -1.10002e-05 -0.00102705)
(2.14005e-05 -7.42549e-06 -0.0010223)
(1.63968e-05 -4.93537e-06 -0.00101668)
(1.25876e-05 -3.20639e-06 -0.00101237)
(9.68237e-06 -2.01608e-06 -0.00100918)
(7.46294e-06 -1.20602e-06 -0.00100682)
(5.76459e-06 -6.60498e-07 -0.00100507)
(4.46213e-06 -2.99309e-07 -0.00100378)
(3.46075e-06 -6.53839e-08 -0.00100283)
(2.68895e-06 8.1359e-08 -0.00100212)
(2.09298e-06 1.68363e-07 -0.00100158)
(1.63202e-06 2.12897e-07 -0.00100119)
(1.27439e-06 2.29891e-07 -0.00100089)
(9.96846e-07 2.28344e-07 -0.00100066)
(7.81248e-07 2.15211e-07 -0.00100049)
(6.13409e-07 1.95844e-07 -0.00100037)
(4.82398e-07 1.73929e-07 -0.00100027)
(3.79862e-07 1.51788e-07 -0.0010002)
(2.99413e-07 1.3078e-07 -0.00100015)
(2.36163e-07 1.11608e-07 -0.00100011)
(1.86356e-07 9.45624e-08 -0.00100009)
(1.47091e-07 7.96862e-08 -0.00100006)
(1.16116e-07 6.6882e-08 -0.00100005)
(9.16795e-08 5.59787e-08 -0.00100004)
(7.24133e-08 4.6774e-08 -0.00100003)
(5.72463e-08 3.90603e-08 -0.00100002)
(4.53386e-08 3.26403e-08 -0.00100001)
(3.60304e-08 2.73354e-08 -0.00100001)
(2.88022e-08 2.29899e-08 -0.00100001)
(2.32475e-08 1.94751e-08 -0.001)
(1.90443e-08 1.6681e-08 -0.001)
(1.59461e-08 1.45241e-08 -0.001)
(1.37608e-08 1.29341e-08 -0.001)
(1.23123e-08 1.18335e-08 -0.001)
(1.14611e-08 1.11289e-08 -0.001)
)
;

boundaryField
{
    inlet
    {
        type            calculated;
        value           uniform (1.14611e-08 1.11289e-08 -0.001);
    }
    outlet
    {
        type            calculated;
        value           uniform (6.27182e-10 -5.74911e-10 -0.000999988);
    }
    repeat_boundary
    {
        type            calculated;
        value           nonuniform List<vector> 
180
(
(6.27182e-10 0 -0.000999988)
(1.7247e-09 0 -0.000999987)
(2.90687e-09 0 -0.000999986)
(4.18948e-09 0 -0.000999983)
(5.62845e-09 0 -0.00099998)
(7.29355e-09 0 -0.000999975)
(9.27042e-09 0 -0.000999969)
(1.16629e-08 0 -0.000999962)
(1.4594e-08 0 -0.000999953)
(1.82082e-08 0 -0.000999943)
(2.26729e-08 0 -0.00099993)
(2.81795e-08 0 -0.000999915)
(3.49448e-08 0 -0.000999897)
(4.32106e-08 0 -0.000999876)
(5.3243e-08 0 -0.000999851)
(6.53279e-08 0 -0.000999821)
(7.97617e-08 0 -0.000999785)
(9.68323e-08 0 -0.000999743)
(1.16788e-07 0 -0.000999693)
(1.39781e-07 0 -0.000999634)
(1.65791e-07 0 -0.000999566)
(1.94491e-07 0 -0.000999487)
(2.25059e-07 0 -0.000999398)
(2.55904e-07 0 -0.000999298)
(2.84255e-07 0 -0.000999191)
(3.05583e-07 0 -0.000999081)
(3.12745e-07 0 -0.000998977)
(2.94741e-07 0 -0.000998893)
(2.34741e-07 0 -0.000998852)
(1.08704e-07 0 -0.000998866)
(-1.13229e-07 0 -0.000998983)
(-4.80112e-07 0 -0.00099929)
(-1.06328e-06 0 -0.000999887)
(-1.96342e-06 0 -0.00100091)
(-3.32445e-06 0 -0.00100253)
(-5.39424e-06 0 -0.00100597)
(-8.23747e-06 0 -0.00101534)
(-1.30697e-05 0 -0.00101574)
(-1.98639e-05 0 -0.00058121)
(6.78166e-06 0 -0.00234187)
(-7.04859e-06 0 -0.00127639)
(-6.31526e-05 0 -0.00282971)
(-2.75124e-05 0 -0.00199248)
(-8.34558e-05 0 -0.00304046)
(-0.000124536 0 -0.00232662)
(-7.49185e-05 0 -0.00310346)
(-5.23326e-05 0 -0.00201765)
(-3.7794e-06 0 -0.00316408)
(2.22926e-05 0 -0.00235648)
(-3.25727e-05 0 -0.00247716)
(1.59507e-05 0 -0.00282787)
(6.05639e-05 0 -0.00144612)
(0.000201208 0 -0.00220105)
(5.61884e-05 0 -0.00110121)
(3.75972e-05 0 -0.00102382)
(2.80223e-05 0 -0.00102705)
(2.14005e-05 0 -0.0010223)
(1.63968e-05 0 -0.00101668)
(1.25876e-05 0 -0.00101237)
(9.68237e-06 0 -0.00100918)
(7.46294e-06 0 -0.00100682)
(5.76459e-06 0 -0.00100507)
(4.46213e-06 0 -0.00100378)
(3.46075e-06 0 -0.00100283)
(2.68895e-06 0 -0.00100212)
(2.09298e-06 0 -0.00100158)
(1.63202e-06 0 -0.00100119)
(1.27439e-06 0 -0.00100089)
(9.96846e-07 0 -0.00100066)
(7.81248e-07 0 -0.00100049)
(6.13409e-07 0 -0.00100037)
(4.82398e-07 0 -0.00100027)
(3.79862e-07 0 -0.0010002)
(2.99413e-07 0 -0.00100015)
(2.36163e-07 0 -0.00100011)
(1.86356e-07 0 -0.00100009)
(1.47091e-07 0 -0.00100006)
(1.16116e-07 0 -0.00100005)
(9.16795e-08 0 -0.00100004)
(7.24133e-08 0 -0.00100003)
(5.72463e-08 0 -0.00100002)
(4.53386e-08 0 -0.00100001)
(3.60304e-08 0 -0.00100001)
(2.88022e-08 0 -0.00100001)
(2.32475e-08 0 -0.001)
(1.90443e-08 0 -0.001)
(1.59461e-08 0 -0.001)
(1.37608e-08 0 -0.001)
(1.23123e-08 0 -0.001)
(1.14611e-08 0 -0.001)
(0 -5.74911e-10 -0.000999988)
(0 -1.58447e-09 -0.000999987)
(0 -2.66851e-09 -0.000999986)
(0 -3.83967e-09 -0.000999983)
(0 -5.14759e-09 -0.00099998)
(0 -6.65494e-09 -0.000999975)
(0 -8.43819e-09 -0.000999969)
(0 -1.05896e-08 -0.000999962)
(0 -1.32183e-08 -0.000999953)
(0 -1.64511e-08 -0.000999943)
(0 -2.04326e-08 -0.00099993)
(0 -2.53256e-08 -0.000999915)
(0 -3.13096e-08 -0.000999897)
(0 -3.8579e-08 -0.000999876)
(0 -4.73389e-08 -0.000999851)
(0 -5.77966e-08 -0.000999821)
(0 -7.0147e-08 -0.000999785)
(0 -8.45475e-08 -0.000999743)
(0 -1.01077e-07 -0.000999693)
(0 -1.1967e-07 -0.000999634)
(0 -1.40021e-07 -0.000999566)
(0 -1.61438e-07 -0.000999487)
(0 -1.82623e-07 -0.000999398)
(0 -2.01366e-07 -0.000999298)
(0 -2.14098e-07 -0.000999191)
(0 -2.15243e-07 -0.000999081)
(0 -1.96306e-07 -0.000998977)
(0 -1.44524e-07 -0.000998893)
(0 -4.07785e-08 -0.000998852)
(0 1.4167e-07 -0.000998866)
(0 4.36839e-07 -0.000998983)
(0 8.99459e-07 -0.00099929)
(0 1.60752e-06 -0.000999887)
(0 2.67057e-06 -0.00100091)
(0 4.24441e-06 -0.00100253)
(0 6.59609e-06 -0.00100597)
(0 9.78882e-06 -0.00101534)
(0 1.49028e-05 -0.00101574)
(0 2.13651e-05 -0.00058121)
(0 1.05644e-05 -0.00234187)
(0 3.51499e-06 -0.00127639)
(0 1.99264e-05 -0.00282971)
(0 2.15963e-05 -0.00199248)
(0 2.34838e-05 -0.00304046)
(0 -5.81234e-05 -0.00232662)
(0 -1.88144e-05 -0.00310346)
(0 4.80719e-05 -0.00201765)
(0 0.000119949 -0.00316408)
(0 3.43204e-05 -0.00235648)
(0 -4.30365e-05 -0.00247716)
(0 -9.41972e-05 -0.00282787)
(0 -3.16441e-05 -0.00144612)
(0 6.11019e-05 -0.00220105)
(0 -8.88535e-06 -0.00110121)
(0 -1.56802e-05 -0.00102382)
(0 -1.10002e-05 -0.00102705)
(0 -7.42549e-06 -0.0010223)
(0 -4.93537e-06 -0.00101668)
(0 -3.20639e-06 -0.00101237)
(0 -2.01608e-06 -0.00100918)
(0 -1.20602e-06 -0.00100682)
(0 -6.60498e-07 -0.00100507)
(0 -2.99309e-07 -0.00100378)
(0 -6.53839e-08 -0.00100283)
(0 8.1359e-08 -0.00100212)
(0 1.68363e-07 -0.00100158)
(0 2.12897e-07 -0.00100119)
(0 2.29891e-07 -0.00100089)
(0 2.28344e-07 -0.00100066)
(0 2.15211e-07 -0.00100049)
(0 1.95844e-07 -0.00100037)
(0 1.73929e-07 -0.00100027)
(0 1.51788e-07 -0.0010002)
(0 1.3078e-07 -0.00100015)
(0 1.11608e-07 -0.00100011)
(0 9.45624e-08 -0.00100009)
(0 7.96862e-08 -0.00100006)
(0 6.6882e-08 -0.00100005)
(0 5.59787e-08 -0.00100004)
(0 4.6774e-08 -0.00100003)
(0 3.90603e-08 -0.00100002)
(0 3.26403e-08 -0.00100001)
(0 2.73354e-08 -0.00100001)
(0 2.29899e-08 -0.00100001)
(0 1.94751e-08 -0.001)
(0 1.6681e-08 -0.001)
(0 1.45241e-08 -0.001)
(0 1.29341e-08 -0.001)
(0 1.18335e-08 -0.001)
(0 1.11289e-08 -0.001)
)
;
    }
    procBoundary1to0
    {
        type            processor;
        value           nonuniform List<vector> 
90
(
(6.27182e-10 -6.0115e-10 -0.000999999)
(1.7247e-09 -1.68092e-09 -0.000999999)
(2.90687e-09 -2.9007e-09 -0.000999998)
(4.18953e-09 -4.32744e-09 -0.000999997)
(5.62886e-09 -6.04901e-09 -0.000999995)
(7.29348e-09 -8.16323e-09 -0.000999993)
(9.27007e-09 -1.07809e-08 -0.000999991)
(1.16629e-08 -1.40522e-08 -0.000999989)
(1.4594e-08 -1.81431e-08 -0.000999986)
(1.82082e-08 -2.32794e-08 -0.000999983)
(2.26729e-08 -2.97503e-08 -0.00099998)
(2.81796e-08 -3.79327e-08 -0.000999977)
(3.49448e-08 -4.83191e-08 -0.000999973)
(4.32106e-08 -6.15527e-08 -0.000999968)
(5.3243e-08 -7.84728e-08 -0.000999962)
(6.5328e-08 -1.00174e-07 -0.000999954)
(7.97618e-08 -1.28086e-07 -0.000999943)
(9.68325e-08 -1.64072e-07 -0.000999929)
(1.16788e-07 -2.10572e-07 -0.000999908)
(1.39782e-07 -2.70784e-07 -0.00099988)
(1.65792e-07 -3.48909e-07 -0.00099984)
(1.94492e-07 -4.50479e-07 -0.000999785)
(2.25061e-07 -5.82797e-07 -0.000999706)
(2.55907e-07 -7.5552e-07 -0.000999596)
(2.84261e-07 -9.81445e-07 -0.000999441)
(3.05593e-07 -1.27755e-06 -0.000999225)
(3.12765e-07 -1.66642e-06 -0.000998924)
(2.94779e-07 -2.17813e-06 -0.000998504)
(2.34818e-07 -2.85291e-06 -0.000997922)
(1.08854e-07 -3.74432e-06 -0.000997125)
(-1.12932e-07 -4.92199e-06 -0.000996036)
(-4.79533e-07 -6.48065e-06 -0.000994533)
(-1.06214e-06 -8.54759e-06 -0.000992461)
(-1.96106e-06 -1.12929e-05 -0.000989605)
(-3.31668e-06 -1.49429e-05 -0.000985689)
(-5.31804e-06 -1.97899e-05 -0.000980896)
(-8.28806e-06 -2.63167e-05 -0.000977326)
(-1.30397e-05 -3.57733e-05 -0.000954612)
(-1.99419e-05 -4.80903e-05 -0.000627542)
(6.19205e-06 -7.73725e-06 -0.00191317)
(-1.12705e-05 -1.32408e-05 -0.00167036)
(-4.66352e-05 -0.000102617 -0.00167455)
(-2.9349e-05 -5.26797e-05 -0.00233974)
(-7.13053e-05 -5.74331e-05 -0.00225042)
(-8.27843e-05 -7.09961e-05 -0.00235918)
(-4.45449e-05 -2.70394e-05 -0.00191572)
(-4.71381e-05 2.92768e-05 -0.0025482)
(-3.86342e-06 6.81401e-05 -0.00180815)
(4.20948e-05 7.49788e-05 -0.00230714)
(-3.28243e-05 -1.98981e-05 -0.00239809)
(-3.95122e-05 -3.31784e-06 -0.00143285)
(2.47474e-05 0.000177959 -0.00186162)
(0.000139261 0.000124783 -0.00173175)
(4.02806e-05 1.61407e-05 -0.00111658)
(3.6871e-05 3.41191e-05 -0.000924038)
(2.80601e-05 2.68556e-05 -0.000949355)
(2.14295e-05 2.04273e-05 -0.000963932)
(1.64131e-05 1.55385e-05 -0.000972402)
(1.25967e-05 1.18419e-05 -0.000978644)
(9.68757e-06 9.04229e-06 -0.00098345)
(7.46589e-06 6.91787e-06 -0.000987153)
(5.76628e-06 5.30029e-06 -0.00099001)
(4.46311e-06 4.06695e-06 -0.000992218)
(3.46131e-06 3.12557e-06 -0.000993927)
(2.68928e-06 2.40604e-06 -0.000995251)
(2.09317e-06 1.85499e-06 -0.00099628)
(1.63214e-06 1.43373e-06 -0.00099708)
(1.27446e-06 1.11129e-06 -0.000997702)
(9.96886e-07 8.63794e-07 -0.000998189)
(7.81271e-07 6.7319e-07 -0.000998569)
(6.13422e-07 5.25864e-07 -0.000998867)
(4.82407e-07 4.11589e-07 -0.000999101)
(3.79867e-07 3.22668e-07 -0.000999286)
(2.99416e-07 2.53279e-07 -0.000999432)
(2.36165e-07 1.99003e-07 -0.000999548)
(1.86357e-07 1.56464e-07 -0.000999639)
(1.47092e-07 1.23073e-07 -0.000999712)
(1.16116e-07 9.68373e-08 -0.00099977)
(9.16798e-08 7.62155e-08 -0.000999817)
(7.24134e-08 6.00123e-08 -0.000999854)
(5.72464e-08 4.72981e-08 -0.000999884)
(4.53387e-08 3.73474e-08 -0.000999908)
(3.60304e-08 2.9593e-08 -0.000999927)
(2.88026e-08 2.35905e-08 -0.000999943)
(2.32471e-08 1.89912e-08 -0.000999956)
(1.90443e-08 1.55217e-08 -0.000999967)
(1.59461e-08 1.29694e-08 -0.000999975)
(1.37604e-08 1.11682e-08 -0.000999983)
(1.23127e-08 9.9687e-09 -0.00099999)
(1.14612e-08 9.26923e-09 -0.000999996)
)
;
    }
    procBoundary1to3
    {
        type            processor;
        value           nonuniform List<vector> 
90
(
(6.53421e-10 -5.74912e-10 -0.000999998)
(1.82115e-09 -1.58447e-09 -0.000999998)
(3.13906e-09 -2.6685e-09 -0.000999997)
(4.67715e-09 -3.83967e-09 -0.000999995)
(6.52902e-09 -5.14758e-09 -0.000999994)
(8.80162e-09 -6.65485e-09 -0.000999991)
(1.16143e-08 -8.4383e-09 -0.000999989)
(1.51255e-08 -1.05896e-08 -0.000999986)
(1.95188e-08 -1.32183e-08 -0.000999983)
(2.50365e-08 -1.64511e-08 -0.000999979)
(3.19905e-08 -2.04326e-08 -0.000999975)
(4.07867e-08 -2.53256e-08 -0.00099997)
(5.19544e-08 -3.13096e-08 -0.000999964)
(6.61843e-08 -3.8579e-08 -0.000999956)
(8.43769e-08 -4.73389e-08 -0.000999947)
(1.07706e-07 -5.77967e-08 -0.000999935)
(1.37701e-07 -7.01472e-08 -0.000999919)
(1.76357e-07 -8.45477e-08 -0.000999898)
(2.26283e-07 -1.01077e-07 -0.000999869)
(2.90896e-07 -1.1967e-07 -0.00099983)
(3.74679e-07 -1.40022e-07 -0.000999776)
(4.83532e-07 -1.61439e-07 -0.000999701)
(6.25233e-07 -1.82624e-07 -0.000999598)
(8.10057e-07 -2.01369e-07 -0.000999457)
(1.0516e-06 -2.14103e-07 -0.000999262)
(1.36789e-06 -2.15253e-07 -0.000998993)
(1.78286e-06 -1.96326e-07 -0.000998624)
(2.32835e-06 -1.44562e-07 -0.000998116)
(3.04687e-06 -4.08553e-08 -0.00099742)
(3.99468e-06 1.41516e-07 -0.000996476)
(5.24558e-06 4.36533e-07 -0.00099519)
(6.89995e-06 8.98859e-07 -0.000993429)
(9.09175e-06 1.60635e-06 -0.00099102)
(1.19999e-05 2.66812e-06 -0.000987724)
(1.58624e-05 4.23638e-06 -0.000983227)
(2.09879e-05 6.51654e-06 -0.000977731)
(2.78661e-05 9.84e-06 -0.000974219)
(3.76247e-05 1.48775e-05 -0.000955945)
(4.9525e-05 2.13789e-05 -0.000562214)
(2.49653e-05 1.09885e-05 -0.00202569)
(7.43062e-06 6.5988e-06 -0.0015473)
(4.22169e-05 1.25719e-05 -0.00173085)
(5.96555e-05 3.01955e-05 -0.00272312)
(2.59444e-06 8.97555e-06 -0.00176606)
(-5.24315e-05 -4.20783e-05 -0.0025447)
(-4.50196e-05 -1.87733e-05 -0.00217974)
(-3.35357e-05 6.75569e-05 -0.00238591)
(-3.39986e-05 6.30213e-05 -0.00211727)
(-1.75633e-05 1.97502e-05 -0.0025253)
(-1.84866e-05 -2.1505e-05 -0.00178029)
(7.11218e-06 -7.91946e-05 -0.00249081)
(-0.000106298 -0.000100988 -0.00136373)
(-0.000149793 -6.66037e-05 -0.00187591)
(-6.18721e-05 1.84023e-06 -0.00115937)
(-1.6916e-05 -1.48871e-05 -0.000976854)
(-9.93494e-06 -1.10334e-05 -0.00098347)
(-6.44587e-06 -7.44944e-06 -0.000991815)
(-4.0683e-06 -4.94169e-06 -0.000995525)
(-2.45554e-06 -3.20951e-06 -0.000997741)
(-1.37295e-06 -2.01769e-06 -0.000999166)
(-6.5918e-07 -1.20686e-06 -0.00100004)
(-1.95161e-07 -6.60928e-07 -0.00100054)
(9.65974e-08 -2.99382e-07 -0.00100081)
(2.70031e-07 -6.56604e-08 -0.00100093)
(3.64479e-07 8.12931e-08 -0.00100095)
(4.06472e-07 1.68327e-07 -0.00100093)
(4.1126e-07 2.12876e-07 -0.00100088)
(3.93041e-07 2.29879e-07 -0.00100082)
(3.61421e-07 2.28336e-07 -0.00100074)
(3.23283e-07 2.15206e-07 -0.00100066)
(2.83396e-07 1.95841e-07 -0.00100057)
(2.44743e-07 1.73927e-07 -0.0010005)
(2.08986e-07 1.51787e-07 -0.00100042)
(1.76915e-07 1.30779e-07 -0.00100036)
(1.48769e-07 1.11608e-07 -0.0010003)
(1.24455e-07 9.4562e-08 -0.00100025)
(1.03704e-07 7.9686e-08 -0.0010002)
(8.61609e-08 6.68819e-08 -0.00100017)
(7.14429e-08 5.59786e-08 -0.00100014)
(5.9175e-08 4.67739e-08 -0.00100011)
(4.90086e-08 3.90603e-08 -0.00100009)
(4.06316e-08 3.26403e-08 -0.00100007)
(3.37728e-08 2.73354e-08 -0.00100006)
(2.82025e-08 2.29904e-08 -0.00100005)
(2.37305e-08 1.94745e-08 -0.00100004)
(2.02035e-08 1.66809e-08 -0.00100003)
(1.7501e-08 1.45243e-08 -0.00100002)
(1.55274e-08 1.29353e-08 -0.00100001)
(1.41763e-08 1.18323e-08 -0.00100001)
(1.33207e-08 1.11288e-08 -0.001)
)
;
    }
}


// ************************************************************************* //
