/*--------------------------------*- C++ -*----------------------------------*\
| =========                 |                                                 |
| \\      /  F ield         | OpenFOAM: The Open Source CFD Toolbox           |
|  \\    /   O peration     | Version:  5.x                                   |
|   \\  /    A nd           | Web:      www.OpenFOAM.org                      |
|    \\/     M anipulation  |                                                 |
\*---------------------------------------------------------------------------*/
FoamFile
{
    version     2.0;
    format      ascii;
    class       surfaceScalarField;
    location    "9000";
    object      phi;
}
// * * * * * * * * * * * * * * * * * * * * * * * * * * * * * * * * * * * * * //

dimensions      [0 3 -1 0 0 0 0];

internalField   nonuniform List<scalar> 
179
(
3.08763e+07
3.08786e+07
3.088e+07
3.08819e+07
3.08833e+07
3.08838e+07
3.08837e+07
3.08826e+07
3.08838e+07
3.08864e+07
3.08956e+07
3.09095e+07
3.09263e+07
3.09451e+07
3.0973e+07
3.10065e+07
3.10454e+07
3.10868e+07
3.11289e+07
3.11704e+07
3.12098e+07
3.12456e+07
3.12782e+07
3.1306e+07
3.13258e+07
3.13459e+07
3.13613e+07
3.13714e+07
3.13772e+07
3.13803e+07
3.1381e+07
3.13735e+07
3.13597e+07
3.13407e+07
3.13181e+07
3.12923e+07
3.12683e+07
3.12456e+07
3.12212e+07
3.11966e+07
3.11736e+07
3.11526e+07
3.11335e+07
3.11152e+07
3.10999e+07
3.10831e+07
3.10646e+07
3.10433e+07
3.10213e+07
3.09972e+07
3.0971e+07
3.09403e+07
3.09101e+07
3.08752e+07
3.08392e+07
3.07975e+07
3.07559e+07
3.07151e+07
3.06739e+07
3.06358e+07
3.05983e+07
3.05606e+07
3.05235e+07
3.04848e+07
3.04468e+07
3.04072e+07
3.03659e+07
3.03293e+07
3.02933e+07
3.02626e+07
3.02372e+07
3.02145e+07
3.01986e+07
3.01882e+07
3.01809e+07
3.01758e+07
3.01716e+07
3.01701e+07
3.0174e+07
3.01903e+07
3.02095e+07
3.02307e+07
3.02557e+07
3.02848e+07
3.0316e+07
3.03517e+07
3.03891e+07
3.04278e+07
3.04703e+07
3.05178e+07
3.05684e+07
3.06221e+07
3.068e+07
3.07414e+07
3.08044e+07
3.08649e+07
3.09304e+07
3.10017e+07
3.10802e+07
3.11619e+07
3.12477e+07
3.13334e+07
3.14184e+07
3.15062e+07
3.1596e+07
3.16849e+07
3.17723e+07
3.18621e+07
3.19504e+07
3.20395e+07
3.21194e+07
3.21886e+07
3.22429e+07
3.22881e+07
3.23253e+07
3.23607e+07
3.23844e+07
3.24048e+07
3.24235e+07
3.24478e+07
3.24742e+07
3.24998e+07
3.25123e+07
3.25227e+07
3.25262e+07
3.25166e+07
3.24995e+07
3.24565e+07
3.23869e+07
3.22983e+07
3.21865e+07
3.20418e+07
3.18683e+07
3.16661e+07
3.14543e+07
3.12277e+07
3.10168e+07
3.0832e+07
3.06527e+07
3.05047e+07
3.03694e+07
3.0234e+07
3.01121e+07
2.99862e+07
2.98575e+07
2.97166e+07
2.95647e+07
2.94201e+07
2.92954e+07
2.91883e+07
2.91024e+07
2.90301e+07
2.89732e+07
2.8926e+07
2.88898e+07
2.8862e+07
2.88453e+07
2.88399e+07
2.88479e+07
2.88743e+07
2.89157e+07
2.89798e+07
2.90611e+07
2.9167e+07
2.92887e+07
2.94331e+07
2.95865e+07
2.97533e+07
2.99262e+07
3.01055e+07
3.02801e+07
3.04523e+07
3.06025e+07
3.07353e+07
3.08363e+07
3.09158e+07
3.096e+07
3.09872e+07
3.09944e+07
)
;

boundaryField
{
    inlet
    {
        type            calculated;
        value           uniform 3.10084e+07;
    }
    outlet
    {
        type            calculated;
        value           uniform -3.08737e+07;
    }
    repeat_boundary
    {
        type            calculated;
        value           uniform 0;
    }
    procBoundary0to1
    {
        type            processor;
        value           nonuniform List<scalar> 
180
(
-1936.24
-1918.06
-2061.9
-2416.47
-2391.09
-2193.93
-2640.25
-2985.88
-5028.52
-6863.09
-11995.5
-16313.3
-19490.4
-22228.6
-30419.7
-35117.1
-38310.4
-42325.2
-43311.5
-43267.9
-41062.6
-37253.4
-33788
-29635.9
-21738.3
-21253.8
-15955.7
-11060.5
-7775.61
-4723.9
-1865.84
5576.33
8208.25
12412.5
15558.3
16829.3
17472.7
17952.6
19354.3
20246.8
21069.2
21740.2
21977.3
22707.6
22143.1
23784.9
25880.7
28148.5
29016.8
30544.3
32114.2
35735
35837.5
38058.7
39043.7
41835.8
41913.5
41496
40566
39316
39509.3
38921.6
37885.4
37281.9
37076.1
36805.1
36965.2
34892.2
33594.6
31107.7
28286.2
25941.6
23328.5
21142.3
19477.6
17775.5
16941.8
16617.1
14285.3
8928.66
8196.78
8273.51
6358.58
5455.87
5763.8
5452.65
4897.58
5065.13
2382.6
617.034
-418.809
-1740.26
-3538.47
-4581.52
-4417.75
-4371.04
-5482.49
-6935.16
-9554.85
-10564.8
-12864.1
-12301.1
-12593.6
-12922.7
-14009.3
-13446.4
-11207.5
-11185.2
-10004
-11974.5
-11681.9
-8581.01
-850.027
5338.5
11113.6
16241.2
29010.9
35822.8
41507.5
41901.9
46236.4
50162.1
58960.9
58300.7
63693.3
73533.4
73152.7
90879.3
108918
117092
129847
148710
165939
180057
171414
164871
134649
90198.1
76622
29853.2
11967.1
3370.22
-17646.8
-22129
-28989.7
-30423.3
-33285.5
-61411.4
-95519.6
-128468
-154600
-174342
-186707
-195105
-197307
-198934
-195978
-195894
-192549
-194634
-194090
-197870
-200436
-207753
-211095
-218302
-221086
-223947
-223473
-220217
-214414
-206070
-195740
-181483
-168314
-155863
-143200
-139835
-127824
-127133
)
;
    }
    procBoundary0to2
    {
        type            processor;
        value           nonuniform List<scalar> 
180
(
-684.801
-326.514
617.616
577.411
1003.13
1614.85
2813.53
4084.23
3762.42
4248.31
2842.61
2375.19
2703.91
3425.42
2528.76
1685.99
-603.382
856.162
1228.45
1790.75
1692.08
1431.46
1125.59
1914.68
1876.31
1191.95
599.405
872.712
2030.68
1640.1
1143.4
1887
5656.83
6547.16
7011.82
8994.43
6534.96
4743.52
5081.1
4359.15
1849.54
-709.528
-2853.2
-4419.11
-6841.3
-6999.62
-7332.74
-6851.99
-7010.16
-6510.57
-5877.04
-5076.49
-5652.42
-3069.13
-3104.66
-118.618
-347.126
-656.052
597.189
-1156.47
-2062.58
-1242.06
-698.368
1363.42
968.52
2738.15
4382.71
1662
2392.26
-343.033
-2901.62
-3297.24
-7385.19
-10786.3
-12125.5
-12730.7
-12716.7
-15098
-18221.6
-25164.9
-27399
-29466.5
-31341.7
-34641.8
-36944
-41085.2
-42387.3
-43717
-44884.9
-48083.7
-50178.5
-52002.8
-54381
-56808.8
-58547.6
-56193.6
-59927.3
-64424.6
-68922
-71174.4
-72887.9
-73421.2
-72380.7
-74881.4
-75790.5
-75456.1
-76162.4
-78619.3
-78382
-77107
-68240.2
-60589.3
-53460.2
-50471.5
-48314.3
-51711.4
-52658.1
-56262
-60162.5
-66253.8
-72577.9
-75800.9
-71426.4
-68774.3
-67196.2
-63868.4
-56109.5
-47861.2
-39277
-28492.9
-18065.8
-3995.89
7596.43
22062.5
40417.6
61724
76245.1
94651.7
102643
118154
123352
132032
139507
148076
157644
171376
185149
206030
220174
235535
240555
246666
243588
242327
233458
226779
212666
201228
184646
168155
152761
133692
119144
101879
89406.2
73903
67698.1
57139
50517.5
40917.5
39827.9
33908.7
45553.1
48625.3
67307.1
76428.2
98974.9
112681
120554
113161
)
;
    }
}


// ************************************************************************* //
