/*--------------------------------*- C++ -*----------------------------------*\
| =========                 |                                                 |
| \\      /  F ield         | OpenFOAM: The Open Source CFD Toolbox           |
|  \\    /   O peration     | Version:  5.x                                   |
|   \\  /    A nd           | Web:      www.OpenFOAM.org                      |
|    \\/     M anipulation  |                                                 |
\*---------------------------------------------------------------------------*/
FoamFile
{
    version     2.0;
    format      ascii;
    class       volVectorField;
    location    "9000";
    object      stored_U;
}
// * * * * * * * * * * * * * * * * * * * * * * * * * * * * * * * * * * * * * //

dimensions      [0 1 -1 0 0 0 0];

internalField   nonuniform List<vector> 
180
(
(-0.0782562 -0.0332324 123.551)
(-0.0892937 -0.0107181 123.62)
(-0.0985876 0.0143751 123.653)
(-0.110679 0.0394214 123.596)
(-0.091275 0.0919473 123.678)
(-0.102775 0.136738 123.585)
(-0.102294 0.184044 123.617)
(-0.160553 0.157659 123.608)
(-0.426343 -0.039493 123.594)
(-0.645221 -0.0748447 123.648)
(-0.980107 -0.190788 123.645)
(-1.00942 -0.151646 123.717)
(-1.03533 -0.15127 123.792)
(-1.2735 -0.0933439 123.886)
(-1.58758 -0.247451 124.078)
(-1.66609 -0.271717 124.152)
(-1.68911 -0.163593 124.295)
(-1.88895 -0.0642818 124.577)
(-1.93638 -0.0609037 124.665)
(-2.06853 -0.06291 124.829)
(-2.28869 0.037553 125.168)
(-2.31358 -0.00869953 125.105)
(-2.35211 0.00678345 125.367)
(-2.33241 0.103393 125.396)
(-2.35025 0.083731 125.466)
(-2.32939 0.0202522 125.605)
(-2.12872 0.0583829 125.626)
(-2.02759 -0.00408053 125.651)
(-1.98483 0.00239501 125.605)
(-1.92072 -0.0321462 125.694)
(-1.58068 0.10087 125.609)
(-1.52889 0.100683 125.523)
(-1.44178 0.172858 125.497)
(-1.31595 0.217785 125.37)
(-1.37113 0.063987 125.214)
(-1.41841 -0.160113 125.106)
(-1.41712 -0.439697 124.974)
(-1.36373 -0.435469 124.928)
(-1.36441 -0.455931 124.885)
(-1.26903 -0.623397 124.743)
(-1.2015 -0.828574 124.596)
(-1.15724 -0.984488 124.549)
(-1.15667 -1.06129 124.476)
(-1.16075 -1.08147 124.413)
(-1.01485 -1.0011 124.463)
(-0.943385 -1.01431 124.26)
(-0.908983 -1.06392 124.232)
(-0.642061 -0.853035 124.161)
(-0.60058 -0.889347 124.051)
(-0.438192 -0.832925 124.021)
(-0.307229 -0.763572 123.887)
(-0.139647 -0.718765 123.734)
(-0.0959194 -0.703502 123.663)
(0.15333 -0.409172 123.402)
(0.270497 -0.351022 123.389)
(0.507749 -0.0183654 123.096)
(0.53579 -0.0650511 122.951)
(0.663285 0.127323 122.875)
(0.542092 -0.00197851 122.559)
(0.457505 -0.155069 122.423)
(0.446451 -0.208214 122.396)
(0.562019 -0.0964095 122.153)
(0.584571 -0.0976456 122.021)
(0.520493 -0.207809 121.884)
(0.61826 -0.101144 121.753)
(0.373858 -0.437348 121.48)
(0.320729 -0.49417 121.398)
(0.227054 -0.669758 121.202)
(0.248721 -0.661629 121.122)
(0.0208308 -1.07385 120.908)
(-0.0282161 -1.10469 120.898)
(-0.0534859 -1.11391 120.828)
(-0.18226 -1.27422 120.82)
(-0.227012 -1.2906 120.712)
(-0.322429 -1.358 120.744)
(-0.335291 -1.30319 120.744)
(-0.323153 -1.25895 120.726)
(-0.494272 -1.47214 120.775)
(-0.852191 -1.91895 120.649)
(-1.15597 -2.31397 120.931)
(-1.16526 -2.34179 120.924)
(-1.1987 -2.33195 120.994)
(-1.33513 -2.51279 121.232)
(-1.43598 -2.65543 121.289)
(-1.41564 -2.72085 121.32)
(-1.60182 -2.97452 121.679)
(-1.68546 -3.03372 121.657)
(-1.67074 -3.14229 121.891)
(-1.77061 -3.20304 122.102)
(-1.87476 -3.41031 122.235)
(-1.97922 -3.53319 122.514)
(-2.14835 -3.73134 122.66)
(-2.20354 -3.94717 122.934)
(-2.20737 -3.98005 123.197)
(-2.23019 -3.8986 123.42)
(-2.24502 -3.8612 123.65)
(-2.33182 -4.15384 123.941)
(-2.40176 -4.37343 124.244)
(-2.59958 -4.65081 124.586)
(-2.68182 -4.72937 124.897)
(-2.63602 -4.71429 125.207)
(-2.38004 -4.76873 125.661)
(-2.44188 -4.84049 125.939)
(-2.53892 -4.9643 126.298)
(-2.65035 -5.10514 126.668)
(-2.56804 -5.13418 127.009)
(-2.4095 -5.26839 127.389)
(-2.39287 -5.43992 127.744)
(-2.49308 -5.56981 128.052)
(-2.69287 -5.73573 128.541)
(-2.75062 -5.74417 128.714)
(-2.73753 -5.7894 128.912)
(-2.6705 -5.78888 129.264)
(-2.74354 -5.72018 129.413)
(-2.87059 -5.69667 129.471)
(-2.88929 -5.69313 129.573)
(-2.6285 -5.0292 129.808)
(-2.65592 -4.76188 129.755)
(-2.82445 -4.53175 129.875)
(-2.82309 -4.45172 129.943)
(-2.84252 -4.39753 130.035)
(-3.02811 -3.81768 130.163)
(-3.4505 -3.33317 130.218)
(-3.68428 -3.35958 130.181)
(-3.70478 -3.34389 130.199)
(-3.51564 -3.15524 130.197)
(-3.50971 -2.881 130.076)
(-3.56674 -2.78073 129.86)
(-3.85651 -2.58027 129.464)
(-3.87431 -2.28096 129.148)
(-3.98969 -2.00239 128.516)
(-3.8463 -1.6178 127.975)
(-3.71248 -1.37214 127.374)
(-4.94139 -0.793298 126.214)
(-7.32052 0.108069 125.463)
(-10.1415 1.00222 124.463)
(-12.9905 1.57088 123.776)
(-16.295 2.32939 122.686)
(-18.5873 2.53372 122.448)
(-23.3346 3.33531 121.096)
(-23.7616 3.17733 121.297)
(-24.8502 3.28637 120.888)
(-25.9693 3.14513 120.087)
(-26.3018 3.01506 119.689)
(-27.0565 2.99102 119.275)
(-27.2318 2.95755 118.651)
(-29.2496 3.21056 118.176)
(-33.0271 3.55753 117.194)
(-36.558 3.51181 117.063)
(-39.4672 3.28998 116.481)
(-41.7227 2.68543 116.355)
(-43.2611 2.12625 115.936)
(-44.2924 1.38944 115.872)
(-44.8209 0.791027 115.589)
(-44.9761 0.0731369 115.585)
(-44.85 -0.515091 115.395)
(-44.47 -1.25348 115.41)
(-43.9467 -1.827 115.434)
(-43.2167 -2.49275 115.382)
(-42.5138 -3.12976 115.709)
(-41.6079 -3.65564 115.753)
(-40.66 -4.24198 116.097)
(-39.7816 -4.74213 116.564)
(-39.0243 -5.30823 116.899)
(-38.2232 -5.79083 117.532)
(-37.7497 -6.15455 118.129)
(-37.1802 -6.73361 118.765)
(-36.7468 -7.25687 119.488)
(-36.3514 -7.77939 120.291)
(-35.9271 -8.22104 120.962)
(-35.4071 -8.76383 121.658)
(-35.0484 -9.22241 122.522)
(-34.4979 -9.59122 122.904)
(-33.8997 -9.99 123.509)
(-33.2898 -10.471 123.983)
(-32.8019 -10.7788 124.072)
(-32.2633 -11.0753 124.194)
(-32.1189 -11.4633 124.349)
(-31.1724 -12.0797 124.291)
(-30.8496 -12.5939 124.352)
)
;

boundaryField
{
    inlet
    {
        type            calculated;
        value           uniform (-30.8496 -12.5939 124.352);
    }
    outlet
    {
        type            calculated;
        value           uniform (-0.0782562 -0.0332324 123.551);
    }
    repeat_boundary
    {
        type            calculated;
        value           nonuniform List<vector> 
360
(
(-0.0782562 0 123.551)
(-0.0892937 0 123.62)
(-0.0985876 0 123.653)
(-0.110679 0 123.596)
(-0.091275 0 123.678)
(-0.102775 0 123.585)
(-0.102294 0 123.617)
(-0.160553 0 123.608)
(-0.426343 0 123.594)
(-0.645221 0 123.648)
(-0.980107 0 123.645)
(-1.00942 0 123.717)
(-1.03533 0 123.792)
(-1.2735 0 123.886)
(-1.58758 0 124.078)
(-1.66609 0 124.152)
(-1.68911 0 124.295)
(-1.88895 0 124.577)
(-1.93638 0 124.665)
(-2.06853 0 124.829)
(-2.28869 0 125.168)
(-2.31358 0 125.105)
(-2.35211 0 125.367)
(-2.33241 0 125.396)
(-2.35025 0 125.466)
(-2.32939 0 125.605)
(-2.12872 0 125.626)
(-2.02759 0 125.651)
(-1.98483 0 125.605)
(-1.92072 0 125.694)
(-1.58068 0 125.609)
(-1.52889 0 125.523)
(-1.44178 0 125.497)
(-1.31595 0 125.37)
(-1.37113 0 125.214)
(-1.41841 0 125.106)
(-1.41712 0 124.974)
(-1.36373 0 124.928)
(-1.36441 0 124.885)
(-1.26903 0 124.743)
(-1.2015 0 124.596)
(-1.15724 0 124.549)
(-1.15667 0 124.476)
(-1.16075 0 124.413)
(-1.01485 0 124.463)
(-0.943385 0 124.26)
(-0.908983 0 124.232)
(-0.642061 0 124.161)
(-0.60058 0 124.051)
(-0.438192 0 124.021)
(-0.307229 0 123.887)
(-0.139647 0 123.734)
(-0.0959194 0 123.663)
(0.15333 0 123.402)
(0.270497 0 123.389)
(0.507749 0 123.096)
(0.53579 0 122.951)
(0.663285 0 122.875)
(0.542092 0 122.559)
(0.457505 0 122.423)
(0.446451 0 122.396)
(0.562019 0 122.153)
(0.584571 0 122.021)
(0.520493 0 121.884)
(0.61826 0 121.753)
(0.373858 0 121.48)
(0.320729 0 121.398)
(0.227054 0 121.202)
(0.248721 0 121.122)
(0.0208308 0 120.908)
(-0.0282161 0 120.898)
(-0.0534859 0 120.828)
(-0.18226 0 120.82)
(-0.227012 0 120.712)
(-0.322429 0 120.744)
(-0.335291 0 120.744)
(-0.323153 0 120.726)
(-0.494272 0 120.775)
(-0.852191 0 120.649)
(-1.15597 0 120.931)
(-1.16526 0 120.924)
(-1.1987 0 120.994)
(-1.33513 0 121.232)
(-1.43598 0 121.289)
(-1.41564 0 121.32)
(-1.60182 0 121.679)
(-1.68546 0 121.657)
(-1.67074 0 121.891)
(-1.77061 0 122.102)
(-1.87476 0 122.235)
(-1.97922 0 122.514)
(-2.14835 0 122.66)
(-2.20354 0 122.934)
(-2.20737 0 123.197)
(-2.23019 0 123.42)
(-2.24502 0 123.65)
(-2.33182 0 123.941)
(-2.40176 0 124.244)
(-2.59958 0 124.586)
(-2.68182 0 124.897)
(-2.63602 0 125.207)
(-2.38004 0 125.661)
(-2.44188 0 125.939)
(-2.53892 0 126.298)
(-2.65035 0 126.668)
(-2.56804 0 127.009)
(-2.4095 0 127.389)
(-2.39287 0 127.744)
(-2.49308 0 128.052)
(-2.69287 0 128.541)
(-2.75062 0 128.714)
(-2.73753 0 128.912)
(-2.6705 0 129.264)
(-2.74354 0 129.413)
(-2.87059 0 129.471)
(-2.88929 0 129.573)
(-2.6285 0 129.808)
(-2.65592 0 129.755)
(-2.82445 0 129.875)
(-2.82309 0 129.943)
(-2.84252 0 130.035)
(-3.02811 0 130.163)
(-3.4505 0 130.218)
(-3.68428 0 130.181)
(-3.70478 0 130.199)
(-3.51564 0 130.197)
(-3.50971 0 130.076)
(-3.56674 0 129.86)
(-3.85651 0 129.464)
(-3.87431 0 129.148)
(-3.98969 0 128.516)
(-3.8463 0 127.975)
(-3.71248 0 127.374)
(-4.94139 0 126.214)
(-7.32052 0 125.463)
(-10.1415 0 124.463)
(-12.9905 0 123.776)
(-16.295 0 122.686)
(-18.5873 0 122.448)
(-23.3346 0 121.096)
(-23.7616 0 121.297)
(-24.8502 0 120.888)
(-25.9693 0 120.087)
(-26.3018 0 119.689)
(-27.0565 0 119.275)
(-27.2318 0 118.651)
(-29.2496 0 118.176)
(-33.0271 0 117.194)
(-36.558 0 117.063)
(-39.4672 0 116.481)
(-41.7227 0 116.355)
(-43.2611 0 115.936)
(-44.2924 0 115.872)
(-44.8209 0 115.589)
(-44.9761 0 115.585)
(-44.85 0 115.395)
(-44.47 0 115.41)
(-43.9467 0 115.434)
(-43.2167 0 115.382)
(-42.5138 0 115.709)
(-41.6079 0 115.753)
(-40.66 0 116.097)
(-39.7816 0 116.564)
(-39.0243 0 116.899)
(-38.2232 0 117.532)
(-37.7497 0 118.129)
(-37.1802 0 118.765)
(-36.7468 0 119.488)
(-36.3514 0 120.291)
(-35.9271 0 120.962)
(-35.4071 0 121.658)
(-35.0484 0 122.522)
(-34.4979 0 122.904)
(-33.8997 0 123.509)
(-33.2898 0 123.983)
(-32.8019 0 124.072)
(-32.2633 0 124.194)
(-32.1189 0 124.349)
(-31.1724 0 124.291)
(-30.8496 0 124.352)
(0 -0.0332324 123.551)
(0 -0.0107181 123.62)
(0 0.0143751 123.653)
(0 0.0394214 123.596)
(0 0.0919473 123.678)
(0 0.136738 123.585)
(0 0.184044 123.617)
(0 0.157659 123.608)
(0 -0.039493 123.594)
(0 -0.0748447 123.648)
(0 -0.190788 123.645)
(0 -0.151646 123.717)
(0 -0.15127 123.792)
(0 -0.0933439 123.886)
(0 -0.247451 124.078)
(0 -0.271717 124.152)
(0 -0.163593 124.295)
(0 -0.0642818 124.577)
(0 -0.0609037 124.665)
(0 -0.06291 124.829)
(0 0.037553 125.168)
(0 -0.00869953 125.105)
(0 0.00678345 125.367)
(0 0.103393 125.396)
(0 0.083731 125.466)
(0 0.0202522 125.605)
(0 0.0583829 125.626)
(0 -0.00408053 125.651)
(0 0.00239501 125.605)
(0 -0.0321462 125.694)
(0 0.10087 125.609)
(0 0.100683 125.523)
(0 0.172858 125.497)
(0 0.217785 125.37)
(0 0.063987 125.214)
(0 -0.160113 125.106)
(0 -0.439697 124.974)
(0 -0.435469 124.928)
(0 -0.455931 124.885)
(0 -0.623397 124.743)
(0 -0.828574 124.596)
(0 -0.984488 124.549)
(0 -1.06129 124.476)
(0 -1.08147 124.413)
(0 -1.0011 124.463)
(0 -1.01431 124.26)
(0 -1.06392 124.232)
(0 -0.853035 124.161)
(0 -0.889347 124.051)
(0 -0.832925 124.021)
(0 -0.763572 123.887)
(0 -0.718765 123.734)
(0 -0.703502 123.663)
(0 -0.409172 123.402)
(0 -0.351022 123.389)
(0 -0.0183654 123.096)
(0 -0.0650511 122.951)
(0 0.127323 122.875)
(0 -0.00197851 122.559)
(0 -0.155069 122.423)
(0 -0.208214 122.396)
(0 -0.0964095 122.153)
(0 -0.0976456 122.021)
(0 -0.207809 121.884)
(0 -0.101144 121.753)
(0 -0.437348 121.48)
(0 -0.49417 121.398)
(0 -0.669758 121.202)
(0 -0.661629 121.122)
(0 -1.07385 120.908)
(0 -1.10469 120.898)
(0 -1.11391 120.828)
(0 -1.27422 120.82)
(0 -1.2906 120.712)
(0 -1.358 120.744)
(0 -1.30319 120.744)
(0 -1.25895 120.726)
(0 -1.47214 120.775)
(0 -1.91895 120.649)
(0 -2.31397 120.931)
(0 -2.34179 120.924)
(0 -2.33195 120.994)
(0 -2.51279 121.232)
(0 -2.65543 121.289)
(0 -2.72085 121.32)
(0 -2.97452 121.679)
(0 -3.03372 121.657)
(0 -3.14229 121.891)
(0 -3.20304 122.102)
(0 -3.41031 122.235)
(0 -3.53319 122.514)
(0 -3.73134 122.66)
(0 -3.94717 122.934)
(0 -3.98005 123.197)
(0 -3.8986 123.42)
(0 -3.8612 123.65)
(0 -4.15384 123.941)
(0 -4.37343 124.244)
(0 -4.65081 124.586)
(0 -4.72937 124.897)
(0 -4.71429 125.207)
(0 -4.76873 125.661)
(0 -4.84049 125.939)
(0 -4.9643 126.298)
(0 -5.10514 126.668)
(0 -5.13418 127.009)
(0 -5.26839 127.389)
(0 -5.43992 127.744)
(0 -5.56981 128.052)
(0 -5.73573 128.541)
(0 -5.74417 128.714)
(0 -5.7894 128.912)
(0 -5.78888 129.264)
(0 -5.72018 129.413)
(0 -5.69667 129.471)
(0 -5.69313 129.573)
(0 -5.0292 129.808)
(0 -4.76188 129.755)
(0 -4.53175 129.875)
(0 -4.45172 129.943)
(0 -4.39753 130.035)
(0 -3.81768 130.163)
(0 -3.33317 130.218)
(0 -3.35958 130.181)
(0 -3.34389 130.199)
(0 -3.15524 130.197)
(0 -2.881 130.076)
(0 -2.78073 129.86)
(0 -2.58027 129.464)
(0 -2.28096 129.148)
(0 -2.00239 128.516)
(0 -1.6178 127.975)
(0 -1.37214 127.374)
(0 -0.793298 126.214)
(0 0.108069 125.463)
(0 1.00222 124.463)
(0 1.57088 123.776)
(0 2.32939 122.686)
(0 2.53372 122.448)
(0 3.33531 121.096)
(0 3.17733 121.297)
(0 3.28637 120.888)
(0 3.14513 120.087)
(0 3.01506 119.689)
(0 2.99102 119.275)
(0 2.95755 118.651)
(0 3.21056 118.176)
(0 3.55753 117.194)
(0 3.51181 117.063)
(0 3.28998 116.481)
(0 2.68543 116.355)
(0 2.12625 115.936)
(0 1.38944 115.872)
(0 0.791027 115.589)
(0 0.0731369 115.585)
(0 -0.515091 115.395)
(0 -1.25348 115.41)
(0 -1.827 115.434)
(0 -2.49275 115.382)
(0 -3.12976 115.709)
(0 -3.65564 115.753)
(0 -4.24198 116.097)
(0 -4.74213 116.564)
(0 -5.30823 116.899)
(0 -5.79083 117.532)
(0 -6.15455 118.129)
(0 -6.73361 118.765)
(0 -7.25687 119.488)
(0 -7.77939 120.291)
(0 -8.22104 120.962)
(0 -8.76383 121.658)
(0 -9.22241 122.522)
(0 -9.59122 122.904)
(0 -9.99 123.509)
(0 -10.471 123.983)
(0 -10.7788 124.072)
(0 -11.0753 124.194)
(0 -11.4633 124.349)
(0 -12.0797 124.291)
(0 -12.5939 124.352)
)
;
    }
    procBoundary0to1
    {
        type            processor;
        value           nonuniform List<vector> 
180
(
(-0.0757268 -0.000743152 122.878)
(-0.0731778 -0.00459545 122.933)
(-0.0920509 0.0312887 122.855)
(-0.104053 0.0470404 122.846)
(-0.116357 0.103208 122.903)
(-0.129411 0.139812 122.749)
(-0.127545 0.173079 122.804)
(-0.0948479 0.217089 122.75)
(-0.0736499 0.217965 122.682)
(-0.184265 0.271095 122.69)
(-0.353827 0.373365 122.493)
(-0.54887 0.527504 122.483)
(-0.719243 0.64463 122.222)
(-0.936339 0.798204 122.169)
(-1.37806 0.919529 121.762)
(-1.46722 1.02108 121.646)
(-1.62049 1.11263 121.439)
(-1.66414 1.27257 120.971)
(-1.54813 1.33383 120.751)
(-1.28738 1.27132 120.39)
(-0.952915 1.10195 120.124)
(-0.505534 0.823011 119.747)
(-0.0794043 0.47515 119.564)
(0.398824 0.097939 119.234)
(0.945057 -0.344306 119.012)
(0.986138 -0.390928 119.003)
(1.41158 -0.717837 118.797)
(1.47728 -0.750849 118.705)
(1.68051 -0.914504 118.644)
(1.81486 -1.01431 118.597)
(1.89991 -1.1021 118.491)
(2.42416 -1.36937 118.626)
(2.46844 -1.38462 118.51)
(2.7373 -1.53024 118.681)
(2.78136 -1.57923 118.686)
(2.80869 -1.61123 118.752)
(2.82097 -1.64328 118.851)
(2.85955 -1.6954 118.916)
(2.97527 -1.78116 119.058)
(3.03757 -1.83707 119.259)
(3.01266 -1.84854 119.205)
(2.92395 -1.86982 119.501)
(2.94237 -1.88621 119.49)
(2.91378 -1.77191 119.774)
(2.92416 -1.74222 119.852)
(2.97111 -1.79616 119.908)
(2.8389 -1.72627 120.272)
(2.85819 -1.67807 120.237)
(2.87699 -1.56197 120.609)
(2.92539 -1.64097 120.721)
(2.96333 -1.67982 120.87)
(3.01829 -1.62839 121.122)
(2.95176 -1.36689 121.5)
(3.00748 -1.30614 121.614)
(2.94049 -1.10929 121.916)
(2.92911 -0.983483 122.188)
(2.81247 -0.726661 122.443)
(2.74801 -0.647169 122.744)
(2.56913 -0.653819 122.971)
(2.56343 -0.600725 123.143)
(2.59776 -0.473363 123.432)
(2.47132 -0.617367 123.653)
(2.30621 -0.717742 123.933)
(2.34734 -0.630138 124.175)
(2.4284 -0.47667 124.496)
(2.49448 -0.444817 124.601)
(2.50328 -0.40782 124.899)
(2.40624 -0.468189 125.122)
(2.30463 -0.459515 125.373)
(2.2252 -0.53248 125.558)
(2.10481 -0.577484 125.771)
(1.95896 -0.521868 125.994)
(1.85587 -0.510137 126.162)
(1.74617 -0.733639 126.416)
(1.6721 -0.958673 126.572)
(1.67073 -0.947526 126.886)
(1.67116 -0.933208 127.034)
(1.70681 -1.21688 127.305)
(1.72797 -1.58873 127.655)
(1.68299 -1.71573 127.854)
(1.70734 -1.9769 128.135)
(1.77078 -2.48511 128.474)
(1.78051 -2.95974 128.778)
(1.9281 -3.45411 129.102)
(1.9721 -3.731 129.326)
(2.04833 -3.90239 129.707)
(2.07981 -4.00599 129.838)
(2.04569 -4.00859 130.058)
(1.93626 -4.00179 130.248)
(1.9379 -4.11474 130.343)
(1.98997 -4.1394 130.508)
(1.95663 -4.16677 130.431)
(1.95275 -4.19373 130.462)
(1.89518 -4.13796 130.598)
(1.88095 -4.13961 130.432)
(1.87388 -4.09591 130.517)
(1.79999 -4.01089 130.483)
(1.7334 -3.95237 130.351)
(1.71635 -3.94688 130.332)
(1.69734 -3.75415 130.218)
(1.53839 -3.4273 130.174)
(1.44553 -3.30793 129.956)
(1.44418 -3.3037 129.902)
(1.4839 -3.35661 129.836)
(1.50019 -2.96371 129.636)
(1.61555 -2.48259 129.461)
(1.62831 -2.15806 129.417)
(1.55863 -2.0922 129.186)
(1.68667 -1.86463 129.041)
(1.68302 -1.82652 128.856)
(2.07117 -1.84884 128.837)
(2.57467 -2.38721 128.506)
(3.20493 -3.54434 128.62)
(3.67322 -4.92675 128.697)
(4.2364 -6.44261 129.036)
(4.91581 -8.23664 129.582)
(5.8478 -10.0717 130.299)
(6.10275 -11.4327 131.294)
(6.48585 -12.553 132.213)
(6.47807 -13.2677 133.214)
(7.02652 -14.365 134.215)
(7.6551 -15.3409 135.074)
(8.60703 -16.439 136.147)
(8.71117 -16.5803 136.878)
(9.38207 -17.4725 137.486)
(9.85195 -18.0438 138.384)
(10.1204 -18.3866 138.677)
(12.7462 -20.6508 139.458)
(13.6078 -21.3651 139.913)
(14.2014 -21.8276 140.488)
(15.794 -23.2041 140.811)
(17.2552 -24.223 141.607)
(18.4315 -25.0072 141.933)
(19.5514 -25.724 142.495)
(20.5044 -26.3064 142.91)
(22.0162 -27.5347 143.161)
(22.7822 -28.0785 143.358)
(22.5838 -27.9117 143.122)
(22.7819 -28.1007 142.974)
(23.3153 -28.5706 142.49)
(23.3909 -28.6666 141.724)
(23.9205 -29.1127 140.966)
(23.8717 -29.1417 140.055)
(24.5016 -29.8077 139.065)
(24.9568 -30.2206 138.056)
(25.1739 -30.417 137.174)
(25.4897 -30.6594 135.897)
(25.9923 -31.1539 134.846)
(26.594 -31.7168 133.323)
(27.131 -32.3421 131.941)
(27.7499 -32.9866 130.205)
(28.2049 -33.6994 128.623)
(28.6632 -34.2588 126.938)
(28.8936 -34.7758 125.324)
(29.1228 -35.0541 123.736)
(29.0504 -35.2299 122.194)
(28.9676 -35.1508 120.747)
(28.4431 -34.8694 119.353)
(27.8866 -34.2749 118.068)
(26.8775 -33.4034 116.868)
(25.9274 -32.2132 115.749)
(24.5342 -30.6799 114.777)
(23.2859 -28.8896 113.863)
(21.8874 -27.0101 113.144)
(20.8167 -25.3334 112.493)
(19.7666 -23.9267 112.095)
(19.1415 -22.9298 111.805)
(18.5976 -22.3479 111.804)
(18.4786 -21.8822 111.927)
(18.5409 -21.6805 112.371)
(18.6934 -21.3601 112.825)
(19.1793 -21.0455 113.675)
(19.7016 -20.9149 114.26)
(20.3769 -20.6746 115.175)
(20.7519 -20.2121 115.98)
(21.2593 -19.6362 116.567)
(21.4328 -18.8404 117.065)
(21.546 -18.4724 117.328)
(21.8935 -18.2405 117.595)
(21.9279 -17.2928 117.518)
)
;
    }
    procBoundary0to2
    {
        type            processor;
        value           nonuniform List<vector> 
180
(
(-0.0467494 -0.0332883 126.124)
(-0.0579653 -0.0112233 126.298)
(-0.0726551 0.0149158 126.325)
(-0.084633 0.0396049 126.254)
(-0.141921 0.0957492 126.308)
(-0.165156 0.140341 126.277)
(-0.212221 0.244223 126.369)
(-0.230955 0.27512 126.387)
(-0.236824 0.299715 126.411)
(-0.183987 0.346621 126.507)
(-0.11763 0.394894 126.469)
(-0.17646 0.321447 126.553)
(-0.183727 0.292209 126.549)
(-0.231658 0.310212 126.535)
(-0.249687 0.325683 126.613)
(-0.210726 0.23453 126.64)
(-0.190092 0.0446673 126.628)
(-0.142766 -0.0167365 126.607)
(-0.168704 0.0225138 126.686)
(-0.256757 0.0510515 126.664)
(-0.254628 0.0378032 126.674)
(-0.219657 0.00145018 126.728)
(-0.27123 0.0817228 126.732)
(-0.323864 0.131135 126.732)
(-0.232199 0.0264931 126.805)
(-0.196041 -0.00990068 126.769)
(-0.159741 -0.0319466 126.803)
(-0.111383 -0.0632579 126.822)
(-0.106824 0.248231 126.801)
(-0.0645327 0.227304 126.784)
(-0.172581 0.639939 126.884)
(-0.152257 0.644909 126.853)
(-0.153107 0.650578 126.889)
(-0.144974 0.63385 127.001)
(-0.108835 0.863148 126.981)
(-0.0895345 0.86532 127.028)
(-0.096331 0.863357 127.047)
(-0.224932 0.822096 127.133)
(-0.220645 0.783692 127.079)
(-0.230311 0.78457 127.14)
(-0.176487 0.761332 127.166)
(-0.145242 0.708891 127.16)
(-0.179788 0.689166 127.131)
(-0.395088 0.442448 127.201)
(-0.420036 0.373828 127.113)
(-0.498222 0.310871 127.139)
(-0.433736 0.310285 127.143)
(-0.355813 0.303742 127.119)
(-0.398064 0.34744 127.115)
(-0.393412 0.351752 127.101)
(-0.394716 0.313446 127.071)
(-0.390851 0.340925 127.097)
(-0.415839 0.391735 127.103)
(-0.459228 0.356925 127.11)
(-0.50966 0.274502 127.107)
(-0.549004 0.234289 127.169)
(-0.573403 0.183293 127.191)
(-0.604035 0.168415 127.246)
(-0.656632 0.104447 127.28)
(-0.704217 0.0199017 127.323)
(-0.737352 -0.0631972 127.315)
(-0.538968 0.215734 127.45)
(-0.625661 0.154538 127.343)
(-0.598249 0.451073 127.453)
(-0.569619 0.817568 127.531)
(-0.653284 0.807739 127.555)
(-0.723761 0.802742 127.611)
(-0.719473 0.839291 127.63)
(-0.780018 0.826358 127.674)
(-0.797879 0.720248 127.732)
(-0.876496 0.656943 127.629)
(-0.883072 0.536532 127.772)
(-0.790484 0.239945 127.587)
(-0.829454 0.162052 127.573)
(-0.886219 0.159239 127.57)
(-1.03721 0.277033 127.556)
(-0.928251 0.090726 127.464)
(-0.959156 0.00798978 127.432)
(-0.914685 -0.0259295 127.446)
(-1.1378 -0.115533 127.234)
(-1.37353 -0.237837 127.224)
(-1.44863 -0.242586 127.199)
(-1.55222 -0.226425 127.15)
(-1.75045 -0.329558 127.084)
(-2.15833 -0.495433 126.789)
(-2.23344 -0.549319 126.664)
(-2.27372 -0.594502 126.487)
(-2.92704 -0.485447 126.196)
(-3.57911 -0.467615 125.684)
(-3.9299 -0.568755 125.256)
(-4.06467 -0.577211 125.066)
(-4.14365 -0.543702 124.491)
(-4.19382 -0.526316 124.092)
(-4.04667 -0.672364 123.442)
(-4.05475 -0.717672 123.16)
(-3.95271 -0.565151 122.559)
(-3.39855 -0.928031 121.935)
(-3.2451 -1.08762 121.613)
(-2.80261 -1.07447 120.907)
(-2.82384 -1.04896 120.341)
(-2.70721 -1.14696 120.061)
(-2.31518 -1.01395 119.104)
(-1.75923 -0.93871 118.455)
(-1.50899 -1.15421 118.257)
(-1.17397 -0.897043 117.26)
(-1.03429 -0.851207 116.793)
(-1.00228 -0.890554 116.305)
(-1.02834 -0.880127 115.703)
(-0.621976 -0.576359 115.098)
(-0.289089 0.00743346 114.195)
(-0.648368 0.944241 113.825)
(-1.44414 1.53322 113.34)
(-2.30412 1.90923 112.945)
(-3.21569 1.84868 112.657)
(-3.90962 1.72206 112.467)
(-4.57834 1.22633 112.429)
(-4.98633 0.743214 112.376)
(-5.35972 -0.0743443 112.517)
(-5.49997 -0.724095 112.579)
(-5.63468 -1.40988 112.745)
(-5.59883 -1.83749 112.856)
(-5.59751 -2.12742 113.115)
(-5.49084 -2.17603 113.276)
(-5.44971 -2.07641 113.629)
(-5.35373 -1.84598 113.857)
(-5.32942 -1.51993 114.268)
(-5.28594 -1.07515 114.572)
(-5.30443 -0.50451 115.046)
(-5.32752 0.0849672 115.429)
(-5.4052 0.704012 115.957)
(-5.50411 1.38137 116.408)
(-5.65171 2.15035 116.996)
(-5.81868 2.91722 117.527)
(-6.01549 3.76715 118.178)
(-6.22811 4.4854 118.784)
(-6.46771 5.14825 119.56)
(-6.72827 5.63248 120.237)
(-7.05287 6.11705 121.098)
(-7.44354 6.46707 121.785)
(-7.98601 6.87684 122.703)
(-8.66332 7.24691 123.382)
(-9.57557 7.87021 124.354)
(-10.6587 8.56611 125.043)
(-12.0092 9.47888 126.067)
(-13.4797 10.4608 126.86)
(-15.2037 11.752 127.976)
(-16.8776 12.9307 128.983)
(-18.7886 14.2499 130.203)
(-20.5062 15.2638 131.483)
(-22.3815 16.3973 132.77)
(-23.8882 17.0562 134.25)
(-25.4672 17.7861 135.499)
(-26.5947 17.9886 137.059)
(-27.701 18.25 138.233)
(-28.3799 18.031 139.765)
(-28.9439 17.861 140.858)
(-29.18 17.269 142.264)
(-29.274 16.8141 143.25)
(-29.1871 15.9455 144.448)
(-28.9907 15.3068 145.314)
(-28.7085 14.4999 146.339)
(-28.5215 13.6028 146.99)
(-28.2012 13.022 147.923)
(-28.0391 12.307 148.466)
(-27.8122 11.8799 149.064)
(-27.834 11.2807 149.872)
(-27.5621 11.2404 149.922)
(-27.8088 10.9213 150.453)
(-27.9105 10.8935 150.937)
(-29.1001 10.8538 151.101)
(-29.6391 11.6167 151.467)
(-31.2796 12.1291 151.474)
(-31.8276 13.8127 151.865)
(-33.2318 14.8054 151.817)
(-33.5081 17.0957 152.272)
(-34.178 18.3785 152.121)
(-33.8123 20.783 152.772)
(-33.2497 21.5625 152.63)
(-32.3014 22.014 152.752)
(-31.6729 21.6579 152.741)
)
;
    }
}


// ************************************************************************* //
