/*--------------------------------*- C++ -*----------------------------------*\
| =========                 |                                                 |
| \\      /  F ield         | OpenFOAM: The Open Source CFD Toolbox           |
|  \\    /   O peration     | Version:  5.x                                   |
|   \\  /    A nd           | Web:      www.OpenFOAM.org                      |
|    \\/     M anipulation  |                                                 |
\*---------------------------------------------------------------------------*/
FoamFile
{
    version     2.0;
    format      ascii;
    class       surfaceScalarField;
    location    "4000";
    object      phi;
}
// * * * * * * * * * * * * * * * * * * * * * * * * * * * * * * * * * * * * * //

dimensions      [0 3 -1 0 0 0 0];

internalField   nonuniform List<scalar> 
179
(
3.10259e+06
3.1008e+06
3.0984e+06
3.09446e+06
3.08617e+06
3.0817e+06
3.08674e+06
3.08639e+06
3.08352e+06
3.0807e+06
3.07093e+06
3.05462e+06
3.04046e+06
3.02626e+06
3.01179e+06
2.9954e+06
2.98149e+06
2.97388e+06
2.97487e+06
2.97503e+06
2.9669e+06
2.95591e+06
2.94472e+06
2.93205e+06
2.91673e+06
2.89761e+06
2.87777e+06
2.85725e+06
2.83142e+06
2.80206e+06
2.76822e+06
2.73768e+06
2.70113e+06
2.67014e+06
2.63557e+06
2.5992e+06
2.56551e+06
2.53751e+06
2.50944e+06
2.4888e+06
2.48078e+06
2.47017e+06
2.45431e+06
2.44369e+06
2.43957e+06
2.44651e+06
2.46121e+06
2.48523e+06
2.51027e+06
2.53015e+06
2.55501e+06
2.582e+06
2.61422e+06
2.64371e+06
2.67007e+06
2.69315e+06
2.71446e+06
2.73944e+06
2.75792e+06
2.77126e+06
2.78303e+06
2.791e+06
2.79451e+06
2.79805e+06
2.80099e+06
2.79712e+06
2.78821e+06
2.78303e+06
2.77763e+06
2.77257e+06
2.77321e+06
2.76115e+06
2.74265e+06
2.75511e+06
2.7843e+06
2.80102e+06
2.83521e+06
2.87812e+06
2.91873e+06
2.9618e+06
3.00893e+06
3.0617e+06
3.119e+06
3.17687e+06
3.22738e+06
3.27318e+06
3.3183e+06
3.3662e+06
3.41752e+06
3.46463e+06
3.49627e+06
3.53897e+06
3.59072e+06
3.6742e+06
3.79724e+06
3.95282e+06
4.13336e+06
4.39207e+06
4.74211e+06
5.01389e+06
5.12763e+06
5.12308e+06
5.06993e+06
4.95383e+06
4.7561e+06
4.38439e+06
3.9363e+06
3.30107e+06
2.55602e+06
1.22705e+06
-524868
-2.46677e+06
-4.78709e+06
-7.44082e+06
-1.03633e+07
-1.34632e+07
-1.67608e+07
-2.02628e+07
-2.4107e+07
-2.81383e+07
-3.25035e+07
-3.7202e+07
-4.22198e+07
-4.7389e+07
-5.25685e+07
-5.74409e+07
-6.20297e+07
-6.59377e+07
-6.8923e+07
-7.08928e+07
-7.16262e+07
-7.13133e+07
-6.99342e+07
-6.81514e+07
-6.60129e+07
-6.33536e+07
-5.94139e+07
-5.51336e+07
-5.16588e+07
-4.8614e+07
-4.56243e+07
-4.15368e+07
-3.72733e+07
-3.27395e+07
-2.87749e+07
-2.5316e+07
-2.21715e+07
-1.93523e+07
-1.69322e+07
-1.48384e+07
-1.30092e+07
-1.13281e+07
-9.83668e+06
-8.48716e+06
-7.25554e+06
-6.13856e+06
-5.11397e+06
-4.1737e+06
-3.31154e+06
-2.51887e+06
-1.79491e+06
-1.13363e+06
-535109
2499.5
470928
861340
1.21018e+06
1.52634e+06
1.79955e+06
2.00488e+06
2.16235e+06
2.3105e+06
2.45508e+06
2.57929e+06
2.70021e+06
2.76726e+06
2.82302e+06
2.861e+06
2.85436e+06
)
;

boundaryField
{
    inlet
    {
        type            calculated;
        value           uniform 2.78951e+06;
    }
    outlet
    {
        type            calculated;
        value           uniform -3.10322e+06;
    }
    repeat_boundary
    {
        type            calculated;
        value           uniform 0;
    }
    procBoundary1to0
    {
        type            processor;
        value           nonuniform List<scalar> 
180
(
509.897
1485.9
1924.09
3201.84
5514.31
3874.97
-395.262
1767.35
3618.59
3915.03
7792.09
11661.6
10195.8
10902.3
10005.3
9375.7
8006.87
5156.28
1997.01
1354.37
4135.05
4825.62
6566.55
6093.3
4924.03
6500.94
6649.7
7083.28
9957.36
10509
13033
14887.6
19652.2
18002.9
20794.7
20220.5
16870
12185.1
13502.7
9134.65
2531.53
5766.25
11228.3
10848.1
7902.58
1014.47
-3396.76
-10963.2
-9160.09
-938.288
-5316.57
-9728.74
-17821
-17122.6
-16150.6
-15354.1
-13698.7
-17743.5
-13209
-9503.64
-8510.16
-5370.45
-1779.02
-2666.65
-2395.02
2505.6
5927.38
3814.27
4223.86
1201.16
-5127.1
5323.14
7807.24
-15640.3
-21266
-11807
-25578.2
-31624.2
-30049.5
-29981.8
-32680.9
-38799.2
-43868.7
-43882.7
-47427.6
-48712.8
-56496.8
-61485.8
-69781.1
-74582
-70153.9
-86149.6
-96090
-127057
-175511
-210250
-247269
-332878
-434083
-369947
-219286
-136682
-95542.1
-49527.4
-6759.51
73767.4
71170.3
176937
235390
601627
1.13841e+06
1.3132e+06
1.63376e+06
1.90206e+06
2.1066e+06
2.2237e+06
2.38385e+06
2.44141e+06
2.60615e+06
2.70351e+06
2.82821e+06
2.94137e+06
3.05101e+06
2.9961e+06
2.84732e+06
2.52448e+06
2.12541e+06
1.58199e+06
923828
287903
-307571
-437947
-638438
-474677
-446297
-677136
-1.06251e+06
-2.02461e+06
-2.13057e+06
-1.85582e+06
-1.72313e+06
-1.75553e+06
-1.64425e+06
-1.60113e+06
-1.52138e+06
-1.4469e+06
-1.47883e+06
-1.36034e+06
-1.25885e+06
-1.1526e+06
-1.08048e+06
-1.02591e+06
-946932
-915052
-829252
-813092
-737084
-718344
-667137
-638178
-600383
-568940
-536696
-508558
-481918
-453500
-411579
-373970
-344472
-319054
-287930
-249842
-218215
-190152
-167642
-140762
-120552
-105964
-62943.4
-28267.9
)
;
    }
    procBoundary1to3
    {
        type            processor;
        value           nonuniform List<scalar> 
180
(
122.158
302.136
471.992
736.617
2779.3
588.472
-4644.49
-1414.61
-748.755
-1102.15
1974.55
4647.61
3959.15
3300.46
4461.13
7008.82
5902.74
2457.06
-2996.05
-1514.05
4002
6160.57
4619.66
6577.14
10398.5
12629.4
13191.3
13431.9
15883.2
18849.7
20814.6
15649.1
16901.6
12985.3
13785.5
16153.6
16813.7
15816.6
14571.9
11506.3
5488.75
4841.5
4632.11
-231.242
-3782.39
-7961.97
-11300
-13065
-15881.4
-18940
-19549.7
-17267.6
-14400.5
-12370
-10209.6
-7729.13
-7606.16
-7242.47
-5267.67
-3830.49
-3266.82
-2595.86
-1732.21
-865.531
-542.266
1364.15
2980.55
1375.92
1175.79
3862.09
4488.49
6729.87
10699.1
3173.98
-7915.25
-4914.09
-8618.44
-11285.9
-10558.8
-13094.7
-14450.4
-13972.1
-13434.5
-13989.8
-3075.92
2902.52
11381.7
13590.9
18460.4
27475.8
38510.3
43453.4
44341.7
43580.2
52477.5
54667.9
66731.9
74167.3
84043.6
98166.8
105551
141226
148687
165619
204488
297940
376913
458288
509646
727337
613516
628712
686567
751678
815846
876239
913711
1.06066e+06
1.23806e+06
1.32772e+06
1.53704e+06
1.75713e+06
1.96675e+06
2.17316e+06
2.33217e+06
2.34789e+06
2.46335e+06
2.326e+06
2.0615e+06
1.68191e+06
1.04095e+06
125054
-740621
-1.30818e+06
-1.69219e+06
-1.98219e+06
-2.87712e+06
-2.25571e+06
-1.34429e+06
-1.18889e+06
-1.26661e+06
-2.33194e+06
-2.61931e+06
-2.93264e+06
-2.44317e+06
-2.01205e+06
-1.66563e+06
-1.45891e+06
-1.16121e+06
-941242
-748659
-655245
-544480
-434465
-402370
-303887
-287507
-221918
-195024
-154498
-123581
-92337.7
-61828.6
-29053.5
13486.7
63083.1
62736.6
57805.2
71263.3
113735
130458
101696
73634.7
65948.2
46723.1
73713
64788.5
67979.8
69585.5
93119.2
)
;
    }
}


// ************************************************************************* //
