/*--------------------------------*- C++ -*----------------------------------*\
| =========                 |                                                 |
| \\      /  F ield         | OpenFOAM: The Open Source CFD Toolbox           |
|  \\    /   O peration     | Version:  5.x                                   |
|   \\  /    A nd           | Web:      www.OpenFOAM.org                      |
|    \\/     M anipulation  |                                                 |
\*---------------------------------------------------------------------------*/
FoamFile
{
    version     2.0;
    format      ascii;
    class       volVectorField;
    location    "4000";
    object      U;
}
// * * * * * * * * * * * * * * * * * * * * * * * * * * * * * * * * * * * * * //

dimensions      [0 1 -1 0 0 0 0];

internalField   nonuniform List<vector> 
180
(
(-0.014207 0.00405188 11.8866)
(-0.0372799 0.00748922 12.8471)
(-0.0480746 0.0165369 12.4934)
(-0.0821877 0.0303025 12.3341)
(-0.116001 0.0468869 12.466)
(0.0144247 -0.116166 12.2389)
(0.164508 -0.299691 12.4167)
(-0.0528733 -0.0435845 12.3063)
(-0.0924923 -0.0440183 12.2459)
(-0.123978 -0.0424307 12.4374)
(-0.259245 0.0535114 12.3386)
(-0.39431 0.130827 12.2247)
(-0.336261 0.12521 12.1957)
(-0.35916 0.121782 12.2626)
(-0.306295 0.0555872 11.8139)
(-0.321148 0.100688 12.1148)
(-0.299244 0.218226 12.0247)
(-0.214851 0.149066 11.694)
(-0.110884 -0.0342781 11.9552)
(-0.0468932 -0.0566624 12.0885)
(-0.162487 0.143595 11.722)
(-0.152679 0.0972265 11.8751)
(-0.107318 0.0126604 11.9626)
(-0.127243 0.156849 11.5487)
(-0.102037 0.242511 11.7046)
(-0.19602 0.281863 11.7422)
(-0.20376 0.352299 11.5604)
(-0.152349 0.355741 11.4317)
(-0.23083 0.471029 11.4281)
(-0.235793 0.567655 11.233)
(-0.298361 0.66497 11.2854)
(-0.408632 0.508514 10.9095)
(-0.41585 0.478215 10.8918)
(-0.349254 0.251948 10.5169)
(-0.473482 0.201059 10.6679)
(-0.451096 0.333546 10.5886)
(-0.198122 0.477468 10.3794)
(0.0481141 0.452419 10.2152)
(-0.135154 0.406844 9.99861)
(-0.130035 0.257662 9.9766)
(0.171955 -0.217426 10.0404)
(0.0365707 -0.129231 9.80511)
(-0.0544193 -0.0311678 9.84538)
(-0.151858 -0.222299 9.95465)
(-0.282425 -0.261387 9.51251)
(-0.0170353 -0.440677 10.0331)
(0.464689 -0.503707 9.53948)
(0.836036 -0.548556 10.0309)
(0.70438 -0.593588 10.0446)
(0.208446 -0.801232 9.9633)
(0.24054 -0.751366 10.2317)
(0.495303 -0.606241 10.2524)
(0.644452 -0.516441 10.3832)
(0.696882 -0.453285 10.5277)
(0.700578 -0.383102 10.6244)
(0.661198 -0.309592 10.7361)
(0.590995 -0.279042 10.8174)
(0.570067 -0.258078 10.9037)
(0.481552 -0.201476 11.0054)
(0.354761 -0.146988 11.0616)
(0.289313 -0.11844 11.11)
(0.215772 -0.0927762 11.1523)
(0.104284 -0.0609554 11.1757)
(0.0245552 -0.0322836 11.187)
(-0.00744766 -0.0142705 11.1807)
(-0.0476259 0.0208067 11.2354)
(-0.0530197 0.0994326 11.1798)
(-0.0326425 0.0879653 11.043)
(-0.25628 0.0525075 11.234)
(-0.151378 -0.0210505 11.121)
(0.0746107 -0.0890372 10.8934)
(-0.351187 0.317776 11.1734)
(-0.303207 0.521129 11.1347)
(0.741069 0.0244672 10.8619)
(1.39738 -0.525646 10.9451)
(0.549382 -0.0705205 11.4612)
(1.15041 -0.505134 11.0115)
(1.45515 -0.639467 11.5036)
(1.44097 -0.639772 11.641)
(1.39415 -0.587108 11.6728)
(1.59092 -0.674894 12.0171)
(1.68046 -0.614817 12.1352)
(1.84854 -0.567559 12.3506)
(1.93466 -0.547961 12.5882)
(1.83638 -0.428039 12.7893)
(1.66274 -0.0864737 12.9985)
(1.87431 -0.00112512 13.2119)
(2.14465 -0.061599 13.3607)
(2.57124 -0.208535 13.5771)
(2.65397 -0.0603238 13.8611)
(2.4171 0.734429 13.6961)
(2.85923 0.976054 14.1474)
(3.26523 1.03378 14.3569)
(4.03747 1.05494 14.6455)
(4.25665 1.72598 14.6113)
(4.98004 2.19929 15.6823)
(5.58088 3.08072 15.9778)
(7.52977 3.99482 17.3695)
(7.36445 5.02394 17.6484)
(7.92459 5.86428 19.4968)
(8.78807 6.08881 20.9313)
(7.27016 8.66838 19.9858)
(8.46248 8.9674 20.5622)
(8.77686 9.34617 20.316)
(9.5721 9.87012 20.1208)
(5.65592 14.2439 17.5989)
(7.11938 16.7517 16.6873)
(3.33969 21.3482 15.6273)
(-0.0654399 21.3644 12.3225)
(-27.0207 31.1725 10.5808)
(-58.0784 24.8317 0.515038)
(-64.1521 25.6153 -6.34417)
(-77.813 29.0544 -14.6555)
(-88.9051 33.0203 -24.0993)
(-97.268 36.005 -35.5421)
(-102.183 37.9039 -47.463)
(-105.865 39.7675 -60.1296)
(-111.038 43.9028 -74.5618)
(-117.18 49.7934 -87.8264)
(-124.305 56.4836 -104.673)
(-130.063 66.9685 -120.008)
(-134.46 77.0354 -140.536)
(-134.362 88.8552 -157.351)
(-130.184 101.62 -180.107)
(-117.404 109.214 -199.789)
(-91.8593 112.154 -219.67)
(-62.1262 114.421 -240.969)
(-21.9772 106.088 -255.12)
(24.1013 85.1428 -271.819)
(66.883 58.4737 -279.793)
(100.908 9.58393 -286.626)
(115.525 -43.7587 -292.275)
(102.527 -99.3324 -281.933)
(89.2855 -113.078 -272.907)
(87.1879 -111.729 -268.827)
(87.6741 -113.186 -258.758)
(88.3391 -121.459 -247.505)
(76.5838 -128.376 -229.278)
(62.3388 -122.462 -210.493)
(63.738 -122.311 -201.942)
(60.8472 -121.436 -191.929)
(54.2693 -113.607 -171.287)
(51.4618 -108.66 -160.103)
(46.6186 -97.9626 -135.862)
(42.5491 -77.268 -125.027)
(42.2395 -63.6742 -106.175)
(41.2917 -54.2772 -95.8259)
(39.414 -50.163 -82.3735)
(37.5189 -40.3692 -72.4895)
(34.1436 -33.6243 -63.5278)
(32.0524 -26.9781 -55.4167)
(30.5314 -24.3861 -48.807)
(27.6718 -20.4532 -41.9357)
(27.5672 -16.7315 -36.3106)
(23.7289 -15.8003 -31.9902)
(24.4988 -12.1248 -25.794)
(20.9585 -11.922 -23.5596)
(21.2722 -9.18671 -17.4853)
(19.1682 -8.58321 -15.8167)
(18.7725 -6.92868 -10.9408)
(17.7423 -6.03284 -9.0462)
(17.2235 -4.97566 -5.47295)
(16.6515 -4.10262 -3.50837)
(16.3843 -3.2352 -0.858797)
(16.2343 -2.32205 1.065)
(16.0572 -1.47138 3.07284)
(14.8297 -1.3103 4.02197)
(13.5991 -1.22687 5.35306)
(12.827 -1.09138 6.26794)
(12.3883 -0.447026 8.07531)
(11.2876 -0.194453 8.34298)
(9.69905 -0.105906 8.82035)
(8.36889 -0.175895 9.42353)
(7.25611 -0.189322 10.0135)
(6.58268 -0.264147 10.3137)
(5.61547 0.489978 11.1782)
(4.68533 1.14079 11.4156)
(3.44569 1.22841 11.4349)
(1.38797 0.92101 11.022)
(0.217933 1.62185 11.5674)
)
;

boundaryField
{
    inlet
    {
        type            zeroGradient;
    }
    outlet
    {
        type            zeroGradient;
    }
    repeat_boundary
    {
        type            slip;
    }
    procBoundary1to0
    {
        type            processor;
        value           nonuniform List<vector> 
180
(
(-0.0164633 -0.00602587 12.5973)
(-0.0379332 -0.00721235 13.4429)
(-0.0890912 -0.0382479 13.5084)
(-0.173947 -0.118038 13.0496)
(-0.31278 -0.235669 13.1374)
(-0.298778 -0.178186 13.2616)
(-0.0996947 0.0988569 13.1335)
(-0.0663979 0.112569 13.2493)
(-0.15695 0.0477074 13.114)
(-0.162062 0.0835011 13.222)
(-0.326164 0.0290411 13.229)
(-0.489798 -0.0516915 13.1203)
(-0.435841 -0.0146635 13.3824)
(-0.469026 -0.00626871 13.2397)
(-0.484305 0.0137321 13.3762)
(-0.462195 0.051415 13.3958)
(-0.362699 0.0660325 13.3862)
(-0.245425 0.183371 13.3299)
(-0.141723 0.364358 13.4387)
(-0.117314 0.370038 13.5135)
(-0.198322 0.165873 13.1323)
(-0.262688 0.0104374 13.3503)
(-0.414105 -0.0818689 13.369)
(-0.358219 -0.00199041 13.319)
(-0.310693 -0.0187142 13.3764)
(-0.337018 -0.224604 13.3977)
(-0.32382 -0.389963 13.3566)
(-0.387595 -0.125918 13.436)
(-0.479393 -0.11834 13.4186)
(-0.529989 -0.087057 13.6004)
(-0.664044 -0.0575251 13.566)
(-0.668755 -0.148706 13.5487)
(-1.0986 -0.354141 13.8543)
(-1.07806 -0.284086 13.7237)
(-1.20896 -0.467368 14.0368)
(-1.1945 -0.410871 14.0424)
(-1.15218 -0.491098 14.1608)
(-1.00851 -0.462071 14.3429)
(-0.9297 -0.343915 14.2564)
(-0.577155 0.0811806 14.3897)
(-0.370829 0.28108 14.3318)
(-0.509664 0.271219 14.338)
(-0.864106 0.195122 14.3505)
(-0.709602 -0.0827169 14.2522)
(-0.332328 0.107941 14.2602)
(-0.0602545 -0.000354836 14.4724)
(-0.194122 0.0965055 14.1481)
(0.0314465 0.306898 14.2085)
(-0.00852011 0.462551 14.1584)
(-0.191865 0.528803 13.782)
(0.12464 0.668163 13.9596)
(0.147447 0.736795 13.8024)
(0.695945 0.524771 13.4037)
(0.540255 0.574176 13.3232)
(0.474449 0.654873 13.6217)
(0.454181 0.393766 12.8619)
(0.33393 0.374087 13.0114)
(0.74028 0.153351 13.1369)
(0.463362 0.220976 12.5482)
(0.327924 0.0794264 12.7955)
(0.330986 0.0770611 12.6409)
(0.172938 -0.201148 12.5381)
(0.0235429 -0.186285 12.4498)
(0.189301 0.856514 12.5125)
(0.19355 0.808857 12.4896)
(-0.179217 -0.738642 12.3663)
(-0.470681 -1.57686 12.3498)
(-0.356904 -0.791009 12.5161)
(-0.214654 -0.423536 12.5672)
(-0.0469559 -0.15033 12.6067)
(0.213965 -0.171613 12.3036)
(-0.281743 -0.236721 12.8002)
(-0.404993 -0.450043 12.4374)
(0.390548 -0.424927 12.6391)
(0.221208 -0.374042 12.5735)
(0.261006 -0.275207 12.443)
(0.801438 -0.542089 12.4787)
(0.823583 -0.543977 12.3143)
(0.838781 -0.620845 12.2244)
(0.818038 -0.64375 12.2645)
(0.810946 -0.475521 12.0659)
(1.1642 -0.715289 12.0199)
(1.31632 -0.752713 11.9378)
(1.30433 -0.558308 11.7534)
(1.58708 -0.625889 11.6158)
(1.8279 -0.666819 11.5935)
(2.0915 -0.716422 11.4154)
(2.29178 -0.785423 11.1428)
(2.46636 -0.775222 11.0638)
(2.74554 -0.616076 10.7477)
(2.66558 -0.144172 10.5713)
(2.95867 0.724925 9.75925)
(3.34245 0.661002 9.97763)
(5.37531 2.03312 8.92001)
(8.67591 3.19645 8.40232)
(9.83998 3.48297 7.40144)
(12.3583 4.55397 6.38431)
(14.7397 6.63046 4.78923)
(19.1288 9.84629 2.85484)
(10.5818 14.4751 -0.645909)
(2.46285 13.4953 -2.55027)
(-0.767853 14.3565 -4.00615)
(-5.46122 15.6211 -5.80777)
(-8.01187 17.2225 -6.84197)
(-11.7837 16.7948 -9.33274)
(-13.8722 18.0759 -8.87581)
(-16.5581 19.0995 -11.797)
(-20.4646 20.7287 -12.3386)
(-23.9401 21.6825 -12.4557)
(-31.8064 24.9242 -13.1078)
(-41.3127 25.4878 -11.4945)
(-48.0922 28.6332 -8.46914)
(-60.9794 32.0273 -5.09836)
(-72.814 36.4094 -0.834762)
(-79.4597 38.2372 2.44144)
(-81.6875 37.9727 7.28632)
(-91.1707 40.7498 15.9406)
(-87.4783 37.6778 17.629)
(-95.6001 41.2111 31.5424)
(-93.9681 38.3929 34.7869)
(-97.7213 39.0537 45.093)
(-101.618 40.6689 50.4901)
(-109.772 46.5026 62.1759)
(-109.003 46.337 69.1111)
(-109.302 42.724 74.6001)
(-108.293 44.2136 83.6687)
(-106.128 40.7654 87.5314)
(-103.559 41.0866 93.0234)
(-98.4378 38.9535 92.4804)
(-92.8235 36.9208 92.6437)
(-83.3124 28.5536 85.9867)
(-89.0904 38.7262 86.5261)
(-73.1424 38.9423 71.8859)
(-66.3924 43.6353 66.7394)
(-68.2229 69.0802 56.3578)
(-52.0959 88.5309 46.8491)
(-18.278 94.2532 29.0318)
(64.8032 22.0615 20.4436)
(102.784 -79.4779 -5.65247)
(87.7035 -81.3589 -32.6526)
(85.0787 -75.4773 -28.0659)
(92.5701 -95.2774 -35.7379)
(90.7198 -98.8216 -35.1577)
(90.6544 -129.914 -31.8527)
(90 -135.155 -25.9659)
(81.1263 -136.751 -17.4668)
(86.4623 -142.506 -10.4136)
(74.6243 -127.924 -9.30739)
(65.0095 -110.706 0.510399)
(58.1443 -92.5642 6.78643)
(53.6035 -76.824 13.2133)
(50.3434 -63.5623 17.3392)
(46.8381 -52.9267 20.632)
(44.088 -44.5361 22.8616)
(41.42 -37.8825 24.4213)
(39.0999 -32.6707 25.4123)
(36.9021 -28.3243 26.0646)
(35.0451 -24.7717 26.3769)
(33.1983 -21.9819 26.4001)
(31.3412 -19.7754 26.2893)
(29.4273 -17.9495 26.0149)
(27.5007 -16.3648 25.6316)
(25.5789 -14.9355 25.1641)
(23.6941 -13.6188 24.6342)
(21.8621 -12.3944 24.0512)
(20.0956 -11.2515 23.4277)
(18.402 -10.1865 22.799)
(16.7887 -9.19508 22.2009)
(15.2666 -8.28095 21.6376)
(13.8309 -7.43481 21.079)
(12.4774 -6.66262 20.5319)
(11.1864 -5.94259 20.0597)
(10.0395 -5.31887 19.5933)
(8.92333 -4.69951 19.4044)
(7.98111 -4.15091 18.8823)
(6.96995 -3.77566 18.5132)
(6.29315 -3.11771 18.8217)
(5.76009 -2.5058 18.2624)
(4.6867 -2.43984 17.9984)
(3.92473 -2.03471 18.2603)
)
;
    }
    procBoundary1to3
    {
        type            processor;
        value           nonuniform List<vector> 
180
(
(-0.00528369 0.00524861 12.2763)
(-0.0227386 0.00862355 13.0576)
(-0.023135 0.0286891 13.0958)
(0.016669 0.0719743 12.6487)
(0.121172 0.198934 12.7333)
(0.0418752 0.164734 12.8271)
(-0.280022 -0.0776491 12.6712)
(-0.263493 -0.0727494 12.7237)
(-0.19792 -0.00728126 12.5989)
(-0.267263 -0.0437163 12.667)
(-0.244667 0.0898446 12.5958)
(-0.0991125 0.217799 12.5031)
(-0.174206 0.140631 12.5766)
(-0.214998 0.10295 12.5761)
(-0.172969 0.299156 12.576)
(-0.120787 0.502265 12.4466)
(-0.121106 0.281044 12.5995)
(-0.251239 0.119359 12.4384)
(-0.514832 -0.0568353 12.5696)
(-0.496086 0.00247467 12.4142)
(-0.0851068 0.212384 12.3312)
(0.2069 0.409491 12.1643)
(-0.083527 0.318522 12.4279)
(0.0158424 0.348345 12.5356)
(0.55889 0.573517 12.2506)
(0.665036 0.683015 12.4418)
(0.306335 0.651367 12.6621)
(0.48983 0.649017 12.5728)
(0.733969 0.709749 12.6364)
(0.640542 0.841356 12.9486)
(0.669811 0.894225 12.9524)
(0.278206 0.654154 12.8703)
(0.22811 0.714242 13.1047)
(0.142335 0.74025 13.2351)
(0.199549 0.901378 13.2502)
(0.299117 0.977603 13.2735)
(0.233404 0.879989 13.3927)
(0.164596 0.820894 13.4265)
(0.0907712 0.786905 13.5249)
(-0.011913 0.752217 13.4985)
(-0.0730169 0.724156 13.5755)
(-0.146441 0.678182 13.5422)
(-0.325657 0.537117 13.4729)
(-0.548526 0.350864 13.486)
(-0.747271 0.13624 13.4844)
(-0.512988 -0.0747082 13.0261)
(-0.529268 -0.191022 13.2241)
(-0.450421 -0.293357 12.9292)
(-0.910103 -0.484535 13.0091)
(-1.07731 -0.574352 12.5188)
(-1.0574 -0.692661 12.2896)
(-0.629365 -0.68789 12.1276)
(-0.154033 -0.577325 11.9902)
(0.0674134 -0.494423 11.8804)
(0.109021 -0.40475 11.7402)
(0.17904 -0.295257 11.5711)
(0.52825 -0.314399 11.6861)
(0.393867 -0.304104 11.6181)
(0.0656628 -0.201722 11.5163)
(0.148707 -0.142007 11.6262)
(0.192211 -0.122868 11.5311)
(0.108077 -0.0953287 11.5322)
(-0.0980359 -0.0634673 11.53)
(-0.336473 -0.034408 11.4937)
(-0.500006 -0.0372432 11.5221)
(-0.141029 0.0698638 11.45)
(-0.226687 0.0989502 11.2237)
(-0.742568 -0.0322547 11.4074)
(-0.319483 0.0133203 11.4427)
(0.929078 0.316087 11.3581)
(1.515 0.455464 11.518)
(0.497898 0.228442 11.5395)
(0.362412 0.303541 11.6222)
(0.499862 0.192 11.6895)
(0.65052 -0.139229 11.7142)
(0.681916 -0.344459 11.6423)
(0.650743 -0.184174 11.9556)
(0.857245 -0.235335 11.6206)
(0.832945 -0.199389 11.8173)
(1.06325 -0.484372 11.609)
(1.51646 -0.528727 11.9341)
(1.57787 -0.540518 12.0009)
(1.34482 -0.530463 11.9643)
(1.46234 -0.574298 12.2071)
(1.28976 0.178375 11.9294)
(1.67833 0.28702 12.4176)
(1.427 0.875003 12.6025)
(1.68538 1.09572 12.8236)
(1.90888 1.61376 13.0001)
(2.30372 2.15823 13.532)
(2.56161 2.26661 13.869)
(2.62034 2.35204 14.2381)
(3.22632 2.33383 15.0896)
(2.97247 2.29266 15.3595)
(3.82876 2.29824 16.4259)
(3.31617 2.06484 16.5464)
(4.30576 2.15404 17.8391)
(4.24399 1.91647 18.6484)
(4.84974 1.74356 19.7952)
(5.05937 2.1638 20.6112)
(6.40487 2.60008 22.4832)
(7.0488 2.77927 23.5335)
(7.71756 3.03732 25.0579)
(6.62755 3.75388 26.4627)
(5.35738 5.96436 28.1272)
(4.28449 8.81333 29.5462)
(4.40342 10.9936 31.7698)
(4.91526 13.2209 34.4298)
(3.2599 14.6387 36.4697)
(2.4674 16.308 39.9881)
(0.895625 17.4456 41.3639)
(-4.87728 20.3791 46.0935)
(-14.3232 22.5232 45.9751)
(-24.058 24.4363 49.4978)
(-30.6366 27.0338 49.077)
(-35.423 30.6751 51.1432)
(-39.3836 32.2879 52.1286)
(-49.898 40.6629 51.1402)
(-60.0787 49.4994 52.3481)
(-66.6201 50.8908 54.2967)
(-72.0141 57.4839 52.7258)
(-81.6919 66.0135 53.9122)
(-90.1401 71.7378 54.4222)
(-94.5665 76.2135 55.7634)
(-105.898 82.0537 53.6223)
(-97.9202 83.8095 56.5586)
(-101.046 87.7762 55.9713)
(-86.2146 88.5997 54.4396)
(-76.9704 86.8392 57.3607)
(-59.3998 86.4115 52.6088)
(-42.011 85.9452 50.2886)
(-19.6041 71.9616 49.1016)
(1.27965 64.3812 47.8777)
(17.1116 34.2388 44.1519)
(33.6172 6.79564 24.3128)
(35.6961 -23.5877 20.7116)
(8.14819 -63.0613 6.9473)
(-7.71808 -28.7314 -7.25864)
(12.3946 19.9918 -50.2586)
(38.3738 22.8171 -52.8852)
(76.2928 16.9679 7.43289)
(96.8992 -74.9155 -27.5735)
(86.5459 -104.175 -28.2005)
(74.1 -140.545 -33.6037)
(54.6567 -123.266 -36.703)
(52.8442 -102.972 -36.3199)
(49.8097 -85.1554 -35.4759)
(48.7559 -72.8071 -34.4339)
(44.7392 -58.8127 -35.2221)
(42.6039 -47.8142 -32.2903)
(38.6993 -39.0433 -32.6806)
(37.311 -34.0666 -29.8189)
(34.7962 -28.6365 -29.2426)
(33.3441 -24.8376 -26.8376)
(31.3323 -21.768 -25.5195)
(29.607 -18.8587 -23.509)
(27.7335 -16.5094 -21.8072)
(25.9567 -14.3551 -20.0381)
(24.1941 -12.4454 -18.266)
(22.4936 -10.7964 -16.6133)
(20.8489 -9.24983 -14.9353)
(19.2663 -7.92776 -13.3648)
(17.7472 -6.66881 -11.803)
(16.2866 -5.54371 -10.2943)
(14.8775 -4.44237 -8.75987)
(13.5104 -3.38162 -7.20161)
(12.1696 -2.29098 -5.7027)
(10.8428 -1.15252 -4.38336)
(9.56466 0.0848756 -3.03067)
(8.27748 1.48104 -1.69618)
(7.28413 2.44685 -0.8606)
(6.66475 2.6013 0.237604)
(6.48223 1.9933 1.22527)
(5.7348 2.05049 1.79947)
(5.20436 1.44853 3.03041)
(3.7145 2.28959 3.27331)
(2.70037 2.3289 3.90992)
(0.848246 2.41849 4.47537)
(0.0231342 2.33173 4.70047)
(-1.65566 3.45659 5.04092)
)
;
    }
}


// ************************************************************************* //
