/*--------------------------------*- C++ -*----------------------------------*\
| =========                 |                                                 |
| \\      /  F ield         | OpenFOAM: The Open Source CFD Toolbox           |
|  \\    /   O peration     | Version:  5.x                                   |
|   \\  /    A nd           | Web:      www.OpenFOAM.org                      |
|    \\/     M anipulation  |                                                 |
\*---------------------------------------------------------------------------*/
FoamFile
{
    version     2.0;
    format      ascii;
    class       volScalarField;
    location    "3000";
    object      p;
}
// * * * * * * * * * * * * * * * * * * * * * * * * * * * * * * * * * * * * * //

dimensions      [0 2 -2 0 0 0 0];

internalField   nonuniform List<scalar> 
180
(
1.36591e-05
4.08834e-05
6.78382e-05
9.41031e-05
0.000119252
0.000143064
0.000165295
0.000185746
0.000204269
0.000220765
0.000235188
0.000247542
0.000257878
0.000266288
0.000272901
0.000277868
0.000281356
0.00028354
0.000284586
0.000284646
0.000283837
0.000282236
0.000279871
0.000276708
0.000272652
0.000267538
0.00026113
0.000253122
0.000243145
0.000230763
0.000215488
0.000196782
0.000174067
0.00014673
0.000114126
7.55849e-05
3.04046e-05
-2.21546e-05
-8.28833e-05
-0.000152645
-0.000232404
-0.000323266
-0.000426524
-0.000543714
-0.00067669
-0.000827694
-0.000999449
-0.00119526
-0.0014191
-0.00167579
-0.00197104
-0.00231167
-0.00270573
-0.00316268
-0.00369359
-0.00431134
-0.00503093
-0.00586983
-0.00684829
-0.00798976
-0.00932143
-0.0108748
-0.0126864
-0.0147987
-0.017261
-0.0201308
-0.0234751
-0.027372
-0.031913
-0.0372046
-0.0433719
-0.0505609
-0.0589432
-0.0687191
-0.0801245
-0.0934361
-0.108965
-0.127083
-0.148431
-0.171948
-0.181656
-0.0949998
0.189477
0.71482
1.70662
3.18007
5.63082
8.84877
12.5257
18.0089
25.7404
35.0569
44.5203
54.8199
67.7764
83.7814
104.091
128.988
155.422
185.544
211.84
235.846
263.069
291.473
308.179
312.791
313.276
313.255
313.232
313.214
313.199
313.186
313.175
313.166
313.157
313.15
313.144
313.139
313.134
313.13
313.127
313.124
313.122
313.119
313.118
313.116
313.114
313.113
313.112
313.111
313.11
313.11
313.109
313.109
313.108
313.108
313.107
313.107
313.107
313.107
313.107
313.106
313.106
313.106
313.106
313.106
313.106
313.106
313.106
313.106
313.106
313.106
313.106
313.106
313.106
313.106
313.106
313.106
313.106
313.106
313.106
313.106
313.106
313.106
313.106
313.106
313.106
313.106
313.106
313.106
313.106
313.106
313.106
313.106
313.106
313.106
313.106
313.106
313.106
313.106
)
;

boundaryField
{
    inlet
    {
        type            zeroGradient;
    }
    outlet
    {
        type            fixedValue;
        value           uniform 0;
    }
    repeat_boundary
    {
        type            zeroGradient;
    }
    procBoundary2to0
    {
        type            processor;
        value           nonuniform List<scalar> 
180
(
2.24269e-05
6.75346e-05
0.000112379
0.000155762
0.000197008
0.000235563
0.000270923
0.000302664
0.00033046
0.000354077
0.000373391
0.000388377
0.00039912
0.000405801
0.000408686
0.000408129
0.000404546
0.000398425
0.000390308
0.000380763
0.00037037
0.000359711
0.000349346
0.000339809
0.000331593
0.000325139
0.000320838
0.000319021
0.000319967
0.000323909
0.000331043
0.000341544
0.000355582
0.000373349
0.000395079
0.000421075
0.000451743
0.000487613
0.000529376
0.000577909
0.000634304
0.000699896
0.000776289
0.000865386
0.000969412
0.00109094
0.00123294
0.0013988
0.00159237
0.00181803
0.00208078
0.00238628
0.00274101
0.00315238
0.00362889
0.00418033
0.00481807
0.00555537
0.00640769
0.0073931
0.00853273
0.00985136
0.011378
0.0131467
0.0151973
0.0175767
0.0203397
0.0235508
0.0272852
0.0316313
0.036693
0.0425923
0.0494726
0.0575023
0.0668799
0.0778392
0.0906578
0.105651
0.123055
0.14605
0.196771
0.445695
1.27211
2.18211
3.43947
5.47857
8.62821
12.5017
16.9358
21.6389
27.2008
34.6206
43.6037
55.6318
70.2494
86.5336
107.883
132.235
153.354
181.759
215.097
239.566
262.801
289.712
306.853
312.165
312.809
312.859
312.89
312.919
312.944
312.965
312.983
313
313.014
313.026
313.036
313.045
313.053
313.06
313.066
313.071
313.076
313.08
313.083
313.086
313.089
313.091
313.093
313.094
313.096
313.097
313.098
313.099
313.1
313.101
313.101
313.102
313.102
313.103
313.103
313.103
313.104
313.104
313.104
313.104
313.104
313.104
313.105
313.105
313.105
313.105
313.105
313.105
313.105
313.105
313.105
313.105
313.105
313.105
313.105
313.105
313.105
313.105
313.106
313.106
313.106
313.106
313.106
313.106
313.106
313.106
313.106
313.106
313.106
313.106
313.106
313.106
313.106
313.106
)
;
    }
    procBoundary2to3
    {
        type            processor;
        value           nonuniform List<scalar> 
180
(
2.20856e-05
6.65022e-05
0.000110633
0.000153265
0.000193709
0.000231392
0.000265791
0.000296464
0.000323059
0.00034532
0.000363089
0.000376313
0.000385034
0.000389391
0.00038961
0.000385995
0.000378908
0.000368768
0.000356026
0.000341152
0.000324615
0.00030687
0.000288329
0.000269356
0.000250248
0.000231224
0.000212413
0.000193849
0.000175462
0.000157083
0.000138444
0.000119183
9.88502e-05
7.69192e-05
5.27954e-05
2.58258e-05
-4.69252e-06
-3.95061e-05
-7.94026e-05
-0.000125213
-0.000177818
-0.000238162
-0.000307276
-0.000386302
-0.000476526
-0.000579428
-0.00069672
-0.000830406
-0.000982824
-0.00115675
-0.00135549
-0.00158294
-0.00184366
-0.00214296
-0.00248703
-0.00288296
-0.00333892
-0.00386423
-0.00446946
-0.0051666
-0.0059692
-0.0068925
-0.00795363
-0.00917192
-0.0105691
-0.0121697
-0.0140008
-0.0160929
-0.01848
-0.0211998
-0.0242941
-0.027809
-0.0317952
-0.0363078
-0.0414065
-0.0471553
-0.0536256
-0.0609224
-0.0692293
-0.0756196
-0.0680549
0.0630555
0.793382
1.88085
3.31442
5.34354
7.40148
9.83449
14.0948
18.8381
23.7076
30.8976
40.8518
52.0775
63.1519
76.7491
93.9104
115.54
145.819
174.916
200.489
227.918
265.61
291.611
307.409
312.793
313.377
313.327
313.294
313.27
313.25
313.232
313.216
313.202
313.189
313.179
313.17
313.161
313.154
313.148
313.143
313.138
313.134
313.13
313.127
313.124
313.122
313.12
313.118
313.116
313.115
313.114
313.113
313.112
313.111
313.11
313.11
313.109
313.109
313.108
313.108
313.107
313.107
313.107
313.107
313.106
313.106
313.106
313.106
313.106
313.106
313.106
313.106
313.106
313.106
313.106
313.106
313.106
313.106
313.106
313.106
313.106
313.106
313.106
313.106
313.106
313.106
313.106
313.106
313.106
313.106
313.106
313.106
313.106
313.106
313.106
313.106
313.106
313.106
313.106
)
;
    }
}


// ************************************************************************* //
