/*--------------------------------*- C++ -*----------------------------------*\
| =========                 |                                                 |
| \\      /  F ield         | OpenFOAM: The Open Source CFD Toolbox           |
|  \\    /   O peration     | Version:  5.x                                   |
|   \\  /    A nd           | Web:      www.OpenFOAM.org                      |
|    \\/     M anipulation  |                                                 |
\*---------------------------------------------------------------------------*/
FoamFile
{
    version     2.0;
    format      ascii;
    class       surfaceScalarField;
    location    "0.05";
    object      phi;
}
// * * * * * * * * * * * * * * * * * * * * * * * * * * * * * * * * * * * * * //

dimensions      [0 3 -1 0 0 0 0];

internalField   nonuniform List<scalar> 
5825
(
-2.1003e-16
-8.01628e-17
-1e-09
-1.45671e-16
-8.25059e-17
-1e-09
-5.83979e-17
-9.96321e-17
-1e-09
-1.40866e-17
-1.37655e-16
-1e-09
-1.65441e-16
-1e-09
-2.1189e-16
-7.18502e-17
-1e-09
-1.57935e-16
-8.00319e-17
-1e-09
-9.53953e-17
-1.02143e-16
-1e-09
-4.14992e-17
-1.24463e-16
-1e-09
-1.31997e-16
-1e-09
-2.24059e-16
-5.83308e-17
-1e-09
-1.80012e-16
-6.82966e-17
-1e-09
-1.18175e-16
-7.87789e-17
-1e-09
-4.95968e-17
-8.27655e-17
-1e-09
-7.98829e-17
-1e-09
-2.34678e-16
-3.72866e-17
-1e-09
-1.90157e-16
-3.86175e-17
-1e-09
-1.22231e-16
-3.5049e-17
-1e-09
-4.68453e-17
-2.91845e-17
-1e-09
-2.66673e-17
-1e-09
-2.35791e-16
-1e-09
-1.85921e-16
-1e-09
-1.16149e-16
-1e-09
-4.42733e-17
-1e-09
-1e-09
-5.08829e-16
-2.1784e-16
-1e-09
-3.97824e-16
-2.81933e-16
-1e-09
-2.11157e-16
-3.4208e-16
-1e-09
-9.91e-17
-4.20573e-16
-1e-09
-4.58417e-16
-1e-09
-5.75521e-16
-2.49874e-16
-1e-09
-4.39396e-16
-2.74752e-16
-1e-09
-2.82135e-16
-3.17359e-16
-1e-09
-1.30862e-16
-3.47755e-16
-1e-09
-3.48331e-16
-1e-09
-6.13693e-16
-1.97654e-16
-1e-09
-4.82166e-16
-2.09327e-16
-1e-09
-3.14268e-16
-2.20499e-16
-1e-09
-1.32821e-16
-2.18877e-16
-1e-09
-2.12639e-16
-1e-09
-6.29892e-16
-1.13215e-16
-1e-09
-4.92124e-16
-1.04608e-16
-1e-09
-3.12842e-16
-9.17433e-17
-1e-09
-1.26433e-16
-8.1691e-17
-1e-09
-8.49651e-17
-1e-09
-6.22355e-16
-1e-09
-4.77864e-16
-1e-09
-3.0265e-16
-1e-09
-1.29462e-16
-1e-09
-1e-09
-7.34378e-16
-4.42178e-16
-1e-09
-6.46275e-16
-5.91365e-16
-1e-09
-4.57378e-16
-7.00555e-16
-1e-09
-2.59795e-16
-7.5999e-16
-1e-09
-7.53749e-16
-1e-09
-8.8203e-16
-5.0252e-16
-1e-09
-7.22225e-16
-5.48437e-16
-1e-09
-5.05754e-16
-5.95384e-16
-1e-09
-2.48323e-16
-6.05587e-16
-1e-09
-5.95624e-16
-1e-09
-9.59162e-16
-3.77952e-16
-1e-09
-7.69381e-16
-3.87757e-16
-1e-09
-5.18027e-16
-3.94106e-16
-1e-09
-2.39555e-16
-3.91901e-16
-1e-09
-3.98317e-16
-1e-09
-9.75581e-16
-1.92957e-16
-1e-09
-7.74081e-16
-1.82211e-16
-1e-09
-5.16027e-16
-1.76827e-16
-1e-09
-2.45961e-16
-1.83157e-16
-1e-09
-2.01668e-16
-1e-09
-9.65832e-16
-1e-09
-7.6711e-16
-1e-09
-5.2178e-16
-1e-09
-2.64199e-16
-1e-09
-1e-09
-1.06615e-15
-8.65146e-16
-1e-09
-9.59697e-16
-1.02676e-15
-1e-09
-7.70938e-16
-1.1481e-15
-1e-09
-4.39721e-16
-1.16232e-15
-1e-09
-1.12241e-15
-1e-09
-1.21093e-15
-8.22098e-16
-1e-09
-1.04877e-15
-8.94077e-16
-1e-09
-7.79225e-16
-9.43913e-16
-1e-09
-4.00218e-16
-9.47716e-16
-1e-09
-9.48005e-16
-1e-09
-1.30967e-15
-5.83091e-16
-1e-09
-1.09907e-15
-6.19712e-16
-1e-09
-7.84574e-16
-6.43763e-16
-1e-09
-4.02523e-16
-6.62376e-16
-1e-09
-6.86866e-16
-1e-09
-1.35004e-15
-2.82842e-16
-1e-09
-1.12185e-15
-3.04926e-16
-1e-09
-8.03207e-16
-3.27819e-16
-1e-09
-4.28405e-16
-3.55115e-16
-1e-09
-3.75199e-16
-1e-09
-1.37061e-15
-1e-09
-1.1425e-15
-1e-09
-8.2857e-16
-1e-09
-4.48334e-16
-1e-09
-1e-09
-1.73337e-15
-1.60433e-15
-1e-09
-1.49338e-15
-1.65877e-15
-1e-09
-1.16019e-15
-1.72281e-15
-1e-09
-6.24497e-16
-1.70819e-15
-1e-09
-1.6773e-15
-1e-09
-1.77654e-15
-1.32324e-15
-1e-09
-1.5351e-15
-1.37539e-15
-1e-09
-1.14428e-15
-1.42245e-15
-1e-09
-5.9989e-16
-1.44301e-15
-1e-09
-1.45994e-15
-1e-09
-1.84429e-15
-9.07712e-16
-1e-09
-1.5822e-15
-9.68631e-16
-1e-09
-1.16608e-15
-1.0169e-15
-1e-09
-6.20594e-16
-1.05512e-15
-1e-09
-1.07848e-15
-1e-09
-1.90585e-15
-4.58048e-16
-1e-09
-1.62916e-15
-5.07974e-16
-1e-09
-1.20417e-15
-5.45456e-16
-1e-09
-6.46583e-16
-5.69528e-16
-1e-09
-5.69724e-16
-1e-09
-1.95119e-15
-1e-09
-1.66247e-15
-1e-09
-1.22514e-15
-1e-09
-6.46473e-16
-1e-09
-1e-09
-2.73661e-15
-2.57219e-15
-1e-09
-2.27009e-15
-2.48931e-15
-1e-09
-1.64141e-15
-2.47517e-15
-1e-09
-8.44679e-16
-2.46438e-15
-1e-09
-2.46268e-15
-1e-09
-2.65684e-15
-2.05567e-15
-1e-09
-2.24135e-15
-2.04855e-15
-1e-09
-1.63068e-15
-2.08105e-15
-1e-09
-8.51911e-16
-2.11658e-15
-1e-09
-2.13234e-15
-1e-09
-2.66457e-15
-1.43623e-15
-1e-09
-2.27391e-15
-1.47632e-15
-1e-09
-1.66819e-15
-1.52075e-15
-1e-09
-8.73597e-16
-1.55209e-15
-1.00001e-09
-1.55408e-15
-1.00001e-09
-2.70615e-15
-7.5818e-16
-1e-09
-2.31636e-15
-7.8719e-16
-1e-09
-1.69942e-15
-8.0527e-16
-1.00001e-09
-8.79135e-16
-8.04581e-16
-1.00001e-09
-7.83911e-16
-1.00001e-09
-2.72721e-15
-1e-09
-2.32796e-15
-1e-09
-1.69479e-15
-1.00001e-09
-8.58174e-16
-1.00001e-09
-1.00001e-09
-3.82536e-15
-3.52099e-15
-1e-09
-3.16201e-15
-3.43522e-15
-1e-09
-2.22033e-15
-3.42618e-15
-1e-09
-1.13512e-15
-3.45592e-15
-1e-09
-3.47666e-15
-1e-09
-3.74469e-15
-2.92568e-15
-1e-09
-3.1382e-15
-2.9065e-15
-1e-09
-2.24896e-15
-2.93153e-15
-1e-09
-1.16594e-15
-2.96682e-15
-1.00001e-09
-2.96715e-15
-1.00001e-09
-3.74161e-15
-2.13369e-15
-1e-09
-3.16356e-15
-2.13031e-15
-1e-09
-2.2872e-15
-2.1455e-15
-1.00001e-09
-1.17441e-15
-2.15376e-15
-1.00001e-09
-2.13875e-15
-1.00001e-09
-3.73992e-15
-1.14325e-15
-1e-09
-3.17589e-15
-1.12332e-15
-1.00001e-09
-2.29526e-15
-1.11059e-15
-1.00001e-09
-1.16415e-15
-1.09333e-15
-1.00001e-09
-1.07069e-15
-1.00001e-09
-3.71117e-15
-1e-09
-3.15395e-15
-1.00001e-09
-2.27302e-15
-1.00001e-09
-1.14138e-15
-1.00001e-09
-1.00001e-09
-5.07951e-15
-4.6317e-15
-1e-09
-4.22055e-15
-4.60745e-15
-1e-09
-2.98092e-15
-4.65254e-15
-1e-09
-1.54422e-15
-4.722e-15
-1.00001e-09
-4.74877e-15
-1.00001e-09
-5.0624e-15
-3.98303e-15
-1e-09
-4.25505e-15
-3.98707e-15
-1.00001e-09
-3.04896e-15
-4.01013e-15
-1.00001e-09
-1.58346e-15
-4.03641e-15
-1.00001e-09
-4.02922e-15
-1.00001e-09
-5.07678e-15
-2.97583e-15
-1e-09
-4.27866e-15
-2.93917e-15
-1.00001e-09
-3.07796e-15
-2.92773e-15
-1.00001e-09
-1.58665e-15
-2.92554e-15
-1.00001e-09
-2.91283e-15
-1.00001e-09
-5.04138e-15
-1.5888e-15
-1.00001e-09
-4.26418e-15
-1.5369e-15
-1.00001e-09
-3.07555e-15
-1.51316e-15
-1.00001e-09
-1.58043e-15
-1.50335e-15
-1.00001e-09
-1.49011e-15
-1.00001e-09
-4.97865e-15
-1.00001e-09
-4.22882e-15
-1.00001e-09
-3.05916e-15
-1.00001e-09
-1.56698e-15
-1.00001e-09
-1.00001e-09
-6.93352e-15
-6.38721e-15
-1e-09
-5.73639e-15
-6.29755e-15
-1e-09
-4.09232e-15
-6.33012e-15
-1.00001e-09
-2.13798e-15
-6.38693e-15
-1.00001e-09
-6.40577e-15
-1.00001e-09
-6.84845e-15
-5.46819e-15
-1e-09
-5.76061e-15
-5.43393e-15
-1.00001e-09
-4.15034e-15
-5.43465e-15
-1.00001e-09
-2.17375e-15
-5.45092e-15
-1.00001e-09
-5.44842e-15
-1.00001e-09
-6.82305e-15
-4.05464e-15
-1.00001e-09
-5.76172e-15
-3.98807e-15
-1.00001e-09
-4.16885e-15
-3.96797e-15
-1.00001e-09
-2.18476e-15
-3.9733e-15
-1.00001e-09
-3.96568e-15
-1.00001e-09
-6.75618e-15
-2.14113e-15
-1.00001e-09
-5.73889e-15
-2.08468e-15
-1.00001e-09
-4.17418e-15
-2.07499e-15
-1.00001e-09
-2.1862e-15
-2.07854e-15
-1.00001e-09
-2.06155e-15
-1.00001e-09
-6.68432e-15
-1.00001e-09
-5.71494e-15
-1.00001e-09
-4.16849e-15
-1.00001e-09
-2.16886e-15
-1.00001e-09
-1.00002e-09
-9.52137e-15
-8.8711e-15
-1e-09
-7.9148e-15
-8.6732e-15
-1.00001e-09
-5.68783e-15
-8.63224e-15
-1.00001e-09
-2.97779e-15
-8.64096e-15
-1.00001e-09
-8.64351e-15
-1.00001e-09
-9.32595e-15
-7.5144e-15
-1.00001e-09
-7.8646e-15
-7.40389e-15
-1.00001e-09
-5.69887e-15
-7.3749e-15
-1.00001e-09
-3.00265e-15
-7.38264e-15
-1.00001e-09
-7.37633e-15
-1.00002e-09
-9.22573e-15
-5.48024e-15
-1.00001e-09
-7.83561e-15
-5.40058e-15
-1.00001e-09
-5.70894e-15
-5.38829e-15
-1.00002e-09
-3.01465e-15
-5.395e-15
-1.00002e-09
-5.37112e-15
-1.00002e-09
-9.14462e-15
-2.85991e-15
-1.00001e-09
-7.82095e-15
-2.82819e-15
-1.00001e-09
-5.71587e-15
-2.8356e-15
-1.00002e-09
-3.00348e-15
-2.83067e-15
-1.00002e-09
-2.79347e-15
-1.00002e-09
-9.09085e-15
-1.00001e-09
-7.80957e-15
-1.00002e-09
-5.69763e-15
-1.00002e-09
-2.96578e-15
-1.00002e-09
-1.00002e-09
-1.28295e-14
-1.19641e-14
-1e-09
-1.08434e-14
-1.18008e-14
-1.00001e-09
-7.84732e-15
-1.17348e-14
-1.00001e-09
-4.11892e-15
-1.17145e-14
-1.00002e-09
-1.16931e-14
-1.00002e-09
-1.2668e-14
-1.01648e-14
-1.00001e-09
-1.07568e-14
-1.00466e-14
-1.00001e-09
-7.82758e-15
-1.00198e-14
-1.00002e-09
-4.12649e-15
-1.00145e-14
-1.00002e-09
-9.97986e-15
-1.00002e-09
-1.25711e-14
-7.3523e-15
-1.00001e-09
-1.07297e-14
-7.31084e-15
-1.00002e-09
-7.82576e-15
-7.30973e-15
-1.00002e-09
-4.11674e-15
-7.29254e-15
-1.00002e-09
-7.23712e-15
-1.00003e-09
-1.25298e-14
-3.82126e-15
-1.00001e-09
-1.07258e-14
-3.83663e-15
-1.00002e-09
-7.80882e-15
-3.83812e-15
-1.00002e-09
-4.07852e-15
-3.80593e-15
-1.00003e-09
-3.76667e-15
-1.00003e-09
-1.25151e-14
-1.00002e-09
-1.07014e-14
-1.00002e-09
-7.75814e-15
-1.00002e-09
-4.03861e-15
-1.00003e-09
-1.00003e-09
-1.73232e-14
-1.6081e-14
-1.00001e-09
-1.47552e-14
-1.59994e-14
-1.00001e-09
-1.07392e-14
-1.59528e-14
-1.00002e-09
-5.66019e-15
-1.59193e-14
-1.00002e-09
-1.58571e-14
-1.00002e-09
-1.72406e-14
-1.36785e-14
-1.00001e-09
-1.46957e-14
-1.36289e-14
-1.00002e-09
-1.07058e-14
-1.3614e-14
-1.00002e-09
-5.63579e-15
-1.35767e-14
-1.00003e-09
-1.34987e-14
-1.00003e-09
-1.72046e-14
-9.89849e-15
-1.00002e-09
-1.46807e-14
-9.91174e-15
-1.00002e-09
-1.0672e-14
-9.89783e-15
-1.00003e-09
-5.5908e-15
-9.84473e-15
-1.00003e-09
-9.7778e-15
-1.00003e-09
-1.72187e-14
-5.17733e-15
-1.00002e-09
-1.46641e-14
-5.21016e-15
-1.00003e-09
-1.0619e-14
-5.18367e-15
-1.00003e-09
-5.54696e-15
-5.14472e-15
-1.00004e-09
-5.14127e-15
-1.00004e-09
-1.72107e-14
-1.00002e-09
-1.46021e-14
-1.00003e-09
-1.05549e-14
-1.00003e-09
-5.54273e-15
-1.00004e-09
-1.00004e-09
-2.35632e-14
-2.18051e-14
-1.00001e-09
-2.01037e-14
-2.17795e-14
-1.00002e-09
-1.46789e-14
-2.17381e-14
-1.00002e-09
-7.7578e-15
-2.16577e-14
-1.00003e-09
-2.15296e-14
-1.00003e-09
-2.35364e-14
-1.8551e-14
-1.00002e-09
-2.00607e-14
-1.85432e-14
-1.00002e-09
-1.46022e-14
-1.84997e-14
-1.00003e-09
-7.68161e-15
-1.84113e-14
-1.00004e-09
-1.83033e-14
-1.00004e-09
-2.35305e-14
-1.34761e-14
-1.00002e-09
-2.00172e-14
-1.34763e-14
-1.00003e-09
-1.45161e-14
-1.34188e-14
-1.00004e-09
-7.61726e-15
-1.33512e-14
-1.00004e-09
-1.33047e-14
-1.00005e-09
-2.35282e-14
-7.10107e-15
-1.00003e-09
-1.99575e-14
-7.08582e-15
-1.00004e-09
-1.44483e-14
-7.04464e-15
-1.00004e-09
-7.6021e-15
-7.03586e-15
-1.00005e-09
-7.05289e-15
-1.00005e-09
-2.34572e-14
-1.00003e-09
-1.98686e-14
-1.00004e-09
-1.44058e-14
-1.00005e-09
-7.6181e-15
-1.00005e-09
-1.00005e-09
-3.21031e-14
-2.96517e-14
-1.00001e-09
-2.74223e-14
-2.96493e-14
-1.00002e-09
-2.00348e-14
-2.95776e-14
-1.00003e-09
-1.05743e-14
-2.94279e-14
-1.00004e-09
-2.92464e-14
-1.00004e-09
-3.20986e-14
-2.52742e-14
-1.00002e-09
-2.73528e-14
-2.52411e-14
-1.00003e-09
-1.98905e-14
-2.51342e-14
-1.00004e-09
-1.04641e-14
-2.50091e-14
-1.00005e-09
-2.4899e-14
-1.00006e-09
-3.2064e-14
-1.84151e-14
-1.00003e-09
-2.72458e-14
-1.83382e-14
-1.00004e-09
-1.97673e-14
-1.82436e-14
-1.00005e-09
-1.04134e-14
-1.8189e-14
-1.00006e-09
-1.81437e-14
-1.00006e-09
-3.19829e-14
-9.71012e-15
-1.00004e-09
-2.71488e-14
-9.64342e-15
-1.00005e-09
-1.97125e-14
-9.6183e-15
-1.00006e-09
-1.04112e-14
-9.62325e-15
-1.00007e-09
-9.59982e-15
-1.00007e-09
-3.18403e-14
-1.00004e-09
-2.70592e-14
-1.00005e-09
-1.96713e-14
-1.00006e-09
-1.03864e-14
-1.00007e-09
-1.00007e-09
-4.39001e-14
-4.04696e-14
-1.00002e-09
-3.74203e-14
-4.03191e-14
-1.00003e-09
-2.72591e-14
-4.01557e-14
-1.00005e-09
-1.43423e-14
-3.99689e-14
-1.00006e-09
-3.97851e-14
-1.00006e-09
-4.37494e-14
-3.44587e-14
-1.00003e-09
-3.72574e-14
-3.43204e-14
-1.00005e-09
-2.70768e-14
-3.41508e-14
-1.00006e-09
-1.42548e-14
-3.40157e-14
-1.00007e-09
-3.38899e-14
-1.00008e-09
-4.36115e-14
-2.50786e-14
-1.00004e-09
-3.70875e-14
-2.49368e-14
-1.00006e-09
-2.69444e-14
-2.48278e-14
-1.00007e-09
-1.42107e-14
-2.47621e-14
-1.00008e-09
-2.46593e-14
-1.00009e-09
-4.34661e-14
-1.31824e-14
-1.00005e-09
-3.69751e-14
-1.31255e-14
-1.00007e-09
-2.68785e-14
-1.30988e-14
-1.00008e-09
-1.4167e-14
-1.30604e-14
-1.00009e-09
-1.30016e-14
-1.0001e-09
-4.33068e-14
-1.00006e-09
-3.68603e-14
-1.00007e-09
-2.67769e-14
-1.00009e-09
-1.41062e-14
-1.0001e-09
-1.0001e-09
-6.01502e-14
-5.53727e-14
-1.00002e-09
-5.10465e-14
-5.48576e-14
-1.00004e-09
-3.70804e-14
-5.45448e-14
-1.00006e-09
-1.95015e-14
-5.43297e-14
-1.00008e-09
-5.41194e-14
-1.00008e-09
-5.96355e-14
-4.69633e-14
-1.00004e-09
-5.07366e-14
-4.66594e-14
-1.00006e-09
-3.68699e-14
-4.64098e-14
-1.00008e-09
-1.94218e-14
-4.62287e-14
-1.0001e-09
-4.60233e-14
-1.0001e-09
-5.933e-14
-3.40846e-14
-1.00006e-09
-5.04864e-14
-3.38972e-14
-1.00008e-09
-3.66927e-14
-3.37372e-14
-1.0001e-09
-1.93277e-14
-3.35981e-14
-1.00011e-09
-3.3438e-14
-1.00012e-09
-5.91386e-14
-1.7901e-14
-1.00007e-09
-5.03216e-14
-1.78493e-14
-1.00009e-09
-3.65534e-14
-1.77604e-14
-1.00011e-09
-1.92477e-14
-1.76849e-14
-1.00013e-09
-1.76379e-14
-1.00013e-09
-5.89481e-14
-1.00008e-09
-5.01125e-14
-1.0001e-09
-3.63921e-14
-1.00012e-09
-1.91976e-14
-1.00013e-09
-1.00014e-09
-8.19953e-14
-7.5423e-14
-1.00003e-09
-6.95729e-14
-7.46168e-14
-1.00006e-09
-5.0538e-14
-7.41171e-14
-1.00009e-09
-2.66047e-14
-7.37784e-14
-1.0001e-09
-7.34294e-14
-1.00011e-09
-8.119e-14
-6.39255e-14
-1.00006e-09
-6.90788e-14
-6.34298e-14
-1.00009e-09
-5.02062e-14
-6.30189e-14
-1.00011e-09
-2.64332e-14
-6.27066e-14
-1.00013e-09
-6.23986e-14
-1.00014e-09
-8.06898e-14
-4.63605e-14
-1.00008e-09
-6.86664e-14
-4.60631e-14
-1.00011e-09
-4.98985e-14
-4.57665e-14
-1.00014e-09
-2.62756e-14
-4.55444e-14
-1.00015e-09
-4.53639e-14
-1.00016e-09
-8.03862e-14
-2.43862e-14
-1.0001e-09
-6.83642e-14
-2.42417e-14
-1.00013e-09
-4.96763e-14
-2.408e-14
-1.00015e-09
-2.6203e-14
-2.40093e-14
-1.00017e-09
-2.39233e-14
-1.00018e-09
-8.00517e-14
-1.00011e-09
-6.80402e-14
-1.00014e-09
-4.94895e-14
-1.00016e-09
-2.61125e-14
-1.00018e-09
-1.00019e-09
-1.11452e-13
-1.02429e-13
-1.00004e-09
-9.47711e-14
-1.01396e-13
-1.00008e-09
-6.88696e-14
-1.00601e-13
-1.00012e-09
-3.62284e-14
-1.00029e-13
-1.00014e-09
-9.95084e-14
-1.00016e-09
-1.10419e-13
-8.69363e-14
-1.00008e-09
-9.39838e-14
-8.61681e-14
-1.00012e-09
-6.83068e-14
-8.54944e-14
-1.00015e-09
-3.59484e-14
-8.50209e-14
-1.00018e-09
-8.46301e-14
-1.00019e-09
-1.09644e-13
-6.30888e-14
-1.00011e-09
-9.33081e-14
-6.25643e-14
-1.00015e-09
-6.78394e-14
-6.20921e-14
-1.00018e-09
-3.57608e-14
-6.18036e-14
-1.00021e-09
-6.15331e-14
-1.00022e-09
-1.0911e-13
-3.32168e-14
-1.00013e-09
-9.28297e-14
-3.29203e-14
-1.00017e-09
-6.75513e-14
-3.27128e-14
-1.00021e-09
-3.5636e-14
-3.25815e-14
-1.00023e-09
-3.23838e-14
-1.00025e-09
-1.08553e-13
-1.00015e-09
-9.24024e-14
-1.00019e-09
-6.72622e-14
-1.00022e-09
-3.54317e-14
-1.00024e-09
-1.00026e-09
-1.51653e-13
-1.39246e-13
-1.00006e-09
-1.28983e-13
-1.37718e-13
-1.00011e-09
-9.37053e-14
-1.36497e-13
-1.00016e-09
-4.9268e-14
-1.35672e-13
-1.00019e-09
-1.34998e-13
-1.00021e-09
-1.50123e-13
-1.18182e-13
-1.00011e-09
-1.2777e-13
-1.17002e-13
-1.00016e-09
-9.28935e-14
-1.16014e-13
-1.00021e-09
-4.89205e-14
-1.15367e-13
-1.00024e-09
-1.14803e-13
-1.00026e-09
-1.48933e-13
-8.57988e-14
-1.00015e-09
-1.26781e-13
-8.49667e-14
-1.00021e-09
-9.22556e-14
-8.42998e-14
-1.00025e-09
-4.86322e-14
-8.38422e-14
-1.00029e-09
-8.33572e-14
-1.0003e-09
-1.48086e-13
-4.51624e-14
-1.00018e-09
-1.26107e-13
-4.47237e-14
-1.00024e-09
-9.17981e-14
-4.44024e-14
-1.00028e-09
-4.83454e-14
-4.41061e-14
-1.00032e-09
-4.38382e-14
-1.00033e-09
-1.47293e-13
-1.0002e-09
-1.25486e-13
-1.00025e-09
-9.12858e-14
-1.0003e-09
-4.80684e-14
-1.00033e-09
-1.00035e-09
-2.0625e-13
-1.89236e-13
-1.00008e-09
-1.75378e-13
-1.8701e-13
-1.00015e-09
-1.27485e-13
-1.85296e-13
-1.00022e-09
-6.71093e-14
-1.84148e-13
-1.00026e-09
-1.83155e-13
-1.00029e-09
-2.04022e-13
-1.60567e-13
-1.00015e-09
-1.73676e-13
-1.58863e-13
-1.00022e-09
-1.26355e-13
-1.57475e-13
-1.00028e-09
-6.65609e-14
-1.5649e-13
-1.00033e-09
-1.55562e-13
-1.00036e-09
-2.02304e-13
-1.16587e-13
-1.00021e-09
-1.72289e-13
-1.15367e-13
-1.00028e-09
-1.25381e-13
-1.14359e-13
-1.00034e-09
-6.60098e-14
-1.13557e-13
-1.00039e-09
-1.12848e-13
-1.00041e-09
-2.01064e-13
-6.13301e-14
-1.00025e-09
-1.7127e-13
-6.06976e-14
-1.00032e-09
-1.24578e-13
-6.01287e-14
-1.00038e-09
-6.55709e-14
-5.96862e-14
-1.00043e-09
-5.93696e-14
-1.00045e-09
-1.99949e-13
-1.00027e-09
-1.70291e-13
-1.00034e-09
-1.2384e-13
-1.0004e-09
-6.52414e-14
-1.00045e-09
-1.00047e-09
-2.80447e-13
-2.57109e-13
-1.0001e-09
-2.38589e-13
-2.53961e-13
-1.00021e-09
-1.7357e-13
-2.51496e-13
-1.0003e-09
-9.14357e-14
-2.49715e-13
-1.00036e-09
-2.48115e-13
-1.00039e-09
-2.77297e-13
-2.18161e-13
-1.0002e-09
-2.36135e-13
-2.1566e-13
-1.0003e-09
-1.71813e-13
-2.13559e-13
-1.00039e-09
-9.04414e-14
-2.11948e-13
-1.00045e-09
-2.1056e-13
-1.00048e-09
-2.74781e-13
-1.58354e-13
-1.00028e-09
-2.34035e-13
-1.56511e-13
-1.00038e-09
-1.70216e-13
-1.54894e-13
-1.00046e-09
-8.95658e-14
-1.53672e-13
-1.00053e-09
-1.52732e-13
-1.00056e-09
-2.72911e-13
-8.3243e-14
-1.00034e-09
-2.32402e-13
-8.22618e-14
-1.00044e-09
-1.68993e-13
-8.13854e-14
-1.00052e-09
-8.89931e-14
-8.08079e-14
-1.00058e-09
-8.0331e-14
-1.00061e-09
-2.71272e-13
-1.00037e-09
-2.30967e-13
-1.00047e-09
-1.68013e-13
-1.00055e-09
-8.84978e-14
-1.00061e-09
-1.00064e-09
-3.81732e-13
-3.49539e-13
-1.00014e-09
-3.24837e-13
-3.44789e-13
-1.00028e-09
-2.36282e-13
-3.40967e-13
-1.0004e-09
-1.24413e-13
-3.38134e-13
-1.00049e-09
-3.35759e-13
-1.00054e-09
-3.7698e-13
-2.96439e-13
-1.00027e-09
-3.21023e-13
-2.92547e-13
-1.00041e-09
-2.3348e-13
-2.89221e-13
-1.00053e-09
-1.22864e-13
-2.86744e-13
-1.00061e-09
-2.84802e-13
-1.00066e-09
-3.73076e-13
-2.15021e-13
-1.00038e-09
-3.17696e-13
-2.12124e-13
-1.00051e-09
-2.31023e-13
-2.09629e-13
-1.00063e-09
-1.21619e-13
-2.07876e-13
-1.00071e-09
-2.06501e-13
-1.00076e-09
-3.70145e-13
-1.12963e-13
-1.00046e-09
-3.15178e-13
-1.11437e-13
-1.00059e-09
-2.29268e-13
-1.1018e-13
-1.00071e-09
-1.20742e-13
-1.09293e-13
-1.00079e-09
-1.08544e-13
-1.00083e-09
-3.67721e-13
-1.0005e-09
-3.13158e-13
-1.00063e-09
-2.27834e-13
-1.00074e-09
-1.19968e-13
-1.00083e-09
-1.00087e-09
-5.19449e-13
-4.74826e-13
-1.0002e-09
-4.42169e-13
-4.6765e-13
-1.00039e-09
-3.21548e-13
-4.61726e-13
-1.00055e-09
-1.69278e-13
-4.57406e-13
-1.00067e-09
-4.54035e-13
-1.00073e-09
-5.1227e-13
-4.02503e-13
-1.00037e-09
-4.36246e-13
-3.96427e-13
-1.00056e-09
-3.17268e-13
-3.91285e-13
-1.00072e-09
-1.67033e-13
-3.87596e-13
-1.00083e-09
-3.84756e-13
-1.00089e-09
-5.06187e-13
-2.91754e-13
-1.00052e-09
-4.31103e-13
-2.87248e-13
-1.0007e-09
-3.13606e-13
-2.835e-13
-1.00086e-09
-1.65139e-13
-2.80825e-13
-1.00097e-09
-2.78727e-13
-1.00103e-09
-5.01635e-13
-1.53168e-13
-1.00062e-09
-4.2732e-13
-1.50862e-13
-1.0008e-09
-3.10927e-13
-1.48963e-13
-1.00096e-09
-1.63716e-13
-1.47527e-13
-1.00107e-09
-1.46436e-13
-1.00113e-09
-4.98105e-13
-1.00068e-09
-4.24381e-13
-1.00086e-09
-3.08745e-13
-1.00101e-09
-1.62587e-13
-1.00112e-09
-1.00118e-09
-7.06612e-13
-6.44586e-13
-1.00027e-09
-6.01844e-13
-6.33791e-13
-1.00053e-09
-4.37787e-13
-6.24706e-13
-1.00075e-09
-2.3054e-13
-6.18118e-13
-1.00091e-09
-6.13166e-13
-1.001e-09
-6.95811e-13
-5.46005e-13
-1.0005e-09
-5.92753e-13
-5.36622e-13
-1.00076e-09
-4.31253e-13
-5.28779e-13
-1.00097e-09
-2.2712e-13
-5.23126e-13
-1.00113e-09
-5.18865e-13
-1.00121e-09
-6.86426e-13
-3.95367e-13
-1.0007e-09
-5.84904e-13
-3.88496e-13
-1.00095e-09
-4.25637e-13
-3.82773e-13
-1.00116e-09
-2.24145e-13
-3.7858e-13
-1.00132e-09
-3.75488e-13
-1.0014e-09
-6.79494e-13
-2.0741e-13
-1.00084e-09
-5.79128e-13
-2.03925e-13
-1.00109e-09
-4.21436e-13
-2.00935e-13
-1.0013e-09
-2.21968e-13
-1.98724e-13
-1.00145e-09
-1.97135e-13
-1.00153e-09
-6.74344e-13
-1.00092e-09
-5.74716e-13
-1.00116e-09
-4.18207e-13
-1.00137e-09
-2.20325e-13
-1.00152e-09
-1.0016e-09
-9.61614e-13
-8.74988e-13
-1.00037e-09
-8.19461e-13
-8.58396e-13
-1.00072e-09
-5.96417e-13
-8.44412e-13
-1.00102e-09
-3.1414e-13
-8.34206e-13
-1.00124e-09
-8.26819e-13
-1.00136e-09
-9.4501e-13
-7.39937e-13
-1.00068e-09
-8.05472e-13
-7.25506e-13
-1.00103e-09
-5.86287e-13
-7.13439e-13
-1.00132e-09
-3.08836e-13
-7.04662e-13
-1.00154e-09
-6.9838e-13
-1.00165e-09
-9.30568e-13
-5.35062e-13
-1.00095e-09
-7.93392e-13
-5.24545e-13
-1.00129e-09
-5.77561e-13
-5.1565e-13
-1.00157e-09
-3.04304e-13
-5.09188e-13
-1.00178e-09
-5.04638e-13
-1.0019e-09
-9.19964e-13
-2.8062e-13
-1.00114e-09
-7.84417e-13
-2.75119e-13
-1.00147e-09
-5.71086e-13
-2.70407e-13
-1.00175e-09
-3.0099e-13
-2.67051e-13
-1.00196e-09
-2.64684e-13
-1.00207e-09
-9.12191e-13
-1.00124e-09
-7.77761e-13
-1.00157e-09
-5.66336e-13
-1.00185e-09
-2.98541e-13
-1.00205e-09
-1.00216e-09
-1.30872e-12
-1.18677e-12
-1.0005e-09
-1.11598e-12
-1.16133e-12
-1.00098e-09
-8.12826e-13
-1.13989e-12
-1.0014e-09
-4.28281e-13
-1.12415e-12
-1.0017e-09
-1.11319e-12
-1.00186e-09
-1.28326e-12
-1.00143e-12
-1.00093e-09
-1.09454e-12
-9.79226e-13
-1.0014e-09
-7.972e-13
-9.60577e-13
-1.0018e-09
-4.20168e-13
-9.47087e-13
-1.00209e-09
-9.37814e-13
-1.00225e-09
-1.26102e-12
-7.23094e-13
-1.00129e-09
-1.07587e-12
-7.06667e-13
-1.00174e-09
-7.83783e-13
-6.92825e-13
-1.00213e-09
-4.13269e-13
-6.8289e-13
-1.00242e-09
-6.7607e-13
-1.00257e-09
-1.24445e-12
-3.791e-13
-1.00155e-09
-1.0619e-12
-3.70247e-13
-1.00199e-09
-7.7382e-13
-3.62924e-13
-1.00237e-09
-4.08115e-13
-3.57733e-13
-1.00265e-09
-3.54159e-13
-1.0028e-09
-1.23248e-12
-1.00168e-09
-1.05192e-12
-1.00212e-09
-7.66718e-13
-1.0025e-09
-4.04414e-13
-1.00277e-09
-1.00292e-09
-1.78135e-12
-1.60785e-12
-1.00069e-09
-1.52032e-12
-1.56897e-12
-1.00135e-09
-1.10828e-12
-1.5361e-12
-1.00191e-09
-5.84335e-13
-1.512e-12
-1.00232e-09
-1.49571e-12
-1.00254e-09
-1.74243e-12
-1.35303e-12
-1.00127e-09
-1.48749e-12
-1.31861e-12
-1.0019e-09
-1.08437e-12
-1.28987e-12
-1.00245e-09
-5.71923e-13
-1.26922e-12
-1.00285e-09
-1.25541e-12
-1.00306e-09
-1.70791e-12
-9.75098e-13
-1.00175e-09
-1.45872e-12
-9.49168e-13
-1.00236e-09
-1.06385e-12
-9.2764e-13
-1.00289e-09
-5.61333e-13
-9.12193e-13
-1.00328e-09
-9.01952e-13
-1.00349e-09
-1.68175e-12
-5.10707e-13
-1.00209e-09
-1.43698e-12
-4.96693e-13
-1.00269e-09
-1.04833e-12
-4.85293e-13
-1.0032e-09
-5.53307e-13
-4.77153e-13
-1.00358e-09
-4.7181e-13
-1.00378e-09
-1.66345e-12
-1.00227e-09
-1.42191e-12
-1.00286e-09
-1.03757e-12
-1.00337e-09
-5.47761e-13
-1.00374e-09
-1.00394e-09
-2.42564e-12
-2.17567e-12
-1.00096e-09
-2.07232e-12
-2.11582e-12
-1.00185e-09
-1.51211e-12
-2.06549e-12
-1.00262e-09
-7.97863e-13
-2.02867e-12
-1.00318e-09
-2.00441e-12
-1.00349e-09
-2.36576e-12
-1.82363e-12
-1.00173e-09
-2.02205e-12
-1.76993e-12
-1.00259e-09
-1.47563e-12
-1.72584e-12
-1.00334e-09
-7.78875e-13
-1.69433e-12
-1.00388e-09
-1.67408e-12
-1.00417e-09
-2.31195e-12
-1.31083e-12
-1.00237e-09
-1.9779e-12
-1.26966e-12
-1.0032e-09
-1.44435e-12
-1.23594e-12
-1.00392e-09
-7.62994e-13
-1.2117e-12
-1.00444e-09
-1.19634e-12
-1.00473e-09
-2.27039e-12
-6.85963e-13
-1.00282e-09
-1.94376e-12
-6.63612e-13
-1.00362e-09
-1.41994e-12
-6.45719e-13
-1.00432e-09
-7.50492e-13
-6.33045e-13
-1.00483e-09
-6.253e-13
-1.00511e-09
-2.24215e-12
-1.00306e-09
-1.92079e-12
-1.00384e-09
-1.40368e-12
-1.00453e-09
-7.42412e-13
-1.00503e-09
-1.00531e-09
-3.30339e-12
-2.93821e-12
-1.00134e-09
-2.82605e-12
-2.84567e-12
-1.00256e-09
-2.06469e-12
-2.76937e-12
-1.00361e-09
-1.09044e-12
-2.71313e-12
-1.00438e-09
-2.67722e-12
-1.00479e-09
-3.21099e-12
-2.44926e-12
-1.00238e-09
-2.74973e-12
-2.36492e-12
-1.00354e-09
-2.00907e-12
-2.29797e-12
-1.00455e-09
-1.06159e-12
-2.2507e-12
-1.00529e-09
-2.22244e-12
-1.00569e-09
-3.12671e-12
-1.75475e-12
-1.00321e-09
-2.68271e-12
-1.68827e-12
-1.00432e-09
-1.9625e-12
-1.63497e-12
-1.0053e-09
-1.03931e-12
-1.59613e-12
-1.00602e-09
-1.57263e-12
-1.00642e-09
-3.05962e-12
-9.18659e-13
-1.0038e-09
-2.62837e-12
-8.81878e-13
-1.00486e-09
-1.92314e-12
-8.54125e-13
-1.0058e-09
-1.01922e-12
-8.34551e-13
-1.0065e-09
-8.24142e-13
-1.00687e-09
-3.01477e-12
-1.00412e-09
-2.5935e-12
-1.00515e-09
-1.89884e-12
-1.00608e-09
-1.00828e-12
-1.00676e-09
-1.00714e-09
-4.49753e-12
-3.95658e-12
-1.00192e-09
-3.85584e-12
-3.81126e-12
-1.00355e-09
-2.82142e-12
-3.69809e-12
-1.00499e-09
-1.49178e-12
-3.61208e-12
-1.00605e-09
-3.55956e-12
-1.00662e-09
-4.35331e-12
-3.27337e-12
-1.00328e-09
-3.74193e-12
-3.13839e-12
-1.00482e-09
-2.73656e-12
-3.04013e-12
-1.00621e-09
-1.44809e-12
-2.97245e-12
-1.00722e-09
-2.93847e-12
-1.00775e-09
-4.21949e-12
-2.33497e-12
-1.00436e-09
-3.64364e-12
-2.22447e-12
-1.00581e-09
-2.67161e-12
-2.1388e-12
-1.00717e-09
-1.42283e-12
-2.07171e-12
-1.00817e-09
-2.03246e-12
-1.00874e-09
-4.10814e-12
-1.22742e-12
-1.00511e-09
-3.55486e-12
-1.16408e-12
-1.00647e-09
-2.60322e-12
-1.12323e-12
-1.00777e-09
-1.38688e-12
-1.09318e-12
-1.00869e-09
-1.08329e-12
-1.00921e-09
-4.03393e-12
-1.00555e-09
-3.50377e-12
-1.00684e-09
-2.568e-12
-1.00814e-09
-1.37655e-12
-1.00904e-09
-1.0096e-09
-6.11414e-12
-5.30632e-12
-1.00284e-09
-5.26463e-12
-5.06693e-12
-1.00498e-09
-3.85707e-12
-4.90851e-12
-1.00696e-09
-2.04428e-12
-4.77419e-12
-1.0084e-09
-4.69507e-12
-1.0092e-09
-5.88018e-12
-4.34524e-12
-1.00461e-09
-5.10101e-12
-4.11962e-12
-1.00655e-09
-3.72481e-12
-3.99029e-12
-1.0085e-09
-1.97352e-12
-3.90495e-12
-1.00984e-09
-3.88785e-12
-1.01054e-09
-5.65972e-12
-3.07896e-12
-1.006e-09
-4.9715e-12
-2.8869e-12
-1.00773e-09
-3.65257e-12
-2.7423e-12
-1.00974e-09
-1.97434e-12
-2.60731e-12
-1.01115e-09
-2.53341e-12
-1.01207e-09
-5.46688e-12
-1.64309e-12
-1.00691e-09
-4.81667e-12
-1.52348e-12
-1.00849e-09
-3.51093e-12
-1.47522e-12
-1.01034e-09
-1.88953e-12
-1.42831e-12
-1.01149e-09
-1.43709e-12
-1.0122e-09
-5.3319e-12
-1.00756e-09
-4.75267e-12
-1.00894e-09
-3.46552e-12
-1.0109e-09
-1.90383e-12
-1.01203e-09
-1.01294e-09
-8.25767e-12
-7.07649e-12
-1.00449e-09
-7.19867e-12
-6.63574e-12
-1.00702e-09
-5.269e-12
-6.45406e-12
-1.00983e-09
-2.81903e-12
-6.21976e-12
-1.01174e-09
-6.06995e-12
-1.01301e-09
-7.83633e-12
-5.7249e-12
-1.00675e-09
-6.98552e-12
-5.30359e-12
-1.00873e-09
-5.03904e-12
-5.20057e-12
-1.0117e-09
-2.66293e-12
-5.12805e-12
-1.0133e-09
-5.21575e-12
-1.01405e-09
-7.44159e-12
-3.99508e-12
-1.00859e-09
-6.87816e-12
-3.64515e-12
-1.00995e-09
-5.04219e-12
-3.39122e-12
-1.01338e-09
-2.83772e-12
-3.09795e-12
-1.01538e-09
-2.9744e-12
-1.01715e-09
-7.09608e-12
-2.23501e-12
-1.00953e-09
-6.56166e-12
-1.96372e-12
-1.0107e-09
-4.65786e-12
-1.96709e-12
-1.01367e-09
-2.5624e-12
-1.8705e-12
-1.01481e-09
-1.95857e-12
-1.01577e-09
-6.82273e-12
-1.01072e-09
-6.5364e-12
-1.01119e-09
-4.61807e-12
-1.01479e-09
-2.71184e-12
-1.01581e-09
-1.01761e-09
-1.09028e-11
-9.37219e-12
-1.00799e-09
-9.88671e-12
-8.37961e-12
-1.00975e-09
-7.16094e-12
-8.35771e-12
-1.01414e-09
-4.00444e-12
-7.85798e-12
-1.01636e-09
-7.60508e-12
-1.019e-09
-1.01319e-11
-7.54328e-12
-1.01062e-09
-9.66864e-12
-6.55154e-12
-1.01102e-09
-6.63709e-12
-6.77395e-12
-1.01632e-09
-3.43263e-12
-6.73287e-12
-1.01763e-09
-7.14515e-12
-1.01795e-09
-9.45291e-12
-5.0178e-12
-1.01342e-09
-9.84421e-12
-4.39913e-12
-1.01171e-09
-7.0575e-12
-4.00258e-12
-1.01894e-09
-4.36754e-12
-3.35796e-12
-1.02145e-09
-3.22964e-12
-1.02544e-09
-8.85812e-12
-3.18513e-12
-1.01357e-09
-9.02666e-12
-2.42823e-12
-1.0125e-09
-5.91108e-12
-2.75432e-12
-1.01804e-09
-3.43422e-12
-2.38505e-12
-1.01826e-09
-2.75268e-12
-1.01968e-09
-8.31742e-12
-1.01632e-09
-9.2531e-12
-1.01269e-09
-6.0269e-12
-1.02077e-09
-4.07869e-12
-1.02014e-09
-1.02444e-09
-1.3824e-11
-1.22746e-11
-1.01648e-09
-1.36895e-11
-9.7567e-12
-1.0128e-09
-9.50924e-12
-1.06671e-11
-1.02109e-09
-6.18581e-12
-9.54765e-12
-1.02181e-09
-9.37487e-12
-1.02922e-09
-1.27624e-11
-1.01144e-11
-1.01771e-09
-1.35191e-11
-7.36247e-12
-1.01266e-09
-8.20109e-12
-8.85806e-12
-1.02345e-09
-3.88719e-12
-8.63729e-12
-1.02286e-09
-9.96656e-12
-1.02124e-09
-1.15829e-11
-5.98568e-12
-1.0233e-09
-1.46935e-11
-5.09573e-12
-1.01087e-09
-1.02384e-11
-4.52705e-12
-1.02773e-09
-7.37698e-12
-2.99762e-12
-1.02995e-09
-3.0708e-12
-1.03971e-09
-1.07273e-11
-4.89943e-12
-1.01974e-09
-1.24072e-11
-2.6714e-12
-1.01325e-09
-7.18248e-12
-4.19349e-12
-1.02359e-09
-4.48103e-12
-2.72103e-12
-1.02124e-09
-4.03601e-12
-1.0232e-09
-9.5209e-12
-1.02691e-09
-1.33422e-11
-1.01154e-09
-7.99209e-12
-1.03031e-09
-6.54305e-12
-1.02431e-09
-1.03502e-09
-1.64681e-11
-1.5812e-11
-1.03801e-09
-1.86565e-11
-9.7359e-12
-1.01529e-09
-1.26183e-11
-1.34487e-11
-1.03314e-09
-1.08452e-11
-1.11021e-11
-1.0261e-09
-1.13179e-11
-1.04813e-09
-1.59727e-11
-1.35463e-11
-1.0304e-09
-1.87618e-11
-6.60389e-12
-1.013e-09
-9.53262e-12
-1.13321e-11
-1.03479e-09
-3.16251e-12
-1.07564e-11
-1.02957e-09
-1.43009e-11
-1.02142e-09
-1.3375e-11
-6.60287e-12
-1.04346e-09
-2.25459e-11
-5.95691e-12
-1.00234e-09
-1.63728e-11
-4.73451e-12
-1.0405e-09
-1.36735e-11
-1.26307e-12
-1.04214e-09
-2.10368e-12
-1.06558e-09
-1.28473e-11
-8.25106e-12
-1.02865e-09
-1.65585e-11
-2.12861e-12
-1.01336e-09
-8.47271e-12
-7.08314e-12
-1.02933e-09
-5.24096e-12
-2.20032e-12
-1.02354e-09
-6.38513e-12
-1.02416e-09
-9.61416e-12
-1.04749e-09
-1.92571e-11
-1.00402e-09
-1.10624e-11
-1.04559e-09
-1.12039e-11
-1.02637e-09
-1.05261e-09
-1.71078e-11
-1.93585e-11
-1.09463e-09
-2.27864e-11
-2.44868e-12
-1.02039e-09
-1.71439e-11
-1.56997e-11
-1.05426e-09
-2.17415e-11
-1.24043e-11
-1.02259e-09
-1.32023e-11
-1.08702e-09
-2.08512e-11
-1.65251e-11
-1.05296e-09
-2.59014e-11
-2.88579e-12
-1.00751e-09
-9.8821e-12
-1.25047e-11
-1.05401e-09
1.8832e-12
-1.37018e-11
-1.04004e-09
-2.14793e-11
-1.01126e-09
-1.33165e-11
-6.12375e-12
-1.08291e-09
-3.53021e-11
-7.20191e-12
-9.76041e-10
-2.97485e-11
-3.81276e-12
-1.05474e-09
-2.73802e-11
4.80132e-12
-1.06301e-09
5.61151e-13
-1.115e-09
-1.58397e-11
-1.52793e-11
-1.04064e-09
-2.06926e-11
-1.23032e-13
-1.01559e-09
-9.30003e-12
-1.33243e-11
-1.03121e-09
-4.27401e-12
1.35667e-12
-1.02512e-09
-1.12588e-11
-1.01661e-09
-6.61657e-12
-1.08845e-09
-2.73789e-11