/*--------------------------------*- C++ -*----------------------------------*\
  =========                 |
  \\      /  F ield         | OpenFOAM: The Open Source CFD Toolbox
   \\    /   O peration     | Website:  https://openfoam.org
    \\  /    A nd           | Version:  9
     \\/     M anipulation  |
\*---------------------------------------------------------------------------*/
FoamFile
{
    format      ascii;
    class       surfaceScalarField;
    location    "0.07";
    object      phi;
}
// * * * * * * * * * * * * * * * * * * * * * * * * * * * * * * * * * * * * * //

dimensions      [0 3 -1 0 0 0 0];

internalField   nonuniform List<scalar> 
25100
(
-7.63294e-17
-6.32615e-17
-9.99998e-10
-1.02257e-16
-4.50359e-17
-9.99998e-10
-1.41984e-16
-4.23056e-17
-9.99998e-10
-1.7294e-16
-4.33503e-17
-9.99998e-10
-2.22814e-16
-4.11043e-17
-9.99999e-10
-2.30973e-16
-3.75679e-17
-9.99999e-10
-2.12945e-16
-6.11043e-17
-9.99999e-10
-1.4693e-16
-6.23668e-17
-1e-09
-6.66129e-17
-5.82543e-17
-1e-09
-4.96721e-17
-1e-09
-5.81018e-17
-7.67116e-17
-9.99998e-10
-9.95702e-17
-7.11997e-17
-9.99998e-10
-1.43284e-16
-7.46174e-17
-9.99998e-10
-1.70912e-16
-7.9789e-17
-9.99998e-10
-2.20038e-16
-8.90748e-17
-9.99999e-10
-2.55023e-16
-1.00991e-16
-9.99999e-10
-2.14983e-16
-1.01831e-16
-1e-09
-1.43499e-16
-9.07351e-17
-1e-09
-5.82762e-17
-7.58392e-17
-1e-09
-6.16365e-17
-1e-09
-5.25679e-17
-1.03809e-16
-9.99998e-10
-1.03147e-16
-1.08312e-16
-9.99998e-10
-1.48294e-16
-1.15657e-16
-9.99998e-10
-1.79844e-16
-1.26495e-16
-9.99998e-10
-2.31224e-16
-1.43273e-16
-9.99999e-10
-2.55781e-16
-1.49554e-16
-9.99999e-10
-2.03469e-16
-1.34392e-16
-1e-09
-1.2863e-16
-1.15184e-16
-1e-09
-4.42211e-17
-9.49023e-17
-1e-09
-8.61666e-17
-1e-09
-5.69614e-17
-1.3297e-16
-9.99998e-10
-1.10985e-16
-1.35905e-16
-9.99998e-10
-1.59191e-16
-1.33389e-16
-9.99998e-10
-1.96337e-16
-1.42459e-16
-9.99999e-10
-2.4142e-16
-1.56156e-16
-9.99999e-10
-2.38038e-16
-1.89181e-16
-1e-09
-1.83303e-16
-1.70251e-16
-1e-09
-1.08288e-16
-1.46057e-16
-1e-09
-3.56461e-17
-1.21e-16
-1e-09
-1.14316e-16
-1e-09
-5.81141e-17
-1.82965e-16
-9.99998e-10
-1.07008e-16
-1.70512e-16
-9.99998e-10
-1.68011e-16
-1.73171e-16
-9.99999e-10
-2.10893e-16
-1.85017e-16
-9.99999e-10
-2.84956e-16
-2.21642e-16
-9.99999e-10
-2.17414e-16
-1.22727e-16
-1e-09
-1.59341e-16
-1.39132e-16
-1e-09
-8.32862e-17
-1.52792e-16
-1e-09
-2.92293e-17
-1.62158e-16
-1e-09
-1.63973e-16
-1e-09
-4.54994e-17
-1.72522e-16
-9.99999e-10
-1.10149e-16
-1.86877e-16
-9.99999e-10
-1.75616e-16
-1.86464e-16
-9.99999e-10
-2.3567e-16
-1.81459e-16
-9.99999e-10
-1.8527e-16
-1.70535e-16
-1e-09
-2.50399e-16
-1.89134e-16
-1e-09
-1.76094e-16
-1.54121e-16
-1e-09
-9.27835e-17
-1.39925e-16
-1e-09
-3.17296e-17
-1.46981e-16
-1e-09
-1.66606e-16
-1e-09
-5.94859e-17
-1.54053e-16
-9.99999e-10
-1.104e-16
-1.50134e-16
-9.99999e-10
-1.72091e-16
-1.55912e-16
-9.99999e-10
-2.27632e-16
-1.41695e-16
-1e-09
-1.91763e-16
-1.31229e-16
-1e-09
-2.13013e-16
-1.47066e-16
-1e-09
-1.58596e-16
-1.32619e-16
-1e-09
-9.88734e-17
-1.34266e-16
-1e-09
-5.11892e-17
-1.44924e-16
-1e-09
-1.59521e-16
-1e-09
-5.49748e-17
-1.03832e-16
-9.99999e-10
-1.16503e-16
-1.10929e-16
-9.99999e-10
-1.58618e-16
-1.04273e-16
-1e-09
-2.1882e-16
-1.06564e-16
-1e-09
-2.04668e-16
-8.54167e-17
-1e-09
-2.01546e-16
-9.26782e-17
-1e-09
-1.60257e-16
-8.93831e-17
-1e-09
-1.09985e-16
-1.07077e-16
-1e-09
-6.64938e-17
-1.2748e-16
-1e-09
-1.29591e-16
-1e-09
-6.15438e-17
-5.64778e-17
-9.99999e-10
-1.09758e-16
-5.34748e-17
-1e-09
-1.60686e-16
-5.0171e-17
-1e-09
-1.98242e-16
-5.13734e-17
-1e-09
-2.11636e-16
-3.83276e-17
-1e-09
-1.98886e-16
-4.02139e-17
-1e-09
-1.77614e-16
-5.46914e-17
-1e-09
-1.30431e-16
-6.95778e-17
-1e-09
-6.88562e-17
-6.88572e-17
-1e-09
-7.48042e-17
-1e-09
-5.81075e-17
-1e-09
-1.05985e-16
-1e-09
-1.61342e-16
-1e-09
-1.84994e-16
-1e-09
-2.1273e-16
-1e-09
-2.13026e-16
-1e-09
-1.91839e-16
-1e-09
-1.29424e-16
-1e-09
-7.47505e-17
-1e-09
-1e-09
-1.79071e-16
-1.42488e-16
-9.99997e-10
-2.99718e-16
-1.24927e-16
-9.99997e-10
-4.10308e-16
-1.10785e-16
-9.99998e-10
-4.91861e-16
-1.13598e-16
-9.99998e-10
-6.05847e-16
-1.32269e-16
-9.99998e-10
-6.53366e-16
-1.31671e-16
-9.99999e-10
-5.6019e-16
-1.66619e-16
-9.99999e-10
-3.88665e-16
-1.60623e-16
-1e-09
-1.72766e-16
-1.29449e-16
-1e-09
-1.13758e-16
-1e-09
-1.61581e-16
-2.22077e-16
-9.99997e-10
-2.8588e-16
-2.10427e-16
-9.99998e-10
-4.13916e-16
-2.2065e-16
-9.99998e-10
-5.0982e-16
-2.4042e-16
-9.99998e-10
-6.0793e-16
-2.75776e-16
-9.99999e-10
-6.90897e-16
-2.86202e-16
-9.99999e-10
-5.5649e-16
-2.69523e-16
-9.99999e-10
-3.58898e-16
-2.30382e-16
-1e-09
-1.57028e-16
-2.04109e-16
-1e-09
-1.69774e-16
-1e-09
-1.49854e-16
-3.07623e-16
-9.99998e-10
-2.96755e-16
-3.05583e-16
-9.99998e-10
-4.3332e-16
-3.25247e-16
-9.99998e-10
-5.42772e-16
-3.58035e-16
-9.99998e-10
-6.17014e-16
-3.98823e-16
-9.99999e-10
-6.75352e-16
-3.81221e-16
-9.99999e-10
-5.15933e-16
-3.56786e-16
-1e-09
-3.32547e-16
-3.12559e-16
-1e-09
-1.2297e-16
-2.58927e-16
-1e-09
-2.48076e-16
-1e-09
-1.47947e-16
-3.67968e-16
-9.99998e-10
-3.17686e-16
-3.88469e-16
-9.99998e-10
-4.66156e-16
-3.93671e-16
-9.99998e-10
-5.78774e-16
-4.12706e-16
-9.99999e-10
-6.10608e-16
-4.2136e-16
-9.99999e-10
-6.49046e-16
-4.41261e-16
-1e-09
-4.67899e-16
-4.15367e-16
-1e-09
-2.78512e-16
-3.61543e-16
-1e-09
-1.12716e-16
-3.08303e-16
-1e-09
-2.93078e-16
-1e-09
-1.65811e-16
-4.81503e-16
-9.99998e-10
-3.22056e-16
-4.55799e-16
-9.99998e-10
-4.90004e-16
-4.49305e-16
-9.99999e-10
-5.86555e-16
-4.41927e-16
-9.99999e-10
-6.42496e-16
-4.5351e-16
-1e-09
-6.32251e-16
-4.67405e-16
-1e-09
-4.11022e-16
-3.71657e-16
-1e-09
-2.22784e-16
-3.98933e-16
-1e-09
-9.65311e-17
-4.39123e-16
-1e-09
-4.5197e-16
-1e-09
-1.38402e-16
-4.85721e-16
-9.99999e-10
-3.16022e-16
-5.21718e-16
-9.99999e-10
-4.70339e-16
-5.15037e-16
-9.99999e-10
-5.88969e-16
-5.03264e-16
-9.99999e-10
-6.44161e-16
-5.02772e-16
-1e-09
-5.95968e-16
-4.32751e-16
-1e-09
-4.52403e-16
-4.17316e-16
-1e-09
-2.64652e-16
-4.27431e-16
-1e-09
-1.12092e-16
-4.62802e-16
-1e-09
-5.19408e-16
-1e-09
-1.71946e-16
-4.07288e-16
-9.99999e-10
-3.09408e-16
-4.04971e-16
-9.99999e-10
-4.57419e-16
-4.02283e-16
-9.99999e-10
-5.81931e-16
-3.78533e-16
-1e-09
-5.3578e-16
-3.52529e-16
-1e-09
-5.71953e-16
-3.79224e-16
-1e-09
-4.5307e-16
-3.60026e-16
-1e-09
-2.95043e-16
-3.89489e-16
-1e-09
-1.6633e-16
-4.35567e-16
-1e-09
-4.54187e-16
-1e-09
-1.67765e-16
-2.9622e-16
-9.99999e-10
-3.07601e-16
-2.83006e-16
-9.99999e-10
-4.36567e-16
-2.78736e-16
-1e-09
-5.64797e-16
-2.7563e-16
-1e-09
-5.50205e-16
-2.41305e-16
-1e-09
-5.58174e-16
-2.67271e-16
-1e-09
-4.82875e-16
-2.85968e-16
-1e-09
-3.42907e-16
-3.0866e-16
-1e-09
-1.86921e-16
-3.28018e-16
-1e-09
-3.41551e-16
-1e-09
-1.53002e-16
-1.44846e-16
-9.99999e-10
-3.03116e-16
-1.48571e-16
-1e-09
-4.33107e-16
-1.39506e-16
-1e-09
-5.35074e-16
-1.42258e-16
-1e-09
-5.74216e-16
-1.30472e-16
-1e-09
-5.79999e-16
-1.42507e-16
-1e-09
-5.04348e-16
-1.5753e-16
-1e-09
-3.62411e-16
-1.69347e-16
-1e-09
-2.00726e-16
-1.83605e-16
-1e-09
-1.70799e-16
-1e-09
-1.55906e-16
-1e-09
-2.92908e-16
-1e-09
-4.34467e-16
-1e-09
-5.23907e-16
-1e-09
-5.83469e-16
-1e-09
-5.94767e-16
-1e-09
-5.14535e-16
-1e-09
-3.7612e-16
-1e-09
-1.87589e-16
-1e-09
-1e-09
-2.88566e-16
-2.24193e-16
-9.99997e-10
-5.33549e-16
-2.03148e-16
-9.99997e-10
-7.48689e-16
-2.02015e-16
-9.99997e-10
-9.15775e-16
-2.23381e-16
-9.99998e-10
-1.04549e-15
-2.69748e-16
-9.99998e-10
-1.09574e-15
-2.73698e-16
-9.99999e-10
-9.15009e-16
-2.74872e-16
-9.99999e-10
-6.19357e-16
-2.51072e-16
-1e-09
-2.84982e-16
-2.0879e-16
-1e-09
-1.79638e-16
-1e-09
-2.67723e-16
-4.11241e-16
-9.99997e-10
-5.34165e-16
-4.14106e-16
-9.99997e-10
-7.72593e-16
-4.30662e-16
-9.99997e-10
-9.63485e-16
-4.75091e-16
-9.99998e-10
-1.05326e-15
-5.29938e-16
-9.99998e-10
-1.10194e-15
-5.15845e-16
-9.99999e-10
-8.94262e-16
-4.85551e-16
-9.99999e-10
-5.78615e-16
-4.13136e-16
-1e-09
-2.55864e-16
-3.73122e-16
-1e-09
-3.47595e-16
-1e-09
-2.70013e-16
-5.84122e-16
-9.99997e-10
-5.51439e-16
-5.98978e-16
-9.99997e-10
-8.16758e-16
-6.29733e-16
-9.99998e-10
-1.01378e-15
-6.627e-16
-9.99998e-10
-1.03575e-15
-7.13177e-16
-9.99999e-10
-1.07361e-15
-6.34441e-16
-9.99999e-10
-8.19371e-16
-6.10649e-16
-1e-09
-5.38324e-16
-5.59061e-16
-1e-09
-2.31067e-16
-5.08629e-16
-1e-09
-5.18524e-16
-1e-09
-2.83844e-16
-7.10775e-16
-9.99998e-10
-5.82864e-16
-7.3406e-16
-9.99998e-10
-8.50014e-16
-7.51884e-16
-9.99998e-10
-1.05918e-15
-7.79124e-16
-9.99998e-10
-9.46635e-16
-8.21754e-16
-9.99999e-10
-1.05852e-15
-6.15496e-16
-1e-09
-7.63564e-16
-6.45761e-16
-1e-09
-4.88008e-16
-6.31569e-16
-1e-09
-2.4276e-16
-6.14318e-16
-1e-09
-6.13138e-16
-1e-09
-3.05453e-16
-8.3109e-16
-9.99998e-10
-6.01367e-16
-8.13961e-16
-9.99998e-10
-8.81001e-16
-7.7364e-16
-9.99998e-10
-1.1003e-15
-6.70645e-16
-9.99999e-10
-7.72634e-16
-4.64473e-16
-9.99999e-10
-1.08375e-15
-1.03076e-15
-1e-09
-7.38741e-16
-7.83596e-16
-1e-09
-4.63354e-16
-7.57403e-16
-1e-09
-2.39307e-16
-7.83413e-16
-1e-09
-7.91393e-16
-1e-09
-2.84466e-16
-8.50578e-16
-9.99998e-10
-5.64266e-16
-8.51772e-16
-9.99999e-10
-7.86693e-16
-8.44858e-16
-9.99999e-10
-8.65851e-16
-8.38018e-16
-9.99999e-10
-1.32878e-15
-8.63267e-16
-1e-09
-8.57368e-16
-5.99275e-16
-1e-09
-7.36036e-16
-6.99528e-16
-1e-09
-4.92723e-16
-7.7601e-16
-1e-09
-2.52648e-16
-8.58695e-16
-1e-09
-9.22935e-16
-1e-09
-2.80654e-16
-6.8313e-16
-9.99999e-10
-5.54702e-16
-6.89282e-16
-9.99999e-10
-7.71655e-16
-6.62214e-16
-9.99999e-10
-9.01274e-16
-6.40514e-16
-1e-09
-1.0575e-15
-6.35795e-16
-1e-09
-9.51115e-16
-6.00267e-16
-1e-09
-7.96897e-16
-6.39197e-16
-1e-09
-5.68814e-16
-6.91278e-16
-1e-09
-3.14463e-16
-7.36143e-16
-1e-09
-7.5719e-16
-1e-09
-2.83208e-16
-4.82643e-16
-9.99999e-10
-5.29314e-16
-4.73746e-16
-9.99999e-10
-7.52863e-16
-4.66827e-16
-1e-09
-9.12767e-16
-4.66026e-16
-1e-09
-9.99749e-16
-4.64333e-16
-1e-09
-1.0014e-15
-4.73573e-16
-1e-09
-8.4937e-16
-4.8563e-16
-1e-09
-6.16048e-16
-5.15223e-16
-1e-09
-3.37648e-16
-5.30701e-16
-1e-09
-5.26506e-16
-1e-09
-2.7209e-16
-2.48695e-16
-9.99999e-10
-5.22154e-16
-2.44099e-16
-1e-09
-7.51132e-16
-2.51391e-16
-1e-09
-9.19736e-16
-2.58328e-16
-1e-09
-1.00576e-15
-2.72194e-16
-1e-09
-1.01677e-15
-2.73384e-16
-1e-09
-8.77235e-16
-2.70082e-16
-1e-09
-6.31742e-16
-2.73972e-16
-1e-09
-3.33851e-16
-2.71434e-16
-1e-09
-2.30308e-16
-1e-09
-2.66638e-16
-1e-09
-5.27771e-16
-1e-09
-7.55809e-16
-1e-09
-9.34057e-16
-1e-09
-1.00149e-15
-1e-09
-1.01283e-15
-1e-09
-8.7888e-16
-1e-09
-6.28062e-16
-1e-09
-2.92338e-16
-1e-09
-1e-09
-4.23399e-16
-3.35694e-16
-9.99996e-10
-8.44386e-16
-3.42944e-16
-9.99996e-10
-1.19106e-15
-3.51748e-16
-9.99997e-10
-1.4384e-15
-3.73595e-16
-9.99997e-10
-1.56525e-15
-4.29692e-16
-9.99998e-10
-1.57713e-15
-4.47662e-16
-9.99998e-10
-1.297e-15
-4.02419e-16
-9.99999e-10
-8.874e-16
-3.55621e-16
-1e-09
-4.32614e-16
-3.21604e-16
-1e-09
-2.98809e-16
-1e-09
-4.30794e-16
-6.79701e-16
-9.99996e-10
-8.57434e-16
-6.92044e-16
-9.99996e-10
-1.2179e-15
-7.1148e-16
-9.99997e-10
-1.50001e-15
-7.61122e-16
-9.99997e-10
-1.58859e-15
-8.1385e-16
-9.99998e-10
-1.5381e-15
-8.13863e-16
-9.99999e-10
-1.2533e-15
-7.43682e-16
-9.99999e-10
-8.55363e-16
-6.76125e-16
-1e-09
-4.102e-16
-6.43242e-16
-1e-09
-6.3605e-16
-1e-09
-4.39889e-16
-9.72712e-16
-9.99996e-10
-8.77226e-16
-9.91964e-16
-9.99997e-10
-1.26725e-15
-1.00253e-15
-9.99997e-10
-1.55022e-15
-1.02251e-15
-9.99998e-10
-1.58483e-15
-1.06043e-15
-9.99998e-10
-1.46829e-15
-9.92364e-16
-9.99999e-10
-1.18268e-15
-9.66653e-16
-1e-09
-8.22128e-16
-9.35318e-16
-1e-09
-4.04706e-16
-8.99081e-16
-1e-09
-9.21479e-16
-1e-09
-4.55266e-16
-1.1762e-15
-9.99997e-10
-8.88134e-16
-1.19694e-15
-9.99997e-10
-1.28732e-15
-1.18382e-15
-9.99998e-10
-1.58644e-15
-1.18241e-15
-9.99998e-10
-1.49806e-15
-1.26676e-15
-9.99999e-10
-1.44843e-15
-9.62888e-16
-9.99999e-10
-1.14745e-15
-1.02242e-15
-1e-09
-7.86647e-16
-1.06654e-15
-1e-09
-4.30358e-16
-1.09408e-15
-1e-09
-1.10272e-15
-1e-09
-4.71385e-16
-1.25662e-15
-9.99998e-10
-8.74935e-16
-1.25122e-15
-9.99998e-10
-1.28604e-15
-1.23453e-15
-9.99998e-10
-1.6717e-15
-1.11564e-15
-9.99999e-10
-1.24408e-15
-8.09038e-16
-9.99999e-10
-1.50918e-15
-1.44331e-15
-1e-09
-1.17113e-15
-1.28449e-15
-1e-09
-8.05255e-16
-1.23469e-15
-1e-09
-4.3891e-16
-1.23295e-15
-1e-09
-1.21593e-15
-1e-09
-4.60702e-16
-1.22149e-15
-9.99998e-10
-8.61278e-16
-1.2113e-15
-9.99998e-10
-1.18514e-15
-1.16849e-15
-9.99999e-10
-1.31214e-15
-1.14587e-15
-9.99999e-10
-1.87617e-15
-1.16027e-15
-1e-09
-1.32907e-15
-9.24212e-16
-1e-09
-1.15006e-15
-1.04788e-15
-1e-09
-8.05752e-16
-1.15467e-15
-1e-09
-4.27437e-16
-1.2432e-15
-1e-09
-1.29016e-15
-1e-09
-4.44392e-16
-1.0089e-15
-9.99999e-10
-8.16322e-16
-9.95807e-16
-9.99999e-10
-1.15462e-15
-9.74494e-16
-9.99999e-10
-1.33395e-15
-9.59395e-16
-1e-09
-1.66751e-15
-9.50024e-16
-1e-09
-1.45063e-15
-8.82049e-16
-1e-09
-1.23636e-15
-9.23243e-16
-1e-09
-8.90574e-16
-9.82974e-16
-1e-09
-4.75666e-16
-1.02595e-15
-1e-09
-1.03946e-15
-1e-09
-4.26775e-16
-7.12359e-16
-9.99999e-10
-7.97322e-16
-7.0556e-16
-9.99999e-10
-1.1431e-15
-7.05263e-16
-1e-09
-1.35039e-15
-7.05792e-16
-1e-09
-1.57099e-15
-7.19055e-16
-1e-09
-1.50557e-15
-6.85272e-16
-1e-09
-1.29663e-15
-6.99571e-16
-1e-09
-9.35638e-16
-7.13994e-16
-1e-09
-4.91592e-16
-7.11444e-16
-1e-09
-6.86203e-16
-1e-09
-4.17267e-16
-3.6755e-16
-9.99999e-10
-7.96983e-16
-3.67038e-16
-1e-09
-1.1425e-15
-3.84164e-16
-1e-09
-1.3729e-15
-3.83717e-16
-1e-09
-1.53461e-15
-3.96453e-16
-1e-09
-1.52078e-15
-3.76329e-16
-1e-09
-1.30953e-15
-3.77041e-16
-1e-09
-9.33239e-16
-3.65221e-16
-1e-09
-4.6767e-16
-3.41177e-16
-1e-09
-3.09642e-16
-1e-09
-4.15233e-16
-9.99999e-10
-8.12283e-16
-1e-09
-1.13886e-15
-1e-09
-1.38604e-15
-1e-09
-1.50825e-15
-1e-09
-1.51764e-15
-1e-09
-1.29463e-15
-1e-09
-9.06866e-16
-1e-09
-4.35709e-16
-1e-09
-1e-09
-6.30541e-16
-5.10459e-16
-9.99995e-10
-1.23592e-15
-5.22085e-16
-9.99995e-10
-1.74473e-15
-5.37187e-16
-9.99996e-10
-2.07128e-15
-5.58633e-16
-9.99996e-10
-2.21014e-15
-6.12813e-16
-9.99997e-10
-2.18207e-15
-6.32939e-16
-9.99998e-10
-1.78722e-15
-5.59055e-16
-9.99999e-10
-1.26779e-15
-5.21545e-16
-1e-09
-6.53523e-16
-4.99757e-16
-1e-09
-4.9746e-16
-1e-09
-6.42281e-16
-1.02736e-15
-9.99995e-10
-1.25725e-15
-1.04363e-15
-9.99995e-10
-1.77332e-15
-1.06193e-15
-9.99996e-10
-2.1354e-15
-1.09669e-15
-9.99997e-10
-2.23632e-15
-1.12831e-15
-9.99997e-10
-2.11531e-15
-1.16625e-15
-9.99998e-10
-1.75311e-15
-1.08043e-15
-9.99999e-10
-1.24865e-15
-1.03165e-15
-1e-09
-6.52494e-16
-1.0205e-15
-1e-09
-1.02503e-15
-1e-09
-6.52795e-16
-1.47075e-15
-9.99995e-10
-1.27561e-15
-1.47549e-15
-9.99996e-10
-1.80757e-15
-1.45589e-15
-9.99996e-10
-2.16812e-15
-1.44902e-15
-9.99997e-10
-2.26813e-15
-1.45416e-15
-9.99998e-10
-2.0332e-15
-1.4889e-15
-9.99999e-10
-1.70168e-15
-1.4525e-15
-9.99999e-10
-1.23744e-15
-1.44149e-15
-1e-09
-6.5966e-16
-1.42544e-15
-1e-09
-1.42832e-15
-1e-09
-6.51832e-16
-1.76162e-15
-9.99996e-10
-1.25623e-15
-1.74461e-15
-9.99996e-10
-1.80079e-15
-1.67462e-15
-9.99997e-10
-2.17726e-15
-1.63108e-15
-9.99997e-10
-2.27603e-15
-1.68515e-15
-9.99998e-10
-1.99762e-15
-1.63965e-15
-9.99999e-10
-1.68754e-15
-1.65382e-15
-1e-09
-1.22286e-15
-1.68675e-15
-1e-09
-6.67194e-16
-1.70515e-15
-1e-09
-1.69707e-15
-1e-09
-6.29429e-16
-1.78931e-15
-9.99997e-10
-1.18654e-15
-1.79684e-15
-9.99997e-10
-1.75443e-15
-1.81018e-15
-9.99997e-10
-2.23e-15
-1.76944e-15
-9.99998e-10
-2.28838e-15
-1.70939e-15
-9.99999e-10
-2.01132e-15
-1.61796e-15
-1e-09
-1.70331e-15
-1.73756e-15
-1e-09
-1.23273e-15
-1.77054e-15
-1e-09
-6.59333e-16
-1.76533e-15
-1e-09
-1.74994e-15
-1e-09
-6.31216e-16
-1.68637e-15
-9.99997e-10
-1.20426e-15
-1.6711e-15
-9.99998e-10
-1.73829e-15
-1.63851e-15
-9.99998e-10
-2.10191e-15
-1.58059e-15
-9.99999e-10
-2.19805e-15
-1.48654e-15
-1e-09
-2.10408e-15
-1.50325e-15
-1e-09
-1.75623e-15
-1.53412e-15
-1e-09
-1.22859e-15
-1.59333e-15
-1e-09
-6.49542e-16
-1.65499e-15
-1e-09
-1.67574e-15
-1e-09
-6.0836e-16
-1.40662e-15
-9.99998e-10
-1.16946e-15
-1.41321e-15
-9.99998e-10
-1.67966e-15
-1.40309e-15
-9.99999e-10
-2.0126e-15
-1.3667e-15
-1e-09
-2.2485e-15
-1.28861e-15
-1e-09
-2.13628e-15
-1.28136e-15
-1e-09
-1.79821e-15
-1.29354e-15
-1e-09
-1.29009e-15
-1.33085e-15
-1e-09
-6.75733e-16
-1.35871e-15
-1e-09
-1.35729e-15
-1e-09
-6.10091e-16
-1.01836e-15
-9.99999e-10
-1.16173e-15
-1.01901e-15
-9.99999e-10
-1.64653e-15
-1.01433e-15
-9.99999e-10
-1.95585e-15
-1.0002e-15
-1e-09
-2.22263e-15
-9.7497e-16
-1e-09
-2.1596e-15
-9.37595e-16
-1e-09
-1.83563e-15
-9.53423e-16
-1e-09
-1.31972e-15
-9.47272e-16
-1e-09
-6.78057e-16
-9.39098e-16
-1e-09
-9.12521e-16
-1e-09
-6.07557e-16
-5.25578e-16
-9.99999e-10
-1.1567e-15
-5.26195e-16
-9.99999e-10
-1.6309e-15
-5.34824e-16
-1e-09
-1.93922e-15
-5.24858e-16
-1e-09
-2.18485e-15
-5.26512e-16
-1e-09
-2.1741e-15
-4.99541e-16
-1e-09
-1.82775e-15
-5.00835e-16
-1e-09
-1.31139e-15
-4.91477e-16
-1e-09
-6.53825e-16
-4.6023e-16
-1e-09
-4.71057e-16
-1e-09
-6.07102e-16
-9.99999e-10
-1.1624e-15
-1e-09
-1.61664e-15
-1e-09
-1.94002e-15
-1e-09
-2.15098e-15
-1e-09
-2.16759e-15
-1e-09
-1.81378e-15
-1e-09
-1.27666e-15
-1e-09
-6.6394e-16
-1e-09
-1e-09
-9.01452e-16
-7.43322e-16
-9.99993e-10
-1.76006e-15
-7.58657e-16
-9.99994e-10
-2.44564e-15
-7.6362e-16
-9.99994e-10
-2.87381e-15
-7.78873e-16
-9.99995e-10
-3.05804e-15
-8.22395e-16
-9.99996e-10
-2.99698e-15
-8.23146e-16
-9.99997e-10
-2.48272e-15
-7.62066e-16
-9.99999e-10
-1.8124e-15
-7.58042e-16
-1e-09
-9.70108e-16
-7.56177e-16
-1e-09
-7.63912e-16
-1e-09
-9.171e-16
-1.47341e-15
-9.99993e-10
-1.77185e-15
-1.47851e-15
-9.99994e-10
-2.46856e-15
-1.48206e-15
-9.99995e-10
-2.92868e-15
-1.49461e-15
-9.99995e-10
-3.0667e-15
-1.51091e-15
-9.99997e-10
-2.94299e-15
-1.54605e-15
-9.99998e-10
-2.48384e-15
-1.49555e-15
-9.99999e-10
-1.815e-15
-1.47704e-15
-1e-09
-9.81044e-16
-1.47708e-15
-1e-09
-1.47363e-15
-1e-09
-9.15936e-16
-2.06713e-15
-9.99994e-10
-1.7754e-15
-2.05688e-15
-9.99994e-10
-2.48051e-15
-2.01323e-15
-9.99995e-10
-2.94653e-15
-2.00045e-15
-9.99996e-10
-3.09781e-15
-2.00193e-15
-9.99997e-10
-2.89538e-15
-2.05342e-15
-9.99998e-10
-2.46343e-15
-2.04388e-15
-9.99999e-10
-1.81553e-15
-2.04237e-15
-1e-09
-9.81528e-16
-2.03444e-15
-1e-09
-2.00661e-15
-1e-09
-8.99463e-16
-2.4449e-15
-9.99995e-10
-1.73212e-15
-2.40261e-15
-9.99995e-10
-2.46777e-15
-2.3143e-15
-9.99996e-10
-2.95013e-15
-2.27765e-15
-9.99997e-10
-3.11829e-15
-2.27573e-15
-9.99998e-10
-2.88507e-15
-2.41222e-15
-9.99999e-10
-2.46015e-15
-2.41091e-15
-1e-09
-1.80977e-15
-2.40383e-15
-1e-09
-9.59489e-16
-2.38969e-15
-1e-09
-2.36272e-15
-1e-09
-8.49516e-16
-2.48261e-15
-9.99996e-10
-1.6457e-15
-2.47344e-15
-9.99996e-10
-2.43068e-15
-2.48176e-15
-9.99997e-10
-2.94612e-15
-2.45415e-15
-9.99998e-10
-3.29194e-15
-2.56448e-15
-9.99999e-10
-2.86679e-15
-2.1939e-15
-1e-09
-2.43233e-15
-2.33523e-15
-1e-09
-1.7888e-15
-2.40856e-15
-1e-09
-9.3438e-16
-2.41549e-15
-1e-09
-2.42654e-15
-1e-09
-8.33899e-16
-2.32762e-15
-9.99997e-10
-1.65733e-15
-2.3585e-15
-9.99997e-10
-2.43357e-15
-2.35812e-15
-9.99998e-10
-3.00812e-15
-2.29184e-15
-9.99999e-10
-2.92699e-15
-2.14517e-15
-9.99999e-10
-2.97567e-15
-2.18753e-15
-1e-09
-2.52032e-15
-2.19626e-15
-1e-09
-1.79718e-15
-2.22721e-15
-1e-09
-9.53673e-16
-2.24712e-15
-1e-09
-2.23817e-15
-1e-09
-8.56822e-16
-1.97714e-15
-9.99998e-10
-1.65516e-15
-1.9852e-15
-9.99998e-10
-2.37036e-15
-1.97852e-15
-9.99999e-10
-2.88182e-15
-1.92196e-15
-1e-09
-2.99996e-15
-1.78798e-15
-1e-09
-2.98606e-15
-1.83357e-15
-1e-09
-2.53584e-15
-1.84388e-15
-1e-09
-1.81657e-15
-1.8478e-15
-1e-09
-9.52516e-16
-1.85237e-15
-1e-09
-1.84439e-15
-1.00001e-09
-8.59512e-16
-1.42315e-15
-9.99998e-10
-1.64998e-15
-1.42325e-15
-9.99999e-10
-2.31532e-15
-1.4196e-15
-9.99999e-10
-2.77043e-15
-1.39336e-15
-1e-09
-3.03025e-15
-1.33928e-15
-1e-09
-3.01178e-15
-1.32591e-15
-1e-09
-2.53974e-15
-1.33285e-15
-1e-09
-1.82328e-15
-1.31251e-15
-1e-09
-9.49899e-16
-1.31409e-15
-1.00001e-09
-1.30497e-15
-1.00001e-09
-8.55688e-16
-7.36585e-16
-9.99999e-10
-1.64553e-15
-7.42038e-16
-9.99999e-10
-2.28744e-15
-7.34725e-16
-1e-09
-2.72347e-15
-7.28644e-16
-1e-09
-3.01531e-15
-7.25072e-16
-1e-09
-3.01897e-15
-7.152e-16
-1e-09
-2.51705e-15
-7.09222e-16
-1e-09
-1.82469e-15
-7.03298e-16
-1.00001e-09
-9.43734e-16
-6.85332e-16
-1.00001e-09
-7.34156e-16
-1.00001e-09
-8.58899e-16
-9.99999e-10
-1.6341e-15
-1e-09
-2.27613e-15
-1e-09
-2.7176e-15
-1e-09
-2.99582e-15
-1e-09
-3.00273e-15
-1e-09
-2.50382e-15
-1e-09
-1.80243e-15
-1.00001e-09
-9.91844e-16
-1.00001e-09
-1.00001e-09
-1.28936e-15
-1.06822e-15
-9.99991e-10
-2.4475e-15
-1.06236e-15
-9.99991e-10
-3.36378e-15
-1.05354e-15
-9.99992e-10
-3.94157e-15
-1.059e-15
-9.99994e-10
-4.21594e-15
-1.07335e-15
-9.99995e-10
-4.09824e-15
-1.05892e-15
-9.99997e-10
-3.4633e-15
-1.04192e-15
-9.99998e-10
-2.55604e-15
-1.06567e-15
-1e-09
-1.37575e-15
-1.07564e-15
-1e-09
-1.0666e-15
-1e-09
-1.28408e-15
-2.03164e-15
-9.99991e-10
-2.44579e-15
-2.02373e-15
-9.99992e-10
-3.37761e-15
-2.01185e-15
-9.99993e-10
-3.96834e-15
-2.00141e-15
-9.99994e-10
-4.21255e-15
-2.01154e-15
-9.99995e-10
-4.08884e-15
-2.0103e-15
-9.99997e-10
-3.49535e-15
-2.01428e-15
-9.99999e-10
-2.57295e-15
-2.01759e-15
-1e-09
-1.37234e-15
-2.00758e-15
-1e-09
-1.9958e-15
-1e-09
-1.27e-15
-2.80906e-15
-9.99992e-10
-2.43414e-15
-2.7896e-15
-9.99993e-10
-3.36688e-15
-2.74616e-15
-9.99993e-10
-3.97802e-15
-2.74275e-15
-9.99995e-10
-4.21105e-15
-2.76325e-15
-9.99996e-10
-4.09169e-15
-2.70817e-15
-9.99998e-10
-3.4986e-15
-2.75177e-15
-9.99999e-10
-2.56404e-15
-2.75042e-15
-1e-09
-1.36593e-15
-2.75283e-15
-1e-09
-2.72045e-15
-1e-09
-1.24364e-15
-3.29525e-15
-9.99993e-10
-2.3914e-15
-3.25985e-15
-9.99994e-10
-3.36325e-15
-3.21237e-15
-9.99994e-10
-3.99672e-15
-3.21604e-15
-9.99996e-10
-4.13134e-15
-3.21516e-15
-9.99997e-10
-4.12644e-15
-3.18034e-15
-9.99999e-10
-3.49727e-15
-3.2007e-15
-1e-09
-2.56838e-15
-3.20413e-15
-1e-09
-1.34077e-15
-3.20312e-15
-1e-09
-3.19033e-15
-1e-09
-1.19818e-15
-3.4171e-15
-9.99994e-10
-2.3459e-15
-3.39741e-15
-9.99995e-10
-3.37239e-15
-3.36962e-15
-9.99996e-10
-3.99454e-15
-3.26564e-15
-9.99997e-10
-4.11919e-15
-3.23127e-15
-9.99998e-10
-4.11365e-15
-3.45667e-15
-1e-09
-3.47755e-15
-3.33259e-15
-1e-09
-2.56085e-15
-3.31871e-15
-1e-09
-1.33222e-15
-3.30847e-15
-1e-09
-3.33488e-15
-1e-09
-1.17042e-15
-3.22631e-15
-9.99996e-10
-2.3189e-15
-3.27327e-15
-9.99996e-10
-3.2948e-15
-3.2917e-15
-9.99997e-10
-3.9322e-15
-3.26662e-15
-9.99998e-10
-4.34815e-15
-3.20571e-15
-1e-09
-3.9861e-15
-3.04202e-15
-1e-09
-3.46877e-15
-3.11046e-15
-1e-09
-2.55234e-15
-3.15762e-15
-1e-09
-1.36897e-15
-3.14093e-15
-1.00001e-09
-3.11201e-15
-1.00001e-09
-1.21044e-15
-2.74168e-15
-9.99997e-10
-2.33755e-15
-2.74433e-15
-9.99997e-10
-3.27778e-15
-2.73741e-15
-9.99998e-10
-3.90012e-15
-2.69079e-15
-1e-09
-4.19363e-15
-2.61748e-15
-1e-09
-4.05751e-15
-2.59369e-15
-1e-09
-3.4973e-15
-2.63915e-15
-1e-09
-2.53367e-15
-2.62933e-15
-1.00001e-09
-1.34948e-15
-2.61867e-15
-1.00001e-09
-2.6067e-15
-1.00001e-09
-1.20554e-15
-1.96413e-15
-9.99998e-10
-2.33015e-15
-1.97031e-15
-9.99998e-10
-3.23084e-15
-1.96315e-15
-9.99999e-10
-3.85059e-15
-1.94682e-15
-1e-09
-4.16213e-15
-1.91652e-15
-1e-09
-4.12069e-15
-1.90658e-15
-1e-09
-3.48753e-15
-1.90444e-15
-1.00001e-09
-2.52588e-15
-1.88498e-15
-1.00001e-09
-1.34453e-15
-1.8937e-15
-1.00001e-09
-1.90357e-15
-1.00001e-09
-1.20624e-15
-1.02954e-15
-9.99999e-10
-2.32204e-15
-1.03359e-15
-9.99999e-10
-3.2133e-15
-1.01884e-15
-1e-09
-3.82666e-15
-1.02699e-15
-1e-09
-4.14984e-15
-1.02852e-15
-1e-09
-4.12043e-15
-1.03836e-15
-1e-09
-3.4648e-15
-1.02425e-15
-1.00001e-09
-2.53419e-15
-1.01935e-15
-1.00001e-09
-1.35805e-15
-1.02554e-15
-1.00001e-09
-1.07403e-15
-1.00001e-09
-1.20624e-15
-9.99999e-10
-2.30183e-15
-1e-09
-3.21477e-15
-1e-09
-3.8236e-15
-1e-09
-4.1469e-15
-1e-09
-4.09525e-15
-1e-09
-3.44944e-15
-1.00001e-09
-2.53508e-15
-1.00001e-09
-1.40584e-15
-1.00001e-09
-1.00001e-09
-1.80629e-15
-1.48859e-15
-9.99988e-10
-3.37479e-15
-1.47024e-15
-9.99988e-10
-4.61684e-15
-1.44931e-15
-9.9999e-10
-5.41537e-15
-1.43483e-15
-9.99991e-10
-5.78675e-15
-1.41927e-15
-9.99993e-10
-5.58627e-15
-1.41755e-15
-9.99996e-10
-4.78677e-15
-1.42998e-15
-9.99998e-10
-3.51491e-15
-1.45448e-15
-9.99999e-10
-1.85979e-15
-1.4551e-15
-1e-09
-1.42759e-15
-1e-09
-1.78848e-15
-2.77149e-15
-9.99988e-10
-3.36249e-15
-2.7542e-15
-9.99989e-10
-4.61337e-15
-2.72843e-15
-9.9999e-10
-5.41448e-15
-2.69886e-15
-9.99992e-10
-5.79994e-15
-2.69171e-15
-9.99994e-10
-5.60891e-15
-2.6794e-15
-9.99996e-10
-4.82341e-15
-2.70269e-15
-9.99998e-10
-3.52493e-15
-2.70683e-15
-1e-09
-1.83978e-15
-2.69636e-15
-1e-09
-2.69874e-15
-1e-09
-1.76399e-15
-3.80279e-15
-9.99989e-10
-3.33716e-15
-3.7814e-15
-9.9999e-10
-4.58448e-15
-3.75024e-15
-9.99991e-10
-5.40572e-15
-3.73501e-15
-9.99993e-10
-5.78766e-15
-3.73792e-15
-9.99995e-10
-5.62954e-15
-3.63449e-15
-9.99997e-10
-4.8288e-15
-3.68791e-15
-9.99999e-10
-3.51581e-15
-3.69918e-15
-1e-09
-1.84945e-15
-3.72514e-15
-1e-09
-3.71711e-15
-1e-09
-1.73381e-15
-4.45407e-15
-9.99991e-10
-3.30591e-15
-4.44224e-15
-9.99991e-10
-4.56965e-15
-4.43536e-15
-9.99993e-10
-5.39649e-15
-4.43812e-15
-9.99994e-10
-5.6631e-15
-4.45263e-15
-9.99996e-10
-5.67215e-15
-4.19912e-15
-9.99999e-10
-4.84018e-15
-4.24076e-15
-1e-09
-3.543e-15
-4.29395e-15
-1e-09
-1.85104e-15
-4.34487e-15
-1e-09
-4.36029e-15
-1e-09
-1.70948e-15
-4.68102e-15
-9.99992e-10
-3.30019e-15
-4.6799e-15
-9.99993e-10
-4.58501e-15
-4.64932e-15
-9.99994e-10
-5.41143e-15
-4.53137e-15
-9.99996e-10
-5.39912e-15
-4.28524e-15
-9.99998e-10
-5.66882e-15
-4.94902e-15
-1e-09
-4.8806e-15
-4.71951e-15
-1e-09
-3.58909e-15
-4.61744e-15
-1e-09
-1.87384e-15
-4.58225e-15
-1.00001e-09
-4.59868e-15
-1.00001e-09
-1.69765e-15
-4.42999e-15
-9.99994e-10
-3.27109e-15
-4.44701e-15
-9.99995e-10
-4.4885e-15
-4.45285e-15
-9.99996e-10
-5.16911e-15
-4.46435e-15
-9.99998e-10
-6.0681e-15
-4.52201e-15
-1e-09
-5.43724e-15
-4.30834e-15
-1e-09
-4.76553e-15
-4.3963e-15
-1e-09
-3.55446e-15
-4.43736e-15
-1.00001e-09
-1.90217e-15
-4.38166e-15
-1.00001e-09
-4.35017e-15
-1.00001e-09
-1.70539e-15
-3.75615e-15
-9.99996e-10
-3.2786e-15
-3.76242e-15
-9.99996e-10
-4.51088e-15
-3.74827e-15
-9.99998e-10
-5.26686e-15
-3.73732e-15
-9.99999e-10
-5.86012e-15
-3.78196e-15
-1e-09
-5.53389e-15
-3.67502e-15
-1e-09
-4.79284e-15
-3.73241e-15
-1.00001e-09
-3.49766e-15
-3.70695e-15
-1.00001e-09
-1.88288e-15
-3.70175e-15
-1.00001e-09
-3.67799e-15
-1.00001e-09
-1.70148e-15
-2.71108e-15
-9.99997e-10
-3.26259e-15
-2.71571e-15
-9.99998e-10
-4.49923e-15
-2.70348e-15
-9.99999e-10
-5.32201e-15
-2.71406e-15
-1e-09
-5.76588e-15
-2.72914e-15
-1e-09
-5.60377e-15
-2.70264e-15
-1.00001e-09
-4.76772e-15
-2.6872e-15
-1.00001e-09
-3.49507e-15
-2.68503e-15
-1.00001e-09
-1.86826e-15
-2.68508e-15
-1.00001e-09
-2.7029e-15
-1.00001e-09
-1.69905e-15
-1.42856e-15
-9.99998e-10
-3.24952e-15
-1.42327e-15
-9.99999e-10
-4.50945e-15
-1.4235e-15
-1e-09
-5.34124e-15
-1.44008e-15
-1e-09
-5.73914e-15
-1.44733e-15
-1e-09
-5.59011e-15
-1.45503e-15
-1.00001e-09
-4.76169e-15
-1.4424e-15
-1.00001e-09
-3.49451e-15
-1.43876e-15
-1.00001e-09
-1.89142e-15
-1.46134e-15
-1.00001e-09
-1.4758e-15
-1.00001e-09
-1.68784e-15
-9.99999e-10
-3.24225e-15
-9.99999e-10
-4.51591e-15
-1e-09
-5.33792e-15
-1e-09
-5.73114e-15
-1e-09
-5.56498e-15
-1.00001e-09
-4.74494e-15
-1.00001e-09
-3.50997e-15
-1.00001e-09
-1.90496e-15
-1.00001e-09
-1.00001e-09
-2.49972e-15
-2.04807e-15
-9.99983e-10
-4.63107e-15
-2.01802e-15
-9.99984e-10
-6.34535e-15
-1.98886e-15
-9.99986e-10
-7.48673e-15
-1.95986e-15
-9.99988e-10
-7.92188e-15
-1.93459e-15
-9.99991e-10
-7.58781e-15
-1.94848e-15
-9.99994e-10
-6.51262e-15
-1.95092e-15
-9.99997e-10
-4.74206e-15
-1.96078e-15
-9.99999e-10
-2.47863e-15
-1.95439e-15
-1e-09
-1.93459e-15
-1e-09
-2.47019e-15
-3.77906e-15
-9.99984e-10
-4.61352e-15
-3.75388e-15
-9.99985e-10
-6.33109e-15
-3.72266e-15
-9.99986e-10
-7.48051e-15
-3.69157e-15
-9.99989e-10
-7.95516e-15
-3.64604e-15
-9.99992e-10
-7.60606e-15
-3.64536e-15
-9.99995e-10
-6.53866e-15
-3.66558e-15
-9.99998e-10
-4.74797e-15
-3.67362e-15
-1e-09
-2.46924e-15
-3.69141e-15
-1e-09
-3.71335e-15
-1e-09
-2.43529e-15
-5.17199e-15
-9.99985e-10
-4.58272e-15
-5.16251e-15
-9.99986e-10
-6.30097e-15
-5.14587e-15
-9.99988e-10
-7.43488e-15
-5.09812e-15
-9.9999e-10
-7.95391e-15
-5.01853e-15
-9.99993e-10
-7.62493e-15
-5.00073e-15
-9.99996e-10
-6.54807e-15
-5.03457e-15
-9.99999e-10
-4.76731e-15
-5.07931e-15
-1e-09
-2.50089e-15
-5.12573e-15
-1e-09
-5.13559e-15
-1e-09
-2.41364e-15
-6.08083e-15
-9.99987e-10
-4.56552e-15
-6.09606e-15
-9.99988e-10
-6.25423e-15
-6.09661e-15
-9.9999e-10
-7.34418e-15
-6.02749e-15
-9.99992e-10
-7.91837e-15
-5.96884e-15
-9.99995e-10
-7.64772e-15
-5.82256e-15
-9.99998e-10
-6.59352e-15
-5.85887e-15
-1e-09
-4.81491e-15
-5.94836e-15
-1e-09
-2.52342e-15
-6.01859e-15
-1.00001e-09
-6.0368e-15
-1.00001e-09
-2.41252e-15
-6.39694e-15
-9.99989e-10
-4.56488e-15
-6.41722e-15
-9.9999e-10
-6.19599e-15
-6.41301e-15
-9.99992e-10
-7.2817e-15
-6.40488e-15
-9.99995e-10
-7.74928e-15
-6.26121e-15
-9.99997e-10
-7.62064e-15
-6.41136e-15
-1e-09
-6.67062e-15
-6.42796e-15
-1e-09
-4.88247e-15
-6.36231e-15
-1.00001e-09
-2.55424e-15
-6.34393e-15
-1.00001e-09
-6.33922e-15
-1.00001e-09
-2.41835e-15
-6.05582e-15
-9.99992e-10
-4.56284e-15
-6.03881e-15
-9.99993e-10
-6.20487e-15
-6.02004e-15
-9.99995e-10
-7.14878e-15
-6.0341e-15
-9.99997e-10
-7.90649e-15
-6.10551e-15
-1e-09
-7.61622e-15
-6.14815e-15
-1e-09
-6.58803e-15
-6.13662e-15
-1.00001e-09
-4.86238e-15
-6.10929e-15
-1.00001e-09
-2.56503e-15
-6.01871e-15
-1.00001e-09
-5.99518e-15
-1.00001e-09
-2.3883e-15
-5.14439e-15
-9.99994e-10
-4.54604e-15
-5.1496e-15
-9.99995e-10
-6.23195e-15
-5.1353e-15
-9.99997e-10
-7.2877e-15
-5.15758e-15
-9.99999e-10
-7.96837e-15
-5.24015e-15
-1e-09
-7.61504e-15
-5.1747e-15
-1.00001e-09
-6.54973e-15
-5.17201e-15
-1.00001e-09
-4.77244e-15
-5.11792e-15
-1.00001e-09
-2.55755e-15
-5.13154e-15
-1.00001e-09
-5.09492e-15
-1.00001e-09
-2.38085e-15
-3.73701e-15
-9.99996e-10
-4.53e-15
-3.73928e-15
-9.99997e-10
-6.25256e-15
-3.72581e-15
-9.99999e-10
-7.37976e-15
-3.75132e-15
-1e-09
-7.91968e-15
-3.76507e-15
-1e-09
-7.62476e-15
-3.74733e-15
-1.00001e-09
-6.49561e-15
-3.71035e-15
-1.00001e-09
-4.78824e-15