FoamFile
{version 2.0; format ascii;class vectorField; location 0;object  v;}
345
(
( 0.000868501 0.00195082 0.0050104 )  
( -0.00057032 0.0018309 0.00233128 )  
( 0.000152668 -0.000369393 0.00399807 )  
( 0.0012638 0.00195269 0.0030814 )  
( -0.00220896 -0.000665735 0.00501848 )  
( -0.000178324 -0.000690299 0.00535447 )  
( 0.000213381 0.000310016 0.00229715 )  
( -0.00414384 5.73329e-05 0.00398643 )  
( -0.0031332 -0.00207558 0.00271264 )  
( 0.00239539 -0.00152259 0.0044141 )  
( 0.000172277 -0.000725914 0.00272895 )  
( -0.00197915 0.00317706 0.0134549 )  
( 0.00165395 0.000954932 0.00406627 )  
( 0.00015527 0.00439983 0.00284905 )  
( -0.00204719 0.00346876 0.00264294 )  
( 0.00378653 0.00199011 0.00326659 )  
( -0.00125219 -0.00278162 0.00824387 )  
( -0.00157619 0.000289232 0.00347111 )  
( 0.000115914 0.00444851 0.00195022 )  
( -0.00419627 0.000343323 0.0174137 )  
( 0.000670509 -0.000495725 0.000231053 )  
( -0.00505535 -0.00137962 0.0187578 )  
( 0.00110343 -0.00262422 0.00244053 )  
( -0.00120386 0.00403587 0.0022677 )  
( 0.00304421 0.00060708 0.00299847 )  
( 0.000200306 -0.00191321 0.00699144 )  
( -0.00135346 -8.04056e-05 6.43573e-06 )  
( 0.00176705 -0.00141992 0.0131923 )  
( -0.00029148 0.00174283 0.00305698 )  
( 7.47811e-05 -0.00459471 0.013485 )  
( -0.00211713 0.00358055 0.0132079 )  
( 0.00328256 0.00100191 0.00805533 )  
( -0.000559193 0.00274735 0.0131672 )  
( 0.00152946 0.00267023 0.0301153 )  
( 0.00111634 0.00254642 0.00812954 )  
( -0.00743387 0.00040574 0.0178711 )  
( 0.00431981 0.00364249 0.0137713 )  
( 0.00492053 -0.00142433 0.0159436 )  
( 0.00137681 0.00208214 0.0227073 )  
( -0.00253549 0.00591399 0.0129238 )  
( -0.00340855 -0.00304936 0.0159717 )  
( 0.00295877 0.0061017 0.0112455 )  
( -0.00534407 0.00248519 0.0152606 )  
( 0.00304406 0.00283725 0.027827 )  
( -0.00257437 -0.00147658 0.0160002 )  
( 0.000622244 0.00410928 0.0249427 )  
( -0.00190277 -0.00557561 0.0111035 )  
( -0.00152923 -0.00273038 0.0177583 )  
( 0.00512083 -0.00208727 0.0269157 )  
( 0.00257663 0.000449273 0.0188413 )  
( -0.0025811 0.00212065 0.0131266 )  
( 0.00377016 0.00198213 0.0236811 )  
( -0.00308963 0.00281138 0.0291152 )  
( 0.00356847 -0.00267636 0.0332915 )  
( -0.00445918 -0.00262656 0.0198651 )  
( 0.000562042 -0.00159776 0.0120153 )  
( -0.00233325 0.002311 0.0249193 )  
( 0.00157955 -0.000712335 0.0191861 )  
( 0.00343445 0.000491662 0.020234 )  
( 0.00237659 0.00364847 0.014665 )  
( 0.00401363 -0.004753 0.00956216 )  
( 0.00143175 -0.00127213 0.0159231 )  
( 0.00405999 -0.00790436 0.0269992 )  
( 0.000105361 -0.000329967 0.0437708 )  
( 0.00219319 0.00284793 0.0402219 )  
( -0.000560271 0.00143077 0.030484 )  
( 0.000737348 -0.00434347 0.0117691 )  
( -0.000173406 -0.00234371 0.0263862 )  
( -0.00049058 -0.000344229 0.0321492 )  
( -0.00376299 -0.000540788 0.0360254 )  
( 0.00350337 -0.000513752 0.0365052 )  
( 0.0014699 0.000198677 0.0426919 )  
( 0.00288923 0.000615848 0.0212785 )  
( 0.000271031 0.00297205 0.0207513 )  
( 0.00417173 -0.000822856 0.0396408 )  
( 0.000196071 0.000918848 0.03525 )  
( 0.00289199 -0.00960863 0.0345765 )  
( 0.00219769 -0.00218162 0.0445982 )  
( 0.000305241 0.00105307 0.0285641 )  
( 6.34876e-05 -0.00444574 0.0364597 )  
( 0.00358194 -0.00751805 0.0453384 )  
( 0.0044964 0.00452879 0.0292016 )  
( 0.00378216 -0.00345453 0.0442062 )  
( 0.00232174 -0.00195486 0.0450723 )  
( -0.0081865 -0.0023007 0.0278604 )  
( 0.00121442 0.00482179 0.0409821 )  
( -0.00267454 -0.000681073 0.0336526 )  
( 0.00276827 -0.00565585 0.0414191 )  
( 0.000680816 -0.0046268 0.0477101 )  
( 0.00692786 -0.00473859 0.0366653 )  
( -0.00359556 0.00451318 0.0391141 )  
( 0.000180019 -0.0070839 0.0483422 )  
( -0.000336723 -0.00345327 0.0453526 )  
( 0.00172492 -0.00650084 0.0452913 )  
( 0.00103606 -0.00582149 0.0568849 )  
( 0.00228406 -0.00029267 0.0426004 )  
( -0.000431522 -0.00326606 0.0417068 )  
( -0.00478342 0.000517551 0.0442388 )  
( -0.00260449 -0.00229572 0.048687 )  
( -0.000459551 0.0111557 0.036611 )  
( -0.000436694 0.000996994 0.0344889 )  
( 0.000782189 -0.0062764 0.043368 )  
( 0.000405769 -0.00318615 0.0506973 )  
( 0.00404264 -0.00450356 0.0499637 )  
( 0.00774475 -0.00204274 0.0606199 )  
( -0.00500237 -0.000152574 0.0627979 )  
( 0.00317526 0.000542435 0.0696691 )  
( 0.00590769 -0.00415755 0.064592 )  
( 0.00418068 -0.0063367 0.0589519 )  
( 0.00192187 0.0028904 0.0546139 )  
( 0.0049894 -0.00725258 0.0520362 )  
( 0.0050449 -0.0082449 0.0595686 )  
( 0.00719657 -0.00533365 0.052671 )  
( -0.000428158 -0.00337689 0.0698095 )  
( 0.00368395 -0.000366643 0.0636911 )  
( 0.00368501 -0.00038211 0.0595133 )  
( 0.00582517 0.00224892 0.0649132 )  
( 0.00507917 -0.00609251 0.0611861 )  
( 0.000425284 -0.000566376 0.0623193 )  
( -0.000686274 0.00189423 0.0541707 )  
( 0.000205708 -0.00755756 0.0627694 )  
( -0.000165505 -0.00156199 0.0774887 )  
( 0.00520391 0.00198132 0.0680984 )  
( 0.00253021 -0.00633788 0.0656599 )  
( 0.00229462 0.00186893 0.0724354 )  
( 0.00638818 -0.00303978 0.0666391 )  
( -0.0043667 0.00190322 0.0798612 )  
( 0.00463873 0.00190117 0.0745352 )  
( 0.00385874 -0.00386874 0.0748718 )  
( 0.00028184 0.00396268 0.0666217 )  
( 0.00399972 -0.000998171 0.0786014 )  
( -0.00336562 -0.0113034 0.0785042 )  
( -0.00368173 0.00241188 0.0711509 )  
( -5.72464e-05 0.00347662 0.0592554 )  
( -0.000101511 -0.00858677 0.0854308 )  
( -0.00402432 -0.00205644 0.0822333 )  
( 0.00457526 -0.00555845 0.0792303 )  
( 0.00040339 -0.000879844 0.078735 )  
( 0.00173514 -0.00836137 0.065891 )  
( -0.000984718 -0.00682444 0.0727669 )  
( 0.0008927 -0.00126363 0.0759544 )  
( 0.00215575 -0.00318203 0.0855167 )  
( 0.00447351 -0.00298888 0.0888911 )  
( 0.0011921 -0.00706443 0.0757172 )  
( 0.0106168 -0.00538881 0.0906006 )  
( 0.00417104 -0.00298134 0.085374 )  
( 0.00285761 -0.0102043 0.0906878 )  
( -0.000325465 -0.00771937 0.0878978 )  
( -0.000554358 -0.00867283 0.0864062 )  
( 0.00807005 -0.00420002 0.0760519 )  
( 0.00107698 -0.00326146 0.0704362 )  
( -0.00444927 -0.0113308 0.0941792 )  
( -0.00426565 -0.00305114 0.0920126 )  
( 0.00343627 -0.00531159 0.0928567 )  
( -0.00671197 -0.00240669 0.0834602 )  
( -0.00350504 0.000438319 0.093107 )  
( -0.00148714 -0.00118708 0.098294 )  
( -0.0126202 -0.00201331 0.0885815 )  
( 0.000263612 -0.000610369 0.0982091 )  
( -0.00159449 -0.00563484 0.109111 )  
( 0.00391062 -0.00664814 0.100331 )  
( 0.00314844 -0.00593768 0.102409 )  
( -0.000340457 -0.00887977 0.0892099 )  
( 0.0061649 -8.59053e-05 0.0937169 )  
( -0.00827082 -0.00186798 0.0962792 )  
( 0.00568632 -0.0120554 0.0855789 )  
( 0.000182066 -0.00366578 0.111519 )  
( 0.00221296 -0.00740305 0.0854661 )  
( -0.00442012 -0.0067229 0.100472 )  
( -0.00419832 -0.0108139 0.108211 )  
( 0.00310425 -0.00857739 0.114191 )  
( -0.00151345 -0.000779976 0.113461 )  
( 0.000554534 0.000389598 0.108276 )  
( 0.00386758 -0.0054629 0.10931 )  
( 0.000756141 0.00122404 0.117888 )  
( -0.0012683 0.00199717 0.111308 )  
( -0.00170078 -0.00478894 0.102251 )  
( -0.000619836 -0.000529638 0.100629 )  
( 0.00306669 0.00175602 0.115031 )  
( 0.00161284 -0.00810717 0.103818 )  
( -0.000826968 -0.00631221 0.119319 )  
( 0.00374289 -0.00397022 0.0985383 )  
( 0.00129589 -0.00565295 0.103433 )  
( 0.00301041 -0.00603672 0.120067 )  
( 0.00712771 -0.0125428 0.101602 )  
( -0.000823623 -0.000309848 0.112452 )  
( -0.000137272 0.00170293 0.116183 )  
( 0.00166804 0.000245069 0.106773 )  
( 0.00484142 -0.0127213 0.133542 )  
( 0.00178934 -0.00319724 0.12267 )  
( -0.003049 0.00456746 0.111771 )  
( -0.00326861 0.00134319 0.12079 )  
( 0.00448649 -0.00943258 0.109488 )  
( 0.00619397 -0.0044837 0.126617 )  
( 0.00529251 -0.00711428 0.120426 )  
( 0.00325957 0.0083471 0.135206 )  
( 0.00402728 -0.00546841 0.133295 )  
( -0.000623642 -0.00585015 0.102617 )  
( -0.000118766 0.00213157 0.12713 )  
( -0.0132735 -0.0042312 0.13293 )  
( -0.00504798 0.00476345 0.110884 )  
( 0.00112256 0.00266737 0.136761 )  
( 0.00325649 -0.00467643 0.111122 )  
( 0.00603943 -0.002511 0.132522 )  
( -0.00285509 -0.005026 0.136533 )  
( -0.00612135 -0.00167793 0.11941 )  
( -0.000332991 0.00150074 0.127085 )  
( 0.00672509 0.00221378 0.141342 )  
( 0.00381217 0.000347323 0.126759 )  
( 0.00652582 -0.00461586 0.127471 )  
( -0.00310978 0.000280422 0.131572 )  
( 0.00872761 -0.00842241 0.131037 )  
( -0.0014322 -0.00361911 0.146737 )  
( -0.00401327 -0.00372688 0.137599 )  
( -0.000271295 -0.0039845 0.116528 )  
( 0.00408206 -0.000483258 0.132586 )  
( 0.00501977 -0.00763701 0.148776 )  
( 0.00828262 0.000728434 0.14845 )  
( 0.00711372 0.00933753 0.145891 )  
( 0.00175336 -0.00245228 0.144554 )  
( -0.00306766 -0.0065832 0.150458 )  
( 0.00436375 -0.00477209 0.133556 )  
( -1.58011e-05 0.0101114 0.149172 )  
( -0.0128955 -2.63011e-05 0.137264 )  
( -0.0110582 -0.00347954 0.139577 )  
( -0.00180235 -0.0028925 0.136161 )  
( 0.00188851 0.00124755 0.136903 )  
( 0.000597831 -0.00155157 0.162201 )  
( 0.00811544 0.00387902 0.13873 )  
( 0.0078216 -0.00761611 0.147892 )  
( 0.00440322 -0.00504056 0.152589 )  
( 0.007856 0.00181924 0.146849 )  
( -0.0037098 0.00362893 0.144065 )  
( 0.0157103 0.000886693 0.144976 )  
( -0.0081057 -0.0054681 0.138521 )  
( 0.00698303 0.0093623 0.15233 )  
( -0.0112982 0.00886923 0.148809 )  
( 0.00218927 0.00449553 0.149166 )  
( 0.00504727 -0.00103751 0.147875 )  
( 0.00803486 0.00106539 0.154798 )  
( 0.00602942 0.00716008 0.155649 )  
( 0.00204063 0.00171249 0.153295 )  
( 0.00518142 -0.00162405 0.148388 )  
( 0.0044262 0.01013 0.151379 )  
( 0.00273127 0.00159776 0.153807 )  
( -0.00663417 0.00174588 0.145938 )  
( -1.70445e-05 5.55987e-05 0.141797 )  
( 0.00199463 -0.00160983 0.147627 )  
( 0.0146883 -0.00473734 0.148123 )  
( 0.00271143 0.00574902 0.154907 )  
( -0.00722268 0.00657181 0.146703 )  
( 0.00813045 -0.000110084 0.155426 )  
( 0.00334875 0.00325537 0.147516 )  
( -0.000742643 0.00157836 0.155588 )  
( -0.00464334 0.00639831 0.145098 )  
( -0.000895081 0.00118529 0.153535 )  
( -0.00122333 0.00128863 0.14525 )  
( -0.00355238 -0.00418408 0.15119 )  
( 0.00335563 -0.00304963 0.153525 )  
( -0.00308827 0.000271607 0.155005 )  
( 0.0137956 -0.00793422 0.150381 )  
( 0.00379095 -0.00150858 0.156316 )  
( -0.00509973 -0.0088369 0.146449 )  
( -0.00105452 0.00690688 0.156115 )  
( 0.0183972 -0.00840512 0.153554 )  
( 0.0107783 0.00757593 0.155071 )  
( -0.00491378 -0.00594873 0.16613 )  
( -0.00235464 -0.000640199 0.152754 )  
( -0.0124723 0.00154272 0.137561 )  
( -0.00721858 -0.00471987 0.147262 )  
( 0.00255235 -0.00588859 0.162552 )  
( 0.0102179 0.0147588 0.144251 )  
( -0.0145265 0.00177775 0.148978 )  
( 0.00770883 0.00959381 0.142963 )  
( 0.00364418 0.0129182 0.159298 )  
( 0.00221566 0.00250252 0.152541 )  
( 0.00672233 0.000607781 0.177821 )  
( -0.00430352 0.00638488 0.157743 )  
( 0.00641509 -0.00597404 0.153287 )  
( 0.00288609 0.00192287 0.152457 )  
( -0.00473093 -0.00710797 0.165769 )  
( -0.00202543 0.00407162 0.162147 )  
( -0.000114708 0.00220949 0.15392 )  
( -0.0137587 -0.00493684 0.150666 )  
( -0.0250042 -0.0042832 0.143151 )  
( -0.0123368 0.000109321 0.134966 )  
( 0.00104795 0.0112744 0.165467 )  
( 0.00325869 -0.000385918 0.164658 )  
( 0.00466772 -0.00694371 0.160308 )  
( 0.0056524 0.00611976 0.153852 )  
( -0.00948577 -0.00334336 0.155543 )  
( -0.00581724 0.0063434 0.154429 )  
( -0.00120129 -0.00221708 0.166695 )  
( 0.0179629 0.00553198 0.153249 )  
( 0.00350329 -0.00778712 0.168429 )  
( -0.0232987 0.0204951 0.107655 )  
( -0.00562447 -0.00807263 0.153667 )  
( -0.00496559 -0.00994341 0.159838 )  
( -0.0214277 -0.00216455 0.138164 )  
( -0.0146136 0.00120852 0.138537 )  
( -0.000386023 0.000123711 0.155249 )  
( -0.00213648 -0.00956726 0.159962 )  
( -0.00871138 -0.00147547 0.162142 )  
( 0.0130768 0.00213264 0.157151 )  
( -0.0040572 0.0151516 0.147223 )  
( -0.0124256 0.00557729 0.1551 )  
( -0.0129911 -0.00432503 0.169544 )  
( 0.0222277 0.00274749 0.166889 )  
( -0.0113784 0.00789493 0.177751 )  
( -0.000449561 0.00372865 0.17076 )  
( -0.000124935 0.000919668 0.157228 )  
( 0.0144601 -0.0124689 0.160914 )  
( -0.00695643 -0.00823012 0.16866 )  
( 0.0195212 0.0326102 0.0805937 )  
( -0.00405492 -0.000235626 0.218068 )  
( -0.00991417 0.045419 0.0744009 )  
( 0.0171022 -0.00899153 0.162715 )  
( -0.00667529 0.00785522 0.189804 )  
( -0.00213318 0.0112887 0.142971 )  
( -0.0155489 0.00243811 0.178598 )  
( 7.0216e-05 -0.00502977 0.147665 )  
( -0.0239894 -0.0284858 0.114662 )  
( -0.0105453 0.00611691 0.141419 )  
( 0.00383843 0.00492295 0.114554 )  
( -0.000600968 0.00030384 0.189296 )  
( 0.0086242 0.00245911 0.161908 )  
( 0.00810898 -0.0233135 0.167475 )  
( -0.00488974 -0.00225173 0.177367 )  
( -0.00226159 0.000614159 0.0189825 )  
( 0.00419696 -0.0044577 0.188173 )  
( 0.0362512 -0.0223802 0.0721462 )  
( 0.0150024 -0.0138155 0.0749566 )  
( 0.00182328 0.00260349 0.00949829 )  
( 0.00822121 -0.0107497 0.160611 )  
( 0.00687309 0.00536325 0.00918092 )  
( 0.0174023 -0.00438551 0.139718 )  
( 0.0163172 0.0407912 0.140462 )  
( -0.00672198 -0.00729566 0.168238 )  
( -0.00289334 0.000606478 0.0125466 )  
( -0.00525828 -0.0326387 0.118347 )  
( -0.00127206 0.00748266 0.00713484 )  
( 0.0138152 0.00857361 0.0220013 )  
( -0.0181855 0.013456 0.0913449 )  
( -0.00578125 0.00230533 0.0126947 )  
( -0.0081592 -0.00282416 0.173008 )  
)
