/*--------------------------------*- C++ -*----------------------------------*\
  =========                 |
  \\      /  F ield         | OpenFOAM: The Open Source CFD Toolbox
   \\    /   O peration     | Website:  https://openfoam.org
    \\  /    A nd           | Version:  9
     \\/     M anipulation  |
\*---------------------------------------------------------------------------*/
FoamFile
{
    format      ascii;
    class       surfaceScalarField;
    location    "200";
    object      phi;
}
// * * * * * * * * * * * * * * * * * * * * * * * * * * * * * * * * * * * * * //

dimensions      [0 3 -1 0 0 0 0];

internalField   nonuniform List<scalar> 
716
(
0.0492607
0.0292711
-47.9688
-0.0201749
-46.9245
0.0197865
-51.1126
-48.9042
0.0525064
0.0445948
-48.0659
-0.0120489
-46.86
0.0159638
-51.0839
-48.9003
0.0499352
0.0701566
-48.186
0.00440665
-46.8145
0.0102927
-51.0241
-48.8856
0.0484933
0.0930126
-48.3275
0.0260383
-46.792
0.0123103
-50.9434
-48.8472
0.0505952
0.111603
-48.4897
0.0522731
-46.7937
0.0224231
-50.8542
-48.7725
0.0588465
0.128419
-48.677
0.0729521
-46.8078
0.035001
-50.7608
-48.6646
0.0695922
0.146015
-48.8926
0.0915424
-46.8297
0.047742
-50.6625
-48.5253
0.0817324
0.164811
-49.1391
0.109628
-46.8576
0.0601438
-50.5578
-48.3555
0.0950877
0.184982
-49.4192
0.128052
-46.8906
0.072522
-50.4454
-48.155
0.109821
0.20655
-49.7355
0.146801
-46.9276
0.0849638
-50.3238
-47.9232
0.12611
0.229639
-50.0913
0.166073
-46.9675
0.0976538
-50.1918
-47.6595
0.14418
0.254378
-50.4899
0.185995
-47.0093
0.110742
-50.0482
-47.3627
0.164333
0.280962
-50.9352
0.20677
-47.0518
0.124433
-49.8916
-47.0315
0.186937
0.309614
-51.4317
0.228629
-47.0935
0.138976
-49.721
-46.6639
0.212397
0.340641
-51.9847
0.251851
-47.1329
0.154605
-49.535
-46.2575
0.241396
0.374514
-52.6007
0.276746
-47.1683
0.171738
-49.3322
-45.809
0.274596
0.411649
-53.2869
0.303699
-47.1974
0.190667
-49.1112
-45.3146
0.31276
0.452689
-54.0524
0.333157
-47.2178
0.211692
-48.8702
-44.7698
0.35678
0.498456
-54.9076
0.365692
-47.2267
0.234916
-48.6067
-44.1692
0.407539
0.549138
-55.8643
0.401745
-47.2209
0.260248
-48.3178
-43.5072
0.465248
0.604098
-56.9336
0.441881
-47.1975
0.288277
-48.0019
-42.777
0.529833
0.662574
-58.126
0.486706
-47.1544
0.319518
-47.6589
-41.9708
0.601572
0.723373
-59.451
0.536236
-47.0891
0.353774
-47.2893
-41.0808
0.680213
0.784444
-60.9156
0.589673
-46.9985
0.390695
-46.8955
-40.1004
0.764705
0.842831
-62.5232
0.64603
-46.8799
0.429923
-46.4826
-39.0245
0.853225
0.894604
-64.271
0.70404
-46.7307
0.470861
-46.0589
-37.8496
0.943152
0.934639
-66.1488
0.761848
-46.5494
0.512677
-45.6369
-36.575
1.03194
0.957587
-68.1383
0.816964
-46.3344
0.554393
-45.2337
-35.2037
1.11387
0.954752
-70.2069
0.86652
-46.087
0.595148
-44.8741
-33.742
1.18544
0.921259
-72.3136
0.907081
-45.8087
0.634076
-44.587
-32.2009
1.25145
0.86194
-74.427
0.93545
-45.4927
0.671285
-44.3963
-30.5941
1.3249
0.789916
-76.5418
0.948822
-45.1166
0.708258
-44.3146
-28.937
1.43109
0.726827
-78.6998
0.942699
-44.6282
0.746332
-44.3341
-27.248
1.55931
0.63645
-80.8955
0.908717
-43.9776
0.784954
-44.4826
-25.5543
1.69804
0.500017
-83.0936
0.836235
-43.1158
0.822503
-44.8051
-23.8956
1.83563
0.295504
-85.2247
0.712507
-41.9927
0.856889
-45.3665
-22.3262
1.95358
-0.00862623
-87.1697
0.523276
-40.5624
0.88564
-46.2608
-20.9173
2.03387
-0.43672
-88.7668
0.256237
-38.7847
0.908745
-47.6062
-19.7523
2.06141
-1.01
-89.8182
-0.0965589
-36.6268
0.930123
-49.5464
-18.9187
2.02716
-1.73127
-90.1141
-0.535913
-34.0637
0.959991
-52.2376
-18.4947
1.92985
-2.57413
-89.4698
-1.05286
-31.081
1.00918
-55.8209
-18.5383
1.77957
-3.46704
-87.7824
-1.62932
-27.6721
1.08288
-60.3709
-19.0848
1.59178
-4.30597
-85.0682
-2.24243
-23.8379
1.18046
-65.8573
-20.1467
1.3815
-4.97001
-81.4797
-2.87325
-19.5832
1.31046
-72.1378
-21.7095
1.17359
-5.36169
-77.2916
-3.50392
-14.9056
1.49344
-78.9929
-23.72
0.992107
-5.45998
-72.8237
-4.11532
-9.79822
1.73498
-86.1879
-26.1004
0.84881
-5.35082
-68.3217
-4.68139
-4.26802
2.03044
-93.5691
-28.7513
0.740616
-5.15331
-63.909
-5.17609
1.64869
2.44587
-101.168
-31.4815
0.636473
-4.79508
-59.7504
-5.57268
7.85784
3.01322
-108.977
-34.041
0.495189
-4.38197
-55.8636
-5.86426
14.2173
3.71532
-117.074
-36.1899
0.320149
-3.98337
-52.2004
-6.02337
20.5608
4.48686
-125.544
-37.7264
0.183765
-3.61447
-48.7697
-6.04908
26.7937
5.17406
-134.333
-38.6015
0.133589
-3.3478
-45.5554
-5.98139
32.9086
5.62396
-143.304
-38.9589
0.154271
-3.15874
-42.551
-5.86668
38.9296
5.76524
-152.228
-39.0603
0.200103
-3.01271
-39.7384
-5.76226
44.892
5.57461
-160.816
-39.248
0.252622
-2.91091
-37.0801
-5.69619
50.8408
5.12507
-168.852
-39.8191
0.307997
-2.84092
-34.5472
-5.68409
56.8329
4.55728
-176.25
-40.9459
0.388662
-2.7674
-32.1684
-5.69204
62.9135
4.03055
-183.048
-42.6074
0.522694
-2.6457
-30.0454
-5.68042
69.1167
3.6755
-189.369
-44.6123
0.730523
-2.41501
-28.3609
-5.60966
75.4568
3.54533
-195.329
-46.6766
1.00847
-2.02648
-27.3429
-5.445
81.9103
3.59827
-200.954
-48.5234
1.33622
-1.46416
-27.215
-5.19188
88.4384
3.73133
-206.15
-49.9839
1.71251
-0.805863
-28.1216
-4.87138
95.0223
3.90689
-210.862
-50.9484
2.10186
-0.136271
-30.0872
-4.50607
101.63
4.15564
-215.154
-51.2988
2.44165
0.502098
-33.031
-4.08606
108.158
4.41291
-219.065
-50.972
2.62696
0.948017
-36.606
-3.60885
114.394
4.84962
-222.967
-49.7312
2.63741
1.07471
-40.3181
-3.01169
120.043
5.39799
-227.29
-47.3449
2.46537
1.07276
-43.8562
-2.17395
124.682
5.7723
-231.99
-43.7466
2.16916
1.7425
-47.7679
-1.07911
127.93
6.21405
-236.461
-38.6116
1.85645
1.52926
-51.1536
0.148161
129.639
6.66275
-241.595
-31.8007
1.58002
2.07255
-54.8062
1.51754
129.701
6.85298
-246.375
-23.4302
1.34725
1.9684
-58.1218
2.87746
128.171
6.66556
-251.072
-13.8872
1.15324
2.03561
-61.3107
4.0178
125.306
6.40872
-255.445
-3.46065
0.966378
2.00286
-64.2799
4.46114
121.812
5.75643
-259.199
6.75691
0.727477
1.82603
-66.8334
3.95642
118.583
4.81994
-262.193
15.5333
0.47631
1.53542
-68.8451
2.65446
116.405
3.59241
-264.25
21.7801
0.232838
1.08385
-70.1618
0.733227
115.904
2.35428
-265.52
24.8676
0.0358112
0.577395
-70.775
-1.40391
117.344
1.22472
-266.167
24.6885
-0.0556532
0.060239
-70.7796
-3.36841
120.657
0.481192
-266.588
21.8012
-0.10612
-0.442742
-70.2308
-5.17553
125.726
0.0392098
-267.07
16.6649
-0.101056
-0.843424
-69.2863
-6.81221
132.437
-0.102116
-267.812
9.75059
0.157699
-1.15695
-68.287
-8.2707
140.866
0.148073
-269.117
1.62796
0.640029
-1.25068
-67.6764
-9.47614
150.982
0.806386
-271.174
-7.04179
1.22369
-1.16738
-67.7327
-10.3052
162.511
1.6439
-273.985
-15.7031
1.63585
-0.93269
-68.4358
-10.156
174.303
2.42509
-277.343
-23.434
1.90769
-0.559337
-69.7842
-9.09437
185.305
3.02373
-280.926
-29.5046
1.85143
-0.189489
-71.4461
-6.35986
193.516
3.37882
-284.494
-32.4857
1.44721
0.156643
-73.05
-3.24448
198.208
3.48915
-287.827
-32.241
1.55447
0.501956
-75.1064
0.157725
199.604
3.092
-290.417
-28.9913
1.61211
0.673121
2.30398
2.80077
)
;

boundaryField
{
    inlet
    {
        type            calculated;
        value           nonuniform List<scalar> 4(-77.3916 -292.544 198.912 -23.8865);
    }
    outlet
    {
        type            calculated;
        value           nonuniform List<scalar> 4(47.8903 51.1221 46.994 48.9038);
    }
    repeat_boundary
    {
        type            calculated;
        value           uniform 0;
    }
}


// ************************************************************************* //
