/*--------------------------------*- C++ -*----------------------------------*\
  =========                 |
  \\      /  F ield         | OpenFOAM: The Open Source CFD Toolbox
   \\    /   O peration     | Website:  https://openfoam.org
    \\  /    A nd           | Version:  9
     \\/     M anipulation  |
\*---------------------------------------------------------------------------*/
FoamFile
{
    format      ascii;
    class       volVectorField;
    location    "200";
    object      U;
}
// * * * * * * * * * * * * * * * * * * * * * * * * * * * * * * * * * * * * * //

dimensions      [0 1 -1 0 0 0 0];

internalField   nonuniform List<vector> 
360
(
(0.0103451 -0.00131877 -1.91678)
(0.00909704 -0.00967117 -1.88089)
(0.0041588 0.0134282 -2.04372)
(0.00349445 0.0020157 -1.95664)
(0.0107424 0.00138914 -1.92035)
(0.00962373 -0.00801586 -1.87434)
(0.00355941 0.0166692 -2.04565)
(0.00272976 0.00394879 -1.95613)
(0.0103298 0.0049374 -1.92276)
(0.00910691 -0.00527369 -1.87176)
(0.00294089 0.0225006 -2.04145)
(0.00201314 0.00774391 -1.95366)
(0.0104072 0.00932126 -1.93163)
(0.00893016 -0.00179561 -1.87183)
(0.00406554 0.0267438 -2.04034)
(0.00228755 0.0125595 -1.95653)
(0.0114542 0.0130652 -1.93619)
(0.00920643 0.00273956 -1.87215)
(0.00631205 0.0304831 -2.03566)
(0.00407102 0.018058 -1.95284)
(0.013459 0.0164989 -1.94317)
(0.010592 0.00670272 -1.87229)
(0.00889787 0.0339591 -2.0325)
(0.00624295 0.0222106 -1.94932)
(0.0159567 0.0201359 -1.95103)
(0.0123745 0.0102514 -1.87267)
(0.0115371 0.0374935 -2.02847)
(0.00849443 0.0260301 -1.94396)
(0.0188083 0.0241425 -1.96032)
(0.0143817 0.0137923 -1.87368)
(0.0141689 0.0411128 -2.0245)
(0.010689 0.0296936 -1.93797)
(0.0220125 0.0285936 -1.97082)
(0.016552 0.0175259 -1.87493)
(0.0168552 0.0448259 -2.02015)
(0.012864 0.0333028 -1.9305)
(0.0256227 0.0335062 -1.98271)
(0.0188922 0.0214741 -1.87633)
(0.0196267 0.0486294 -2.01548)
(0.0150247 0.0368414 -1.92188)
(0.0297038 0.0389089 -1.99612)
(0.0214139 0.0256822 -1.87788)
(0.0225305 0.0525475 -2.01042)
(0.0171939 0.0403369 -1.91197)
(0.0343352 0.0448242 -2.01115)
(0.0241321 0.0301782 -1.87952)
(0.0256145 0.0566123 -2.00491)
(0.0193842 0.0438118 -1.90078)
(0.0396201 0.0512897 -2.02799)
(0.0270722 0.0350026 -1.88121)
(0.0289419 0.0608717 -1.99893)
(0.0216141 0.0473056 -1.88823)
(0.0456832 0.058352 -2.04676)
(0.0302695 0.0402004 -1.88291)
(0.0325884 0.0653841 -1.99238)
(0.0239043 0.0508663 -1.87428)
(0.0526599 0.066076 -2.06772)
(0.0337671 0.0458267 -1.88454)
(0.0366383 0.0702245 -1.98529)
(0.0262678 0.0545539 -1.85882)
(0.0607576 0.0745411 -2.09097)
(0.037641 0.0519465 -1.88607)
(0.0412259 0.0755202 -1.97749)
(0.0287377 0.0584356 -1.84177)
(0.0701876 0.0838267 -2.117)
(0.0419703 0.058641 -1.88737)
(0.0464456 0.0813874 -1.96902)
(0.0313422 0.0625943 -1.82293)
(0.0811795 0.0940306 -2.14599)
(0.04685 0.0659971 -1.8884)
(0.0524171 0.0879904 -1.9597)
(0.0340974 0.0671228 -1.80223)
(0.0939462 0.10523 -2.17811)
(0.0523947 0.0741156 -1.88897)
(0.0592345 0.0954906 -1.94979)
(0.0370115 0.0721508 -1.77933)
(0.108793 0.117427 -2.21422)
(0.0586751 0.0830834 -1.88913)
(0.0668845 0.103949 -1.93874)
(0.0401096 0.0777792 -1.75415)
(0.125859 0.130477 -2.25466)
(0.0657349 0.0929841 -1.88861)
(0.0754946 0.113364 -1.9266)
(0.0434818 0.0841427 -1.72628)
(0.145215 0.144156 -2.29977)
(0.0735956 0.103859 -1.88716)
(0.0851688 0.123725 -1.9134)
(0.0471969 0.0913537 -1.69576)
(0.166925 0.158116 -2.35)
(0.0824032 0.115682 -1.885)
(0.0959077 0.134942 -1.89912)
(0.0511981 0.0994126 -1.66188)
(0.190933 0.171813 -2.40571)
(0.0921599 0.128253 -1.88195)
(0.107637 0.146785 -1.88379)
(0.0554856 0.108264 -1.62449)
(0.216997 0.184484 -2.46712)
(0.102759 0.141275 -1.87778)
(0.120249 0.158887 -1.86758)
(0.0600762 0.117843 -1.58338)
(0.244698 0.195151 -2.5342)
(0.113992 0.154349 -1.87243)
(0.133572 0.17071 -1.85073)
(0.0649427 0.128033 -1.53837)
(0.273451 0.202603 -2.60723)
(0.125535 0.166927 -1.86582)
(0.147372 0.181508 -1.83368)
(0.0700168 0.138624 -1.48935)
(0.302617 0.205531 -2.68394)
(0.137014 0.178302 -1.85794)
(0.161372 0.190425 -1.81704)
(0.0752061 0.149314 -1.43638)
(0.330974 0.202037 -2.76581)
(0.147581 0.187658 -1.84857)
(0.175299 0.196077 -1.80145)
(0.0804257 0.15974 -1.37963)
(0.358065 0.191747 -2.84957)
(0.156705 0.194061 -1.83824)
(0.188882 0.197325 -1.78848)
(0.0855714 0.16945 -1.31945)
(0.385869 0.177419 -2.93723)
(0.164735 0.196595 -1.82655)
(0.202026 0.193812 -1.77886)
(0.0906748 0.178035 -1.25639)
(0.417293 0.163003 -3.0257)
(0.173289 0.194378 -1.81319)
(0.214892 0.186288 -1.77349)
(0.0959238 0.185127 -1.19097)
(0.454632 0.151522 -3.10237)
(0.184979 0.18583 -1.79606)
(0.227476 0.176127 -1.77182)
(0.101536 0.190311 -1.12389)
(0.492343 0.128242 -3.19027)
(0.200692 0.168325 -1.7737)
(0.239442 0.162598 -1.77483)
(0.107536 0.192862 -1.056)
(0.528228 0.0896041 -3.27931)
(0.219397 0.138884 -1.74376)
(0.250431 0.143241 -1.78369)
(0.113691 0.191722 -0.988619)
(0.559762 0.0303164 -3.36651)
(0.239628 0.0941942 -1.70452)
(0.260191 0.115448 -1.80086)
(0.119562 0.185508 -0.923654)
(0.582626 -0.0585943 -3.44941)
(0.258847 0.0307823 -1.65395)
(0.268612 0.0764267 -1.82921)
(0.124479 0.172636 -0.863615)
(0.59351 -0.183608 -3.52181)
(0.273883 -0.0538532 -1.59021)
(0.276651 0.024136 -1.87344)
(0.127662 0.151527 -0.811609)
(0.590388 -0.350462 -3.57682)
(0.281662 -0.160549 -1.51228)
(0.2866 -0.0424879 -1.93759)
(0.128436 0.120905 -0.770883)
(0.573575 -0.560227 -3.60691)
(0.279519 -0.287508 -1.41821)
(0.302833 -0.12138 -2.02688)
(0.126433 0.0797084 -0.744777)
(0.544611 -0.805801 -3.6029)
(0.266444 -0.430034 -1.30781)
(0.330554 -0.207842 -2.14669)
(0.121349 0.0275657 -0.736127)
(0.506964 -1.07059 -3.55356)
(0.242905 -0.580598 -1.18011)
(0.374905 -0.292883 -2.3134)
(0.112477 -0.0358386 -0.746336)
(0.467429 -1.3385 -3.46562)
(0.209385 -0.728561 -1.03383)
(0.436263 -0.351378 -2.51373)
(0.101197 -0.112827 -0.778365)
(0.431694 -1.58519 -3.3383)
(0.168155 -0.86802 -0.870192)
(0.516243 -0.358369 -2.74892)
(0.0894026 -0.202566 -0.830861)
(0.405359 -1.78646 -3.18246)
(0.123644 -0.99917 -0.691374)
(0.623624 -0.299726 -3.00991)
(0.0781183 -0.298051 -0.901716)
(0.390628 -1.92214 -3.00677)
(0.0809101 -1.12423 -0.497166)
(0.762825 -0.191805 -3.30778)
(0.0691003 -0.388182 -0.987909)
(0.383699 -1.97453 -2.82036)
(0.0446154 -1.24304 -0.283716)
(0.922321 -0.0905468 -3.62491)
(0.0700164 -0.46314 -1.09153)
(0.377928 -1.94367 -2.6384)
(0.0175883 -1.34742 -0.052196)
(1.07678 -0.0388519 -3.88683)
(0.0992786 -0.524752 -1.20358)
(0.359442 -1.86837 -2.47146)
(0.0019925 -1.43222 0.189558)
(1.22312 0.0496242 -4.1989)
(0.172782 -0.568052 -1.31054)
(0.310351 -1.80004 -2.31524)
(-0.000760363 -1.50337 0.439809)
(1.35014 0.181498 -4.51009)
(0.298476 -0.582159 -1.40609)
(0.226267 -1.77211 -2.15918)
(0.0114066 -1.56261 0.697951)
(1.4415 0.359888 -4.84161)
(0.471795 -0.558222 -1.48693)
(0.124858 -1.78433 -2.01497)
(0.0449846 -1.60176 0.94883)
(1.47173 0.572266 -5.1941)
(0.66315 -0.507485 -1.53577)
(0.0192241 -1.83949 -1.88467)
(0.103148 -1.62273 1.18076)
(1.41826 0.786815 -5.54951)
(0.840686 -0.440077 -1.55619)
(-0.093694 -1.92894 -1.76264)
(0.189379 -1.65458 1.42608)
(1.27313 0.991132 -5.91371)
(0.986682 -0.360057 -1.56524)
(-0.209371 -2.00604 -1.64268)
(0.296263 -1.70503 1.67477)
(1.03626 1.15993 -6.26356)
(1.09341 -0.280386 -1.57237)
(-0.323685 -2.06702 -1.53267)
(0.414796 -1.76578 1.91611)
(0.73435 1.28902 -6.59912)
(1.16679 -0.213611 -1.58709)
(-0.431793 -2.10707 -1.429)
(0.54025 -1.82971 2.15568)
(0.417191 1.37799 -6.90735)
(1.21948 -0.167362 -1.61353)
(-0.529244 -2.12586 -1.3323)
(0.676002 -1.88726 2.39574)
(0.145492 1.44021 -7.19204)
(1.2597 -0.132627 -1.66521)
(-0.608898 -2.12058 -1.24533)
(0.824792 -1.93573 2.64239)
(-0.0278185 1.4906 -7.45238)
(1.28784 -0.0945729 -1.73745)
(-0.66385 -2.08685 -1.17004)
(0.984837 -1.97736 2.89051)
(-0.0798282 1.54696 -7.69877)
(1.30007 -0.0358447 -1.81813)
(-0.69819 -2.01989 -1.11718)
(1.15203 -2.01526 3.14559)
(-0.0293276 1.62273 -7.92969)
(1.29394 0.0579262 -1.90246)
(-0.715452 -1.90829 -1.08714)
(1.31675 -2.04851 3.40638)
(0.0732496 1.70916 -8.14762)
(1.27399 0.179121 -1.97222)
(-0.714028 -1.72877 -1.08645)
(1.4733 -2.07101 3.66925)
(0.202994 1.75051 -8.35558)
(1.24688 0.310777 -2.02426)
(-0.692222 -1.4793 -1.13711)
(1.60688 -2.08099 3.93327)
(0.342881 1.7225 -8.52414)
(1.23191 0.441898 -2.05556)
(-0.658599 -1.19079 -1.25516)
(1.708 -2.06677 4.19511)
(0.447767 1.65387 -8.67038)
(1.24026 0.566249 -2.04593)
(-0.636214 -0.925762 -1.39143)
(1.76392 -2.03773 4.45201)
(0.610898 1.52945 -8.84532)
(1.26217 0.691818 -2.01182)
(-0.625747 -0.713439 -1.53753)
(1.76984 -1.98052 4.69391)
(0.804492 1.30628 -9.03106)
(1.30667 0.822353 -1.94695)
(-0.623551 -0.56252 -1.68224)
(1.72272 -1.85131 4.91527)
(0.844531 1.16509 -9.14395)
(1.37279 0.956245 -1.86273)
(-0.605265 -0.436004 -1.8326)
(1.61857 -1.61283 5.07572)
(0.89548 1.27499 -9.40301)
(1.46912 1.06409 -1.67978)
(-0.550759 -0.327717 -1.97949)
(1.46719 -1.27118 5.16953)
(0.913924 1.10535 -9.48395)
(1.55925 1.12586 -1.39782)
(-0.456293 -0.207378 -2.1254)
(1.28463 -0.873403 5.19924)
(0.907661 1.1775 -9.81645)
(1.6216 1.19718 -1.1067)
(-0.327621 -0.081851 -2.26813)
(1.07818 -0.476897 5.16628)
(0.843529 0.942818 -9.94672)
(1.61846 1.26285 -0.84375)
(-0.168514 0.0131263 -2.39873)
(0.851909 -0.138637 5.08019)
(0.777425 0.806061 -10.1439)
(1.61817 1.35023 -0.363918)
(0.0169824 0.0766586 -2.52024)
(0.595994 0.067912 4.94056)
(0.670945 0.66099 -10.3034)
(1.51425 1.31926 0.106786)
(0.224037 0.0999125 -2.6282)
(0.292545 0.0647957 4.81242)
(0.574332 0.507832 -10.4412)
(1.29161 1.14508 0.471298)
(0.446586 0.0773347 -2.71295)
(-0.0496774 -0.17445 4.68738)
(0.449183 0.37217 -10.5389)
(0.976715 0.898702 0.792847)
(0.681072 0.0186569 -2.77282)
(-0.424155 -0.649483 4.62526)
(0.342069 0.231949 -10.6004)
(0.629898 0.66434 0.990602)
(0.913009 -0.0460718 -2.80694)
(-0.793055 -1.2751 4.64782)
(0.218549 0.100823 -10.6352)
(0.32443 0.506836 1.06014)
(1.1186 -0.0939357 -2.82882)
(-1.09918 -1.92603 4.73495)
(0.108466 -0.0225811 -10.6487)
(0.127949 0.437595 0.941445)
(1.25785 -0.126918 -2.82752)
(-1.31519 -2.53611 4.90624)
(-0.0117722 -0.12729 -10.6635)
(0.0243684 0.384375 0.753743)
(1.30169 -0.143834 -2.80495)
(-1.39557 -3.04403 5.15604)
(-0.121504 -0.204112 -10.6909)
(0.0241215 0.293888 0.559744)
(1.2723 -0.141745 -2.75253)
(-1.30005 -3.43379 5.44454)
(-0.225433 -0.265574 -10.7278)
(0.184466 0.154051 0.27582)
(1.1933 -0.0916577 -2.71839)
(-1.0621 -3.696 5.82671)
(-0.313525 -0.303201 -10.798)
(0.493318 -0.0251457 -0.101521)
(1.06427 -0.00189875 -2.70471)
(-0.738649 -3.87293 6.22071)
(-0.399192 -0.331795 -10.8967)
(0.870174 -0.160802 -0.478486)
(0.877812 0.117764 -2.71867)
(-0.408119 -3.87741 6.76144)
(-0.481945 -0.352857 -11.0291)
(1.22088 -0.117901 -0.806355)
(0.725507 0.270184 -2.75517)
(-0.128162 -3.829 7.1113)
(-0.565445 -0.369632 -11.167)
(1.49651 0.188484 -1.09037)
(0.579395 0.418021 -2.80925)
(0.111454 -3.45691 7.74379)
(-0.661783 -0.390999 -11.3031)
(1.67895 0.728264 -1.29126)
(0.493841 0.547421 -2.88108)
(0.215476 -3.08312 7.80498)
(-0.762466 -0.407271 -11.4424)
(1.7712 1.32562 -1.42055)
(0.536033 0.64545 -2.98054)
(0.32214 -2.34792 8.173)
(-0.845239 -0.416218 -11.5955)
(1.71919 1.70497 -1.2295)
(0.675456 0.691921 -3.07136)
(0.216601 -2.01511 7.82174)
(-0.876371 -0.421391 -11.6751)
(1.6099 1.85864 -0.935958)
)
;

boundaryField
{
    inlet
    {
        type            zeroGradient;
    }
    outlet
    {
        type            zeroGradient;
    }
    repeat_boundary
    {
        type            slip;
    }
}


// ************************************************************************* //
