/*--------------------------------*- C++ -*----------------------------------*\
| =========                 |                                                 |
| \\      /  F ield         | OpenFOAM: The Open Source CFD Toolbox           |
|  \\    /   O peration     | Version:  5.x                                   |
|   \\  /    A nd           | Web:      www.OpenFOAM.org                      |
|    \\/     M anipulation  |                                                 |
\*---------------------------------------------------------------------------*/
FoamFile
{
    version     2.0;
    format      ascii;
    class       volScalarField;
    location    "0.01";
    object      p;
}
// * * * * * * * * * * * * * * * * * * * * * * * * * * * * * * * * * * * * * //

dimensions      [0 2 -2 0 0 0 0];

internalField   nonuniform List<scalar> 
2250
(
5.90699e-10
6.19376e-10
6.58883e-10
7.01356e-10
6.88429e-10
5.69817e-10
6.17348e-10
6.85528e-10
7.066e-10
6.77815e-10
5.06787e-10
5.98225e-10
6.66562e-10
6.82977e-10
6.60857e-10
4.7847e-10
5.77045e-10
6.50549e-10
6.7228e-10
6.6315e-10
4.62326e-10
5.77072e-10
6.67889e-10
7.02536e-10
7.05305e-10
1.64069e-09
1.76954e-09
1.90978e-09
1.98213e-09
1.94412e-09
1.57986e-09
1.76583e-09
1.92796e-09
1.96006e-09
1.9062e-09
1.48463e-09
1.71912e-09
1.87659e-09
1.90676e-09
1.87614e-09
1.46972e-09
1.68381e-09
1.84359e-09
1.89163e-09
1.89055e-09
1.45065e-09
1.65759e-09
1.83074e-09
1.91077e-09
1.93326e-09
2.52542e-09
2.78644e-09
3.00175e-09
3.06603e-09
3.02354e-09
2.50562e-09
2.79784e-09
2.99511e-09
3.02757e-09
2.99886e-09
2.49751e-09
2.77167e-09
2.94841e-09
2.99724e-09
3.01257e-09
2.60187e-09
2.7892e-09
2.94478e-09
3.02202e-09
3.07075e-09
2.73303e-09
2.81699e-09
2.92878e-09
3.0374e-09
3.11504e-09
3.36046e-09
3.68185e-09
3.91258e-09
3.99537e-09
4.00629e-09
3.42169e-09
3.72405e-09
3.92045e-09
4.00687e-09
4.0611e-09
3.54168e-09
3.78717e-09
3.96303e-09
4.08077e-09
4.16943e-09
3.79567e-09
3.93939e-09
4.08027e-09
4.2142e-09
4.31643e-09
4.19295e-09
4.15692e-09
4.21651e-09
4.35671e-09
4.4779e-09
4.14928e-09
4.45271e-09
4.70609e-09
4.87663e-09
4.98383e-09
4.27182e-09
4.55296e-09
4.79557e-09
4.99972e-09
5.13437e-09
4.53374e-09
4.77214e-09
4.99689e-09
5.20878e-09
5.33272e-09
4.92477e-09
5.11256e-09
5.28972e-09
5.46755e-09
5.56628e-09
5.41829e-09
5.53458e-09
5.63508e-09
5.76369e-09
5.83973e-09
4.77591e-09
5.1069e-09
5.43885e-09
5.72381e-09
5.89449e-09
4.97964e-09
5.3047e-09
5.64103e-09
5.94218e-09
6.08816e-09
5.42635e-09
5.7039e-09
5.99088e-09
6.24222e-09
6.33593e-09
5.99469e-09
6.22946e-09
6.42225e-09
6.57605e-09
6.61942e-09
6.53584e-09
6.77446e-09
6.87476e-09
6.92845e-09
6.93771e-09
5.27587e-09
5.67787e-09
6.07615e-09
6.40835e-09
6.56772e-09
5.59339e-09
5.96879e-09
6.3493e-09
6.65294e-09
6.75554e-09
6.22283e-09
6.5025e-09
6.78476e-09
6.99748e-09
7.0416e-09
6.99418e-09
7.15345e-09
7.2895e-09
7.38031e-09
7.38723e-09
7.66319e-09
7.75683e-09
7.77606e-09
7.78086e-09
7.79864e-09
5.6923e-09
6.1075e-09
6.49702e-09
6.79656e-09
6.91614e-09
6.07883e-09
6.43542e-09
6.78139e-09
7.02915e-09
7.10363e-09
6.80452e-09
7.02706e-09
7.25624e-09
7.41551e-09
7.45066e-09
7.70815e-09
7.73035e-09
7.80312e-09
7.8657e-09
7.89028e-09
8.5514e-09
8.39285e-09
8.3381e-09
8.35955e-09
8.414e-09
5.87832e-09
6.2759e-09
6.63775e-09
6.90345e-09
7.02194e-09
6.24609e-09
6.59267e-09
6.91048e-09
7.13405e-09
7.24076e-09
6.95483e-09
7.18065e-09
7.40173e-09
7.56634e-09
7.65062e-09
7.8614e-09
7.87608e-09
7.96703e-09
8.07332e-09
8.14877e-09
8.83036e-09
8.59394e-09
8.53534e-09
8.60419e-09
8.66909e-09
5.7044e-09
6.1625e-09
6.56856e-09
6.86747e-09
7.0457e-09
6.01437e-09
6.45987e-09
6.83507e-09
7.11868e-09
7.31026e-09
6.63394e-09
7.00971e-09
7.32518e-09
7.5813e-09
7.74514e-09
7.42448e-09
7.6589e-09
7.89082e-09
8.11257e-09
8.24388e-09
8.33718e-09
8.38363e-09
8.48028e-09
8.64876e-09
8.72858e-09
5.2259e-09
5.85523e-09
6.40457e-09
6.81694e-09
7.09217e-09
5.50515e-09
6.14604e-09
6.67723e-09
7.09939e-09
7.38028e-09
6.0497e-09
6.66009e-09
7.16728e-09
7.57266e-09
7.79982e-09
6.7235e-09
7.29256e-09
7.76774e-09
8.13982e-09
8.31271e-09
7.48754e-09
8.0364e-09
8.45971e-09
8.77099e-09
8.87222e-09
4.52022e-09
5.4209e-09
6.19869e-09
6.78336e-09
7.14796e-09
4.80903e-09
5.71817e-09
6.48967e-09
7.08403e-09
7.41865e-09
5.34561e-09
6.23518e-09
7.00481e-09
7.56761e-09
7.83877e-09
6.03845e-09
6.95215e-09
7.71545e-09
8.23498e-09
8.46017e-09
6.80396e-09
7.83504e-09
8.60224e-09
9.05211e-09
9.21171e-09
3.59589e-09
4.86345e-09
5.93799e-09
6.72417e-09
7.15482e-09
3.90705e-09
5.18395e-09
6.26186e-09
7.0334e-09
7.42044e-09
4.49299e-09
5.77797e-09
6.86403e-09
7.59803e-09
7.95625e-09
5.36911e-09
6.70961e-09
7.79041e-09
8.49592e-09
8.84374e-09
6.37824e-09
7.87909e-09
8.96738e-09
9.63194e-09
9.95305e-09
2.45371e-09
4.16489e-09
5.60678e-09
6.63268e-09
7.15747e-09
2.80936e-09
4.55975e-09
6.01149e-09
7.01038e-09
7.52097e-09
3.56779e-09
5.37004e-09
6.83712e-09
7.82107e-09
8.34297e-09
4.80919e-09
6.676e-09
8.14511e-09
9.13449e-09
9.66266e-09
6.27202e-09
8.26991e-09
9.78429e-09
1.07861e-08
1.12941e-08
1.01394e-09
3.30326e-09
5.23721e-09
6.60293e-09
7.30668e-09
1.53429e-09
3.88437e-09
5.82294e-09
7.1701e-09
7.88345e-09
2.73195e-09
5.1017e-09
7.04635e-09
8.39253e-09
9.12241e-09
4.55994e-09
6.95217e-09
8.89985e-09
1.02534e-08
1.09752e-08
6.63686e-09
9.11907e-09
1.11346e-08
1.24875e-08
1.31664e-08
-8.64946e-10
2.26669e-09
4.88305e-09
6.73687e-09
7.70038e-09
2.72824e-11
3.16317e-09
5.75354e-09
7.58965e-09
8.5603e-09
1.90436e-09
4.94244e-09
7.50278e-09
9.32734e-09
1.03178e-08
4.46037e-09
7.46863e-09
1.00096e-08
1.18228e-08
1.28075e-08
7.29217e-09
1.03869e-08
1.29307e-08
1.47019e-08
1.56826e-08
-3.24781e-09
1.00177e-09
4.52428e-09
7.03391e-09
8.33569e-09
-1.86255e-09
2.29321e-09
5.75601e-09
8.24308e-09
9.56133e-09
7.61526e-10
4.75385e-09
8.15413e-09
1.06305e-08
1.19876e-08
4.14313e-09
8.12466e-09
1.1493e-08
1.39628e-08
1.53267e-08
7.99521e-09
1.20459e-08
1.53731e-08
1.78093e-08
1.92014e-08
-6.34137e-09
-6.90362e-10
4.03638e-09
7.42778e-09
9.20008e-09
-4.46352e-09
1.06935e-09
5.73119e-09
9.10933e-09
1.09142e-08
-9.94932e-10
4.40707e-09
8.9996e-09
1.23784e-08
1.42128e-08
3.52366e-09
8.94825e-09
1.35165e-08
1.68913e-08
1.87122e-08
8.85003e-09
1.42615e-08
1.88104e-08
2.21473e-08
2.39356e-08
-1.06596e-08
-3.11643e-09
3.24728e-09
7.84723e-09
1.02756e-08
-8.19574e-09
-7.44406e-10
5.56619e-09
1.01639e-08
1.26152e-08
-3.59328e-09
3.77789e-09
1.00308e-08
1.46211e-08
1.70719e-08
2.59083e-09
9.96151e-09
1.61867e-08
2.07533e-08
2.31588e-08
9.954e-09
1.72268e-08
2.34101e-08
2.79027e-08
3.02219e-08
-1.67763e-08
-6.63484e-09
1.95194e-09
8.20509e-09
1.15206e-08
-1.34943e-08
-3.43748e-09
5.11256e-09
1.13658e-08
1.46942e-08
-7.35359e-09
2.68538e-09
1.11994e-08
1.74291e-08
2.07387e-08
1.12502e-09
1.11136e-08
1.95654e-08
2.57437e-08
2.897e-08
1.1232e-08
2.10281e-08
2.93463e-08
3.54193e-08
3.85537e-08
-2.5386e-08
-1.17204e-08
-8.99566e-11
8.42483e-09
1.2945e-08
-2.09881e-08
-7.38726e-09
4.22302e-09
1.27381e-08
1.72643e-08
-1.27049e-08
9.18828e-10
1.24969e-08
2.09608e-08
2.54241e-08
-1.11936e-09
1.23598e-08
2.38028e-08
3.21467e-08
3.64786e-08
1.2534e-08
2.57575e-08
3.69608e-08
4.51393e-08
4.93936e-08
-3.75171e-08
-1.89949e-08
-3.16065e-09
8.43996e-09
1.45761e-08
-3.15735e-08
-1.30879e-08
2.72414e-09
1.43003e-08
2.03918e-08
-2.02886e-08
-1.83019e-09
1.39023e-08
2.5356e-08
3.13325e-08
-4.55304e-09
1.36214e-08
2.91136e-08
4.03567e-08
4.62059e-08
1.37102e-08
3.16489e-08
4.68261e-08
5.78587e-08
6.3677e-08
-5.45567e-08
-2.93114e-08
-7.69104e-09
8.08725e-09
1.63686e-08
-4.65246e-08
-2.12862e-08
2.76253e-10
1.59621e-08
2.41526e-08
-3.11844e-08
-6.07568e-09
1.53096e-08
3.08036e-08
3.88889e-08
-9.86504e-09
1.47838e-08
3.58221e-08
5.10718e-08
5.90626e-08
1.48703e-08
3.91497e-08
5.98272e-08
7.48542e-08
8.28134e-08
-7.84144e-08
-4.38627e-08
-1.43268e-08
7.13857e-09
1.83787e-08
-6.75355e-08
-3.30074e-08
-3.59875e-09
1.77183e-08
2.8891e-08
-4.67024e-08
-1.24505e-08
1.66724e-08
3.77754e-08
4.88515e-08
-1.77898e-08
1.57956e-08
4.44765e-08
6.53092e-08
7.62838e-08
1.60036e-08
4.89371e-08
7.71098e-08
9.76503e-08
1.08546e-07
-1.1154e-07
-6.42172e-08
-2.38412e-08
5.51305e-09
2.09582e-08
-9.67153e-08
-4.95256e-08
-9.34308e-09
1.98476e-08
3.5235e-08
-6.83834e-08
-2.16467e-08
1.81384e-08
4.70564e-08
6.22911e-08
-2.92132e-08
1.67033e-08
5.59122e-08
8.44722e-08
9.95665e-08
1.68138e-08
6.18409e-08
1.00316e-07
1.28477e-07
1.43414e-07
-1.57266e-07
-9.24518e-08
-3.70799e-08
3.30544e-09
2.46384e-08
-1.37049e-07
-7.24821e-08
-1.7381e-08
2.27929e-08
4.39939e-08
-9.84223e-08
-3.4555e-08
1.997e-08
5.9716e-08
8.06779e-08
-4.5261e-08
1.75896e-08
7.13276e-08
1.1054e-07
1.31227e-07
1.72101e-08
7.89066e-08
1.31737e-07
1.70316e-07
1.90589e-07
-2.20322e-07
-1.31294e-07
-5.51011e-08
6.17921e-10
3.00543e-08
-1.92637e-07
-1.04086e-07
-2.83112e-08
2.7059e-08
5.62504e-08
-1.39919e-07
-5.24462e-08
2.24674e-08
7.7167e-08
1.06002e-07
-6.75406e-08
1.85245e-08
9.22894e-08
1.46107e-07
1.7444e-07
1.7238e-08
1.01741e-07
1.74208e-07
2.26958e-07
2.54605e-07
-3.06919e-07
-1.84451e-07
-7.93995e-08
-2.42671e-09
3.82268e-08
-2.69044e-07
-1.47388e-07
-4.30041e-08
3.33823e-08
7.3694e-08
-1.97116e-07
-7.70394e-08
2.60185e-08
1.0137e-07
1.41156e-07
-9.83831e-08
1.96127e-08
1.20866e-07
1.94834e-07
2.33853e-07
1.72108e-08
1.32745e-07
2.3191e-07
3.04273e-07
3.42436e-07
-4.25587e-07
-2.57109e-07
-1.12025e-07
-5.3899e-09
5.11074e-08
-3.73904e-07
-2.06609e-07
-6.26167e-08
4.30988e-08
9.91394e-08
-2.7568e-07
-1.10737e-07
3.11912e-08
1.35322e-07
1.90495e-07
-1.41068e-07
2.08508e-08
1.60029e-07
2.62042e-07
3.16013e-07
1.67076e-08
1.74851e-07
3.10789e-07
4.10301e-07
4.62964e-07
-5.88273e-07
-3.56529e-07
-1.55699e-07
-7.08863e-09
7.21862e-08
-5.17708e-07
-2.87739e-07
-8.86372e-08
5.85495e-08
1.37039e-07
-3.8369e-07
-1.57065e-07
3.8897e-08
1.83519e-07
2.60426e-07
-2.00251e-07
2.21623e-08
2.14016e-07
3.55217e-07
4.30105e-07
1.46238e-08
2.3178e-07
4.18659e-07
5.55925e-07
6.28689e-07
-8.12113e-07
-4.93307e-07
-2.14127e-07
-5.13839e-09
1.07357e-07
-7.15764e-07
-3.99527e-07
-1.23102e-07
8.34144e-08
1.94301e-07
-5.32751e-07
-2.21103e-07
5.03745e-08
2.52367e-07
3.60307e-07
-2.82106e-07
2.35704e-08
2.8869e-07
4.85008e-07
5.89508e-07
1.11402e-08
3.09348e-07
5.67031e-07
7.57209e-07
8.58075e-07
-1.1222e-06
-6.83253e-07
-2.92759e-07
4.79055e-09
1.66999e-07
-9.90235e-07
-5.55112e-07
-1.69469e-07
1.23299e-07
2.82228e-07
-7.39186e-07
-3.10665e-07
6.66335e-08
3.51015e-07
5.04206e-07
-3.95769e-07
2.43872e-08
3.91729e-07
6.66482e-07
8.13295e-07
5.97631e-09
4.16029e-07
7.72443e-07
1.03721e-06
1.17745e-06
-1.55506e-06
-9.50738e-07
-4.0041e-07
3.10062e-08
2.70983e-07
-1.37352e-06
-7.75629e-07
-2.34652e-07
1.87282e-07
4.20505e-07
-1.02688e-06
-4.38681e-07
8.74033e-08
4.92692e-07
7.13282e-07
-5.55642e-07
2.16585e-08
5.31875e-07
9.20332e-07
1.12792e-06
-8.13311e-10
5.64242e-07
1.05885e-06
1.43083e-06
1.62552e-06
-2.16916e-06
-1.33556e-06
-5.52255e-07
9.08299e-08
4.59455e-07
-1.91842e-06
-1.09736e-06
-3.33923e-07
2.90285e-07
6.44606e-07
-1.4321e-06
-6.26265e-07
1.08393e-07
6.96385e-07
1.01939e-06
-7.86728e-07
5.67256e-09
7.13692e-07
1.27257e-06
1.56708e-06
-5.14402e-09
7.75796e-07
1.46458e-06
1.99661e-06
2.25886e-06
-3.07484e-06
-1.90227e-06
-7.75511e-07
2.21909e-07
8.16542e-07
-2.72639e-06
-1.58559e-06
-5.07592e-07
4.55158e-07
1.02266e-06
-2.00978e-06
-9.02925e-07
1.16719e-07
9.92241e-07
1.47164e-06
-1.14615e-06
-5.51726e-08
9.12452e-07
1.74574e-06
2.16182e-06
9.90083e-09
1.09843e-06
2.05815e-06
2.85674e-06
3.16072e-06
-4.527e-06
-2.73575e-06
-1.11781e-06
5.11671e-07
1.5246e-06
-4.05366e-06
-2.35769e-06
-8.85575e-07
7.07566e-07
1.69774e-06
-2.83835e-06
-1.27307e-06
1.01779e-07
1.45134e-06
2.15184e-06
-1.82627e-06
-2.59488e-07
9.63584e-07
2.30914e-06
2.89367e-06
1.00255e-07
1.66701e-06
2.98011e-06
4.36586e-06
4.42224e-06
-7.1442e-06
-3.82549e-06
-1.67802e-06
1.1544e-06
2.96959e-06
-6.65445e-06
-3.56139e-06
-1.93091e-06
1.03644e-06
2.99034e-06
-3.90752e-06
-1.50762e-06
1.89977e-07
2.34408e-06
3.23171e-06
-3.64544e-06
-8.46964e-07
1.142e-07
2.66349e-06
3.54197e-06
4.04736e-07
2.94374e-06
4.50916e-06
7.57797e-06
6.08854e-06
-1.20023e-05
-4.63659e-06
-2.84556e-06
2.70028e-06
6.13777e-06
-1.1944e-05
-4.84518e-06
-4.96261e-06
1.43756e-06
5.91612e-06
-4.69924e-06
-8.1767e-07
7.45462e-07
4.40832e-06
5.05142e-06
-8.7876e-06
-1.53873e-06
-3.70913e-06
2.12578e-06
3.54315e-06
1.25009e-06
6.77675e-06
7.26823e-06
1.48054e-05
7.95163e-06
-1.85008e-05
2.7798e-06
3.24542e-06
1.41106e-05
1.64975e-05
-1.37556e-05
1.00836e-06
-9.39071e-06
5.32681e-06
1.59915e-05
4.50525e-06
9.30844e-06
8.84346e-06
1.48317e-05
1.17137e-05
-1.24408e-05
1.03759e-05
-3.89217e-06
7.50705e-06
5.1517e-06
1.06235e-05
2.89314e-05
2.8615e-05
3.53542e-05
1.65243e-05
-5.43435e-05
-5.33749e-05
-5.6325e-05
-4.79645e-05
-2.87704e-05
-6.05308e-05
-5.66585e-05
-5.10874e-05
-3.73812e-05
-2.24346e-05
-5.93489e-05
-5.02933e-05
-5.13023e-05
-4.39035e-05
-4.03859e-05
-5.7086e-05
-5.62826e-05
-6.31325e-05
-5.9474e-05
-4.18819e-05
-5.97012e-05
-3.45274e-05
-6.39863e-05
8.93173e-06
-4.70662e-05
-0.000107817
5.04799e-05
5.34226e-05
0.000130765
0.000113629
-4.24312e-05
1.32381e-05
-5.44001e-05
2.88895e-05
0.000131809
8.6793e-05
4.63898e-05
5.78729e-05
8.56469e-05
6.94445e-05
-0.000110667
3.6041e-05
-5.75422e-05
3.00177e-05
-2.97243e-05
7.91943e-05
0.000210795
0.000201291
0.000154518
1.09454e-06
0.000605376
0.00113021
0.000838356
0.000804096
0.00065248
0.000904149
0.000916394
0.00113583
0.000550349
0.000507237
0.000870006
0.00111477
0.00107737
0.000845168
0.000588358
0.000915894
0.00132486
0.000966693
0.000848885
0.00057076
0.000911157
0.000872857
0.00124344
0.000833509
0.00139962
0.00289782
0.00247248
0.00193154
0.00150947
0.00160185
0.00258442
0.00209237
0.00210053
0.00173843
0.00107162
0.00186988
0.00207567
0.00185595
0.00176595
0.00172131
0.00237168
0.00230156
0.00208348
0.00198073
0.00252733
0.00150964
0.00160294
0.00201524
0.00171509
0.00233628
0.00369054
0.0034821
0.00323855
0.00312094
0.00354423
0.00367185
0.00339378
0.00289031
0.00307762
0.00302098
0.00351396
0.00291405
0.00288893
0.00306363
0.0033204
0.00352209
0.00290993
0.00314934
0.00325777
0.00343659
0.00266608
0.00305751
0.00255375
0.00267337
0.0030644
0.00434623
0.00446669
0.00458153
0.00503646
0.00495231
0.00401443
0.00450141
0.00421681
0.00438411
0.00478887
0.0041941
0.00393763
0.00449945
0.00409983
0.00440996
0.00408453
0.00364894
0.00394768
0.00404037
0.00379787
0.00398263
0.00342819
0.00336498
0.00385141
0.00357432
0.00521669
0.00527208
0.00535812
0.00532619
0.00525445
0.00526388
0.00533879
0.00549702
0.00535764
0.00536015
0.00522797
0.00504862
0.00533567
0.00504448
0.00530872
0.00481168
0.00508122
0.00543541
0.0047457
0.00502858
0.00495415
0.00434402
0.00509935
0.00514854
0.00484787
0.00637744
0.00610148
0.00631884
0.0057608
0.00573104
0.00677972
0.00606443
0.00618711
0.00583461
0.00563436
0.00638782
0.00615942
0.00622675
0.00629345
0.0058583
0.00674745
0.00605601
0.00624376
0.00587983
0.00606986
0.00582218
0.00631398
0.00607378
0.00596322
0.00602163
0.00740036
0.0072145
0.0070549
0.00652127
0.00637177
0.00725009
0.00700644
0.00693729
0.00682072
0.00662334
0.00704966
0.00728735
0.00701457
0.00709881
0.00725313
0.00717347
0.00712331
0.0069953
0.00701879
0.0067633
0.00711529
0.0071318
0.00673734
0.00654859
0.0066012
0.00789166
0.00780654
0.00781958
0.00712141
0.00693169
0.0076125
0.00794741
0.00782098
0.00807433
0.00817984
0.00790496
0.00782973
0.0078413
0.00800649
0.00807163
0.00764415
0.00785626
0.00763303
0.00792879
0.00789537
0.00799654
0.00779646
0.00786275
0.00806335
0.00791029
0.00857344
0.00850878
0.00882524
0.00893853
0.00893922
0.00844817
0.00833996
0.00852019
0.00876875
0.00873792
0.00873612
0.00855841
0.00857293
0.00874558
0.00845336
0.00883654
0.00860879
0.00847042
0.00883044
0.00882304
0.00857729
0.00860631
0.0086759
0.00887978
0.00861644
0.00938289
0.00951203
0.00955943
0.00967077
0.00978061
0.00957633
0.0093402
0.00967731
0.00963302
0.00957418
0.0095598
0.0095947
0.0093918
0.00945556
0.00925301
0.00957701
0.00962484
0.00961116
0.0096576
0.0097981
0.00934117
0.00957013
0.00974734
0.00973001
0.00985019
0.00983761
0.00984172
0.00984866
0.00991551
0.0099305
0.00991966
0.00993432
0.00992418
0.0099397
0.00990583
0.00988946
0.00992969
0.00993391
0.00991135
0.00993253
0.00989461
0.00995447
0.0099173
0.00994431
0.00995248
0.00993066
0.00992285
0.0099837
0.00995063
0.00998372
0.00989835
0.00990581
0.00988298
0.00991172
0.00989342
0.00992435
0.0099148
0.00990497
0.00990211
0.00988712
0.00989554
0.00993218
0.00989578
0.00990943
0.00991503
0.00989625
0.0099199
0.0099173
0.00990536
0.00991479
0.00992752
0.00992735
0.00991688
0.00990706
0.00992285
0.00989864
0.00990161
0.00989502
0.00990547
0.00989979
0.00990986
0.0099126
0.00990528
0.00990477
0.00989925
0.00990318
0.00991493
0.00990456
0.00990719
0.00990851
0.00990631
0.00991444
0.00991126
0.00990859
0.00991185
0.0099141
0.00991907
0.00991743
0.00991176
0.00991677
0.00990538
0.00990682
0.00990332
0.00990733
0.00990453
0.0099102
0.00991082
0.00990701
0.00990743
0.0099053
0.00990854
0.00991304
0.0099087
0.00990896
0.00990948
0.00991063
0.00991379
0.00991186
0.00991058
0.00991169
0.00991437
0.00991575
0.00991472
0.00991259
0.00991417
0.00990871
0.00990974
0.00990767
0.00990896
0.00990779
0.00991051
0.00991124
0.00990933
0.0099094
0.00990862
0.00991111
0.00991251
0.00991076
0.00991045
0.00991059
0.00991252
0.00991348
0.00991245
0.00991172
0.00991216
0.00991446
0.00991463
0.00991394
0.00991305
0.00991362
0.00991099
0.00991099
0.00991017
0.00991053
0.00991003
0.00991177
0.00991175
0.00991101
0.00991085
0.00991055
0.0099125
0.00991259
0.00991192
0.00991163
0.00991158
0.00991346
0.00991343
0.00991293
0.00991253
0.00991264
0.00991453
0.0099143
0.00991387
0.00991345
0.00991364
0.0099123
0.00991205
0.0099117
0.00991163
0.00991145
0.0099127
0.00991246
0.0099121
0.00991192
0.00991178
0.00991323
0.00991301
0.00991267
0.00991247
0.00991238
0.00991386
0.00991363
0.00991334
0.00991312
0.00991308
0.00991453
0.00991427
0.00991399
0.00991377
0.00991377
0.00991308
0.00991284
0.00991262
0.00991249
0.0099124
0.00991331
0.00991307
0.00991285
0.0099127
0.00991262
0.00991366
0.00991343
0.00991322
0.00991307
0.009913
0.00991409
0.00991387
0.00991367
0.00991353
0.00991347
0.00991453
0.00991433
0.00991414
0.009914
0.00991396
0.00991358
0.00991339
0.00991323
0.00991312
0.00991306
0.00991372
0.00991353
0.00991337
0.00991326
0.0099132
0.00991395
0.00991377
0.00991362
0.00991351
0.00991346
0.00991424
0.00991407
0.00991393
0.00991383
0.00991378
0.00991455
0.0099144
0.00991426
0.00991417
0.00991413
0.00991391
0.00991376
0.00991365
0.00991357
0.00991352
0.009914
0.00991386
0.00991374
0.00991366
0.00991362
0.00991415
0.00991402
0.00991391
0.00991383
0.00991379
0.00991435
0.00991423
0.00991413
0.00991405
0.00991402
0.00991457
0.00991446
0.00991436
0.0099143
0.00991426
0.00991413
0.00991403
0.00991394
0.00991388
0.00991385
0.00991419
0.00991409
0.00991401
0.00991395
0.00991392
0.0099143
0.0099142
0.00991412
0.00991406
0.00991403
0.00991444
0.00991435
0.00991427
0.00991422
0.00991419
0.00991459
0.00991451
0.00991444
0.00991439
0.00991437
0.00991429
0.00991421
0.00991415
0.00991411
0.00991408
0.00991433
0.00991426
0.00991419
0.00991415
0.00991413
0.0099144
0.00991433
0.00991427
0.00991423
0.00991421
0.0099145
0.00991444
0.00991438
0.00991434
0.00991432
0.00991461
0.00991455
0.0099145
0.00991447
0.00991445
0.0099144
0.00991434
0.0099143
0.00991427
0.00991425
0.00991443
0.00991437
0.00991433
0.0099143
0.00991428
0.00991448
0.00991443
0.00991439
0.00991436
0.00991434
0.00991455
0.0099145
0.00991446
0.00991443
0.00991442
0.00991462
0.00991458
0.00991455
0.00991452
0.00991451
0.00991448
0.00991444
0.00991441
0.00991438
0.00991437
0.0099145
0.00991446
0.00991443
0.0099144
0.00991439
0.00991453
0.0099145
0.00991447
0.00991445
0.00991443
0.00991458
0.00991455
0.00991452
0.0099145
0.00991449
0.00991464
0.00991461
0.00991458
0.00991456
0.00991455
0.00991453
0.00991451
0.00991448
0.00991447
0.00991446
0.00991455
0.00991452
0.0099145
0.00991448
0.00991447
0.00991457
0.00991455
0.00991453
0.00991451
0.0099145
0.00991461
0.00991458
0.00991456
0.00991455
0.00991454
0.00991465
0.00991463
0.00991461
0.00991459
0.00991459
0.00991457
0.00991455
0.00991454
0.00991453
0.00991452
0.00991458
0.00991456
0.00991455
0.00991454
0.00991453
0.0099146
0.00991458
0.00991457
0.00991456
0.00991455
0.00991463
0.00991461
0.0099146
0.00991459
0.00991458
0.00991466
0.00991464
0.00991463
0.00991462
0.00991461
0.0099146
0.00991459
0.00991458
0.00991457
0.00991457
0.00991461
0.0099146
0.00991459
0.00991458
0.00991457
0.00991462
0.00991461
0.0099146
0.00991459
0.00991459
0.00991464
0.00991463
0.00991462
0.00991461
0.00991461
0.00991466
0.00991465
0.00991464
0.00991464
0.00991463
0.00991462
0.00991462
0.00991461
0.0099146
0.0099146
0.00991463
0.00991462
0.00991461
0.00991461
0.0099146
0.00991464
0.00991463
0.00991462
0.00991462
0.00991461
0.00991465
0.00991464
0.00991464
0.00991463
0.00991463
0.00991467
0.00991466
0.00991465
0.00991465
0.00991465
0.00991464
0.00991463
0.00991463
0.00991462
0.00991462
0.00991464
0.00991464
0.00991463
0.00991463
0.00991463
0.00991465
0.00991464
0.00991464
0.00991463
0.00991463
0.00991466
0.00991465
0.00991465
0.00991465
0.00991464
0.00991467
0.00991467
0.00991466
0.00991466
0.00991466
0.00991465
0.00991465
0.00991464
0.00991464
0.00991464
0.00991465
0.00991465
0.00991465
0.00991464
0.00991464
0.00991466
0.00991465
0.00991465
0.00991465
0.00991465
0.00991467
0.00991466
0.00991466
0.00991466
0.00991465
0.00991468
0.00991467
0.00991467
0.00991466
0.00991466
0.00991466
0.00991466
0.00991465
0.00991465
0.00991465
0.00991466
0.00991466
0.00991466
0.00991465
0.00991465
0.00991467
0.00991466
0.00991466
0.00991466
0.00991466
0.00991467
0.00991467
0.00991466
0.00991466
0.00991466
0.00991468
0.00991467
0.00991467
0.00991467
0.00991467
0.00991467
0.00991466
0.00991466
0.00991466
0.00991466
0.00991467
0.00991466
0.00991466
0.00991466
0.00991466
0.00991467
0.00991467
0.00991466
0.00991466
0.00991466
0.00991467
0.00991467
0.00991467
0.00991467
0.00991467
0.00991468
0.00991467
0.00991467
0.00991467
0.00991467
0.00991467
0.00991467
0.00991467
0.00991466
0.00991466
0.00991467
0.00991467
0.00991467
0.00991467
0.00991467
0.00991467
0.00991467
0.00991467
0.00991467
0.00991467
0.00991467
0.00991467
0.00991467
0.00991467
0.00991467
0.00991468
0.00991468
0.00991467
0.00991467
0.00991467
0.00991467
0.00991467
0.00991467
0.00991467
0.00991467
0.00991467
0.00991467
0.00991467
0.00991467
0.00991467
0.00991467
0.00991467
0.00991467
0.00991467
0.00991467
0.00991467
0.00991467
0.00991467
0.00991467
0.00991467
0.00991468
0.00991468
0.00991468
0.00991467
0.00991467
0.00991467
0.00991467
0.00991467
0.00991467
0.00991467
0.00991467
0.00991467
0.00991467
0.00991467
0.00991467
0.00991467
0.00991467
0.00991467
0.00991467
0.00991467
0.00991468
0.00991467
0.00991467
0.00991467
0.00991467
0.00991468
0.00991468
0.00991468
0.00991468
0.00991467
0.00991467
0.00991467
0.00991467
0.00991467
0.00991467
0.00991467
0.00991467
0.00991467
0.00991467
0.00991467
0.00991468
0.00991467
0.00991467
0.00991467
0.00991467
0.00991468
0.00991468
0.00991467
0.00991467
0.00991467
0.00991468
0.00991468
0.00991468
0.00991468
0.00991468
0.00991468
0.00991468
0.00991467
0.00991467
0.00991467
0.00991468
0.00991468
0.00991467
0.00991467
0.00991467
0.00991468
0.00991468
0.00991468
0.00991467
0.00991467
0.00991468
0.00991468
0.00991468
0.00991468
0.00991468
0.00991468
0.00991468
0.00991468
0.00991468
0.00991468
0.00991468
0.00991468
0.00991468
0.00991468
0.00991468
0.00991468
0.00991468
0.00991468
0.00991468
0.00991468
0.00991468
0.00991468
0.00991468
0.00991468
0.00991468
0.00991468
0.00991468
0.00991468
0.00991468
0.00991468
0.00991468
0.00991468
0.00991468
0.00991468
0.00991468
0.00991468
0.00991468
0.00991468
0.00991468
0.00991468
0.00991468
0.00991468
0.00991468
0.00991468
0.00991468
0.00991468
0.00991468
0.00991468
0.00991468
0.00991468
0.00991468
0.00991468
0.00991468
0.00991468
0.00991468
0.00991468
0.00991468
0.00991468
0.00991468
0.00991468
0.00991468
0.00991468
0.00991468
0.00991468
0.00991468
0.00991468
0.00991468
0.00991468
0.00991468
0.00991468
0.00991468
0.00991468
0.00991468
0.00991468
0.00991468
0.00991468
0.00991468
0.00991468
0.00991468
0.00991468
0.00991468
0.00991468
0.00991468
0.00991468
0.00991468
0.00991468
0.00991468
0.00991468
0.00991468
0.00991468
0.00991468
0.00991468
0.00991468
0.00991468
0.00991468
0.00991468
0.00991468
0.00991468
0.00991468
0.00991468
0.00991468
0.00991468
0.00991468
0.00991468
0.00991468
0.00991468
0.00991468
0.00991468
0.00991468
0.00991468
0.00991468
0.00991468
0.00991468
0.00991468
0.00991468
0.00991468
0.00991468
0.00991468
0.00991468
0.00991468
0.00991468
0.00991468
0.00991468
0.00991468
0.00991468
0.00991468
0.00991468
0.00991468
0.00991468
0.00991468
0.00991468
0.00991468
0.00991468
0.00991468
0.00991468
0.00991468
0.00991468
0.00991468
0.00991468
0.00991468
0.00991468
0.00991468
0.00991468
0.00991468
0.00991468
0.00991468
0.00991468
0.00991468
0.00991468
0.00991468
0.00991468
0.00991468
0.00991468
0.00991468
0.00991468
0.00991468
0.00991468
0.00991468
0.00991468
0.00991468
0.00991468
0.00991468
0.00991468
0.00991468
0.00991468
0.00991468
0.00991468
0.00991468
0.00991468
0.00991468
0.00991468
0.00991468
0.00991468
0.00991468
0.00991468
0.00991468
0.00991468
0.00991468
0.00991468
0.00991468
0.00991468
0.00991468
0.00991468
0.00991468
0.00991468
0.00991468
0.00991468
0.00991468
0.00991468
0.00991468
0.00991468
0.00991468
0.00991468
0.00991468
0.00991468
0.00991468
0.00991468
0.00991468
0.00991468
0.00991468
0.00991468
0.00991468
0.00991468
0.00991468
0.00991468
0.00991468
0.00991468
0.00991468
0.00991468
0.00991468
0.00991468
0.00991468
0.00991468
0.00991468
0.00991468
0.00991468
0.00991468
0.00991468
0.00991468
0.00991468
0.00991468
0.00991468
0.00991468
0.00991468
0.00991468
0.00991468
0.00991468
0.00991468
0.00991468
0.00991468
0.00991468
0.00991468
0.00991468
0.00991468
0.00991468
0.00991468
0.00991468
0.00991468
0.00991468
0.00991468
0.00991468
0.00991468
0.00991468
0.00991468
0.00991468
0.00991468
0.00991468
0.00991468
0.00991468
0.00991468
0.00991468
0.00991468
0.00991468
0.00991468
0.00991468
0.00991468
0.00991468
0.00991468
0.00991468
0.00991468
0.00991468
0.00991468
0.00991468
0.00991468
0.00991468
0.00991468
0.00991468
0.00991468
0.00991468
0.00991468
0.00991468
0.00991468
0.00991468
0.00991468
0.00991468
0.00991468
0.00991468
0.00991468
0.00991468
0.00991468
0.00991468
0.00991468
0.00991468
0.00991468
0.00991468
0.00991468
0.00991468
0.00991468
0.00991468
0.00991468
0.00991468
0.00991468
0.00991468
0.00991468
0.00991468
0.00991468
0.00991468
0.00991468
0.00991468
0.00991468
0.00991468
0.00991468
0.00991468
0.00991468
0.00991468
0.00991468
0.00991468
0.00991468
0.00991468
0.00991468
)
;

boundaryField
{
    inlet
    {
        type            zeroGradient;
    }
    outlet
    {
        type            fixedValue;
        value           uniform 0;
    }
    repeat_boundary
    {
        type            zeroGradient;
    }
    procBoundary1to0
    {
        type            processor;
        value           nonuniform List<scalar> 
450
(
5.43199e-10
5.03441e-10
4.56405e-10
4.61513e-10
5.15654e-10
1.49128e-09
1.39862e-09
1.34003e-09
1.38636e-09
1.45992e-09
2.28938e-09
2.2409e-09
2.27125e-09
2.3839e-09
2.41738e-09
3.09962e-09
3.16158e-09
3.33536e-09
3.58276e-09
3.74436e-09
3.90004e-09
4.04986e-09
4.3742e-09
4.81375e-09
5.23587e-09
4.55215e-09
4.78352e-09
5.26493e-09
5.90574e-09
6.63932e-09
5.06736e-09
5.39615e-09
6.02288e-09
6.8283e-09
7.77e-09
5.45655e-09
5.84282e-09
6.54746e-09
7.42447e-09
8.36748e-09
5.55968e-09
5.92688e-09
6.61372e-09
7.44945e-09
8.24277e-09
5.2456e-09
5.562e-09
6.18257e-09
6.94581e-09
7.6285e-09
4.55883e-09
4.84763e-09
5.4265e-09
6.18917e-09
7.01494e-09
3.57078e-09
3.86532e-09
4.44082e-09
5.2569e-09
6.3502e-09
2.28863e-09
2.6144e-09
3.23242e-09
4.18331e-09
5.55179e-09
6.82416e-10
1.07652e-09
1.87841e-09
3.20224e-09
5.0806e-09
-1.37317e-09
-8.06678e-10
4.15284e-10
2.32176e-09
4.85188e-09
-4.05153e-09
-3.12372e-09
-1.27469e-09
1.27529e-09
4.33195e-09
-7.49106e-09
-6.07496e-09
-3.48297e-09
-9.41376e-11
3.80854e-09
-1.20498e-08
-1.01459e-08
-6.67194e-09
-2.02046e-09
3.45323e-09
-1.84137e-08
-1.59295e-08
-1.12857e-08
-4.91668e-09
2.63736e-09
-2.73327e-08
-2.40221e-08
-1.77769e-08
-9.12694e-09
1.14941e-09
-3.97276e-08
-3.52974e-08
-2.68414e-08
-1.51088e-08
-1.16925e-09
-5.6978e-08
-5.10034e-08
-3.95102e-08
-2.36708e-08
-4.95673e-09
-8.1054e-08
-7.29626e-08
-5.73724e-08
-3.59515e-08
-1.07306e-08
-1.14662e-07
-1.03653e-07
-8.24983e-08
-5.34112e-08
-1.93729e-08
-1.61201e-07
-1.46117e-07
-1.17334e-07
-7.77376e-08
-3.15559e-08
-2.25301e-07
-2.04628e-07
-1.6533e-07
-1.11276e-07
-4.79751e-08
-3.13517e-07
-2.85183e-07
-2.31492e-07
-1.57766e-07
-7.12349e-08
-4.34537e-07
-3.95831e-07
-3.22523e-07
-2.2191e-07
-1.03935e-07
-6.00463e-07
-5.47623e-07
-4.47428e-07
-3.09903e-07
-1.48802e-07
-8.28062e-07
-7.55768e-07
-6.18929e-07
-4.31071e-07
-2.11162e-07
-1.14015e-06
-1.04144e-06
-8.54548e-07
-5.97913e-07
-2.97581e-07
-1.56823e-06
-1.43352e-06
-1.17786e-06
-8.27409e-07
-4.17218e-07
-2.15439e-06
-1.97028e-06
-1.62056e-06
-1.14343e-06
-5.8343e-07
-2.95216e-06
-2.7009e-06
-2.22277e-06
-1.57768e-06
-8.1423e-07
-4.01798e-06
-3.67428e-06
-3.02304e-06
-2.16589e-06
-1.13335e-06
-5.36486e-06
-4.87056e-06
-4.01427e-06
-2.9032e-06
-1.57214e-06
-6.8935e-06
-5.96337e-06
-5.06956e-06
-3.46531e-06
-2.20934e-06
-8.61617e-06
-5.86128e-06
-6.22572e-06
-2.36027e-06
-3.46447e-06
6.00929e-06
4.04155e-07
1.44213e-06
3.59034e-06
-6.17516e-06
-6.92929e-05
-1.86745e-05
-7.28687e-05
-4.3858e-06
-3.73072e-05
0.000144045
-2.94345e-05
4.41561e-05
2.73989e-06
-9.17221e-05
0.0011983
0.000730422
0.00092391
0.000540891
0.000282006
0.00155077
0.00160088
0.00186205
0.00161214
0.00217366
0.00287992
0.00265991
0.00285664
0.00287309
0.00335925
0.00409899
0.00464064
0.00379256
0.00412491
0.00423221
0.00535935
0.00514706
0.00509398
0.00488942
0.00493779
0.00646417
0.00593674
0.0062708
0.00579179
0.00575305
0.00693253
0.00711057
0.00729914
0.00696358
0.00693401