/*--------------------------------*- C++ -*----------------------------------*\
| =========                 |                                                 |
| \\      /  F ield         | OpenFOAM: The Open Source CFD Toolbox           |
|  \\    /   O peration     | Version:  5.x                                   |
|   \\  /    A nd           | Web:      www.OpenFOAM.org                      |
|    \\/     M anipulation  |                                                 |
\*---------------------------------------------------------------------------*/
FoamFile
{
    version     2.0;
    format      ascii;
    class       volVectorField;
    location    "0.01";
    object      U;
}
// * * * * * * * * * * * * * * * * * * * * * * * * * * * * * * * * * * * * * //

dimensions      [0 1 -1 0 0 0 0];

internalField   nonuniform List<vector> 
2250
(
(-1.1905e-10 -1.45179e-11 -0.001)
(-1.02986e-10 -1.6345e-11 -0.001)
(-9.74844e-11 -2.86748e-11 -0.001)
(-5.63827e-11 -1.85241e-11 -0.001)
(-9.52486e-12 -1.24079e-11 -0.001)
(-1.29328e-10 -2.77531e-11 -0.001)
(-1.17385e-10 -4.05652e-11 -0.001)
(-9.9875e-11 -5.21041e-11 -0.001)
(-4.02222e-11 -4.03325e-11 -0.001)
(-3.43338e-12 -3.7323e-11 -0.001)
(-1.41074e-10 -5.37849e-11 -0.001)
(-1.27553e-10 -5.29892e-11 -0.001)
(-9.74598e-11 -5.4021e-11 -0.001)
(-4.1795e-11 -5.58944e-11 -0.001)
(-6.60111e-12 -6.58758e-11 -0.001)
(-1.38275e-10 -1.32108e-10 -0.001)
(-1.17624e-10 -8.19727e-11 -0.001)
(-1.02783e-10 -7.92884e-11 -0.001)
(-5.22108e-11 -9.02184e-11 -0.001)
(-1.35283e-11 -1.08783e-10 -0.001)
(-1.81666e-10 -1.42143e-11 -0.001)
(-7.48867e-11 -8.61926e-11 -0.001)
(-1.05708e-10 -8.67054e-11 -0.001)
(-7.15275e-11 -9.90636e-11 -0.001)
(-2.53491e-11 -1.15791e-10 -0.001)
(-3.84942e-10 -3.55641e-11 -0.001)
(-3.45268e-10 -4.83045e-11 -0.001)
(-2.83692e-10 -5.89273e-11 -0.001)
(-1.50132e-10 -4.25582e-11 -0.001)
(-3.2064e-11 -3.6455e-11 -0.001)
(-4.09801e-10 -9.81251e-11 -0.001)
(-3.69407e-10 -1.23379e-10 -0.001)
(-2.7854e-10 -1.31579e-10 -0.001)
(-1.28011e-10 -1.13837e-10 -0.001)
(-2.61203e-11 -1.14505e-10 -0.001)
(-4.1614e-10 -1.93711e-10 -0.001)
(-3.79447e-10 -1.79917e-10 -0.001)
(-2.74749e-10 -1.7694e-10 -0.001)
(-1.33601e-10 -1.84268e-10 -0.001)
(-3.30421e-11 -2.055e-10 -0.001)
(-3.89256e-10 -3.83958e-10 -0.001)
(-3.52641e-10 -2.76135e-10 -0.001)
(-2.82899e-10 -2.57406e-10 -0.001)
(-1.56996e-10 -2.77926e-10 -0.001)
(-4.77368e-11 -3.07998e-10 -0.001)
(-5.04547e-10 -1.1773e-10 -0.001)
(-2.52741e-10 -2.54179e-10 -0.001)
(-2.76544e-10 -2.69145e-10 -0.001)
(-1.84823e-10 -3.04641e-10 -0.001)
(-6.36982e-11 -3.31267e-10 -0.001)
(-6.93521e-10 -7.61424e-11 -0.001)
(-6.32221e-10 -8.89171e-11 -0.001)
(-4.7786e-10 -8.63392e-11 -0.001)
(-2.52411e-10 -7.27799e-11 -0.001)
(-6.70878e-11 -7.37446e-11 -0.001)
(-7.14827e-10 -2.2543e-10 -0.001)
(-6.43793e-10 -2.38472e-10 -0.001)
(-4.62703e-10 -2.26482e-10 -0.001)
(-2.40457e-10 -2.14763e-10 -0.001)
(-6.83366e-11 -2.28463e-10 -0.001)
(-6.91143e-10 -3.96705e-10 -0.001)
(-6.34605e-10 -3.64968e-10 -0.001)
(-4.55146e-10 -3.47505e-10 -0.001)
(-2.55376e-10 -3.613e-10 -0.001)
(-8.13728e-11 -3.89625e-10 -0.001)
(-6.33277e-10 -6.16631e-10 -0.001)
(-5.94603e-10 -5.14947e-10 -0.001)
(-4.59048e-10 -4.8062e-10 -0.001)
(-2.83398e-10 -5.01142e-10 -0.001)
(-9.74317e-11 -5.22595e-10 -0.001)
(-7.06045e-10 -4.19972e-10 -0.001)
(-4.98595e-10 -4.94676e-10 -0.001)
(-4.41349e-10 -5.11756e-10 -0.001)
(-2.98446e-10 -5.46247e-10 -0.001)
(-1.03877e-10 -5.59545e-10 -0.001)
(-1.00973e-09 -1.38615e-10 -0.001)
(-9.28884e-10 -1.39896e-10 -0.001)
(-6.95962e-10 -1.2925e-10 -0.001)
(-4.01834e-10 -1.26692e-10 -0.001)
(-1.27184e-10 -1.38076e-10 -0.001)
(-1.01591e-09 -4.14341e-10 -0.001)
(-9.21449e-10 -3.98181e-10 -0.001)
(-6.84156e-10 -3.75666e-10 -0.001)
(-4.11741e-10 -3.80318e-10 -0.001)
(-1.39097e-10 -4.03655e-10 -0.001)
(-9.75343e-10 -6.84291e-10 -0.001)
(-8.92121e-10 -6.29887e-10 -0.001)
(-6.79507e-10 -6.05419e-10 -0.001)
(-4.31432e-10 -6.19662e-10 -0.001)
(-1.51549e-10 -6.37727e-10 -0.001)
(-9.16092e-10 -9.194e-10 -0.001)
(-8.42594e-10 -8.25099e-10 -0.001)
(-6.73952e-10 -7.93432e-10 -0.001)
(-4.45385e-10 -8.03728e-10 -0.001)
(-1.58444e-10 -8.07886e-10 -0.001)
(-9.053e-10 -8.34192e-10 -0.001)
(-7.66198e-10 -8.38286e-10 -0.001)
(-6.58171e-10 -8.44942e-10 -0.001)
(-4.47583e-10 -8.56322e-10 -0.001)
(-1.57372e-10 -8.51879e-10 -0.001)
(-1.34703e-09 -2.11035e-10 -0.001)
(-1.25634e-09 -2.0778e-10 -0.001)
(-9.83005e-10 -2.03332e-10 -0.001)
(-6.26381e-10 -2.14948e-10 -0.001)
(-2.17987e-10 -2.25341e-10 -0.001)
(-1.34429e-09 -6.40781e-10 -0.001)
(-1.25116e-09 -6.14541e-10 -0.001)
(-9.92137e-10 -6.02432e-10 -0.001)
(-6.50099e-10 -6.18069e-10 -0.001)
(-2.29256e-10 -6.25723e-10 -0.001)
(-1.31177e-09 -1.034e-09 -0.001)
(-1.22054e-09 -9.76745e-10 -0.001)
(-9.88512e-10 -9.55314e-10 -0.001)
(-6.52189e-10 -9.49331e-10 -0.001)
(-2.27339e-10 -9.35573e-10 -0.001)
(-1.27873e-09 -1.34158e-09 -0.001)
(-1.17258e-09 -1.24544e-09 -0.001)
(-9.64788e-10 -1.21019e-09 -0.001)
(-6.32257e-10 -1.18318e-09 -0.001)
(-2.17397e-10 -1.158e-09 -0.001)
(-1.30742e-09 -1.20724e-09 -0.001)
(-1.08904e-09 -1.25994e-09 -0.001)
(-9.26253e-10 -1.25612e-09 -0.001)
(-6.0232e-10 -1.23728e-09 -0.001)
(-2.0448e-10 -1.2173e-09 -0.001)
(-1.78324e-09 -3.04805e-10 -0.000999999)
(-1.69233e-09 -3.06496e-10 -0.001)
(-1.37565e-09 -3.10195e-10 -0.001)
(-9.10821e-10 -3.20871e-10 -0.001)
(-3.20991e-10 -3.13422e-10 -0.001)
(-1.78202e-09 -9.19131e-10 -0.000999999)
(-1.70104e-09 -9.02592e-10 -0.001)
(-1.39272e-09 -8.94495e-10 -0.001)
(-9.16363e-10 -8.91257e-10 -0.001)
(-3.1474e-10 -8.63367e-10 -0.001)
(-1.76244e-09 -1.44743e-09 -0.001)
(-1.67093e-09 -1.40457e-09 -0.001)
(-1.36693e-09 -1.36841e-09 -0.001)
(-8.83142e-10 -1.32177e-09 -0.001)
(-2.95481e-10 -1.27922e-09 -0.001)
(-1.73787e-09 -1.86068e-09 -0.001)
(-1.622e-09 -1.7561e-09 -0.001)
(-1.30987e-09 -1.6947e-09 -0.001)
(-8.29717e-10 -1.62253e-09 -0.001)
(-2.748e-10 -1.58292e-09 -0.001)
(-1.80846e-09 -1.72192e-09 -0.001)
(-1.50511e-09 -1.78833e-09 -0.001)
(-1.23339e-09 -1.74827e-09 -0.001)
(-7.74504e-10 -1.70358e-09 -0.001)
(-2.59058e-10 -1.6852e-09 -0.001)
(-2.39633e-09 -4.33272e-10 -0.000999999)
(-2.2781e-09 -4.30642e-10 -0.000999999)
(-1.86094e-09 -4.29652e-10 -0.001)
(-1.21815e-09 -4.23951e-10 -0.001)
(-4.19041e-10 -4.01421e-10 -0.001)
(-2.39544e-09 -1.2755e-09 -0.000999999)
(-2.27891e-09 -1.24925e-09 -0.001)
(-1.85788e-09 -1.22056e-09 -0.001)
(-1.19312e-09 -1.18366e-09 -0.001)
(-3.98161e-10 -1.13653e-09 -0.001)
(-2.37515e-09 -1.97112e-09 -0.001)
(-2.22766e-09 -1.91187e-09 -0.001)
(-1.79909e-09 -1.84168e-09 -0.001)
(-1.13885e-09 -1.76759e-09 -0.001)
(-3.75091e-10 -1.72563e-09 -0.001)
(-2.32431e-09 -2.47798e-09 -0.001)
(-2.14947e-09 -2.35996e-09 -0.001)
(-1.71371e-09 -2.26549e-09 -0.001)
(-1.08056e-09 -2.18538e-09 -0.001)
(-3.59704e-10 -2.16558e-09 -0.001)
(-2.34239e-09 -2.44725e-09 -0.001)
(-2.01509e-09 -2.4645e-09 -0.001)
(-1.62454e-09 -2.38333e-09 -0.001)
(-1.04329e-09 -2.33349e-09 -0.001)
(-3.59652e-10 -2.3332e-09 -0.001)
(-3.23872e-09 -5.82302e-10 -0.000999998)
(-3.03077e-09 -5.68493e-10 -0.000999999)
(-2.44847e-09 -5.57276e-10 -0.001)
(-1.57472e-09 -5.40016e-10 -0.001)
(-5.33576e-10 -5.21446e-10 -0.001)
(-3.23513e-09 -1.69935e-09 -0.000999998)
(-3.01166e-09 -1.6462e-09 -0.000999999)
(-2.42478e-09 -1.59608e-09 -0.001)
(-1.54297e-09 -1.54646e-09 -0.001)
(-5.17083e-10 -1.51114e-09 -0.001)
(-3.20661e-09 -2.6306e-09 -0.000999999)
(-2.93352e-09 -2.52213e-09 -0.001)
(-2.35361e-09 -2.4302e-09 -0.001)
(-1.49593e-09 -2.36229e-09 -0.001)
(-5.02373e-10 -2.33892e-09 -0.001)
(-3.14235e-09 -3.26484e-09 -0.001)
(-2.81131e-09 -3.11466e-09 -0.001)
(-2.26501e-09 -3.00607e-09 -0.001)
(-1.45639e-09 -2.94995e-09 -0.001)
(-4.98412e-10 -2.95057e-09 -0.001)
(-3.0919e-09 -3.3377e-09 -0.001)
(-2.67476e-09 -3.31717e-09 -0.001)
(-2.18895e-09 -3.23269e-09 -0.001)
(-1.44635e-09 -3.1934e-09 -0.001)
(-5.08864e-10 -3.19886e-09 -0.001)
(-4.39621e-09 -7.48137e-10 -0.000999997)
(-4.04183e-09 -7.34144e-10 -0.000999998)
(-3.23143e-09 -7.21018e-10 -0.000999999)
(-2.07142e-09 -7.06954e-10 -0.001)
(-7.06741e-10 -7.0227e-10 -0.001)
(-4.39431e-09 -2.19397e-09 -0.000999997)
(-4.02265e-09 -2.13309e-09 -0.000999999)
(-3.21059e-09 -2.08485e-09 -0.001)
(-2.05812e-09 -2.04854e-09 -0.001)
(-7.0483e-10 -2.03284e-09 -0.001)
(-4.35891e-09 -3.4248e-09 -0.000999998)
(-3.94076e-09 -3.28831e-09 -0.000999999)
(-3.15334e-09 -3.2029e-09 -0.001)
(-2.02757e-09 -3.15719e-09 -0.001)
(-6.96502e-10 -3.14165e-09 -0.001)
(-4.30273e-09 -4.2841e-09 -0.000999999)
(-3.80081e-09 -4.09823e-09 -0.001)
(-3.07957e-09 -3.97937e-09 -0.001)
(-2.00319e-09 -3.94079e-09 -0.001)
(-6.95564e-10 -3.93566e-09 -0.001)
(-4.30227e-09 -4.38353e-09 -0.001)
(-3.63603e-09 -4.41111e-09 -0.001)
(-2.99595e-09 -4.3421e-09 -0.001)
(-1.99171e-09 -4.30737e-09 -0.001)
(-6.99152e-10 -4.29831e-09 -0.001)
(-5.99536e-09 -9.64969e-10 -0.000999995)
(-5.45295e-09 -9.60935e-10 -0.000999997)
(-4.33718e-09 -9.52471e-10 -0.000999999)
(-2.79218e-09 -9.47098e-10 -0.001)
(-9.64098e-10 -9.4852e-10 -0.001)
(-6e-09 -2.82645e-09 -0.000999996)
(-5.45118e-09 -2.78367e-09 -0.000999998)
(-4.33188e-09 -2.75119e-09 -0.000999999)
(-2.79558e-09 -2.73252e-09 -0.001)
(-9.69273e-10 -2.71929e-09 -0.001)
(-5.96213e-09 -4.41691e-09 -0.000999997)
(-5.3885e-09 -4.29721e-09 -0.000999999)
(-4.29468e-09 -4.23322e-09 -0.001)
(-2.77122e-09 -4.20494e-09 -0.001)
(-9.5817e-10 -4.17848e-09 -0.001)
(-5.90977e-09 -5.58273e-09 -0.000999998)
(-5.26757e-09 -5.396e-09 -0.001)
(-4.23974e-09 -5.27938e-09 -0.001)
(-2.74921e-09 -5.24929e-09 -0.001)
(-9.51117e-10 -5.22588e-09 -0.001)
(-5.95621e-09 -5.85423e-09 -0.001)
(-5.08515e-09 -5.88636e-09 -0.001)
(-4.14804e-09 -5.82214e-09 -0.001)
(-2.7281e-09 -5.78684e-09 -0.001)
(-9.45074e-10 -5.76098e-09 -0.00100001)
(-8.18034e-09 -1.26985e-09 -0.000999994)
(-7.399e-09 -1.27418e-09 -0.000999996)
(-5.87804e-09 -1.26809e-09 -0.000999998)
(-3.79158e-09 -1.26715e-09 -0.001)
(-1.31453e-09 -1.26187e-09 -0.001)
(-8.19201e-09 -3.69508e-09 -0.000999994)
(-7.4118e-09 -3.67646e-09 -0.000999997)
(-5.88257e-09 -3.65566e-09 -0.000999999)
(-3.79528e-09 -3.6434e-09 -0.001)
(-1.31429e-09 -3.61327e-09 -0.001)
(-8.15405e-09 -5.76553e-09 -0.000999996)
(-7.37424e-09 -5.68819e-09 -0.000999998)
(-5.85668e-09 -5.64609e-09 -0.001)
(-3.76387e-09 -5.62121e-09 -0.001)
(-1.29416e-09 -5.57364e-09 -0.001)
(-8.08861e-09 -7.36287e-09 -0.000999998)
(-7.29248e-09 -7.19408e-09 -0.001)
(-5.81576e-09 -7.10746e-09 -0.001)
(-3.73397e-09 -7.07435e-09 -0.001)
(-1.27781e-09 -7.02283e-09 -0.001)
(-8.13024e-09 -7.9552e-09 -0.001)
(-7.11883e-09 -7.93923e-09 -0.001)
(-5.73706e-09 -7.88409e-09 -0.001)
(-3.69321e-09 -7.84493e-09 -0.00100001)
(-1.25657e-09 -7.79663e-09 -0.00100001)
(-1.11557e-08 -1.68967e-09 -0.000999991)
(-1.00615e-08 -1.69743e-09 -0.000999994)
(-7.98964e-09 -1.69019e-09 -0.000999997)
(-5.14468e-09 -1.68697e-09 -0.000999999)
(-1.77891e-09 -1.66968e-09 -0.001)
(-1.11699e-08 -4.90776e-09 -0.000999992)
(-1.00818e-08 -4.90871e-09 -0.000999995)
(-7.9949e-09 -4.8912e-09 -0.000999998)
(-5.13757e-09 -4.86992e-09 -0.001)
(-1.76839e-09 -4.81976e-09 -0.001)
(-1.11281e-08 -7.66532e-09 -0.000999994)
(-1.00648e-08 -7.64346e-09 -0.000999997)
(-7.96677e-09 -7.61395e-09 -0.001)
(-5.09302e-09 -7.5735e-09 -0.001)
(-1.74185e-09 -7.50936e-09 -0.001)
(-1.1049e-08 -9.75276e-09 -0.000999997)
(-1.00305e-08 -9.71214e-09 -0.001)
(-7.92517e-09 -9.66336e-09 -0.001)
(-5.04803e-09 -9.60236e-09 -0.00100001)
(-1.71923e-09 -9.51976e-09 -0.00100001)
(-1.10004e-08 -1.09489e-08 -0.001)
(-9.97543e-09 -1.07924e-08 -0.001)
(-7.85713e-09 -1.07407e-08 -0.00100001)
(-4.96842e-09 -1.06802e-08 -0.00100001)
(-1.67823e-09 -1.06002e-08 -0.00100001)
(-1.52244e-08 -2.27561e-09 -0.000999988)
(-1.37165e-08 -2.27867e-09 -0.000999992)
(-1.08797e-08 -2.26919e-09 -0.000999996)
(-6.98741e-09 -2.25799e-09 -0.000999999)
(-2.40667e-09 -2.23543e-09 -0.001)
(-1.52317e-08 -6.62179e-09 -0.000999989)
(-1.3737e-08 -6.62592e-09 -0.000999994)
(-1.08804e-08 -6.60282e-09 -0.000999998)
(-6.97178e-09 -6.56255e-09 -0.001)
(-2.39323e-09 -6.50939e-09 -0.001)
(-1.51799e-08 -1.03521e-08 -0.000999992)
(-1.37247e-08 -1.03765e-08 -0.000999996)
(-1.0838e-08 -1.0339e-08 -0.001)
(-6.92081e-09 -1.02767e-08 -0.001)
(-2.37122e-09 -1.0213e-08 -0.001)
(-1.5091e-08 -1.307e-08 -0.000999996)
(-1.37241e-08 -1.31678e-08 -0.001)
(-1.07809e-08 -1.31309e-08 -0.001)
(-6.86625e-09 -1.30508e-08 -0.00100001)
(-2.34985e-09 -1.29645e-08 -0.00100001)
(-1.49046e-08 -1.49854e-08 -0.001)
(-1.37856e-08 -1.47126e-08 -0.001)
(-1.07212e-08 -1.46188e-08 -0.00100001)
(-6.78027e-09 -1.45279e-08 -0.00100001)
(-2.31073e-09 -1.4428e-08 -0.00100001)
(-2.07821e-08 -3.10628e-09 -0.000999983)
(-1.87245e-08 -3.09511e-09 -0.00099999)
(-1.48423e-08 -3.08009e-09 -0.000999995)
(-9.52087e-09 -3.05926e-09 -0.000999999)
(-3.27339e-09 -3.04073e-09 -0.001)
(-2.07787e-08 -9.05565e-09 -0.000999985)
(-1.8735e-08 -9.02741e-09 -0.000999991)
(-1.48356e-08 -8.98432e-09 -0.000999997)
(-9.50617e-09 -8.92736e-09 -0.001)
(-3.26726e-09 -8.88365e-09 -0.001)
(-2.07082e-08 -1.41664e-08 -0.000999989)
(-1.86902e-08 -1.41558e-08 -0.000999995)
(-1.47718e-08 -1.40862e-08 -0.001)
(-9.45678e-09 -1.40118e-08 -0.001)
(-3.25379e-09 -1.39493e-08 -0.00100001)
(-2.06014e-08 -1.78273e-08 -0.000999994)
(-1.86551e-08 -1.79055e-08 -0.001)
(-1.4692e-08 -1.78434e-08 -0.00100001)
(-9.39731e-09 -1.77688e-08 -0.00100001)
(-3.2325e-09 -1.76839e-08 -0.00100001)
(-2.02719e-08 -2.03377e-08 -0.001)
(-1.87063e-08 -2.00239e-08 -0.00100001)
(-1.46353e-08 -1.98711e-08 -0.00100001)
(-9.33257e-09 -1.97578e-08 -0.00100002)
(-3.20398e-09 -1.96412e-08 -0.00100002)
(-2.83766e-08 -4.26691e-09 -0.000999977)
(-2.55848e-08 -4.23765e-09 -0.000999986)
(-2.02806e-08 -4.20634e-09 -0.000999993)
(-1.30058e-08 -4.176e-09 -0.000999999)
(-4.47031e-09 -4.15743e-09 -0.001)
(-2.83639e-08 -1.24476e-08 -0.00099998)
(-2.55743e-08 -1.23521e-08 -0.000999988)
(-2.02587e-08 -1.22658e-08 -0.000999996)
(-1.29906e-08 -1.21915e-08 -0.001)
(-4.46867e-09 -1.21416e-08 -0.001)
(-2.82464e-08 -1.94565e-08 -0.000999985)
(-2.54536e-08 -1.93268e-08 -0.000999994)
(-2.01602e-08 -1.92006e-08 -0.001)
(-1.29316e-08 -1.91047e-08 -0.00100001)
(-4.45335e-09 -1.90196e-08 -0.00100001)
(-2.80992e-08 -2.4523e-08 -0.000999992)
(-2.53188e-08 -2.44059e-08 -0.001)
(-2.00371e-08 -2.4275e-08 -0.00100001)
(-1.28477e-08 -2.41654e-08 -0.00100001)
(-4.42146e-09 -2.40417e-08 -0.00100002)
(-2.77746e-08 -2.74302e-08 -0.001)
(-2.52056e-08 -2.71636e-08 -0.00100001)
(-1.99201e-08 -2.69737e-08 -0.00100002)
(-1.27463e-08 -2.68292e-08 -0.00100002)
(-4.37738e-09 -2.66721e-08 -0.00100002)
(-3.88026e-08 -5.86418e-09 -0.000999969)
(-3.50068e-08 -5.80285e-09 -0.000999981)
(-2.77378e-08 -5.73948e-09 -0.000999991)
(-1.77807e-08 -5.69631e-09 -0.000999998)
(-6.10962e-09 -5.66852e-09 -0.001)
(-3.87612e-08 -1.70733e-08 -0.000999972)
(-3.49505e-08 -1.68818e-08 -0.000999984)
(-2.76855e-08 -1.67254e-08 -0.000999995)
(-1.77558e-08 -1.66196e-08 -0.001)
(-6.10495e-09 -1.6548e-08 -0.00100001)
(-3.85434e-08 -2.65915e-08 -0.000999979)
(-3.47281e-08 -2.63325e-08 -0.000999991)
(-2.75307e-08 -2.61279e-08 -0.001)
(-1.76715e-08 -2.59828e-08 -0.00100001)
(-6.08294e-09 -2.58633e-08 -0.00100001)
(-3.83019e-08 -3.34686e-08 -0.000999989)
(-3.44874e-08 -3.32079e-08 -0.001)
(-2.73367e-08 -3.29755e-08 -0.00100001)
(-1.75432e-08 -3.27791e-08 -0.00100002)
(-6.03703e-09 -3.26052e-08 -0.00100002)
(-3.79929e-08 -3.71331e-08 -0.001)
(-3.4235e-08 -3.68375e-08 -0.00100001)
(-2.71023e-08 -3.65773e-08 -0.00100002)
(-1.73664e-08 -3.63704e-08 -0.00100003)
(-5.97401e-09 -3.61634e-08 -0.00100003)
(-5.31179e-08 -8.03434e-09 -0.000999957)
(-4.792e-08 -7.91404e-09 -0.000999974)
(-3.79555e-08 -7.81309e-09 -0.000999988)
(-2.43316e-08 -7.75513e-09 -0.000999998)
(-8.36064e-09 -7.72334e-09 -0.001)
(-5.3014e-08 -2.33245e-08 -0.000999962)
(-4.77923e-08 -2.30105e-08 -0.000999979)
(-3.78708e-08 -2.27682e-08 -0.000999993)
(-2.43047e-08 -2.262e-08 -0.001)
(-8.36044e-09 -2.2529e-08 -0.00100001)
(-5.26566e-08 -3.62147e-08 -0.000999972)
(-4.74584e-08 -3.58369e-08 -0.000999988)
(-3.76403e-08 -3.55268e-08 -0.001)
(-2.41854e-08 -3.53121e-08 -0.00100001)
(-8.33091e-09 -3.51431e-08 -0.00100002)
(-5.22407e-08 -4.55113e-08 -0.000999985)
(-4.71051e-08 -4.51356e-08 -0.001)
(-3.73472e-08 -4.47756e-08 -0.00100002)
(-2.39918e-08 -4.44846e-08 -0.00100003)
(-8.26158e-09 -4.42516e-08 -0.00100003)
(-5.17735e-08 -5.05636e-08 -0.001)
(-4.67228e-08 -5.00792e-08 -0.00100002)
(-3.69899e-08 -4.96557e-08 -0.00100003)
(-2.37501e-08 -4.9343e-08 -0.00100004)
(-8.18628e-09 -4.90725e-08 -0.00100005)
(-7.27337e-08 -1.09473e-08 -0.000999942)
(-6.56009e-08 -1.07693e-08 -0.000999965)
(-5.19925e-08 -1.06382e-08 -0.000999984)
(-3.33636e-08 -1.05643e-08 -0.000999998)
(-1.1474e-08 -1.05268e-08 -0.00100001)
(-7.25644e-08 -3.1775e-08 -0.000999949)
(-6.54198e-08 -3.13346e-08 -0.000999971)
(-5.18891e-08 -3.09945e-08 -0.000999991)
(-3.33382e-08 -3.0784e-08 -0.001)
(-1.14798e-08 -3.06421e-08 -0.00100001)
(-7.20416e-08 -4.93643e-08 -0.000999962)
(-6.495e-08 -4.88064e-08 -0.000999984)
(-5.15451e-08 -4.83309e-08 -0.001)
(-3.31383e-08 -4.79963e-08 -0.00100002)
(-1.14157e-08 -4.77194e-08 -0.00100002)
(-7.13637e-08 -6.21056e-08 -0.00099998)
(-6.43874e-08 -6.14624e-08 -0.001)
(-5.10806e-08 -6.08849e-08 -0.00100002)
(-3.2823e-08 -6.04419e-08 -0.00100003)
(-1.12984e-08 -6.00796e-08 -0.00100004)
(-7.0567e-08 -6.89969e-08 -0.001)
(-6.37293e-08 -6.81904e-08 -0.00100002)
(-5.05255e-08 -6.75064e-08 -0.00100004)
(-3.24535e-08 -6.70056e-08 -0.00100005)
(-1.11736e-08 -6.66078e-08 -0.00100006)
(-9.96648e-08 -1.48857e-08 -0.000999921)
(-8.99016e-08 -1.46647e-08 -0.000999952)
(-7.13233e-08 -1.44942e-08 -0.000999978)
(-4.58109e-08 -1.43838e-08 -0.000999998)
(-1.57657e-08 -1.43066e-08 -0.00100001)
(-9.94323e-08 -4.3268e-08 -0.00099993)
(-8.96853e-08 -4.26771e-08 -0.000999961)
(-7.11816e-08 -4.21866e-08 -0.000999988)
(-4.57412e-08 -4.1846e-08 -0.00100001)
(-1.57476e-08 -4.15872e-08 -0.00100002)
(-9.8659e-08 -6.73485e-08 -0.000999948)
(-8.89975e-08 -6.64825e-08 -0.000999979)
(-7.06335e-08 -6.57281e-08 -0.001)
(-4.53852e-08 -6.51758e-08 -0.00100002)
(-1.5621e-08 -6.47414e-08 -0.00100003)
(-9.7587e-08 -8.48553e-08 -0.000999972)
(-8.80662e-08 -8.37576e-08 -0.001)
(-6.98769e-08 -8.27987e-08 -0.00100003)
(-4.48852e-08 -8.20891e-08 -0.00100005)
(-1.54431e-08 -8.15373e-08 -0.00100006)
(-9.63217e-08 -9.41488e-08 -0.001)
(-8.69409e-08 -9.28418e-08 -0.00100003)
(-6.89663e-08 -9.17605e-08 -0.00100006)
(-4.42876e-08 -9.09545e-08 -0.00100007)
(-1.52325e-08 -9.03515e-08 -0.00100008)
(-1.36721e-07 -2.02781e-08 -0.000999892)
(-1.23359e-07 -1.99786e-08 -0.000999935)
(-9.79161e-08 -1.97237e-08 -0.000999971)
(-6.28946e-08 -1.95337e-08 -0.000999998)
(-2.16395e-08 -1.93913e-08 -0.00100001)
(-1.36367e-07 -5.89662e-08 -0.000999904)
(-1.23045e-07 -5.81078e-08 -0.000999947)
(-9.76619e-08 -5.73515e-08 -0.000999984)
(-6.27231e-08 -5.6788e-08 -0.00100001)
(-2.15776e-08 -5.63827e-08 -0.00100002)
(-1.35173e-07 -9.18553e-08 -0.000999929)
(-1.21988e-07 -9.04979e-08 -0.000999971)
(-9.679e-08 -8.9302e-08 -0.00100001)
(-6.21628e-08 -8.8432e-08 -0.00100003)
(-2.13895e-08 -8.78023e-08 -0.00100005)
(-1.33499e-07 -1.15766e-07 -0.000999962)
(-1.20494e-07 -1.14018e-07 -0.001)
(-9.55989e-08 -1.12489e-07 -0.00100004)
(-6.14009e-08 -1.11391e-07 -0.00100006)
(-2.11243e-08 -1.10587e-07 -0.00100008)
(-1.31482e-07 -1.28399e-07 -0.001)
(-1.18711e-07 -1.26309e-07 -0.00100004)
(-9.41643e-08 -1.24618e-07 -0.00100008)
(-6.04826e-08 -1.2337e-07 -0.0010001)
(-2.08072e-08 -1.22476e-07 -0.00100011)
(-1.87712e-07 -2.76621e-08 -0.000999852)
(-1.69389e-07 -2.7205e-08 -0.000999911)
(-1.34454e-07 -2.67965e-08 -0.000999962)
(-8.63344e-08 -2.64886e-08 -0.000999998)
(-2.96908e-08 -2.62826e-08 -0.00100002)
(-1.87118e-07 -8.04168e-08 -0.00099987)
(-1.68852e-07 -7.90821e-08 -0.000999928)
(-1.33999e-07 -7.78954e-08 -0.000999978)
(-8.60406e-08 -7.70226e-08 -0.00100001)
(-2.95947e-08 -7.64307e-08 -0.00100003)
(-1.85253e-07 -1.25276e-07 -0.000999903)
(-1.67201e-07 -1.2313e-07 -0.000999961)
(-1.32661e-07 -1.21271e-07 -0.00100001)
(-8.51931e-08 -1.19933e-07 -0.00100005)
(-2.93104e-08 -1.18989e-07 -0.00100006)
(-1.8268e-07 -1.57822e-07 -0.000999949)
(-1.64849e-07 -1.55079e-07 -0.00100001)
(-1.30807e-07 -1.52715e-07 -0.00100005)
(-8.39999e-08 -1.51005e-07 -0.00100009)
(-2.88902e-08 -1.49805e-07 -0.00100011)
(-1.79533e-07 -1.74913e-07 -0.001)
(-1.62094e-07 -1.71717e-07 -0.00100006)
(-1.28588e-07 -1.69103e-07 -0.0010001)
(-8.25845e-08 -1.67207e-07 -0.00100014)
(-2.84117e-08 -1.65888e-07 -0.00100016)
(-2.5789e-07 -3.77583e-08 -0.000999798)
(-2.32722e-07 -3.70287e-08 -0.00099988)
(-1.84706e-07 -3.63838e-08 -0.000999949)
(-1.18589e-07 -3.59191e-08 -0.000999999)
(-4.07825e-08 -3.56132e-08 -0.00100003)
(-2.56878e-07 -1.09728e-07 -0.000999822)
(-2.31798e-07 -1.07607e-07 -0.000999903)
(-1.83955e-07 -1.05768e-07 -0.000999972)
(-1.18119e-07 -1.04433e-07 -0.00100002)
(-4.06266e-08 -1.03526e-07 -0.00100005)
(-2.53961e-07 -1.7087e-07 -0.000999867)
(-2.29219e-07 -1.67493e-07 -0.000999947)
(-1.81897e-07 -1.64628e-07 -0.00100001)
(-1.16789e-07 -1.6254e-07 -0.00100006)
(-4.01636e-08 -1.61107e-07 -0.00100009)
(-2.50011e-07 -2.15115e-07 -0.00099993)
(-2.2556e-07 -2.10847e-07 -0.00100001)
(-1.79007e-07 -2.07209e-07 -0.00100007)
(-1.14925e-07 -2.04546e-07 -0.00100012)
(-3.95192e-08 -2.02769e-07 -0.00100015)
(-2.45238e-07 -2.38132e-07 -0.001)
(-2.21313e-07 -2.33374e-07 -0.00100008)
(-1.75599e-07 -2.29351e-07 -0.00100014)
(-1.12758e-07 -2.26463e-07 -0.00100019)
(-3.87954e-08 -2.24523e-07 -0.00100021)
(-3.54578e-07 -5.15372e-08 -0.000999725)
(-3.19976e-07 -5.03836e-08 -0.000999837)
(-2.53967e-07 -4.93958e-08 -0.000999933)
(-1.6307e-07 -4.86804e-08 -0.001)
(-5.60835e-08 -4.82013e-08 -0.00100004)
(-3.52904e-07 -1.49732e-07 -0.000999757)
(-3.18453e-07 -1.46407e-07 -0.000999868)
(-2.52755e-07 -1.43568e-07 -0.000999963)
(-1.62287e-07 -1.41485e-07 -0.00100003)
(-5.58092e-08 -1.40099e-07 -0.00100007)
(-3.48399e-07 -2.33049e-07 -0.000999819)
(-3.14439e-07 -2.27811e-07 -0.000999928)
(-2.49546e-07 -2.23377e-07 -0.00100002)
(-1.60204e-07 -2.20129e-07 -0.00100009)
(-5.50894e-08 -2.17991e-07 -0.00100012)
(-3.42285e-07 -2.93246e-07 -0.000999904)
(-3.08787e-07 -2.86623e-07 -0.00100001)
(-2.45081e-07 -2.81016e-07 -0.0010001)
(-1.57344e-07 -2.76947e-07 -0.00100017)
(-5.41121e-08 -2.74313e-07 -0.0010002)
(-3.35032e-07 -3.24276e-07 -0.001)
(-3.0221e-07 -3.17116e-07 -0.00100011)
(-2.39874e-07 -3.10944e-07 -0.0010002)
(-1.54055e-07 -3.06505e-07 -0.00100026)
(-5.30101e-08 -3.03611e-07 -0.00100029)
(-4.88042e-07 -7.03316e-08 -0.000999625)
(-4.40446e-07 -6.85586e-08 -0.00099978)
(-3.49635e-07 -6.70396e-08 -0.000999912)
(-2.24523e-07 -6.59135e-08 -0.00100001)
(-7.7223e-08 -6.51915e-08 -0.00100006)
(-4.85348e-07 -2.04357e-07 -0.000999669)
(-4.38003e-07 -1.99202e-07 -0.000999822)
(-3.47665e-07 -1.94785e-07 -0.000999953)
(-2.23238e-07 -1.91533e-07 -0.00100005)
(-7.67805e-08 -1.8944e-07 -0.0010001)
(-4.78422e-07 -3.17943e-07 -0.000999753)
(-4.31737e-07 -3.0983e-07 -0.000999904)
(-3.42653e-07 -3.02938e-07 -0.00100003)
(-2.2e-07 -2.97913e-07 -0.00100013)
(-7.56652e-08 -2.94692e-07 -0.00100017)
(-4.68919e-07 -3.99863e-07 -0.000999869)
(-4.23005e-07 -3.89601e-07 -0.00100002)
(-3.35757e-07 -3.80928e-07 -0.00100014)
(-2.15592e-07 -3.7467e-07 -0.00100023)
(-7.41586e-08 -3.70698e-07 -0.00100028)
(-4.57848e-07 -4.41681e-07 -0.00100001)
(-4.12801e-07 -4.30724e-07 -0.00100015)
(-3.27728e-07 -4.21256e-07 -0.00100027)
(-2.10521e-07 -4.1439e-07 -0.00100035)
(-7.24447e-08 -4.09985e-07 -0.0010004)
(-6.7259e-07 -9.60578e-08 -0.000999488)
(-6.07071e-07 -9.33127e-08 -0.000999702)
(-4.82016e-07 -9.0943e-08 -0.000999885)
(-3.09626e-07 -8.91867e-08 -0.00100002)
(-1.06522e-07 -8.80915e-08 -0.00100009)
(-6.68222e-07 -2.79086e-07 -0.000999548)
(-6.03123e-07 -2.71057e-07 -0.00099976)
(-4.78817e-07 -2.64161e-07 -0.000999941)
(-3.07546e-07 -2.59092e-07 -0.00100007)
(-1.05809e-07 -2.55903e-07 -0.00100014)
(-6.57496e-07 -4.33915e-07 -0.000999664)
(-5.93334e-07 -4.21347e-07 -0.000999872)
(-4.70997e-07 -4.10636e-07 -0.00100005)
(-3.02491e-07 -4.02824e-07 -0.00100018)
(-1.0406e-07 -3.97916e-07 -0.00100024)
(-6.42733e-07 -5.45246e-07 -0.000999823)
(-5.79853e-07 -5.29465e-07 -0.00100002)
(-4.60307e-07 -5.16041e-07 -0.00100019)
(-2.95639e-07 -5.06325e-07 -0.00100032)
(-1.01713e-07 -5.00257e-07 -0.00100038)
(-6.25677e-07 -6.01772e-07 -0.00100001)
(-5.64129e-07 -5.84778e-07 -0.0010002)
(-4.47865e-07 -5.70162e-07 -0.00100037)
(-2.87723e-07 -5.59516e-07 -0.00100049)
(-9.90108e-08 -5.52792e-07 -0.00100055)
(-9.28058e-07 -1.31321e-07 -0.000999301)
(-8.37862e-07 -1.27041e-07 -0.000999598)
(-6.65598e-07 -1.23333e-07 -0.000999852)
(-4.27786e-07 -1.2059e-07 -0.00100004)
(-1.4723e-07 -1.18891e-07 -0.00100013)
(-9.2099e-07 -3.81403e-07 -0.000999384)
(-8.31478e-07 -3.68902e-07 -0.000999678)
(-6.60423e-07 -3.58136e-07 -0.000999928)
(-4.24402e-07 -3.50201e-07 -0.00100011)
(-1.46053e-07 -3.45286e-07 -0.00100021)
(-9.04308e-07 -5.92482e-07 -0.000999542)
(-8.16229e-07 -5.7304e-07 -0.000999829)
(-6.48201e-07 -5.56391e-07 -0.00100007)
(-4.16472e-07 -5.44178e-07 -0.00100025)
(-1.43306e-07 -5.36618e-07 -0.00100034)
(-8.81427e-07 -7.43642e-07 -0.000999759)
(-7.954e-07 -7.19382e-07 -0.00100004)
(-6.3158e-07 -6.98634e-07 -0.00100027)
(-4.05729e-07 -6.83464e-07 -0.00100044)
(-1.39593e-07 -6.74055e-07 -0.00100053)
(-8.54902e-07 -8.20136e-07 -0.00100001)
(-7.71221e-07 -7.93679e-07 -0.00100028)
(-6.12294e-07 -7.70991e-07 -0.0010005)
(-3.93266e-07 -7.54403e-07 -0.00100067)
(-1.35277e-07 -7.44115e-07 -0.00100075)
(-1.28222e-06 -1.79777e-07 -0.000999045)
(-1.15826e-06 -1.73075e-07 -0.000999458)
(-9.20874e-07 -1.67242e-07 -0.000999811)
(-5.92314e-07 -1.62898e-07 -0.00100007)
(-2.03944e-07 -1.60233e-07 -0.00100021)
(-1.27089e-06 -5.21818e-07 -0.000999159)
(-1.14793e-06 -5.02322e-07 -0.000999567)
(-9.12455e-07 -4.85446e-07 -0.000999915)
(-5.86758e-07 -4.72915e-07 -0.00100017)
(-2.01993e-07 -4.65256e-07 -0.0010003)
(-1.24493e-06 -8.09724e-07 -0.000999377)
(-1.12414e-06 -7.79584e-07 -0.000999773)
(-8.93264e-07 -7.53602e-07 -0.00100011)
(-5.74225e-07 -7.34358e-07 -0.00100036)
(-1.97638e-07 -7.2262e-07 -0.00100049)
(-1.20955e-06 -1.01483e-06 -0.000999675)
(-1.09183e-06 -9.77371e-07 -0.00100005)
(-8.67254e-07 -9.45132e-07 -0.00100038)
(-5.57264e-07 -9.21306e-07 -0.00100061)
(-1.91748e-07 -9.06708e-07 -0.00100074)
(-1.16841e-06 -1.11764e-06 -0.00100002)
(-1.05444e-06 -1.07668e-06 -0.00100038)
(-8.37213e-07 -1.04142e-06 -0.00100069)
(-5.37656e-07 -1.0155e-06 -0.00100091)
(-1.84908e-07 -9.99702e-07 -0.00100103)
(-1.77386e-06 -2.46582e-07 -0.000998695)
(-1.60397e-06 -2.36021e-07 -0.000999269)
(-1.27692e-06 -2.26775e-07 -0.000999762)
(-8.22354e-07 -2.198e-07 -0.00100012)
(-2.83354e-07 -2.15587e-07 -0.00100032)
(-1.75578e-06 -7.15046e-07 -0.000998852)
(-1.58721e-06 -6.84576e-07 -0.000999418)
(-1.26312e-06 -6.57943e-07 -0.000999903)
(-8.13164e-07 -6.37921e-07 -0.00100026)
(-2.8012e-07 -6.25867e-07 -0.00100045)
(-1.71546e-06 -1.10797e-06 -0.000999153)
(-1.54998e-06 -1.06119e-06 -0.0009997)
(-1.23275e-06 -1.02037e-06 -0.00100017)
(-7.93156e-07 -9.89834e-07 -0.00100051)
(-2.73146e-07 -9.71447e-07 -0.00100069)
(-1.66075e-06 -1.38613e-06 -0.000999561)
(-1.49964e-06 -1.32807e-06 -0.00100008)
(-1.19181e-06 -1.27768e-06 -0.00100053)
(-7.66249e-07 -1.24016e-06 -0.00100086)
(-2.63755e-07 -1.21755e-06 -0.00100103)
(-1.59722e-06 -1.52305e-06 -0.00100003)
(-1.44153e-06 -1.45974e-06 -0.00100053)
(-1.14486e-06 -1.405e-06 -0.00100095)
(-7.35527e-07 -1.3645e-06 -0.00100126)
(-2.53056e-07 -1.3402e-06 -0.00100142)
(-2.4569e-06 -3.3887e-07 -0.000998214)
(-2.22518e-06 -3.22313e-07 -0.000999013)
(-1.77564e-06 -3.07538e-07 -0.000999703)
(-1.14616e-06 -2.96184e-07 -0.00100021)
(-3.95483e-07 -2.89409e-07 -0.00100049)
(-2.42821e-06 -9.81764e-07 -0.000998432)
(-2.19805e-06 -9.34211e-07 -0.000999217)
(-1.75286e-06 -8.91831e-07 -0.000999894)
(-1.13078e-06 -8.59425e-07 -0.00100039)
(-3.90054e-07 -8.40039e-07 -0.00100066)
(-2.36572e-06 -1.51867e-06 -0.000998848)
(-2.13955e-06 -1.44601e-06 -0.000999605)
(-1.7043e-06 -1.38152e-06 -0.00100025)
(-1.09831e-06 -1.33254e-06 -0.00100073)
(-3.78619e-07 -1.3032e-06 -0.00100099)
(-2.28114e-06 -1.89538e-06 -0.000999411)
(-2.06093e-06 -1.80554e-06 -0.00100013)
(-1.63944e-06 -1.72657e-06 -0.00100075)
(-1.05518e-06 -1.667e-06 -0.0010012)
(-3.63459e-07 -1.63145e-06 -0.00100143)
(-2.1834e-06 -2.07603e-06 -0.00100006)
(-1.97073e-06 -1.97838e-06 -0.00100073)
(-1.56579e-06 -1.89331e-06 -0.00100131)
(-1.00657e-06 -1.82977e-06 -0.00100173)
(-3.4648e-07 -1.79202e-06 -0.00100195)
(-3.40603e-06 -4.67069e-07 -0.000997549)
(-3.0933e-06 -4.41144e-07 -0.000998661)
(-2.47874e-06 -4.17234e-07 -0.000999634)
(-1.60662e-06 -3.98364e-07 -0.00100036)
(-5.55796e-07 -3.87035e-07 -0.00100076)
(-3.36068e-06 -1.35191e-06 -0.000997853)
(-3.04927e-06 -1.27766e-06 -0.000998943)
(-2.4406e-06 -1.20947e-06 -0.000999893)
(-1.58022e-06 -1.15589e-06 -0.0010006)
(-5.46318e-07 -1.12365e-06 -0.00100099)
(-3.26407e-06 -2.08688e-06 -0.000998432)
(-2.95682e-06 -1.97405e-06 -0.000999478)
(-2.36176e-06 -1.87135e-06 -0.00100038)
(-1.52622e-06 -1.79125e-06 -0.00100106)
(-5.27003e-07 -1.74313e-06 -0.00100142)
(-3.13395e-06 -2.59603e-06 -0.000999213)
(-2.83379e-06 -2.45757e-06 -0.0010002)
(-2.25787e-06 -2.33316e-06 -0.00100105)
(-1.45566e-06 -2.23724e-06 -0.00100167)
(-5.01917e-07 -2.18002e-06 -0.001002)
(-2.98446e-06 -2.8313e-06 -0.0010001)
(-2.69395e-06 -2.6813e-06 -0.00100103)
(-2.14146e-06 -2.54864e-06 -0.00100181)
(-1.37763e-06 -2.44809e-06 -0.00100239)
(-4.74417e-07 -2.38867e-06 -0.00100269)
(-4.7228e-06 -6.46619e-07 -0.000996619)
(-4.31024e-06 -6.05844e-07 -0.000998166)
(-3.47943e-06 -5.66413e-07 -0.000999548)
(-2.27151e-06 -5.33961e-07 -0.00100061)
(-7.89257e-07 -5.14099e-07 -0.0010012)
(-4.65152e-06 -1.86953e-06 -0.000997048)
(-4.23804e-06 -1.75342e-06 -0.000998559)
(-3.41398e-06 -1.64183e-06 -0.000999901)
(-2.22445e-06 -1.55031e-06 -0.00100093)
(-7.71956e-07 -1.49431e-06 -0.00100149)
(-4.50308e-06 -2.87843e-06 -0.000997863)
(-4.09079e-06 -2.70362e-06 -0.000999305)
(-3.28298e-06 -2.53782e-06 -0.00100057)
(-2.13147e-06 -2.40324e-06 -0.00100153)