/*--------------------------------*- C++ -*----------------------------------*\
| =========                 |                                                 |
| \\      /  F ield         | OpenFOAM: The Open Source CFD Toolbox           |
|  \\    /   O peration     | Version:  5.x                                   |
|   \\  /    A nd           | Web:      www.OpenFOAM.org                      |
|    \\/     M anipulation  |                                                 |
\*---------------------------------------------------------------------------*/
FoamFile
{
    version     2.0;
    format      ascii;
    class       surfaceScalarField;
    location    "100";
    object      phi;
}
// * * * * * * * * * * * * * * * * * * * * * * * * * * * * * * * * * * * * * //

dimensions      [0 3 -1 0 0 0 0];

internalField   nonuniform List<scalar> 
89
(
-0.0249997
-0.0249997
-0.0249996
-0.0249996
-0.0249995
-0.0249994
-0.0249993
-0.0249992
-0.024999
-0.0249988
-0.0249985
-0.0249981
-0.0249977
-0.0249971
-0.0249964
-0.0249956
-0.0249946
-0.0249934
-0.0249921
-0.0249905
-0.0249887
-0.0249867
-0.0249845
-0.0249822
-0.0249798
-0.0249777
-0.0249761
-0.0249752
-0.0249758
-0.0249788
-0.024986
-0.0249996
-0.025023
-0.0250606
-0.0251188
-0.0252069
-0.0253365
-0.0255328
-0.0258406
-0.0258197
-0.0258742
-0.0261438
-0.026339
-0.0267116
-0.0268915
-0.0270275
-0.0274121
-0.0277687
-0.0276954
-0.0276366
-0.0273084
-0.0270298
-0.0264646
-0.0261952
-0.0258934
-0.0256667
-0.0254977
-0.0253714
-0.0252772
-0.0252069
-0.0251544
-0.0251154
-0.0250863
-0.0250647
-0.0250486
-0.0250366
-0.0250274
-0.0250206
-0.0250154
-0.0250115
-0.0250086
-0.0250064
-0.0250047
-0.0250035
-0.0250026
-0.0250019
-0.0250014
-0.025001
-0.0250007
-0.0250005
-0.0250004
-0.0250004
-0.0250003
-0.0250003
-0.0250003
-0.0250002
-0.0250002
-0.0250001
-0.0250001
)
;

boundaryField
{
    inlet
    {
        type            calculated;
        value           uniform -0.025;
    }
    outlet
    {
        type            calculated;
        value           uniform 0.0249997;
    }
    repeat_boundary
    {
        type            calculated;
        value           uniform 0;
    }
    procBoundary1to0
    {
        type            processor;
        value           nonuniform List<scalar> 
90
(
-5.0392e-09
-1.39846e-08
-2.34325e-08
-3.35451e-08
-4.45736e-08
-5.68512e-08
-7.08528e-08
-8.71865e-08
-1.06608e-07
-1.30035e-07
-1.58543e-07
-1.93347e-07
-2.35784e-07
-2.87268e-07
-3.49239e-07
-4.23073e-07
-5.09953e-07
-6.10681e-07
-7.25388e-07
-8.53101e-07
-9.91093e-07
-1.13391e-06
-1.27193e-06
-1.38917e-06
-1.46006e-06
-1.44409e-06
-1.27583e-06
-8.37718e-07
-9.12814e-08
7.91749e-07
2.5678e-06
5.57245e-06
1.0079e-05
1.67718e-05
2.6567e-05
4.07736e-05
6.06991e-05
9.3856e-05
0.00015655
-6.31903e-05
3.10989e-05
0.000195437
8.24816e-05
0.000288529
0.000333209
0.000188497
0.000144692
-2.15122e-05
-0.000177298
4.31747e-05
-3.25553e-05
-0.000126771
-0.000568877
-0.000236037
-0.000178429
-0.000134862
-0.00010386
-8.02481e-05
-6.20849e-05
-4.81057e-05
-3.73386e-05
-2.90366e-05
-2.26252e-05
-1.76649e-05
-1.38144e-05
-1.08173e-05
-8.4819e-06
-6.66344e-06
-5.24373e-06
-4.13412e-06
-3.26679e-06
-2.58746e-06
-2.05344e-06
-1.63181e-06
-1.29755e-06
-1.03169e-06
-8.19924e-07
-6.51307e-07
-5.17402e-07
-4.11588e-07
-3.28582e-07
-2.64092e-07
-2.14584e-07
-1.77111e-07
-1.49215e-07
-1.28838e-07
-1.14309e-07
-1.04285e-07
-9.73414e-08
-9.26801e-08
)
;
    }
    procBoundary1to3
    {
        type            processor;
        value           nonuniform List<scalar> 
90
(
-4.6356e-09
-1.28732e-08
-2.15217e-08
-3.07241e-08
-4.0691e-08
-5.16838e-08
-6.41005e-08
-7.84566e-08
-9.53999e-08
-1.15708e-07
-1.40278e-07
-1.70104e-07
-2.06235e-07
-2.49724e-07
-3.01543e-07
-3.62474e-07
-4.32941e-07
-5.12766e-07
-6.00823e-07
-6.94512e-07
-7.88983e-07
-8.75972e-07
-9.4204e-07
-9.65785e-07
-9.1304e-07
-7.29375e-07
-3.85526e-07
-7.98923e-08
6.7028e-07
2.24241e-06
4.61526e-06
8.13397e-06
1.33085e-05
2.08437e-05
3.17069e-05
4.7286e-05
6.88863e-05
0.000102308
0.000151228
4.22019e-05
2.34567e-05
7.42156e-05
0.000112759
8.41436e-05
-0.000153286
-5.25488e-05
0.000239876
0.000378065
0.000104041
-0.000101957
-0.000295588
-0.000151885
3.70116e-06
-3.34252e-05
-0.000123432
-9.18121e-05
-6.51972e-05
-4.59836e-05
-3.21278e-05
-2.21656e-05
-1.50791e-05
-1.00097e-05
-6.43898e-06
-3.90153e-06
-2.23013e-06
-1.23672e-06
-6.87904e-07
-1.94722e-07
5.65018e-08
1.87854e-07
3.00327e-07
3.78938e-07
4.18162e-07
4.24059e-07
4.07652e-07
3.77438e-07
3.41196e-07
3.03448e-07
2.66568e-07
2.31718e-07
1.9941e-07
1.69836e-07
1.43058e-07
1.19108e-07
9.8038e-08
7.99164e-08
6.4844e-08
5.32859e-08
4.53631e-08
4.12084e-08
)
;
    }
}


// ************************************************************************* //
