# Probe 0 (0 0 0.05)
# Probe 1 (0 0 -0.04)
#       Probe             0             1
#        Time
         0.01             (3.56549e-10 -5.08383e-10 -0.001)             (-1.76232e-10 -1.64058e-10 -0.001)
         0.02             (-1.33965e-10 -9.98053e-10 -0.001)             (-1.44743e-10 -8.65665e-11 -0.000999999)
         0.03             (3.42546e-10 -1.03198e-09 -0.001)             (-1.73026e-10 -1.79969e-10 -0.000999999)
         0.04             (2.21227e-10 -1.46594e-09 -0.001)             (-1.84584e-10 -1.68781e-10 -0.001)
         0.05             (4.51308e-10 -1.06472e-09 -0.001)             (-2.68255e-10 -1.72182e-10 -0.001)
         0.06             (2.04403e-10 -1.21136e-09 -0.001)             (-2.04475e-10 -1.77299e-10 -0.000999999)
         0.07             (3.77788e-11 -1.19229e-09 -0.001)             (-2.46002e-10 -1.85857e-10 -0.000999999)
         0.08             (-1.20698e-10 -1.3745e-09 -0.001)             (-2.85452e-10 -1.77674e-10 -0.001)
         0.09             (2.82721e-10 -1.3371e-09 -0.001)             (-1.58558e-10 -9.60952e-11 -0.001)
          0.1             (1.15043e-10 -1.64678e-09 -0.001)             (-2.05029e-10 -1.78127e-10 -0.001)
