FoamFile
{version 2.0; format ascii;class vectorField; location 0;object  v;}
356
(
( 1.71287e-06 -4.38351e-07 1.0008e-06 )  
( 3.6821e-06 -1.74347e-06 -8.92312e-08 )  
( 3.54696e-06 -1.30196e-06 1.07405e-07 )  
( 2.94871e-06 -1.935e-06 7.25577e-07 )  
( 2.70772e-07 -4.15768e-07 7.62785e-07 )  
( 4.50403e-06 -1.16158e-06 2.12216e-07 )  
( 5.51011e-06 -1.03154e-06 -8.95518e-08 )  
( 8.26288e-06 -1.89096e-06 1.0861e-07 )  
( 3.73223e-06 -1.7893e-06 -8.8853e-07 )  
( 3.66769e-06 -2.68255e-06 -3.72235e-07 )  
( 3.15657e-06 -4.40223e-07 3.47276e-07 )  
( 7.52825e-06 -2.3315e-06 5.51928e-07 )  
( 4.26619e-06 -2.82314e-06 2.62264e-07 )  
( 2.8108e-06 -2.37582e-06 3.43456e-07 )  
( 3.15886e-06 -1.32677e-06 -3.47669e-07 )  
( 6.09827e-06 -9.82618e-07 9.32302e-08 )  
( 3.12436e-06 -2.06092e-06 -9.59232e-08 )  
( 4.1115e-06 -2.59377e-07 -2.64451e-07 )  
( 8.18105e-06 -1.77373e-06 3.8033e-07 )  
( 6.19662e-06 -3.25752e-06 1.16686e-06 )  
( 4.89006e-06 -2.69182e-06 -6.06837e-07 )  
( 3.94374e-06 4.27869e-08 1.35974e-06 )  
( 8.2772e-06 1.70288e-07 -3.04958e-06 )  
( 6.93282e-06 -1.66116e-06 2.56766e-07 )  
( 3.24669e-06 -7.32555e-07 1.16796e-06 )  
( 6.21863e-06 -1.05538e-06 9.94638e-07 )  
( 3.90616e-06 -2.32461e-06 -2.63903e-07 )  
( 4.07094e-06 -9.20914e-07 -7.73569e-07 )  
( 1.16258e-05 -4.93052e-06 2.14692e-06 )  
( 1.05172e-05 -2.90367e-06 2.14991e-06 )  
( 1.04798e-05 -2.17347e-06 -1.26195e-06 )  
( 8.60828e-06 -2.57769e-06 5.35859e-07 )  
( 7.28347e-06 -3.55843e-06 -1.51349e-06 )  
( 5.87044e-06 -1.51605e-06 9.85651e-07 )  
( 9.18836e-06 -2.77923e-06 -5.22106e-07 )  
( 5.972e-06 -5.58151e-06 7.9077e-07 )  
( 6.91656e-06 -2.09889e-06 -1.77722e-06 )  
( 1.10713e-05 -3.72475e-06 5.7159e-07 )  
( 1.17373e-05 -5.43379e-06 2.96797e-06 )  
( 1.08526e-05 -1.71322e-05 4.97468e-06 )  
( 8.45114e-06 -3.58266e-06 4.28069e-06 )  
( 1.31208e-05 -2.57395e-06 2.29925e-06 )  
( 9.81582e-06 -4.26942e-06 -3.34745e-06 )  
( 7.24268e-06 -2.69755e-06 -1.60552e-07 )  
( 7.09195e-06 -7.19585e-06 -4.91976e-06 )  
( 1.34665e-05 -3.4998e-06 -6.83031e-07 )  
( 6.44178e-06 -3.87176e-06 -9.85032e-07 )  
( 7.27489e-06 -2.82917e-06 -2.0368e-06 )  
( 6.83361e-06 -4.66722e-06 -1.0315e-06 )  
( 8.49571e-06 -3.83586e-06 -6.16854e-07 )  
( 9.55868e-06 -2.58976e-06 -8.53863e-07 )  
( 7.57184e-06 -3.36881e-06 3.56502e-07 )  
( 9.7409e-06 -2.14047e-06 8.56981e-07 )  
( 1.07284e-05 -2.79098e-06 2.91159e-07 )  
( 6.06561e-06 -2.57075e-06 -8.23079e-07 )  
( 1.25017e-05 -5.60139e-06 2.07919e-06 )  
( 1.10497e-05 -6.67669e-06 8.64544e-07 )  
( 7.09207e-06 -2.42295e-06 -1.48504e-06 )  
( 9.41048e-06 -1.2727e-06 -2.68316e-07 )  
( 9.29497e-06 -3.37824e-06 -2.89533e-06 )  
( 1.25315e-05 -3.08097e-06 -2.13669e-06 )  
( 1.27021e-05 -5.79509e-06 -1.1432e-06 )  
( 1.26083e-05 -8.49704e-06 2.36899e-06 )  
( 9.76338e-06 -3.55787e-06 -4.04502e-06 )  
( 1.39144e-05 -5.49475e-06 2.10834e-06 )  
( 9.6907e-06 -2.78427e-06 -4.72398e-06 )  
( 1.57379e-05 -9.98768e-06 4.1019e-06 )  
( 1.44349e-05 -4.37595e-06 -1.22711e-06 )  
( 1.46913e-05 -7.61962e-06 1.0662e-06 )  
( 7.59339e-06 -8.54463e-06 -1.17965e-06 )  
( 1.26654e-05 -1.35912e-06 7.25804e-07 )  
( 1.53257e-05 -5.66887e-06 7.52478e-06 )  
( 1.30098e-05 -3.54232e-06 -1.68204e-06 )  
( 1.04641e-05 -5.54295e-06 -2.60152e-06 )  
( 8.95098e-06 -2.9664e-06 -2.39645e-06 )  
( 9.02665e-06 -9.17837e-06 -2.81608e-06 )  
( 7.32363e-06 -3.85453e-06 -3.29624e-06 )  
( 9.55124e-06 -4.64594e-06 -2.56307e-06 )  
( 1.21694e-05 -8.91983e-06 -5.62273e-07 )  
( 1.11942e-05 -1.60767e-06 -6.4805e-06 )  
( 1.40892e-05 -2.38692e-06 -8.49702e-07 )  
( 1.42038e-05 7.55594e-07 -2.28801e-06 )  
( 1.27636e-05 -5.37603e-06 -3.51309e-07 )  
( 1.24931e-05 -3.02813e-06 -6.11821e-06 )  
( 1.11097e-05 -3.43103e-06 -1.90206e-06 )  
( 9.39639e-06 -3.85587e-06 -9.4191e-06 )  
( 2.07307e-05 8.90847e-07 -8.10085e-06 )  
( 1.56826e-05 -3.03357e-06 -4.91457e-06 )  
( 1.34932e-05 -3.03529e-06 -7.78972e-06 )  
( 8.90948e-06 -5.62603e-06 -1.17411e-05 )  
( 1.06846e-05 -1.76799e-06 -9.42677e-06 )  
( 1.22486e-05 -2.25565e-06 -6.13749e-06 )  
( 1.12963e-05 -1.70408e-05 4.24189e-06 )  
( 1.12977e-05 -1.90577e-06 -9.29581e-06 )  
( 1.24351e-05 5.34168e-06 -9.78351e-06 )  
( 9.08087e-06 -3.29752e-06 -8.57721e-06 )  
( 1.43416e-05 -1.64271e-06 -4.04389e-06 )  
( 1.30535e-05 -2.03266e-06 -7.50195e-06 )  
( 1.58371e-05 -4.48763e-06 -7.53496e-06 )  
( 1.24277e-05 1.03974e-06 -1.58798e-05 )  
( 1.25361e-05 -1.43329e-06 -7.36639e-06 )  
( 1.44606e-05 -1.70018e-06 -9.33516e-06 )  
( 9.31396e-06 -4.95405e-06 -1.04328e-05 )  
( 1.24551e-05 -1.22332e-06 -1.26638e-05 )  
( 1.31781e-05 -9.24904e-07 -1.67431e-05 )  
( 5.9297e-06 -1.6812e-06 -9.53915e-06 )  
( 1.29122e-05 -3.67152e-06 -1.78625e-05 )  
( 1.36153e-05 2.26761e-07 -1.13591e-05 )  
( 1.37835e-05 -4.75721e-06 -2.05724e-05 )  
( 1.16961e-05 -5.44635e-06 -3.71093e-06 )  
( 1.0324e-05 -3.83184e-06 -8.77167e-06 )  
( 1.46702e-05 1.87121e-06 -1.27425e-05 )  
( 1.08658e-05 -1.62235e-06 -1.51248e-05 )  
( 1.07026e-05 -3.75717e-06 -1.16926e-05 )  
( 1.49198e-05 3.33575e-06 -1.80819e-05 )  
( 1.47347e-05 1.29757e-06 -2.05241e-05 )  
( 7.392e-06 4.50303e-06 -1.91899e-05 )  
( 2.6661e-06 7.42126e-06 -1.33826e-05 )  
( 1.06772e-05 3.82972e-07 -1.46251e-05 )  
( 7.47706e-06 1.91746e-06 -7.01782e-06 )  
( 1.57111e-05 3.15762e-06 -1.47144e-05 )  
( 1.13597e-05 2.29938e-06 -1.75786e-05 )  
( 7.59267e-06 5.92023e-07 -1.69211e-05 )  
( 1.1784e-05 3.96445e-06 -2.45462e-05 )  
( 7.80935e-06 9.84795e-07 -2.51436e-05 )  
( 9.11306e-06 5.44445e-07 -8.43117e-06 )  
( 1.24503e-05 7.04904e-06 -2.65778e-05 )  
( 1.57167e-05 3.20415e-06 -9.43283e-06 )  
( 1.64397e-05 2.3846e-07 -2.51211e-05 )  
( 1.43853e-05 -2.81553e-06 -9.74623e-06 )  
( 1.29759e-05 1.07448e-06 -1.54513e-05 )  
( 1.57935e-05 5.91647e-06 -2.49495e-05 )  
( 1.31001e-05 5.20225e-07 -2.58632e-05 )  
( 9.81314e-06 6.08052e-06 -2.45876e-05 )  
( 7.39467e-06 5.27136e-06 -1.41025e-05 )  
( 1.89152e-05 -1.50259e-06 -2.46791e-05 )  
( 7.11221e-06 7.30795e-07 -3.19443e-05 )  
( 1.64792e-05 6.18846e-06 -1.95469e-05 )  
( 1.52911e-05 6.03587e-06 -2.07218e-05 )  
( 6.31344e-06 6.99215e-06 -1.29756e-05 )  
( 1.76424e-05 9.50875e-06 -2.53364e-05 )  
( 7.48814e-06 2.81615e-06 -2.24163e-05 )  
( 1.61836e-05 5.06953e-06 -2.29556e-05 )  
( 9.87995e-06 7.61098e-07 -2.47551e-05 )  
( 3.43068e-06 3.75316e-06 -2.72101e-05 )  
( 1.15186e-05 3.46018e-06 -2.84609e-05 )  
( -7.07823e-06 -1.62628e-06 -4.06781e-05 )  
( 1.14298e-05 1.02622e-05 -2.99937e-05 )  
( 1.55059e-05 2.70333e-06 -2.70469e-05 )  
( 1.35195e-05 4.81583e-06 -2.59483e-05 )  
( 1.67438e-05 7.89533e-06 -3.6713e-05 )  
( 1.18089e-05 1.94989e-06 -3.90413e-05 )  
( 8.08843e-06 -4.97313e-08 -2.7438e-05 )  
( 1.46025e-05 8.75834e-06 -3.87914e-05 )  
( 6.14411e-06 4.92102e-06 -3.11579e-05 )  
( 1.69857e-05 2.67413e-06 -4.87508e-05 )  
( 1.77457e-05 9.4709e-06 -2.94401e-05 )  
( 1.56665e-05 7.44439e-06 -4.05074e-05 )  
( 1.00285e-05 2.62481e-06 -2.0118e-05 )  
( 1.22084e-05 4.24012e-06 -2.626e-05 )  
( 7.03973e-06 -1.1019e-06 -4.76772e-05 )  
( 1.19769e-05 -1.41501e-06 -1.62355e-05 )  
( 1.02253e-05 5.73109e-06 -6.05764e-05 )  
( 1.8389e-05 6.82028e-06 -4.27179e-05 )  
( 1.3582e-05 5.18589e-06 -4.1686e-05 )  
( 8.4825e-06 3.12323e-06 -6.11428e-05 )  
( 1.18611e-05 6.88423e-06 -3.95732e-05 )  
( 1.19235e-05 9.4377e-06 -6.22202e-05 )  
( 5.84985e-06 5.70964e-06 -2.70629e-05 )  
( 6.79576e-06 2.05614e-06 -4.56663e-05 )  
( 1.07027e-05 1.28889e-05 -3.89077e-05 )  
( 1.01216e-05 3.06354e-06 -7.10335e-05 )  
( 2.4499e-05 6.67872e-06 -5.30176e-05 )  
( 1.10319e-05 1.12174e-05 -6.15709e-05 )  
( 1.26586e-05 4.38506e-06 -5.78945e-05 )  
( 8.54664e-06 2.54077e-06 -6.11238e-05 )  
( 1.31646e-05 1.10346e-05 -7.90519e-05 )  
( 1.67247e-05 9.05705e-06 -4.67058e-05 )  
( 5.44756e-06 1.27923e-05 -3.75616e-05 )  
( 4.70213e-06 1.00009e-05 -5.55029e-05 )  
( 1.15505e-05 6.01924e-06 -5.658e-05 )  
( 1.29459e-05 7.1728e-06 -5.25925e-05 )  
( 8.73297e-06 3.54485e-07 -6.54872e-05 )  
( 4.80463e-06 2.78914e-06 -5.13315e-05 )  
( 1.53621e-05 1.02903e-05 -3.8973e-05 )  
( 1.19874e-05 9.98024e-06 -3.94237e-05 )  
( 7.58648e-06 1.183e-05 -5.95937e-05 )  
( 2.91991e-05 1.22215e-05 -7.46206e-05 )  
( 1.97724e-05 1.58625e-06 -0.000106931 )  
( 1.10483e-05 1.04567e-05 -9.09911e-05 )  
( 7.58886e-06 4.39048e-06 -8.09986e-05 )  
( 4.27952e-07 1.36563e-05 -6.69289e-05 )  
( 1.22873e-05 8.52624e-06 -5.52657e-05 )  
( 1.83494e-05 5.94939e-06 -6.47706e-05 )  
( 8.80742e-06 1.51054e-05 -5.33204e-05 )  
( 8.61961e-06 1.0091e-05 -8.07536e-05 )  
( 1.02578e-05 4.48754e-06 -6.38695e-05 )  
( 8.81551e-06 6.11873e-06 -4.86729e-05 )  
( 3.23502e-06 -4.86368e-06 -9.37201e-05 )  
( 6.36929e-06 8.27812e-06 -6.30269e-05 )  
( 8.07017e-06 1.08494e-05 -6.37774e-05 )  
( -4.48203e-06 1.09072e-05 -9.92323e-05 )  
( 2.00659e-06 1.41931e-05 -7.4266e-05 )  
( 1.06293e-05 8.85165e-07 -0.000108634 )  
( 4.8534e-07 1.08114e-05 -8.08022e-05 )  
( -4.23928e-06 1.52543e-05 -8.57444e-05 )  
( 2.10884e-06 7.50725e-06 -5.77532e-05 )  
( 5.22953e-06 1.40668e-05 -7.41432e-05 )  
( 1.07317e-05 8.92753e-06 -8.85784e-05 )  
( 1.89057e-06 1.92879e-05 -5.95753e-05 )  
( 1.75233e-06 1.94701e-05 -5.48709e-05 )  
( 1.13523e-05 1.15135e-05 -0.00011277 )  
( 4.64906e-06 5.70843e-06 -8.5571e-05 )  
( 8.49521e-06 6.27238e-06 -0.000101265 )  
( -4.53206e-06 4.29755e-06 -8.53386e-05 )  
( 6.0882e-06 4.76297e-06 -8.72042e-05 )  
( 2.27001e-05 1.5677e-05 -8.04902e-05 )  
( -2.33418e-05 -1.76122e-05 -5.93862e-05 )  
( 6.30576e-06 -8.189e-06 -9.71302e-05 )  
( 9.59016e-06 3.19925e-06 -0.000119743 )  
( -4.04861e-06 8.78629e-06 -6.40746e-05 )  
( 1.41495e-06 2.17354e-06 -0.000103081 )  
( 3.53278e-06 5.67669e-06 -0.000116099 )  
( 9.90883e-06 4.18992e-06 -0.000101337 )  
( 1.16641e-05 4.05901e-06 -9.93098e-05 )  
( 1.54749e-05 1.26403e-05 -0.000113948 )  
( 1.95855e-05 7.23374e-06 -9.42927e-05 )  
( 3.706e-06 4.63472e-06 -7.94702e-05 )  
( 5.11853e-06 7.84243e-06 -9.39712e-05 )  
( 6.16455e-06 4.40572e-06 -0.000109695 )  
( 1.26271e-05 2.91431e-05 -0.000109759 )  
( 2.26555e-06 -6.90752e-06 -0.000110146 )  
( -6.86798e-06 1.12393e-05 -0.000105477 )  
( 1.4044e-05 1.81844e-05 -0.000125125 )  
( 5.49006e-06 2.28624e-05 -0.000104347 )  
( 9.18663e-06 1.01948e-05 -0.000136079 )  
( -2.00433e-06 -6.99548e-06 -0.000134693 )  
( 4.9505e-06 -2.54371e-06 -0.000128317 )  
( -2.52692e-06 -4.00548e-06 -0.000135168 )  
( 9.10807e-06 3.82788e-06 -0.000124865 )  
( -2.71168e-06 1.20131e-05 -0.000112625 )  
( 5.15401e-06 1.38625e-05 -9.75254e-05 )  
( 1.32253e-05 3.71828e-06 -0.000120884 )  
( -1.69661e-06 -3.70152e-06 -0.000136939 )  
( -1.60185e-05 -7.96782e-06 -0.000106157 )  
( 4.29162e-06 8.26114e-06 -0.000124527 )  
( -1.05453e-05 -2.24584e-06 -0.000159986 )  
( -7.81325e-06 3.20765e-06 -0.00013544 )  
( 2.77512e-05 -4.76256e-06 -0.000126623 )  
( -2.14519e-05 -1.38854e-05 -0.000150694 )  
( 7.55738e-06 9.21732e-06 -0.000129171 )  
( 4.87479e-06 6.27342e-06 -0.000148283 )  
( -8.24683e-06 1.52581e-05 -9.72803e-05 )  
( -8.11219e-06 1.46065e-05 -0.000174745 )  
( 1.89168e-05 2.42125e-06 -0.000112368 )  
( -1.31539e-06 -1.01872e-06 -0.000129279 )  
( 1.82763e-05 4.76265e-06 -0.000139268 )  
( 3.46857e-06 2.67074e-06 -0.00012749 )  
( -1.25914e-06 1.29651e-05 -0.00013009 )  
( 5.54659e-06 -4.81393e-06 -0.000130177 )  
( 1.54342e-05 9.02565e-06 -0.000123632 )  
( 9.30399e-06 1.00844e-05 -0.000139115 )  
( -4.86324e-06 -8.08391e-07 -0.000152391 )  
( 8.74268e-06 -3.84157e-06 -0.000137814 )  
( 5.58427e-06 9.0287e-06 -0.00016204 )  
( 6.05579e-07 1.9267e-05 -0.000126831 )  
( -5.76974e-06 1.13512e-06 -0.000161777 )  
( -4.11193e-06 3.46056e-06 -0.000146653 )  
( 9.49914e-06 3.7914e-06 -0.000168386 )  
( 7.54671e-06 5.83496e-06 -0.000151865 )  
( 2.28967e-06 4.97307e-06 -0.000146751 )  
( 2.94368e-06 1.68458e-05 -0.000157485 )  
( -4.99439e-06 8.7877e-06 -0.000164841 )  
( 1.0595e-05 6.78525e-08 -0.000164201 )  
( 1.47819e-06 1.92758e-06 -0.000179184 )  
( 1.09223e-05 8.75988e-06 -0.000137775 )  
( 2.64809e-05 -1.9148e-06 -0.000149302 )  
( -2.70952e-06 -1.70044e-06 -0.000157657 )  
( 4.6634e-06 1.44907e-06 -0.000184163 )  
( 1.29344e-05 -1.13865e-06 -0.000198542 )  
( -1.88666e-05 3.78534e-05 -0.000184332 )  
( 2.35891e-06 8.98195e-06 -0.000188916 )  
( 7.67119e-06 6.09446e-06 -0.000162466 )  
( 1.65844e-06 -2.53692e-06 -0.000165467 )  
( -1.57378e-05 -3.97517e-06 -0.000160832 )  
( 9.6586e-06 6.69685e-06 -0.00016169 )  
( 1.01073e-05 4.93163e-06 -0.000150616 )  
( -6.36664e-06 1.39618e-05 -0.000169493 )  
( 7.44624e-07 -7.52739e-06 -0.00017255 )  
( -7.8777e-06 1.22315e-05 -0.000209124 )  
( -4.77409e-06 5.13282e-06 -0.0001839 )  
( 2.03835e-05 -3.67678e-06 -0.000161105 )  
( 2.63843e-06 1.92517e-06 -0.000207398 )  
( 1.11248e-06 1.22064e-05 -0.000184607 )  
( 3.3357e-05 -1.84358e-05 -0.000220163 )  
( -1.16861e-05 1.02799e-05 -0.000208885 )  
( -2.40776e-06 2.2228e-05 -0.000216391 )  
( 2.11256e-05 -1.15524e-05 -0.00018517 )  
( 3.40074e-06 -8.90704e-06 -0.000202772 )  
( -5.68313e-06 -1.86842e-05 -0.000187279 )  
( -1.35209e-06 -4.09497e-06 -0.00018168 )  
( 1.17388e-05 -1.5206e-05 -0.000215802 )  
( 1.18726e-05 -2.94142e-05 -0.000184217 )  
( -6.47542e-06 1.04204e-05 -0.000195013 )  
( 2.12399e-06 -2.53487e-05 -0.000203158 )  
( 1.99503e-05 -8.75198e-06 -0.000204733 )  
( 2.69456e-05 -2.23425e-05 -0.000216528 )  
( -4.47941e-06 -9.11459e-06 -0.000215681 )  
( -1.01599e-05 -1.71414e-05 -0.000212406 )  
( 6.51419e-06 4.43326e-06 -0.000207945 )  
( -2.59867e-06 8.21032e-06 -0.000204484 )  
( -1.31189e-06 8.82796e-06 -0.000193377 )  
( 3.15654e-05 -1.23471e-06 -0.000199936 )  
( 2.17411e-05 9.56032e-06 -0.000180405 )  
( -2.33194e-06 -2.0018e-05 -0.000210712 )  
( -4.56351e-06 1.05033e-05 -0.000215467 )  
( 2.69269e-05 -6.68659e-06 -0.000223667 )  
( -5.55919e-06 1.32082e-05 -0.00023446 )  
( 1.79258e-06 7.05301e-07 -0.000227226 )  
( -3.7569e-06 -1.41266e-05 -0.000235509 )  
( 1.2898e-05 1.25109e-05 -0.000241699 )  
( -4.60829e-06 -2.2238e-05 -0.000230826 )  
( 9.62666e-06 -1.44759e-05 -0.000231397 )  
( 1.00127e-06 2.11125e-05 -0.000196026 )  
( -9.99919e-06 2.73921e-05 -0.000224704 )  
( -3.84721e-06 6.64826e-06 -0.000224914 )  
( 1.18798e-06 2.33324e-05 -0.000208811 )  
( 1.93036e-05 4.32715e-06 -0.00021447 )  
( -1.44329e-06 -1.53291e-05 -0.000192718 )  
( 6.52255e-07 1.63199e-05 -0.00022811 )  
( -3.57583e-06 1.81698e-05 -0.000220138 )  
( 3.29703e-05 -2.34768e-07 -0.000238341 )  
( -1.51395e-07 1.79343e-05 -0.000270781 )  
( 4.18888e-06 -1.49712e-05 -0.000246803 )  
( -2.35565e-06 -2.79712e-05 -0.000228072 )  
( 1.57172e-06 -1.46705e-05 -0.000235196 )  
( 2.68067e-05 -2.95634e-06 -0.000225111 )  
( -1.00711e-05 -3.79728e-06 -0.000240489 )  
( 5.33344e-06 -3.64586e-06 -0.000225988 )  
( 1.9677e-05 -8.12753e-06 -0.000232623 )  
( -9.18413e-06 -2.78036e-05 -0.000204224 )  
( 1.13736e-05 -1.05151e-05 -0.000239921 )  
( -2.00871e-06 9.24954e-06 -0.000248835 )  
( 7.27456e-06 -2.54353e-05 -0.000213357 )  
( 2.42061e-05 -2.79824e-06 -0.000244994 )  
( -1.93732e-05 2.74531e-05 -0.000232707 )  
( 2.79311e-05 -1.68455e-05 -0.000235472 )  
( -1.4944e-05 -1.5176e-05 -0.000247802 )  
( -1.26321e-05 -5.2802e-05 -0.000225883 )  
( -1.68109e-05 1.20124e-05 -0.000254783 )  
( -4.68462e-05 -7.2517e-05 -0.000242478 )  
( -3.00264e-05 3.75514e-05 -0.000282691 )  
( -1.93869e-05 1.22652e-05 -0.000228254 )  
( -1.14531e-05 3.49184e-05 -0.000239731 )  
( 2.15062e-05 1.08876e-06 -0.000245176 )  
( -1.78191e-05 6.96138e-06 -0.000238577 )  
)
