/*--------------------------------*- C++ -*----------------------------------*\
| =========                 |                                                 |
| \\      /  F ield         | OpenFOAM: The Open Source CFD Toolbox           |
|  \\    /   O peration     | Version:  5.x                                   |
|   \\  /    A nd           | Web:      www.OpenFOAM.org                      |
|    \\/     M anipulation  |                                                 |
\*---------------------------------------------------------------------------*/
FoamFile
{
    version     2.0;
    format      ascii;
    class       surfaceScalarField;
    location    "1000";
    object      phi;
}
// * * * * * * * * * * * * * * * * * * * * * * * * * * * * * * * * * * * * * //

dimensions      [0 3 -1 0 0 0 0];

internalField   nonuniform List<scalar> 
179
(
-250.009
-250.009
-250.009
-250.009
-250.01
-250.01
-250.011
-250.012
-250.012
-250.013
-250.015
-250.016
-250.018
-250.019
-250.021
-250.024
-250.026
-250.03
-250.033
-250.037
-250.041
-250.046
-250.052
-250.059
-250.066
-250.074
-250.083
-250.093
-250.105
-250.118
-250.133
-250.15
-250.168
-250.19
-250.213
-250.24
-250.271
-250.305
-250.343
-250.387
-250.436
-250.491
-250.554
-250.624
-250.704
-250.794
-250.896
-251.011
-251.142
-251.29
-251.457
-251.646
-251.86
-252.102
-252.376
-252.686
-253.037
-253.436
-253.89
-254.403
-254.986
-255.647
-256.4
-257.254
-258.226
-259.33
-260.586
-262.015
-263.641
-265.49
-267.596
-269.993
-272.722
-275.829
-279.368
-283.399
-287.99
-293.208
-299.015
-304.7
-305.696
-305.615
-305.199
-303.99
-298.22
-296.144
-286.38
-276.349
-278.958
-291.249
-295.946
-304.031
-304.926
-306.342
-305.675
-304.435
-309.574
-310.742
-310.547
-307.929
-304.714
-300.919
-294.06
-290.069
-285.448
-280.584
-276.26
-272.534
-269.34
-266.6
-264.251
-262.235
-260.507
-259.024
-257.752
-256.661
-255.724
-254.921
-254.231
-253.639
-253.131
-252.695
-252.32
-251.998
-251.722
-251.484
-251.28
-251.104
-250.953
-250.823
-250.711
-250.614
-250.531
-250.46
-250.398
-250.345
-250.299
-250.259
-250.225
-250.195
-250.17
-250.147
-250.128
-250.112
-250.097
-250.085
-250.074
-250.064
-250.056
-250.049
-250.043
-250.037
-250.032
-250.028
-250.025
-250.022
-250.019
-250.016
-250.014
-250.012
-250.011
-250.009
-250.008
-250.007
-250.006
-250.005
-250.005
-250.004
-250.003
-250.003
-250.002
-250.002
-250.002
-250.001
-250.001
-250.001
-250.001
-250.001
-250
)
;

boundaryField
{
    inlet
    {
        type            calculated;
        value           uniform -250;
    }
    outlet
    {
        type            calculated;
        value           uniform 250.009;
    }
    repeat_boundary
    {
        type            calculated;
        value           uniform 0;
    }
    procBoundary0to1
    {
        type            processor;
        value           nonuniform List<scalar> 
180
(
-1.89809e-05
-4.28826e-05
-7.06099e-05
-9.95296e-05
-0.0001295
-0.000160776
-0.000193653
-0.000228446
-0.000265488
-0.000305134
-0.00034777
-0.000393812
-0.000443713
-0.000497962
-0.00055709
-0.000621667
-0.000692308
-0.000769669
-0.000854453
-0.000947402
-0.0010493
-0.00116098
-0.0012833
-0.00141714
-0.00156343
-0.00172309
-0.00189704
-0.00208621
-0.00229148
-0.00251365
-0.00275347
-0.00301153
-0.00328826
-0.00358385
-0.00389818
-0.00423076
-0.0045806
-0.00494607
-0.0053248
-0.00571341
-0.00610735
-0.00650054
-0.00688505
-0.00725058
-0.00758387
-0.00786781
-0.00808016
-0.00819144
-0.00816131
-0.0079596
-0.00757492
-0.0070435
-0.00646584
-0.00592006
-0.00457778
-0.00308675
-0.000544129
0.00325716
0.00836317
0.0127831
0.0197074
0.0285051
0.0391878
0.0521719
0.0679436
0.0870113
0.109992
0.137591
0.170634
0.210084
0.257054
0.312843
0.378951
0.457117
0.549363
0.658021
0.785339
0.932983
1.08654
1.11936
0.174082
-0.0677712
-4.81898
-1.44695
-3.65172
-1.62082
-4.98794
-6.9149
1.25395
10.6242
4.03114
12.9264
2.9047
5.84156
1.35548
1.24615
6.23688
2.76581
0.29806
-1.72767
-1.67244
-2.32827
-4.04015
-2.56705
-3.24403
-2.84493
-2.41292
-2.06573
-1.77223
-1.52154
-1.30655
-1.12193
-0.963359
-0.827177
-0.710228
-0.6098
-0.523562
-0.44951
-0.385925
-0.331328
-0.28445
-0.244199
-0.209641
-0.179969
-0.154493
-0.132621
-0.113842
-0.0977199
-0.0838786
-0.0719982
-0.0617989
-0.0530431
-0.0455254
-0.0390715
-0.0335313
-0.0287768
-0.0246979
-0.0211969
-0.0181921
-0.0156132
-0.0133993
-0.0115019
-0.00987321
-0.00847267
-0.0072668
-0.00622797
-0.00533326
-0.00456293
-0.00389939
-0.00333415
-0.00284798
-0.0024299
-0.00207055
-0.0017618
-0.00149661
-0.00126941
-0.00107529
-0.000909944
-0.000768649
-0.000648147
-0.000549136
-0.00046617
-0.000395416
-0.000335025
-0.000283424
-0.00023929
-0.000201524
-0.000169231
-0.000141684
-0.000118293
-9.85563e-05
-8.20288e-05
-6.83025e-05
-5.7005e-05
-4.78062e-05
-4.04737e-05
-3.48955e-05
-3.15572e-05
-2.97854e-05
-3.14147e-05
)
;
    }
    procBoundary0to2
    {
        type            processor;
        value           nonuniform List<scalar> 
180
(
8.24378e-05
0.000189462
0.00031466
0.000445776
0.000582973
0.000727871
0.000882352
0.00104843
0.00122826
0.00142417
0.0016387
0.00187459
0.0021349
0.00242295
0.00274243
0.00309745
0.00349254
0.00393278
0.00442382
0.00497196
0.00558426
0.00626861
0.00703385
0.0078899
0.00884787
0.00992023
0.011121
0.0124658
0.0139724
0.0156605
0.0175524
0.0196731
0.0220508
0.024717
0.0277072
0.0310614
0.0348244
0.0390467
0.0437851
0.0491034
0.0550736
0.0617766
0.0693033
0.0777566
0.0872518
0.0979194
0.109906
0.123377
0.13852
0.155546
0.174692
0.196227
0.220454
0.247714
0.278386
0.312907
0.351765
0.395515
0.444791
0.50031
0.562862
0.633357
0.712822
0.802419
0.903461
1.01743
1.14602
1.29111
1.45485
1.63968
1.84834
2.08394
2.34997
2.65041
2.9897
3.37299
3.80575
4.2843
4.7205
4.56592
0.821986
-0.0130523
4.4025
0.237813
-2.11721
-0.455811
-4.77589
-3.1164
1.35543
1.66628
0.665837
-4.84163
-2.0092
-4.4257
-2.02294
-2.48636
-1.09747
-1.59814
-0.493625
-0.89025
-1.54258
-1.4659
-2.81903
-1.42414
-1.37622
-2.01885
-1.9113
-1.6602
-1.42268
-1.21804
-1.04308
-0.893388
-0.765278
-0.655646
-0.561833
-0.481555
-0.412859
-0.35407
-0.303755
-0.260688
-0.22382
-0.192252
-0.165217
-0.142058
-0.122214
-0.105204
-0.0906184
-0.0781075
-0.0673713
-0.0581542
-0.0502373
-0.0434338
-0.0375836
-0.0325504
-0.0282173
-0.0244845
-0.0212665
-0.0184902
-0.0160928
-0.0140209
-0.0122286
-0.0106769
-0.00933208
-0.0081654
-0.00715224
-0.00627148
-0.00550501
-0.00483732
-0.00425503
-0.00374672
-0.00330258
-0.00291418
-0.00257426
-0.00227658
-0.00201573
-0.00178701
-0.00158637
-0.00141026
-0.00125558
-0.00111964
-0.00100008
-0.000894882
-0.000802271
-0.000720689
-0.000648768
-0.000585306
-0.000529257
-0.000479714
-0.000435899
-0.000397159
-0.000362961
-0.000332865
-0.000306529
-0.000283692
-0.000264157
-0.000247781
-0.000234505
-0.000224634
-0.000217624
-0.000218277
)
;
    }
}


// ************************************************************************* //
