/*--------------------------------*- C++ -*----------------------------------*\
| =========                 |                                                 |
| \\      /  F ield         | OpenFOAM: The Open Source CFD Toolbox           |
|  \\    /   O peration     | Version:  5.x                                   |
|   \\  /    A nd           | Web:      www.OpenFOAM.org                      |
|    \\/     M anipulation  |                                                 |
\*---------------------------------------------------------------------------*/
FoamFile
{
    version     2.0;
    format      ascii;
    class       volVectorField;
    location    "1000";
    object      stored_U;
}
// * * * * * * * * * * * * * * * * * * * * * * * * * * * * * * * * * * * * * //

dimensions      [0 1 -1 0 0 0 0];

internalField   nonuniform List<vector> 
180
(
(-4.70448e-10 2.41618e-09 -0.00100004)
(-9.97985e-10 5.58264e-09 -0.00100004)
(-1.65386e-09 9.25685e-09 -0.00100004)
(-2.3617e-09 1.3086e-08 -0.00100004)
(-3.12398e-09 1.70684e-08 -0.00100004)
(-3.95297e-09 2.12478e-08 -0.00100004)
(-4.86231e-09 2.56752e-08 -0.00100004)
(-5.86528e-09 3.04065e-08 -0.00100005)
(-6.97471e-09 3.55033e-08 -0.00100005)
(-8.20303e-09 4.10337e-08 -0.00100005)
(-9.56238e-09 4.7073e-08 -0.00100006)
(-1.10647e-08 5.37048e-08 -0.00100006)
(-1.27222e-08 6.1022e-08 -0.00100007)
(-1.45471e-08 6.91279e-08 -0.00100008)
(-1.65526e-08 7.81373e-08 -0.00100008)
(-1.87525e-08 8.81778e-08 -0.00100009)
(-2.11623e-08 9.93912e-08 -0.0010001)
(-2.37987e-08 1.11935e-07 -0.00100011)
(-2.66805e-08 1.25985e-07 -0.00100012)
(-2.98289e-08 1.41737e-07 -0.00100014)
(-3.32671e-08 1.59408e-07 -0.00100015)
(-3.70212e-08 1.79241e-07 -0.00100017)
(-4.11198e-08 2.01509e-07 -0.00100019)
(-4.55944e-08 2.26515e-07 -0.00100021)
(-5.04791e-08 2.54599e-07 -0.00100024)
(-5.58104e-08 2.86143e-07 -0.00100027)
(-6.16271e-08 3.21575e-07 -0.0010003)
(-6.79698e-08 3.61376e-07 -0.00100033)
(-7.48806e-08 4.06088e-07 -0.00100038)
(-8.24021e-08 4.56319e-07 -0.00100042)
(-9.05769e-08 5.12754e-07 -0.00100047)
(-9.94465e-08 5.76165e-07 -0.00100053)
(-1.0905e-07 6.47421e-07 -0.0010006)
(-1.19423e-07 7.27501e-07 -0.00100067)
(-1.30594e-07 8.17511e-07 -0.00100075)
(-1.42586e-07 9.18694e-07 -0.00100085)
(-1.55409e-07 1.03246e-06 -0.00100095)
(-1.69059e-07 1.16038e-06 -0.00100107)
(-1.83516e-07 1.30425e-06 -0.00100121)
(-1.98734e-07 1.46609e-06 -0.00100136)
(-2.14637e-07 1.64817e-06 -0.00100153)
(-2.31114e-07 1.85306e-06 -0.00100172)
(-2.48005e-07 2.08366e-06 -0.00100194)
(-2.65092e-07 2.34327e-06 -0.00100219)
(-2.82086e-07 2.63558e-06 -0.00100247)
(-2.98609e-07 2.96479e-06 -0.00100278)
(-3.14172e-07 3.33564e-06 -0.00100314)
(-3.28155e-07 3.75353e-06 -0.00100355)
(-3.39769e-07 4.22451e-06 -0.00100401)
(-3.48022e-07 4.75551e-06 -0.00100453)
(-3.51682e-07 5.35434e-06 -0.00100512)
(-3.49246e-07 6.02985e-06 -0.00100579)
(-3.38933e-07 6.79206e-06 -0.00100655)
(-3.18702e-07 7.65227e-06 -0.00100741)
(-2.86291e-07 8.62318e-06 -0.00100838)
(-2.38695e-07 9.71931e-06 -0.00100948)
(-1.72615e-07 1.0957e-05 -0.00101072)
(-8.38141e-08 1.23549e-05 -0.00101214)
(3.32095e-08 1.39344e-05 -0.00101375)
(1.84993e-07 1.57197e-05 -0.00101558)
(3.79334e-07 1.77385e-05 -0.00101766)
(6.25485e-07 2.0022e-05 -0.00102002)
(9.34445e-07 2.26061e-05 -0.00102272)
(1.3193e-06 2.55311e-05 -0.00102579)
(1.79557e-06 2.88433e-05 -0.00102928)
(2.38167e-06 3.25953e-05 -0.00103326)
(3.09942e-06 3.6847e-05 -0.00103779)
(3.97465e-06 4.16668e-05 -0.00104297)
(5.03789e-06 4.71325e-05 -0.00104886)
(6.32518e-06 5.3333e-05 -0.00105559)
(7.87905e-06 6.03697e-05 -0.00106327)
(9.74962e-06 6.83583e-05 -0.00107204)
(1.19959e-05 7.7431e-05 -0.00108205)
(1.46875e-05 8.77385e-05 -0.00109349)
(1.79061e-05 9.94532e-05 -0.00110665)
(2.17476e-05 0.000112775 -0.00112222)
(2.63251e-05 0.000127929 -0.00113955)
(3.17475e-05 0.000144881 -0.00114564)
(3.78588e-05 0.0001611 -0.00110636)
(4.24999e-05 0.000161017 -0.00103107)
(2.98876e-05 6.7348e-05 -0.00335083)
(1.84905e-05 -5.55734e-05 -9.81522e-05)
(-0.0002418 0.000226142 -0.00386869)
(-6.11248e-05 2.7106e-05 -0.00109143)
(-0.000277922 -0.000140815 -0.00393544)
(-2.05832e-05 -9.30824e-05 -0.000750971)
(-0.000434651 -0.000366788 -0.00459514)
(-0.000174663 -0.000192593 -0.00395415)
(7.31486e-05 -1.23426e-05 -0.00189788)
(0.000300106 0.000315443 -0.00436117)
(0.000388101 2.88033e-05 -0.00192895)
(0.000691876 -0.000531466 -0.003937)
(0.000100199 -7.35111e-05 -0.000426905)
(0.000519182 -0.000270045 -0.00466953)
(0.000135918 -0.0002678 -0.00303328)
(8.15639e-05 -0.000120627 -0.00234964)
(0.000252166 -0.00013572 -0.0036078)
(0.000214139 -0.000153195 -0.00271419)
(-3.93549e-06 -6.28398e-05 -0.00257921)
(-0.000196657 -7.54998e-05 -0.00355378)
(-6.64172e-05 -7.79279e-05 -0.00220243)
(-0.000102095 -7.55304e-05 -0.00326991)
(-0.000174597 -5.25613e-05 -0.00266356)
(-0.000130386 6.37866e-05 -0.00150114)
(-0.00011876 -2.55296e-05 -0.00163138)
(-8.92642e-05 -6.09486e-05 -0.00115391)
(-7.36251e-05 -6.13961e-05 -0.00109786)
(-6.29409e-05 -5.38883e-05 -0.0010891)
(-5.39016e-05 -4.64841e-05 -0.00107972)
(-4.61626e-05 -4.00346e-05 -0.00106898)
(-3.95282e-05 -3.44859e-05 -0.00105937)
(-3.38383e-05 -2.97135e-05 -0.00105115)
(-2.89593e-05 -2.56081e-05 -0.00104407)
(-2.4777e-05 -2.20763e-05 -0.00103798)
(-2.1193e-05 -1.90377e-05 -0.00103273)
(-1.81226e-05 -1.64232e-05 -0.00102821)
(-1.5493e-05 -1.41732e-05 -0.00102432)
(-1.32415e-05 -1.22366e-05 -0.00102096)
(-1.13142e-05 -1.05694e-05 -0.00101807)
(-9.66501e-06 -9.13364e-06 -0.00101558)
(-8.25405e-06 -7.89695e-06 -0.00101344)
(-7.04725e-06 -6.83136e-06 -0.00101159)
(-6.01533e-06 -5.91285e-06 -0.00101)
(-5.13315e-06 -5.12083e-06 -0.00100863)
(-4.37917e-06 -4.43759e-06 -0.00100745)
(-3.7349e-06 -3.84791e-06 -0.00100643)
(-3.18451e-06 -3.33874e-06 -0.00100556)
(-2.71443e-06 -2.89886e-06 -0.0010048)
(-2.313e-06 -2.51864e-06 -0.00100415)
(-1.97028e-06 -2.1898e-06 -0.00100359)
(-1.67777e-06 -1.90525e-06 -0.0010031)
(-1.42819e-06 -1.65886e-06 -0.00100268)
(-1.21531e-06 -1.4454e-06 -0.00100232)
(-1.03373e-06 -1.26035e-06 -0.00100201)
(-8.78848e-07 -1.09984e-06 -0.00100174)
(-7.46684e-07 -9.60524e-07 -0.00100151)
(-6.33942e-07 -8.39526e-07 -0.00100131)
(-5.37816e-07 -7.34369e-07 -0.00100113)
(-4.55903e-07 -6.42916e-07 -0.00100098)
(-3.86135e-07 -5.63325e-07 -0.00100085)
(-3.26738e-07 -4.94004e-07 -0.00100074)
(-2.76203e-07 -4.33578e-07 -0.00100065)
(-2.33286e-07 -3.80861e-07 -0.00100056)
(-1.96882e-07 -3.34829e-07 -0.00100049)
(-1.66025e-07 -2.94599e-07 -0.00100043)
(-1.39887e-07 -2.59406e-07 -0.00100037)
(-1.17755e-07 -2.28589e-07 -0.00100032)
(-9.90211e-08 -2.01576e-07 -0.00100028)
(-8.31644e-08 -1.77873e-07 -0.00100025)
(-6.97424e-08 -1.57051e-07 -0.00100022)
(-5.83844e-08 -1.38742e-07 -0.00100019)
(-4.87767e-08 -1.22629e-07 -0.00100016)
(-4.06526e-08 -1.08437e-07 -0.00100014)
(-3.37866e-08 -9.5926e-08 -0.00100013)
(-2.79876e-08 -8.48904e-08 -0.00100011)
(-2.30941e-08 -7.51513e-08 -0.0010001)
(-1.89692e-08 -6.65534e-08 -0.00100008)
(-1.54975e-08 -5.89624e-08 -0.00100007)
(-1.25813e-08 -5.22611e-08 -0.00100006)
(-1.01367e-08 -4.63473e-08 -0.00100006)
(-8.09157e-09 -4.11309e-08 -0.00100005)
(-6.38949e-09 -3.65357e-08 -0.00100004)
(-4.98416e-09 -3.24953e-08 -0.00100004)
(-3.8354e-09 -2.89508e-08 -0.00100003)
(-2.90809e-09 -2.58497e-08 -0.00100003)
(-2.17128e-09 -2.31451e-08 -0.00100002)
(-1.59747e-09 -2.07945e-08 -0.00100002)
(-1.16205e-09 -1.87596e-08 -0.00100002)
(-8.42879e-10 -1.70059e-08 -0.00100001)
(-6.19951e-10 -1.55021e-08 -0.00100001)
(-4.75214e-10 -1.42198e-08 -0.00100001)
(-3.92417e-10 -1.31338e-08 -0.00100001)
(-3.57054e-10 -1.22211e-08 -0.00100001)
(-3.56338e-10 -1.14618e-08 -0.00100001)
(-3.79206e-10 -1.08385e-08 -0.001)
(-4.16243e-10 -1.03363e-08 -0.001)
(-4.61091e-10 -9.94402e-09 -0.001)
(-5.23581e-10 -9.66699e-09 -0.001)
(-5.8158e-10 -9.47827e-09 -0.001)
(-6.68454e-10 -9.41563e-09 -0.001)
)
;

boundaryField
{
    inlet
    {
        type            calculated;
        value           uniform (-6.68454e-10 -9.41563e-09 -0.001);
    }
    outlet
    {
        type            calculated;
        value           uniform (-4.70448e-10 2.41618e-09 -0.00100004);
    }
    repeat_boundary
    {
        type            calculated;
        value           nonuniform List<vector> 
360
(
(-4.70448e-10 0 -0.00100004)
(-9.97985e-10 0 -0.00100004)
(-1.65386e-09 0 -0.00100004)
(-2.3617e-09 0 -0.00100004)
(-3.12398e-09 0 -0.00100004)
(-3.95297e-09 0 -0.00100004)
(-4.86231e-09 0 -0.00100004)
(-5.86528e-09 0 -0.00100005)
(-6.97471e-09 0 -0.00100005)
(-8.20303e-09 0 -0.00100005)
(-9.56238e-09 0 -0.00100006)
(-1.10647e-08 0 -0.00100006)
(-1.27222e-08 0 -0.00100007)
(-1.45471e-08 0 -0.00100008)
(-1.65526e-08 0 -0.00100008)
(-1.87525e-08 0 -0.00100009)
(-2.11623e-08 0 -0.0010001)
(-2.37987e-08 0 -0.00100011)
(-2.66805e-08 0 -0.00100012)
(-2.98289e-08 0 -0.00100014)
(-3.32671e-08 0 -0.00100015)
(-3.70212e-08 0 -0.00100017)
(-4.11198e-08 0 -0.00100019)
(-4.55944e-08 0 -0.00100021)
(-5.04791e-08 0 -0.00100024)
(-5.58104e-08 0 -0.00100027)
(-6.16271e-08 0 -0.0010003)
(-6.79698e-08 0 -0.00100033)
(-7.48806e-08 0 -0.00100038)
(-8.24021e-08 0 -0.00100042)
(-9.05769e-08 0 -0.00100047)
(-9.94465e-08 0 -0.00100053)
(-1.0905e-07 0 -0.0010006)
(-1.19423e-07 0 -0.00100067)
(-1.30594e-07 0 -0.00100075)
(-1.42586e-07 0 -0.00100085)
(-1.55409e-07 0 -0.00100095)
(-1.69059e-07 0 -0.00100107)
(-1.83516e-07 0 -0.00100121)
(-1.98734e-07 0 -0.00100136)
(-2.14637e-07 0 -0.00100153)
(-2.31114e-07 0 -0.00100172)
(-2.48005e-07 0 -0.00100194)
(-2.65092e-07 0 -0.00100219)
(-2.82086e-07 0 -0.00100247)
(-2.98609e-07 0 -0.00100278)
(-3.14172e-07 0 -0.00100314)
(-3.28155e-07 0 -0.00100355)
(-3.39769e-07 0 -0.00100401)
(-3.48022e-07 0 -0.00100453)
(-3.51682e-07 0 -0.00100512)
(-3.49246e-07 0 -0.00100579)
(-3.38933e-07 0 -0.00100655)
(-3.18702e-07 0 -0.00100741)
(-2.86291e-07 0 -0.00100838)
(-2.38695e-07 0 -0.00100948)
(-1.72615e-07 0 -0.00101072)
(-8.38141e-08 0 -0.00101214)
(3.32095e-08 0 -0.00101375)
(1.84993e-07 0 -0.00101558)
(3.79334e-07 0 -0.00101766)
(6.25485e-07 0 -0.00102002)
(9.34445e-07 0 -0.00102272)
(1.3193e-06 0 -0.00102579)
(1.79557e-06 0 -0.00102928)
(2.38167e-06 0 -0.00103326)
(3.09942e-06 0 -0.00103779)
(3.97465e-06 0 -0.00104297)
(5.03789e-06 0 -0.00104886)
(6.32518e-06 0 -0.00105559)
(7.87905e-06 0 -0.00106327)
(9.74962e-06 0 -0.00107204)
(1.19959e-05 0 -0.00108205)
(1.46875e-05 0 -0.00109349)
(1.79061e-05 0 -0.00110665)
(2.17476e-05 0 -0.00112222)
(2.63251e-05 0 -0.00113955)
(3.17475e-05 0 -0.00114564)
(3.78588e-05 0 -0.00110636)
(4.24999e-05 0 -0.00103107)
(2.98876e-05 0 -0.00335083)
(1.84905e-05 0 -9.81522e-05)
(-0.0002418 0 -0.00386869)
(-6.11248e-05 0 -0.00109143)
(-0.000277922 0 -0.00393544)
(-2.05832e-05 0 -0.000750971)
(-0.000434651 0 -0.00459514)
(-0.000174663 0 -0.00395415)
(7.31486e-05 0 -0.00189788)
(0.000300106 0 -0.00436117)
(0.000388101 0 -0.00192895)
(0.000691876 0 -0.003937)
(0.000100199 0 -0.000426905)
(0.000519182 0 -0.00466953)
(0.000135918 0 -0.00303328)
(8.15639e-05 0 -0.00234964)
(0.000252166 0 -0.0036078)
(0.000214139 0 -0.00271419)
(-3.93549e-06 0 -0.00257921)
(-0.000196657 0 -0.00355378)
(-6.64172e-05 0 -0.00220243)
(-0.000102095 0 -0.00326991)
(-0.000174597 0 -0.00266356)
(-0.000130386 0 -0.00150114)
(-0.00011876 0 -0.00163138)
(-8.92642e-05 0 -0.00115391)
(-7.36251e-05 0 -0.00109786)
(-6.29409e-05 0 -0.0010891)
(-5.39016e-05 0 -0.00107972)
(-4.61626e-05 0 -0.00106898)
(-3.95282e-05 0 -0.00105937)
(-3.38383e-05 0 -0.00105115)
(-2.89593e-05 0 -0.00104407)
(-2.4777e-05 0 -0.00103798)
(-2.1193e-05 0 -0.00103273)
(-1.81226e-05 0 -0.00102821)
(-1.5493e-05 0 -0.00102432)
(-1.32415e-05 0 -0.00102096)
(-1.13142e-05 0 -0.00101807)
(-9.66501e-06 0 -0.00101558)
(-8.25405e-06 0 -0.00101344)
(-7.04725e-06 0 -0.00101159)
(-6.01533e-06 0 -0.00101)
(-5.13315e-06 0 -0.00100863)
(-4.37917e-06 0 -0.00100745)
(-3.7349e-06 0 -0.00100643)
(-3.18451e-06 0 -0.00100556)
(-2.71443e-06 0 -0.0010048)
(-2.313e-06 0 -0.00100415)
(-1.97028e-06 0 -0.00100359)
(-1.67777e-06 0 -0.0010031)
(-1.42819e-06 0 -0.00100268)
(-1.21531e-06 0 -0.00100232)
(-1.03373e-06 0 -0.00100201)
(-8.78848e-07 0 -0.00100174)
(-7.46684e-07 0 -0.00100151)
(-6.33942e-07 0 -0.00100131)
(-5.37816e-07 0 -0.00100113)
(-4.55903e-07 0 -0.00100098)
(-3.86135e-07 0 -0.00100085)
(-3.26738e-07 0 -0.00100074)
(-2.76203e-07 0 -0.00100065)
(-2.33286e-07 0 -0.00100056)
(-1.96882e-07 0 -0.00100049)
(-1.66025e-07 0 -0.00100043)
(-1.39887e-07 0 -0.00100037)
(-1.17755e-07 0 -0.00100032)
(-9.90211e-08 0 -0.00100028)
(-8.31644e-08 0 -0.00100025)
(-6.97424e-08 0 -0.00100022)
(-5.83844e-08 0 -0.00100019)
(-4.87767e-08 0 -0.00100016)
(-4.06526e-08 0 -0.00100014)
(-3.37866e-08 0 -0.00100013)
(-2.79876e-08 0 -0.00100011)
(-2.30941e-08 0 -0.0010001)
(-1.89692e-08 0 -0.00100008)
(-1.54975e-08 0 -0.00100007)
(-1.25813e-08 0 -0.00100006)
(-1.01367e-08 0 -0.00100006)
(-8.09157e-09 0 -0.00100005)
(-6.38949e-09 0 -0.00100004)
(-4.98416e-09 0 -0.00100004)
(-3.8354e-09 0 -0.00100003)
(-2.90809e-09 0 -0.00100003)
(-2.17128e-09 0 -0.00100002)
(-1.59747e-09 0 -0.00100002)
(-1.16205e-09 0 -0.00100002)
(-8.42879e-10 0 -0.00100001)
(-6.19951e-10 0 -0.00100001)
(-4.75214e-10 0 -0.00100001)
(-3.92417e-10 0 -0.00100001)
(-3.57054e-10 0 -0.00100001)
(-3.56338e-10 0 -0.00100001)
(-3.79206e-10 0 -0.001)
(-4.16243e-10 0 -0.001)
(-4.61091e-10 0 -0.001)
(-5.23581e-10 0 -0.001)
(-5.8158e-10 0 -0.001)
(-6.68454e-10 0 -0.001)
(0 2.41618e-09 -0.00100004)
(0 5.58264e-09 -0.00100004)
(0 9.25685e-09 -0.00100004)
(0 1.3086e-08 -0.00100004)
(0 1.70684e-08 -0.00100004)
(0 2.12478e-08 -0.00100004)
(0 2.56752e-08 -0.00100004)
(0 3.04065e-08 -0.00100005)
(0 3.55033e-08 -0.00100005)
(0 4.10337e-08 -0.00100005)
(0 4.7073e-08 -0.00100006)
(0 5.37048e-08 -0.00100006)
(0 6.1022e-08 -0.00100007)
(0 6.91279e-08 -0.00100008)
(0 7.81373e-08 -0.00100008)
(0 8.81778e-08 -0.00100009)
(0 9.93912e-08 -0.0010001)
(0 1.11935e-07 -0.00100011)
(0 1.25985e-07 -0.00100012)
(0 1.41737e-07 -0.00100014)
(0 1.59408e-07 -0.00100015)
(0 1.79241e-07 -0.00100017)
(0 2.01509e-07 -0.00100019)
(0 2.26515e-07 -0.00100021)
(0 2.54599e-07 -0.00100024)
(0 2.86143e-07 -0.00100027)
(0 3.21575e-07 -0.0010003)
(0 3.61376e-07 -0.00100033)
(0 4.06088e-07 -0.00100038)
(0 4.56319e-07 -0.00100042)
(0 5.12754e-07 -0.00100047)
(0 5.76165e-07 -0.00100053)
(0 6.47421e-07 -0.0010006)
(0 7.27501e-07 -0.00100067)
(0 8.17511e-07 -0.00100075)
(0 9.18694e-07 -0.00100085)
(0 1.03246e-06 -0.00100095)
(0 1.16038e-06 -0.00100107)
(0 1.30425e-06 -0.00100121)
(0 1.46609e-06 -0.00100136)
(0 1.64817e-06 -0.00100153)
(0 1.85306e-06 -0.00100172)
(0 2.08366e-06 -0.00100194)
(0 2.34327e-06 -0.00100219)
(0 2.63558e-06 -0.00100247)
(0 2.96479e-06 -0.00100278)
(0 3.33564e-06 -0.00100314)
(0 3.75353e-06 -0.00100355)
(0 4.22451e-06 -0.00100401)
(0 4.75551e-06 -0.00100453)
(0 5.35434e-06 -0.00100512)
(0 6.02985e-06 -0.00100579)
(0 6.79206e-06 -0.00100655)
(0 7.65227e-06 -0.00100741)
(0 8.62318e-06 -0.00100838)
(0 9.71931e-06 -0.00100948)
(0 1.0957e-05 -0.00101072)
(0 1.23549e-05 -0.00101214)
(0 1.39344e-05 -0.00101375)
(0 1.57197e-05 -0.00101558)
(0 1.77385e-05 -0.00101766)
(0 2.0022e-05 -0.00102002)
(0 2.26061e-05 -0.00102272)
(0 2.55311e-05 -0.00102579)
(0 2.88433e-05 -0.00102928)
(0 3.25953e-05 -0.00103326)
(0 3.6847e-05 -0.00103779)
(0 4.16668e-05 -0.00104297)
(0 4.71325e-05 -0.00104886)
(0 5.3333e-05 -0.00105559)
(0 6.03697e-05 -0.00106327)
(0 6.83583e-05 -0.00107204)
(0 7.7431e-05 -0.00108205)
(0 8.77385e-05 -0.00109349)
(0 9.94532e-05 -0.00110665)
(0 0.000112775 -0.00112222)
(0 0.000127929 -0.00113955)
(0 0.000144881 -0.00114564)
(0 0.0001611 -0.00110636)
(0 0.000161017 -0.00103107)
(0 6.7348e-05 -0.00335083)
(0 -5.55734e-05 -9.81522e-05)
(0 0.000226142 -0.00386869)
(0 2.7106e-05 -0.00109143)
(0 -0.000140815 -0.00393544)
(0 -9.30824e-05 -0.000750971)
(0 -0.000366788 -0.00459514)
(0 -0.000192593 -0.00395415)
(0 -1.23426e-05 -0.00189788)
(0 0.000315443 -0.00436117)
(0 2.88033e-05 -0.00192895)
(0 -0.000531466 -0.003937)
(0 -7.35111e-05 -0.000426905)
(0 -0.000270045 -0.00466953)
(0 -0.0002678 -0.00303328)
(0 -0.000120627 -0.00234964)
(0 -0.00013572 -0.0036078)
(0 -0.000153195 -0.00271419)
(0 -6.28398e-05 -0.00257921)
(0 -7.54998e-05 -0.00355378)
(0 -7.79279e-05 -0.00220243)
(0 -7.55304e-05 -0.00326991)
(0 -5.25613e-05 -0.00266356)
(0 6.37866e-05 -0.00150114)
(0 -2.55296e-05 -0.00163138)
(0 -6.09486e-05 -0.00115391)
(0 -6.13961e-05 -0.00109786)
(0 -5.38883e-05 -0.0010891)
(0 -4.64841e-05 -0.00107972)
(0 -4.00346e-05 -0.00106898)
(0 -3.44859e-05 -0.00105937)
(0 -2.97135e-05 -0.00105115)
(0 -2.56081e-05 -0.00104407)
(0 -2.20763e-05 -0.00103798)
(0 -1.90377e-05 -0.00103273)
(0 -1.64232e-05 -0.00102821)
(0 -1.41732e-05 -0.00102432)
(0 -1.22366e-05 -0.00102096)
(0 -1.05694e-05 -0.00101807)
(0 -9.13364e-06 -0.00101558)
(0 -7.89695e-06 -0.00101344)
(0 -6.83136e-06 -0.00101159)
(0 -5.91285e-06 -0.00101)
(0 -5.12083e-06 -0.00100863)
(0 -4.43759e-06 -0.00100745)
(0 -3.84791e-06 -0.00100643)
(0 -3.33874e-06 -0.00100556)
(0 -2.89886e-06 -0.0010048)
(0 -2.51864e-06 -0.00100415)
(0 -2.1898e-06 -0.00100359)
(0 -1.90525e-06 -0.0010031)
(0 -1.65886e-06 -0.00100268)
(0 -1.4454e-06 -0.00100232)
(0 -1.26035e-06 -0.00100201)
(0 -1.09984e-06 -0.00100174)
(0 -9.60524e-07 -0.00100151)
(0 -8.39526e-07 -0.00100131)
(0 -7.34369e-07 -0.00100113)
(0 -6.42916e-07 -0.00100098)
(0 -5.63325e-07 -0.00100085)
(0 -4.94004e-07 -0.00100074)
(0 -4.33578e-07 -0.00100065)
(0 -3.80861e-07 -0.00100056)
(0 -3.34829e-07 -0.00100049)
(0 -2.94599e-07 -0.00100043)
(0 -2.59406e-07 -0.00100037)
(0 -2.28589e-07 -0.00100032)
(0 -2.01576e-07 -0.00100028)
(0 -1.77873e-07 -0.00100025)
(0 -1.57051e-07 -0.00100022)
(0 -1.38742e-07 -0.00100019)
(0 -1.22629e-07 -0.00100016)
(0 -1.08437e-07 -0.00100014)
(0 -9.5926e-08 -0.00100013)
(0 -8.48904e-08 -0.00100011)
(0 -7.51513e-08 -0.0010001)
(0 -6.65534e-08 -0.00100008)
(0 -5.89624e-08 -0.00100007)
(0 -5.22611e-08 -0.00100006)
(0 -4.63473e-08 -0.00100006)
(0 -4.11309e-08 -0.00100005)
(0 -3.65357e-08 -0.00100004)
(0 -3.24953e-08 -0.00100004)
(0 -2.89508e-08 -0.00100003)
(0 -2.58497e-08 -0.00100003)
(0 -2.31451e-08 -0.00100002)
(0 -2.07945e-08 -0.00100002)
(0 -1.87596e-08 -0.00100002)
(0 -1.70059e-08 -0.00100001)
(0 -1.55021e-08 -0.00100001)
(0 -1.42198e-08 -0.00100001)
(0 -1.31338e-08 -0.00100001)
(0 -1.22211e-08 -0.00100001)
(0 -1.14618e-08 -0.00100001)
(0 -1.08385e-08 -0.001)
(0 -1.03363e-08 -0.001)
(0 -9.94402e-09 -0.001)
(0 -9.66699e-09 -0.001)
(0 -9.47827e-09 -0.001)
(0 -9.41563e-09 -0.001)
)
;
    }
    procBoundary0to1
    {
        type            processor;
        value           nonuniform List<vector> 
180
(
(-4.70449e-10 2.14996e-09 -0.00100005)
(-9.97985e-10 4.88272e-09 -0.00100005)
(-1.65386e-09 8.10414e-09 -0.00100005)
(-2.3617e-09 1.14971e-08 -0.00100005)
(-3.12398e-09 1.50683e-08 -0.00100006)
(-3.95297e-09 1.8864e-08 -0.00100006)
(-4.86231e-09 2.29366e-08 -0.00100006)
(-5.86528e-09 2.7341e-08 -0.00100007)
(-6.97471e-09 3.21347e-08 -0.00100007)
(-8.20303e-09 3.73782e-08 -0.00100008)
(-9.56238e-09 4.31363e-08 -0.00100009)
(-1.10647e-08 4.94784e-08 -0.00100009)
(-1.27222e-08 5.64797e-08 -0.0010001)
(-1.45471e-08 6.42221e-08 -0.00100011)
(-1.65526e-08 7.27955e-08 -0.00100012)
(-1.87525e-08 8.22992e-08 -0.00100014)
(-2.11623e-08 9.2843e-08 -0.00100015)
(-2.37987e-08 1.04549e-07 -0.00100017)
(-2.66805e-08 1.17553e-07 -0.00100018)
(-2.98289e-08 1.32007e-07 -0.0010002)
(-3.32671e-08 1.48078e-07 -0.00100022)
(-3.70212e-08 1.65957e-07 -0.00100025)
(-4.11198e-08 1.85852e-07 -0.00100028)
(-4.55945e-08 2.07998e-07 -0.00100031)
(-5.04791e-08 2.32653e-07 -0.00100034)
(-5.58104e-08 2.60108e-07 -0.00100038)
(-6.16271e-08 2.90682e-07 -0.00100042)
(-6.79698e-08 3.24732e-07 -0.00100047)
(-7.48806e-08 3.6265e-07 -0.00100052)
(-8.24021e-08 4.04874e-07 -0.00100058)
(-9.05769e-08 4.51884e-07 -0.00100064)
(-9.94465e-08 5.04212e-07 -0.00100072)
(-1.0905e-07 5.62447e-07 -0.0010008)
(-1.19423e-07 6.27235e-07 -0.00100089)
(-1.30594e-07 6.9929e-07 -0.00100099)
(-1.42586e-07 7.79398e-07 -0.0010011)
(-1.55409e-07 8.68421e-07 -0.00100122)
(-1.69059e-07 9.6731e-07 -0.00100135)
(-1.83516e-07 1.07711e-06 -0.0010015)
(-1.98734e-07 1.19895e-06 -0.00100167)
(-2.14637e-07 1.3341e-06 -0.00100185)
(-2.31114e-07 1.48391e-06 -0.00100206)
(-2.48005e-07 1.64989e-06 -0.00100228)
(-2.65092e-07 1.83365e-06 -0.00100253)
(-2.82086e-07 2.03696e-06 -0.00100281)
(-2.98609e-07 2.26175e-06 -0.00100311)
(-3.14173e-07 2.51009e-06 -0.00100344)
(-3.28155e-07 2.78421e-06 -0.00100381)
(-3.39769e-07 3.08653e-06 -0.00100421)
(-3.48023e-07 3.41961e-06 -0.00100465)
(-3.51682e-07 3.78622e-06 -0.00100513)
(-3.49246e-07 4.18928e-06 -0.00100566)
(-3.38933e-07 4.63193e-06 -0.00100624)
(-3.18703e-07 5.11752e-06 -0.00100688)
(-2.86291e-07 5.64972e-06 -0.00100758)
(-2.38695e-07 6.23223e-06 -0.00100834)
(-1.72616e-07 6.86903e-06 -0.00100917)
(-8.38158e-08 7.56412e-06 -0.00101008)
(3.32067e-08 8.32137e-06 -0.00101105)
(1.84988e-07 9.14464e-06 -0.00101211)
(3.79327e-07 1.00377e-05 -0.00101324)
(6.25473e-07 1.10041e-05 -0.00101446)
(9.34426e-07 1.20472e-05 -0.00101577)
(1.31927e-06 1.31696e-05 -0.00101716)
(1.79552e-06 1.43735e-05 -0.00101863)
(2.3816e-06 1.56601e-05 -0.00102019)
(3.09931e-06 1.70291e-05 -0.00102183)
(3.97449e-06 1.84791e-05 -0.00102353)
(5.03764e-06 2.00062e-05 -0.0010253)
(6.32481e-06 2.16041e-05 -0.00102711)
(7.8785e-06 2.32633e-05 -0.00102894)
(9.74883e-06 2.49703e-05 -0.00103076)
(1.19948e-05 2.67066e-05 -0.00103254)
(1.46859e-05 2.84479e-05 -0.00103422)
(1.79047e-05 3.01623e-05 -0.00103585)
(2.17495e-05 3.18087e-05 -0.00103783)
(2.6305e-05 3.33301e-05 -0.00103923)
(3.16702e-05 3.46898e-05 -0.00102666)
(3.72159e-05 3.52072e-05 -0.000965775)
(3.81395e-05 2.95072e-05 -0.000847674)
(1.32334e-05 -4.71423e-06 -0.00301923)
(2.20834e-05 -2.35825e-05 -6.82434e-05)
(-0.000166041 0.000295426 -0.00388042)
(-6.73653e-05 0.000103829 -0.00211936)
(-6.21853e-05 -3.95821e-05 -0.00216536)
(-0.000176221 2.48061e-05 -0.00382932)
(-0.000120068 -2.66922e-05 -0.00152465)
(-0.000531112 -0.00041214 -0.00456907)
(4.58386e-05 1.52596e-05 -0.000184072)
(0.000754385 -0.000712101 -0.00425842)
(9.86302e-05 -8.06589e-05 -0.000398288)
(0.000446754 -0.000360244 -0.00361512)
(0.00027128 -0.000313413 -0.00205473)
(0.000262314 -0.000406434 -0.00346381)
(5.66236e-05 -0.000104586 -0.00165933)
(8.32157e-05 -0.000197854 -0.00233725)
(0.000385692 -0.000429214 -0.002286)
(1.40362e-06 5.40817e-05 -0.00029958)
(2.63923e-05 -3.02899e-05 -0.00372191)
(-4.06889e-05 0.000122363 -0.00146185)
(-0.000164239 0.000184819 -0.00214499)
(-0.000186447 0.000185396 -0.00148265)
(-0.000198375 6.32787e-05 -0.00124882)
(-0.000156285 4.64632e-05 -0.00103421)
(-0.00011934 6.69537e-05 -0.000960093)
(-8.89372e-05 7.18937e-05 -0.000900177)
(-7.37281e-05 6.47511e-05 -0.000881101)
(-6.29722e-05 5.53986e-05 -0.000895145)
(-5.39169e-05 4.70369e-05 -0.000911771)
(-4.61727e-05 3.98796e-05 -0.00092494)
(-3.95355e-05 3.37793e-05 -0.000935872)
(-3.38435e-05 2.85852e-05 -0.000945242)
(-2.8963e-05 2.41661e-05 -0.000953284)
(-2.47797e-05 2.04093e-05 -0.000960172)
(-2.11949e-05 1.72178e-05 -0.000966067)
(-1.8124e-05 1.45088e-05 -0.00097111)
(-1.5494e-05 1.22112e-05 -0.000975421)
(-1.32422e-05 1.02643e-05 -0.000979104)
(-1.13148e-05 8.61595e-06 -0.000982249)
(-9.66538e-06 7.22169e-06 -0.000984932)
(-8.25432e-06 6.0435e-06 -0.000987221)
(-7.04745e-06 5.04893e-06 -0.000989172)
(-6.01547e-06 4.21026e-06 -0.000990833)
(-5.13325e-06 3.50387e-06 -0.000992247)
(-4.37924e-06 2.90959e-06 -0.00099345)
(-3.73495e-06 2.41027e-06 -0.000994471)
(-3.18455e-06 1.99129e-06 -0.000995339)
(-2.71445e-06 1.64025e-06 -0.000996075)
(-2.31302e-06 1.34652e-06 -0.000996699)
(-1.97029e-06 1.10116e-06 -0.000997227)
(-1.67778e-06 8.96608e-07 -0.000997675)
(-1.4282e-06 7.26449e-07 -0.000998054)
(-1.21531e-06 5.85198e-07 -0.000998374)
(-1.03373e-06 4.68158e-07 -0.000998643)
(-8.78851e-07 3.71316e-07 -0.000998868)
(-7.46686e-07 2.91234e-07 -0.000999057)
(-6.33943e-07 2.25206e-07 -0.000999217)
(-5.37817e-07 1.70986e-07 -0.000999352)
(-4.55904e-07 1.26663e-07 -0.000999466)
(-3.86135e-07 9.06155e-08 -0.000999562)
(-3.26738e-07 6.14653e-08 -0.000999642)
(-2.76203e-07 3.80694e-08 -0.00099971)
(-2.33286e-07 1.95609e-08 -0.000999768)
(-1.96882e-07 5.12366e-09 -0.000999816)
(-1.66025e-07 -5.96175e-09 -0.000999856)
(-1.39887e-07 -1.43106e-08 -0.000999888)
(-1.17755e-07 -2.04425e-08 -0.000999915)
(-9.90211e-08 -2.47926e-08 -0.000999936)
(-8.31644e-08 -2.77237e-08 -0.000999954)
(-6.97424e-08 -2.95361e-08 -0.000999968)
(-5.83845e-08 -3.0473e-08 -0.000999979)
(-4.87767e-08 -3.07326e-08 -0.000999987)
(-4.06526e-08 -3.04757e-08 -0.000999994)
(-3.37866e-08 -2.9832e-08 -0.000999999)
(-2.79876e-08 -2.89053e-08 -0.001)
(-2.30941e-08 -2.77784e-08 -0.00100001)
(-1.89692e-08 -2.65163e-08 -0.00100001)
(-1.54975e-08 -2.517e-08 -0.00100001)
(-1.25813e-08 -2.37787e-08 -0.00100001)
(-1.01367e-08 -2.2373e-08 -0.00100001)
(-8.09157e-09 -2.09766e-08 -0.00100001)
(-6.38949e-09 -1.9605e-08 -0.00100001)
(-4.98416e-09 -1.82686e-08 -0.00100001)
(-3.8354e-09 -1.69751e-08 -0.00100001)
(-2.90809e-09 -1.57304e-08 -0.00100001)
(-2.17128e-09 -1.4539e-08 -0.00100001)
(-1.59747e-09 -1.34049e-08 -0.00100001)
(-1.16205e-09 -1.23314e-08 -0.00100001)
(-8.42879e-10 -1.13216e-08 -0.00100001)
(-6.19951e-10 -1.03787e-08 -0.00100001)
(-4.75215e-10 -9.50585e-09 -0.00100001)
(-3.92418e-10 -8.70599e-09 -0.00100001)
(-3.57054e-10 -7.98209e-09 -0.00100001)
(-3.56338e-10 -7.33695e-09 -0.00100001)
(-3.79206e-10 -6.77309e-09 -0.00100001)
(-4.16244e-10 -6.29262e-09 -0.001)
(-4.61091e-10 -5.89591e-09 -0.001)
(-5.2358e-10 -5.56812e-09 -0.001)
(-5.8158e-10 -5.32655e-09 -0.001)
(-6.68454e-10 -5.12844e-09 -0.001)
)
;
    }
    procBoundary0to2
    {
        type            processor;
        value           nonuniform List<vector> 
180
(
(-7.36666e-10 2.41618e-09 -0.000999962)
(-1.69791e-09 5.58264e-09 -0.000999962)
(-2.80656e-09 9.25685e-09 -0.000999961)
(-3.95057e-09 1.3086e-08 -0.00099996)
(-5.1241e-09 1.70684e-08 -0.000999958)
(-6.33678e-09 2.12478e-08 -0.000999955)
(-7.60082e-09 2.56752e-08 -0.000999952)
(-8.9307e-09 3.04065e-08 -0.000999948)
(-1.03433e-08 3.55033e-08 -0.000999943)
(-1.18585e-08 4.10337e-08 -0.000999938)
(-1.3499e-08 4.7073e-08 -0.000999931)
(-1.52911e-08 5.37047e-08 -0.000999923)
(-1.72645e-08 6.1022e-08 -0.000999914)
(-1.9453e-08 6.91279e-08 -0.000999904)
(-2.18944e-08 7.81373e-08 -0.000999892)
(-2.46312e-08 8.81778e-08 -0.000999878)
(-2.77104e-08 9.93911e-08 -0.000999862)
(-3.11848e-08 1.11935e-07 -0.000999845)
(-3.51127e-08 1.25985e-07 -0.000999825)
(-3.95591e-08 1.41737e-07 -0.000999802)
(-4.45963e-08 1.59408e-07 -0.000999777)
(-5.03053e-08 1.79241e-07 -0.000999748)
(-5.67765e-08 2.01509e-07 -0.000999716)
(-6.41114e-08 2.26515e-07 -0.00099968)
(-7.24246e-08 2.54599e-07 -0.00099964)
(-8.18452e-08 2.86142e-07 -0.000999595)
(-9.25198e-08 3.21575e-07 -0.000999544)
(-1.04614e-07 3.61376e-07 -0.000999487)
(-1.18318e-07 4.06088e-07 -0.000999424)
(-1.33847e-07 4.56319e-07 -0.000999352)
(-1.51447e-07 5.12753e-07 -0.000999272)
(-1.71399e-07 5.76164e-07 -0.000999181)
(-1.94023e-07 6.4742e-07 -0.00099908)
(-2.19688e-07 7.275e-07 -0.000998965)
(-2.48814e-07 8.17509e-07 -0.000998837)
(-2.81882e-07 9.18693e-07 -0.000998693)
(-3.19443e-07 1.03245e-06 -0.00099853)
(-3.62127e-07 1.16038e-06 -0.000998348)
(-4.1066e-07 1.30425e-06 -0.000998142)
(-4.65868e-07 1.46608e-06 -0.000997911)
(-5.28704e-07 1.64816e-06 -0.00099765)
(-6.00257e-07 1.85305e-06 -0.000997357)
(-6.81779e-07 2.08365e-06 -0.000997027)
(-7.74708e-07 2.34325e-06 -0.000996656)
(-8.80695e-07 2.63556e-06 -0.000996237)
(-1.00164e-06 2.96477e-06 -0.000995766)
(-1.13972e-06 3.33562e-06 -0.000995235)
(-1.29746e-06 3.75349e-06 -0.000994637)
(-1.47774e-06 4.22447e-06 -0.000993962)
(-1.6839e-06 4.75546e-06 -0.000993202)
(-1.91976e-06 5.35427e-06 -0.000992344)
(-2.18977e-06 6.02976e-06 -0.000991375)
(-2.49901e-06 6.79195e-06 -0.000990282)
(-2.85338e-06 7.65213e-06 -0.000989048)
(-3.25965e-06 8.623e-06 -0.000987653)
(-3.72565e-06 9.71908e-06 -0.000986078)
(-4.26041e-06 1.09567e-05 -0.000984297)
(-4.87435e-06 1.23545e-05 -0.000982284)
(-5.57948e-06 1.39338e-05 -0.000980006)
(-6.38966e-06 1.5719e-05 -0.00097743)
(-7.32092e-06 1.77376e-05 -0.000974514)
(-8.39174e-06 2.00209e-05 -0.000971214)
(-9.62352e-06 2.26046e-05 -0.000967475)
(-1.10409e-05 2.55292e-05 -0.00096324)
(-1.26726e-05 2.88408e-05 -0.00095844)
(-1.45514e-05 3.25921e-05 -0.000952998)
(-1.67156e-05 3.68428e-05 -0.000946826)
(-1.92093e-05 4.16613e-05 -0.000939824)
(-2.20835e-05 4.71254e-05 -0.000931877)
(-2.53972e-05 5.33237e-05 -0.000922854)
(-2.92188e-05 6.03576e-05 -0.000912606)
(-3.36271e-05 6.83424e-05 -0.000900962)
(-3.87134e-05 7.74101e-05 -0.000887726)
(-4.45834e-05 8.77111e-05 -0.000872671)
(-5.13594e-05 9.94172e-05 -0.000855609)
(-5.9187e-05 0.000112727 -0.000836573)
(-6.82226e-05 0.000127849 -0.000814844)
(-7.84038e-05 0.000144694 -0.000781445)
(-8.8256e-05 0.000160306 -0.000711922)
(-9.02574e-05 0.000155768 -0.000599705)
(-3.88157e-05 4.37201e-05 -0.00193083)
(2.77245e-05 -3.4754e-05 -9.03799e-05)
(-2.38621e-05 0.000139799 -0.00289003)
(3.5807e-05 -1.83245e-05 -0.00052066)
(-9.40191e-05 -7.56409e-05 -0.00341008)
(3.70786e-05 -4.84094e-05 -0.000682471)
(-8.05017e-05 -0.000198225 -0.00297012)
(-0.000163944 -0.000164673 -0.00139512)
(-0.000330189 0.000196533 -0.00249502)
(-1.34012e-06 -4.19428e-06 -0.000445108)
(1.39819e-05 3.31562e-05 -0.0043974)
(7.68988e-05 -4.73853e-05 -0.00154861)
(0.00018815 -0.000183097 -0.00205237)
(-3.44814e-05 -0.000223922 -0.00271548)
(1.26733e-05 5.47979e-06 -0.000307762)
(0.000128312 -0.000219475 -0.00291178)
(3.16556e-05 -2.66308e-05 -0.00128675)
(0.000124457 -6.81167e-05 -0.00174708)
(2.91187e-05 -3.51302e-05 -0.00236798)
(9.94639e-05 -5.61885e-05 -0.00045001)
(0.000190886 -1.31147e-06 -0.00256497)
(0.000288673 3.89567e-05 -0.00129629)
(0.000158905 -0.000109463 -0.00118227)
(0.000106383 -0.000144877 -0.00104045)
(8.46272e-05 -7.37978e-05 -0.000921016)
(6.43493e-05 -7.09529e-05 -0.000927326)
(5.45169e-05 -6.24243e-05 -0.000918127)