/*--------------------------------*- C++ -*----------------------------------*\
| =========                 |                                                 |
| \\      /  F ield         | OpenFOAM: The Open Source CFD Toolbox           |
|  \\    /   O peration     | Version:  5.x                                   |
|   \\  /    A nd           | Web:      www.OpenFOAM.org                      |
|    \\/     M anipulation  |                                                 |
\*---------------------------------------------------------------------------*/
FoamFile
{
    version     2.0;
    format      ascii;
    class       volScalarField;
    location    "700";
    object      p;
}
// * * * * * * * * * * * * * * * * * * * * * * * * * * * * * * * * * * * * * //

dimensions      [0 2 -2 0 0 0 0];

internalField   nonuniform List<scalar> 
90
(
-0.0583554
-0.0703043
-0.0478595
-0.0301598
-0.0178821
-0.0130049
-0.0117515
-0.0130376
-0.0156483
-0.0185255
-0.0204443
-0.0224289
-0.0248339
-0.0281926
-0.0327969
-0.0389415
-0.0467953
-0.0564926
-0.0681144
-0.0817199
-0.0973378
-0.114975
-0.134624
-0.156283
-0.179945
-0.205601
-0.233237
-0.262835
-0.294372
-0.32782
-0.363147
-0.400318
-0.439293
-0.480032
-0.522489
-0.56662
-0.612386
-0.659752
-0.708676
-0.759108
-0.811006
-0.864327
-0.919031
-0.975081
-1.03244
-1.09109
-1.15099
-1.21212
-1.27446
-1.338
-1.40273
-1.46863
-1.53569
-1.60392
-1.67332
-1.74388
-1.81561
-1.88853
-1.96263
-2.03794
-2.11447
-2.19223
-2.27124
-2.35153
-2.43313
-2.51606
-2.60032
-2.68599
-2.77326
-2.86225
-2.9526
-3.04375
-3.13559
-3.22834
-3.32211
-3.41695
-3.51284
-3.6097
-3.70743
-3.80585
-3.90464
-4.00326
-4.10143
-4.19965
-4.29775
-4.38828
-4.45854
-4.52847
-4.68766
-4.95857
)
;

boundaryField
{
    inlet
    {
        type            zeroGradient;
    }
    outlet
    {
        type            fixedValue;
        value           uniform 0;
    }
    repeat_boundary
    {
        type            zeroGradient;
    }
    procBoundary2to0
    {
        type            processor;
        value           nonuniform List<scalar> 
90
(
-0.0084574
0.00240544
0.035766
0.0206871
-0.0247475
-0.071375
-0.108851
-0.127776
-0.146063
-0.147934
-0.123689
-0.107445
-0.0944962
-0.0861924
-0.0816677
-0.0806124
-0.0826121
-0.0874343
-0.0948834
-0.104819
-0.117145
-0.131802
-0.148754
-0.167966
-0.189406
-0.213043
-0.238848
-0.266786
-0.296822
-0.328915
-0.363019
-0.399085
-0.437056
-0.476874
-0.518476
-0.561797
-0.606772
-0.653336
-0.701424
-0.750974
-0.801928
-0.854235
-0.907847
-0.962723
-1.01883
-1.07614
-1.13463
-1.1943
-1.25512
-1.31709
-1.38022
-1.44451
-1.50996
-1.57659
-1.64441
-1.71343
-1.78366
-1.85511
-1.92781
-2.00176
-2.07699
-2.15351
-2.23133
-2.31049
-2.39099
-2.47286
-2.55613
-2.64082
-2.72697
-2.81459
-2.90374
-2.99443
-3.08671
-3.18062
-3.27622
-3.37356
-3.47269
-3.57369
-3.6766
-3.78149
-3.88847
-3.99768
-4.10913
-4.22245
-4.33732
-4.45601
-4.58379
-4.71785
-4.82592
-4.84642
)
;
    }
    procBoundary2to3
    {
        type            processor;
        value           nonuniform List<scalar> 
90
(
0.0181853
0.0311347
0.0392645
0.0443521
0.0482384
0.0501849
0.0506901
0.0496043
0.047155
0.0433382
0.0382166
0.0316909
0.0236583
0.0139588
0.0024426
-0.0110381
-0.0266121
-0.044402
-0.0645295
-0.087127
-0.11224
-0.139628
-0.16899
-0.200281
-0.233534
-0.268745
-0.305885
-0.344912
-0.385768
-0.42839
-0.472707
-0.518646
-0.566131
-0.615087
-0.665443
-0.717126
-0.770059
-0.82417
-0.879398
-0.935697
-0.993025
-1.05135
-1.11065
-1.17092
-1.23214
-1.29432
-1.35746
-1.4216
-1.48674
-1.5529
-1.62013
-1.68843
-1.75784
-1.82838
-1.90007
-1.97293
-2.04698
-2.12222
-2.19867
-2.27633
-2.35519
-2.43524
-2.51649
-2.59891
-2.68248
-2.76719
-2.85299
-2.93983
-3.02756
-3.1161
-3.20578
-3.29734
-3.39105
-3.48678
-3.58444
-3.68396
-3.78528
-3.88837
-3.9932
-4.09974
-4.208
-4.31803
-4.42984
-4.54324
-4.65788
-4.77467
-4.89703
-5.02725
-5.15088
-5.21186
)
;
    }
}


// ************************************************************************* //
