/*--------------------------------*- C++ -*----------------------------------*\
| =========                 |                                                 |
| \\      /  F ield         | OpenFOAM: The Open Source CFD Toolbox           |
|  \\    /   O peration     | Version:  5.x                                   |
|   \\  /    A nd           | Web:      www.OpenFOAM.org                      |
|    \\/     M anipulation  |                                                 |
\*---------------------------------------------------------------------------*/
FoamFile
{
    version     2.0;
    format      ascii;
    class       volScalarField;
    location    "10000";
    object      p;
}
// * * * * * * * * * * * * * * * * * * * * * * * * * * * * * * * * * * * * * //

dimensions      [0 2 -2 0 0 0 0];

internalField   nonuniform List<scalar> 
180
(
1.66932e-09
4.41772e-09
7.11247e-09
1e-08
1.24999e-08
1.48922e-08
1.71449e-08
1.92392e-08
2.11577e-08
2.28894e-08
2.4431e-08
2.57881e-08
2.69744e-08
2.80108e-08
2.89245e-08
2.97469e-08
3.05123e-08
3.12563e-08
3.20141e-08
3.28201e-08
3.37065e-08
3.47033e-08
3.5838e-08
3.71357e-08
3.86198e-08
4.03123e-08
4.2235e-08
4.441e-08
4.68615e-08
4.96167e-08
5.2708e-08
5.61744e-08
6.00631e-08
6.44317e-08
6.93499e-08
7.49015e-08
8.1186e-08
8.83216e-08
9.64469e-08
1.05724e-07
1.16343e-07
1.28524e-07
1.42523e-07
1.5864e-07
1.77224e-07
1.98685e-07
2.23501e-07
2.5224e-07
2.85571e-07
3.24285e-07
3.69326e-07
4.21814e-07
4.83085e-07
5.54731e-07
6.38655e-07
7.37125e-07
8.52851e-07
9.89069e-07
1.14964e-06
1.33919e-06
1.56321e-06
1.82831e-06
2.14237e-06
2.51483e-06
2.95704e-06
3.4826e-06
4.10798e-06
4.8531e-06
5.74221e-06
6.80517e-06
8.07954e-06
9.61384e-06
1.14707e-05
1.3716e-05
1.64011e-05
1.96031e-05
2.36636e-05
2.94952e-05
3.69585e-05
3.35617e-05
-1.56508e-05
0.000834337
0.00131974
0.00179488
0.00489755
0.0059676
0.0094812
0.012082
0.0126924
0.0147733
0.015853
0.0160093
0.0182879
0.0218981
0.0221866
0.0229216
0.0229239
0.0225125
0.021928
0.0223685
0.0225891
0.0230356
0.0235397
0.0234698
0.0234936
0.0235138
0.0235284
0.0235417
0.0235539
0.0235647
0.0235742
0.0235825
0.0235897
0.0235961
0.0236017
0.0236065
0.0236108
0.0236145
0.0236178
0.0236206
0.0236231
0.0236253
0.0236272
0.0236289
0.0236303
0.0236316
0.0236327
0.0236336
0.0236345
0.0236352
0.0236358
0.0236364
0.0236369
0.0236373
0.0236376
0.023638
0.0236382
0.0236385
0.0236387
0.0236389
0.023639
0.0236391
0.0236393
0.0236394
0.0236395
0.0236395
0.0236396
0.0236397
0.0236397
0.0236398
0.0236398
0.0236398
0.0236399
0.0236399
0.0236399
0.0236399
0.0236399
0.0236399
0.02364
0.02364
0.02364
0.02364
0.02364
0.02364
0.02364
0.02364
0.02364
0.02364
0.02364
0.02364
0.02364
0.02364
0.02364
0.02364
0.02364
0.02364
0.0236401
0.0236401
0.0236401
0.0236401
)
;

boundaryField
{
    inlet
    {
        type            zeroGradient;
    }
    outlet
    {
        type            fixedValue;
        value           uniform 0;
    }
    repeat_boundary
    {
        type            zeroGradient;
    }
    procBoundary3to1
    {
        type            processor;
        value           nonuniform List<scalar> 
180
(
1.63555e-09
4.48353e-09
7.40687e-09
1.04976e-08
1.31563e-08
1.56676e-08
1.79979e-08
2.01297e-08
2.20498e-08
2.37555e-08
2.52562e-08
2.65743e-08
2.77448e-08
2.88143e-08
2.98394e-08
3.08849e-08
3.20216e-08
3.33243e-08
3.48696e-08
3.67349e-08
3.89956e-08
4.17257e-08
4.49969e-08
4.8877e-08
5.34421e-08
5.87707e-08
6.49325e-08
7.19788e-08
7.99649e-08
8.89395e-08
9.89541e-08
1.10071e-07
1.22368e-07
1.3594e-07
1.50907e-07
1.67411e-07
1.85624e-07
2.05755e-07
2.28051e-07
2.52804e-07
2.8036e-07
3.11116e-07
3.45534e-07
3.84144e-07
4.27545e-07
4.7642e-07
5.31537e-07
5.93755e-07
6.64038e-07
7.43461e-07
8.33219e-07
9.34644e-07
1.04921e-06
1.17856e-06
1.3245e-06
1.48905e-06
1.67441e-06
1.88303e-06
2.11759e-06
2.38102e-06
2.67649e-06
3.00742e-06
3.37747e-06
3.79047e-06
4.25037e-06
4.76117e-06
5.32665e-06
5.95022e-06
6.63436e-06
7.37988e-06
8.18484e-06
9.04345e-06
9.94369e-06
1.08653e-05
1.17642e-05
1.2579e-05
1.34392e-05
1.51128e-05
1.78334e-05
1.21987e-05
-6.38881e-05
0.0010988
0.00237479
0.002448
0.00395446
0.00614286
0.00895593
0.0101145
0.0115767
0.0125386
0.0132939
0.0145425
0.0151278
0.0164836
0.0191352
0.0209661
0.0212486
0.0213056
0.0215181
0.0224286
0.022892
0.0232383
0.0233761
0.0234344
0.0234753
0.0234996
0.0235178
0.0235341
0.0235487
0.0235612
0.023572
0.0235813
0.0235893
0.0235962
0.0236022
0.0236073
0.0236117
0.0236156
0.0236189
0.0236217
0.0236242
0.0236263
0.0236282
0.0236298
0.0236312
0.0236324
0.0236334
0.0236343
0.0236351
0.0236357
0.0236363
0.0236368
0.0236372
0.0236376
0.0236379
0.0236382
0.0236385
0.0236387
0.0236389
0.023639
0.0236392
0.0236393
0.0236394
0.0236395
0.0236395
0.0236396
0.0236397
0.0236397
0.0236398
0.0236398
0.0236398
0.0236399
0.0236399
0.0236399
0.0236399
0.0236399
0.0236399
0.02364
0.02364
0.02364
0.02364
0.02364
0.02364
0.02364
0.02364
0.02364
0.02364
0.02364
0.02364
0.02364
0.02364
0.02364
0.02364
0.02364
0.02364
0.0236401
0.0236401
0.0236401
0.0236401
0.0236401
)
;
    }
    procBoundary3to2
    {
        type            processor;
        value           nonuniform List<scalar> 
180
(
1.28604e-09
3.33835e-09
5.41208e-09
7.63475e-09
9.39738e-09
1.09672e-08
1.22957e-08
1.33512e-08
1.41055e-08
1.45398e-08
1.46454e-08
1.44252e-08
1.38922e-08
1.30685e-08
1.19833e-08
1.06707e-08
9.16657e-09
7.50607e-09
5.721e-09
3.83708e-09
1.8715e-09
-1.69357e-10
-2.29201e-09
-4.51769e-09
-6.88403e-09
-9.44635e-09
-1.22787e-08
-1.54749e-08
-1.91492e-08
-2.34376e-08
-2.84983e-08
-3.45127e-08
-4.16869e-08
-5.02524e-08
-6.04683e-08
-7.26234e-08
-8.70394e-08
-1.04075e-07
-1.2413e-07
-1.47654e-07
-1.75154e-07
-2.07204e-07
-2.44458e-07
-2.87666e-07
-3.37689e-07
-3.95526e-07
-4.62332e-07
-5.39449e-07
-6.28441e-07
-7.31129e-07
-8.49634e-07
-9.86431e-07
-1.1444e-06
-1.3269e-06
-1.53785e-06
-1.78179e-06
-2.06403e-06
-2.39074e-06
-2.7691e-06
-3.20748e-06
-3.71563e-06
-4.30494e-06
-4.98867e-06
-5.78233e-06
-6.70406e-06
-7.77507e-06
-9.02024e-06
-1.04687e-05
-1.21548e-05
-1.41187e-05
-1.6408e-05
-1.90781e-05
-2.21942e-05
-2.58372e-05
-3.01208e-05
-3.51891e-05
-4.10828e-05
-4.74171e-05
-5.40326e-05
-6.62296e-05
-0.000128786
0.00053953
0.00129251
0.00168485
0.00330349
0.00525952
0.0076619
0.0086369
0.00919742
0.0104905
0.0140577
0.0164043
0.0184285
0.0188632
0.0200372
0.0206671
0.0210442
0.0218938
0.0220153
0.0224585
0.0235445
0.0237749
0.023803
0.0237669
0.0237494
0.0237377
0.0237259
0.0237155
0.0237065
0.0236986
0.0236917
0.0236855
0.02368
0.0236751
0.0236709
0.0236671
0.0236638
0.0236609
0.0236583
0.0236561
0.0236541
0.0236524
0.0236509
0.0236495
0.0236483
0.0236473
0.0236464
0.0236456
0.0236449
0.0236443
0.0236438
0.0236433
0.0236429
0.0236425
0.0236422
0.0236419
0.0236417
0.0236415
0.0236413
0.0236412
0.023641
0.0236409
0.0236408
0.0236407
0.0236406
0.0236405
0.0236405
0.0236404
0.0236404
0.0236403
0.0236403
0.0236403
0.0236402
0.0236402
0.0236402
0.0236402
0.0236402
0.0236401
0.0236401
0.0236401
0.0236401
0.0236401
0.0236401
0.0236401
0.0236401
0.0236401
0.0236401
0.0236401
0.0236401
0.0236401
0.0236401
0.0236401
0.0236401
0.0236401
0.0236401
0.0236401
0.0236401
0.0236401
0.0236401
0.0236401
)
;
    }
}


// ************************************************************************* //
