/*--------------------------------*- C++ -*----------------------------------*\
| =========                 |                                                 |
| \\      /  F ield         | OpenFOAM: The Open Source CFD Toolbox           |
|  \\    /   O peration     | Version:  5.x                                   |
|   \\  /    A nd           | Web:      www.OpenFOAM.org                      |
|    \\/     M anipulation  |                                                 |
\*---------------------------------------------------------------------------*/
FoamFile
{
    version     2.0;
    format      ascii;
    class       volVectorField;
    location    "900";
    object      U;
}
// * * * * * * * * * * * * * * * * * * * * * * * * * * * * * * * * * * * * * //

dimensions      [0 1 -1 0 0 0 0];

internalField   nonuniform List<vector> 
90
(
(0.0942912 -0.0146981 -5.13834)
(0.0983004 -0.0140517 -5.11906)
(0.0989046 -0.0125716 -5.10569)
(0.100816 -0.011505 -5.09002)
(0.101795 -0.0102405 -5.07524)
(0.10294 -0.0091044 -5.05998)
(0.103784 -0.00794221 -5.04484)
(0.104591 -0.00684729 -5.02965)
(0.10528 -0.00576842 -5.01453)
(0.10592 -0.00473886 -4.9995)
(0.106479 -0.00376763 -4.98455)
(0.106978 -0.00286863 -4.96975)
(0.107444 -0.00201607 -4.95512)
(0.107903 -0.00119874 -4.94067)
(0.108344 -0.000434067 -4.9264)
(0.108748 0.000269195 -4.91234)
(0.109145 0.000933292 -4.8985)
(0.109551 0.0015648 -4.88491)
(0.109976 0.0021639 -4.87156)
(0.110425 0.00272989 -4.85845)
(0.110889 0.00327097 -4.84558)
(0.111399 0.00380294 -4.83296)
(0.111943 0.00431428 -4.82057)
(0.112525 0.00480516 -4.80841)
(0.113149 0.00528172 -4.79646)
(0.113813 0.00575629 -4.78472)
(0.114536 0.00623917 -4.77317)
(0.115323 0.00672858 -4.76181)
(0.116185 0.00723572 -4.7506)
(0.117121 0.00776181 -4.73954)
(0.118112 0.00829185 -4.7286)
(0.119147 0.00882274 -4.71777)
(0.12023 0.0093581 -4.70705)
(0.12135 0.00989594 -4.69644)
(0.122503 0.0104374 -4.68592)
(0.123694 0.0109864 -4.67551)
(0.124946 0.0115581 -4.6652)
(0.12627 0.0121646 -4.65497)
(0.127669 0.0128011 -4.64481)
(0.129143 0.0134597 -4.63469)
(0.130662 0.0141309 -4.62462)
(0.132239 0.0148293 -4.61457)
(0.133883 0.0155542 -4.60455)
(0.135585 0.0162987 -4.59453)
(0.137341 0.0170626 -4.58452)
(0.139143 0.0178396 -4.5745)
(0.140981 0.0186283 -4.56447)
(0.142845 0.0194229 -4.55442)
(0.144732 0.0202234 -4.54437)
(0.146642 0.0210304 -4.53431)
(0.148573 0.0218442 -4.52425)
(0.150527 0.0226661 -4.51419)
(0.152504 0.0234974 -4.50414)
(0.154505 0.0243391 -4.49411)
(0.156532 0.0251926 -4.4841)
(0.158585 0.026059 -4.47411)
(0.160666 0.0269394 -4.46415)
(0.162775 0.0278348 -4.45422)
(0.164912 0.0287462 -4.44433)
(0.167079 0.0296748 -4.43448)
(0.169276 0.0306215 -4.42468)
(0.171502 0.0315873 -4.41493)
(0.173759 0.0325734 -4.40522)
(0.176046 0.0335809 -4.39558)
(0.178364 0.0346113 -4.386)
(0.180712 0.0356658 -4.37648)
(0.183091 0.0367461 -4.36703)
(0.185501 0.037854 -4.35765)
(0.18794 0.0389914 -4.34835)
(0.19041 0.0401608 -4.33914)
(0.192909 0.0413646 -4.33001)
(0.195437 0.042606 -4.32097)
(0.197992 0.0438884 -4.31202)
(0.200574 0.045216 -4.30318)
(0.203181 0.0465934 -4.29444)
(0.205811 0.0480262 -4.2858)
(0.20846 0.0495208 -4.27728)
(0.211122 0.0510847 -4.26887)
(0.213795 0.0527276 -4.26056)
(0.216477 0.0544629 -4.25235)
(0.219162 0.0563048 -4.24432)
(0.221836 0.0582684 -4.2364)
(0.224442 0.0603552 -4.22856)
(0.226923 0.0625629 -4.22081)
(0.229224 0.0648877 -4.21303)
(0.231342 0.0673298 -4.20545)
(0.233011 0.0699356 -4.19849)
(0.233493 0.0727236 -4.19271)
(0.232905 0.0755877 -4.18557)
(0.23339 0.0771743 -4.17512)
)
;

boundaryField
{
    inlet
    {
        type            zeroGradient;
    }
    outlet
    {
        type            zeroGradient;
    }
    repeat_boundary
    {
        type            slip;
    }
    procBoundary3to1
    {
        type            processor;
        value           nonuniform List<vector> 
90
(
(0.0677627 -0.00473787 -4.40451)
(0.0700218 -0.00399823 -4.38388)
(0.0704781 -0.00263935 -4.37405)
(0.0714708 -0.00154696 -4.35986)
(0.0723105 -0.000369332 -4.3477)
(0.073305 0.0007205 -4.33472)
(0.074188 0.00180224 -4.32234)
(0.074972 0.00280855 -4.30991)
(0.076166 0.00377283 -4.29765)
(0.077416 0.0046933 -4.28541)
(0.0781345 0.00554765 -4.27329)
(0.0789094 0.0063153 -4.26132)
(0.0797926 0.0070246 -4.24948)
(0.0808414 0.00769035 -4.23767)
(0.0816629 0.00831991 -4.22592)
(0.0820339 0.00890438 -4.21421)
(0.082345 0.00941031 -4.20274)
(0.0828721 0.0098842 -4.19138)
(0.083753 0.010343 -4.18012)
(0.0845106 0.0107707 -4.16895)
(0.0849751 0.0111506 -4.15783)
(0.0856652 0.0115125 -4.14689)
(0.0863204 0.0118731 -4.13596)
(0.0870706 0.0122187 -4.12506)
(0.0877993 0.0125453 -4.11423)
(0.0881048 0.0128552 -4.10344)
(0.088524 0.01317 -4.0928)
(0.08921 0.0135036 -4.08222)
(0.0903763 0.0138567 -4.07159)
(0.0916455 0.0142237 -4.06096)
(0.0925679 0.0145826 -4.05027)
(0.0936883 0.0149327 -4.03952)
(0.0949809 0.0152736 -4.02871)
(0.0959815 0.0156108 -4.01789)
(0.0966234 0.0159268 -4.00708)
(0.0972691 0.0162339 -3.99645)
(0.0981521 0.0165432 -3.98591)
(0.0991733 0.0169003 -3.9754)
(0.10047 0.0172861 -3.96486)
(0.10198 0.017672 -3.95423)
(0.103292 0.018053 -3.94355)
(0.104839 0.0184375 -3.9328)
(0.106505 0.0188357 -3.92209)
(0.10797 0.0192503 -3.91129)
(0.109848 0.0196672 -3.90034)
(0.111887 0.0200664 -3.88927)
(0.113728 0.0204557 -3.87805)
(0.11548 0.0208263 -3.86673)
(0.117155 0.0211763 -3.85533)
(0.118779 0.0215059 -3.84386)
(0.120363 0.0218143 -3.83235)
(0.121924 0.022102 -3.82078)
(0.123468 0.0223695 -3.80918)
(0.125004 0.0226169 -3.79755)
(0.126537 0.0228445 -3.78588)
(0.12807 0.0230523 -3.77419)
(0.129606 0.0232401 -3.76246)
(0.131147 0.0234078 -3.75071)
(0.132694 0.023555 -3.73892)
(0.134249 0.0236811 -3.72711)
(0.135811 0.0237856 -3.71527)
(0.137381 0.0238678 -3.7034)
(0.138959 0.023927 -3.69151)
(0.140544 0.0239627 -3.67958)
(0.142138 0.0239741 -3.66762)
(0.143738 0.0239606 -3.65564)
(0.145346 0.0239217 -3.64362)
(0.14696 0.023857 -3.63157)
(0.14858 0.0237662 -3.6195)
(0.150206 0.0236494 -3.60739)
(0.151837 0.0235069 -3.59526)
(0.153475 0.0233392 -3.5831)
(0.155117 0.0231474 -3.57091)
(0.156766 0.0229334 -3.55869)
(0.15842 0.0226995 -3.54645)
(0.16008 0.022449 -3.53419)
(0.161749 0.0221861 -3.5219)
(0.163425 0.0219162 -3.50961)
(0.165112 0.0216476 -3.4973)
(0.166811 0.021393 -3.48498)
(0.168525 0.0211665 -3.47267)
(0.170256 0.0209705 -3.46038)
(0.172006 0.0207973 -3.44813)
(0.173782 0.0206367 -3.43585)
(0.175594 0.0204748 -3.42345)
(0.177466 0.0203092 -3.41139)
(0.179342 0.0201738 -3.40025)
(0.181187 0.0200938 -3.39016)
(0.183136 0.0199213 -3.37627)
(0.184541 0.0195319 -3.35831)
)
;
    }
    procBoundary3to2
    {
        type            processor;
        value           nonuniform List<vector> 
90
(
(0.0680575 -0.0720769 -6.94293)
(0.0698898 -0.0749505 -6.97879)
(0.0655267 -0.0761324 -7.00358)
(0.0641426 -0.0781482 -7.03334)
(0.0605914 -0.0793595 -7.06017)
(0.0578275 -0.0806309 -7.08856)
(0.0542761 -0.0816388 -7.116)
(0.0508472 -0.0827204 -7.14383)
(0.0471018 -0.0834009 -7.17124)
(0.0433409 -0.0839855 -7.19852)
(0.0394355 -0.0848131 -7.2254)
(0.0354665 -0.0855674 -7.25208)
(0.0314303 -0.0862775 -7.2785)
(0.0273848 -0.0868515 -7.30464)
(0.0233276 -0.08757 -7.33043)
(0.0192694 -0.0885594 -7.35588)
(0.0152126 -0.0894752 -7.38114)
(0.0111947 -0.0902371 -7.40619)
(0.0072364 -0.0908019 -7.43098)
(0.00332866 -0.0914645 -7.45545)
(-0.000535583 -0.0923574 -7.47967)
(-0.00433115 -0.0931271 -7.50373)
(-0.00804498 -0.0939633 -7.52759)
(-0.011679 -0.0947814 -7.55123)
(-0.0152518 -0.0955989 -7.57464)
(-0.0187599 -0.0967199 -7.59787)
(-0.0221977 -0.0978344 -7.62105)
(-0.0255564 -0.0988636 -7.64414)
(-0.0288331 -0.0997349 -7.66706)
(-0.0320493 -0.10063 -7.68984)
(-0.0352204 -0.101763 -7.71252)
(-0.0383435 -0.102828 -7.73511)
(-0.0414218 -0.103763 -7.75757)
(-0.0444732 -0.10483 -7.77988)
(-0.0475133 -0.106166 -7.80213)
(-0.0505479 -0.107594 -7.82447)
(-0.0535722 -0.108941 -7.84689)
(-0.056569 -0.11031 -7.86935)
(-0.0595445 -0.11157 -7.89181)
(-0.0625193 -0.11272 -7.91423)
(-0.065511 -0.114045 -7.93664)
(-0.0685009 -0.115314 -7.95906)
(-0.0715079 -0.116552 -7.98151)
(-0.0745296 -0.117954 -8.00398)
(-0.0775703 -0.119237 -8.02646)
(-0.0806478 -0.120462 -8.04893)
(-0.0837565 -0.121792 -8.07138)
(-0.0869109 -0.123191 -8.09383)
(-0.0901122 -0.124659 -8.11631)
(-0.0933639 -0.12617 -8.13883)
(-0.0966683 -0.127728 -8.1614)
(-0.100027 -0.129324 -8.18402)
(-0.103441 -0.130955 -8.20671)
(-0.106912 -0.132619 -8.22946)
(-0.110441 -0.134314 -8.25228)
(-0.11403 -0.136041 -8.27518)
(-0.117678 -0.137798 -8.29814)
(-0.121387 -0.139585 -8.32118)
(-0.125159 -0.141402 -8.34429)
(-0.128995 -0.14325 -8.36749)
(-0.132895 -0.145127 -8.39076)
(-0.136861 -0.147035 -8.4141)
(-0.140893 -0.148973 -8.43753)
(-0.144994 -0.150942 -8.46104)
(-0.149165 -0.152941 -8.48463)
(-0.153405 -0.154971 -8.5083)
(-0.157718 -0.157032 -8.53205)
(-0.162104 -0.159123 -8.55588)
(-0.166565 -0.161244 -8.57979)
(-0.171101 -0.163395 -8.60378)
(-0.175715 -0.165574 -8.62785)
(-0.180408 -0.16778 -8.65199)
(-0.185181 -0.170013 -8.67621)
(-0.190037 -0.172271 -8.70051)
(-0.194977 -0.17455 -8.72487)
(-0.200004 -0.176849 -8.7493)
(-0.20512 -0.179163 -8.77378)
(-0.210329 -0.181488 -8.79831)
(-0.215632 -0.183818 -8.82289)
(-0.221033 -0.186147 -8.84751)
(-0.226533 -0.188467 -8.87211)
(-0.232162 -0.190767 -8.89672)
(-0.237949 -0.19302 -8.92132)
(-0.243923 -0.195206 -8.94595)
(-0.250108 -0.197305 -8.9707)
(-0.256497 -0.199318 -8.99496)
(-0.263281 -0.201111 -9.01779)
(-0.270734 -0.202335 -9.04015)
(-0.278757 -0.203146 -9.06936)
(-0.282787 -0.204164 -9.09186)
)
;
    }
}


// ************************************************************************* //
