FoamFile
{version 2.0; format ascii;class Cloud<passiveParticle>; location 0;object  positions;}
353
(
( -152.377 108.909 57.5261 ) 0 
( -269.813 143.98 56.6603 ) 0 
( -386.517 391.181 57.4653 ) 0 
( -20.7223 1.04835 55.6146 ) 0 
( -385.573 490.667 55.658 ) 0 
( -181.701 205.168 55.8223 ) 0 
( -9.08364 246.135 56.4934 ) 0 
( -481.928 362.991 54.2629 ) 0 
( -298.732 439.183 58.2251 ) 0 
( -203.799 317.785 54.6727 ) 0 
( -485.998 465.297 54.0242 ) 0 
( -427.494 278.832 55.3954 ) 0 
( -448.329 147.305 57.8556 ) 0 
( -122.909 377.41 57.3873 ) 0 
( -301.184 340.012 57.5194 ) 0 
( -357.027 279.95 132.009 ) 0 
( -99.6103 474.641 56.3662 ) 0 
( -277.948 43.4382 54.0721 ) 0 
( -195.174 446.341 59.079 ) 0 
( -23.144 377.387 55.902 ) 0 
( -437.202 36.9387 57.3185 ) 0 
( -273.221 244.661 61.9719 ) 0 
( -364.764 201.029 56.3111 ) 0 
( -359.645 101.125 58.1973 ) 0 
( -429.654 440.8 142.119 ) 0 
( -347.05 29.7207 129.887 ) 0 
( -26.2033 100.98 59.5549 ) 0 
( -420.294 97.3534 145.227 ) 0 
( -48.1104 306.307 132.588 ) 0 
( -335.827 482.341 151.076 ) 0 
( -150.926 425.138 159.229 ) 0 
( -111.466 278.25 59.252 ) 0 
( -84.6147 181.781 64.2787 ) 0 
( -206.557 256.167 143.443 ) 0 
( -313.158 121.079 152.02 ) 0 
( -498.667 290.205 131.688 ) 0 
( -232.722 482.666 154.588 ) 0 
( -208.054 56.7036 132.335 ) 0 
( -108.607 27.6321 98.0415 ) 0 
( -138.878 325.042 171.97 ) 0 
( -112.628 117.623 159.572 ) 0 
( -46.2445 215.308 177.696 ) 0 
( -253.493 133.202 243.707 ) 0 
( -337.672 382.599 150.581 ) 0 
( -143.408 202.684 208.263 ) 0 
( -277.352 312.984 188.508 ) 0 
( -216.773 156.057 147.219 ) 0 
( -42.2147 364.023 229.711 ) 0 
( -422.7 200.571 150.074 ) 0 
( -46.5155 1.56663 186.525 ) 0 
( -237.13 383.161 125.545 ) 0 
( -280.87 42.5717 206.26 ) 0 
( -497.062 95.6598 219.968 ) 0 
( -293.564 215.113 179.189 ) 0 
( -52.3746 424.509 143.893 ) 0 
( -294.665 428.432 234.604 ) 0 
( -184.096 10.8864 228.733 ) 0 
( -346.09 346.698 264.023 ) 0 
( -213.883 66.7269 314.761 ) 0 
( -214.018 250.781 260.961 ) 0 
( -128.428 87.0514 267.294 ) 0 
( -424.949 344.564 180.328 ) 0 
( -402.346 84.78 254.802 ) 0 
( -388.535 465.179 243.138 ) 0 
( -478.813 64.5333 325.076 ) 0 
( -347.878 169.522 257.388 ) 0 
( -28.0638 104.309 213.793 ) 0 
( -395.677 262.411 229.197 ) 0 
( -206.441 381.625 240.381 ) 0 
( -487.599 491.905 210.284 ) 0 
( -312.383 59.7918 303.703 ) 0 
( -311.434 256.766 288.686 ) 0 
( -482.459 164.996 361.475 ) 0 
( -124.048 356.147 295.345 ) 0 
( -171.467 171.048 306.798 ) 0 
( -369.556 412.879 338.941 ) 0 
( -464.369 402.968 259.564 ) 0 
( -39.8214 78.7611 317.144 ) 0 
( -176.457 441.425 321.746 ) 0 
( -88.5368 266.644 269.092 ) 0 
( -98.0833 444.535 254.485 ) 0 
( -471.788 267.414 305.867 ) 0 
( -453.51 180.66 256.525 ) 0 
( -73.714 170.308 286.958 ) 0 
( -270.053 406.89 342.074 ) 0 
( -67.7377 404.548 362.737 ) 0 
( -130.519 77.6427 380.437 ) 0 
( -299.908 312.98 379.36 ) 0 
( -490.494 359.164 359.281 ) 0 
( -398.132 5.48398 338.416 ) 0 
( -3.07672 334.06 329.393 ) 0 
( -213.432 325.741 327.64 ) 0 
( -262.041 178.332 347.33 ) 0 
( -31.9496 487.113 316.72 ) 0 
( -397.232 318.242 356.14 ) 0 
( -156.771 371.691 400.032 ) 0 
( -172.826 247.14 381.08 ) 0 
( -392.345 213.999 338.084 ) 0 
( -386.173 114.022 353.687 ) 0 
( -88.4545 299.346 373.333 ) 0 
( -230.063 467.285 417.554 ) 0 
( -195.625 80.14 510.434 ) 0 
( -443.811 69.6921 431.497 ) 0 
( -20.1784 223.987 360.284 ) 0 
( -310.461 499.722 336.371 ) 0 
( -458.358 454.457 356.856 ) 0 
( -120.381 480.744 403.92 ) 0 
( -337.453 181.656 422.926 ) 0 
( -16.8133 359.062 440.151 ) 0 
( -268.373 90.0884 405.093 ) 0 
( -86.2894 253.736 475.159 ) 0 
( -286.607 497.447 509.052 ) 0 
( -196.85 157.387 430.5 ) 0 
( -102.895 174.462 397.73 ) 0 
( -327.058 437.421 435.323 ) 0 
( -25.8986 112.258 423.084 ) 0 
( -190.944 10.2663 423.678 ) 0 
( -410.879 261.447 441.531 ) 0 
( -344.39 329.313 477.702 ) 0 
( -416.831 389.499 430.855 ) 0 
( -332.877 237.97 524.278 ) 0 
( -8.88388 18.0882 458.122 ) 0 
( -350.37 77.3918 474.459 ) 0 
( -183.425 299.902 478.894 ) 0 
( -465.808 0.515784 510.832 ) 0 
( -430.1 165.327 462.3 ) 0 
( -97.4546 59.7253 488.248 ) 0 
( -256.932 240.481 440.612 ) 0 
( -277.054 137.777 503.254 ) 0 
( -248.953 373.184 448.52 ) 0 
( -287.467 1.36409 447.616 ) 0 
( -60.6587 444.582 488.413 ) 0 
( -116.096 159.031 507.221 ) 0 
( -459.938 15.7799 626.563 ) 0 
( -294.317 405.536 547.461 ) 0 
( -1.90345 287.958 526.46 ) 0 
( -450.818 90.746 550.355 ) 0 
( -265.061 310.471 537.827 ) 0 
( -480.742 329.063 488.008 ) 0 
( -396.002 401.06 540.06 ) 0 
( -162.905 430.697 490.999 ) 0 
( -27.9841 121.442 536.687 ) 0 
( -379.539 19.4419 558.225 ) 0 
( -101.309 353.524 502.296 ) 0 
( -203.856 208.989 530.453 ) 0 
( -126.551 91.8172 596.282 ) 0 
( -368.054 146.886 549.849 ) 0 
( -408.623 484.679 467.63 ) 0 
( -228.881 117.006 612.585 ) 0 
( -460.89 470.902 590.612 ) 0 
( -485.117 230.953 519.007 ) 0 
( -56.5974 214.703 574.93 ) 0 
( -201.027 471.461 584.928 ) 0 
( -277.401 206.699 608.701 ) 0 
( -284.25 48.1838 550.477 ) 0 
( -136.092 276.175 574.769 ) 0 
( -41.5631 15.9441 562.557 ) 0 
( -56.1763 332.025 609.234 ) 0 
( -198.853 23.1578 599.322 ) 0 
( -497.334 427.352 493.808 ) 0 
( -40.7354 78.5863 655.845 ) 0 
( -335.356 431.752 646.465 ) 0 
( -0.414386 186.909 676.493 ) 0 
( -185.801 362.754 569.864 ) 0 
( -366.696 188.265 658.544 ) 0 
( -290.662 137.878 705.099 ) 0 
( -89.6209 251.451 675.668 ) 0 
( -361.027 89.8474 642.544 ) 0 
( -237.903 401.1 654.182 ) 0 
( -480.113 363.694 599.254 ) 0 
( -414.696 286.697 563.846 ) 0 
( -143.711 342.688 676.461 ) 0 
( -154.909 187.205 627.034 ) 0 
( -107.249 418.654 597.293 ) 0 
( -11.5348 446.825 606.648 ) 0 
( -459.825 203.293 621.403 ) 0 
( -132.9 49.3694 699.111 ) 0 
( -340.975 337.638 609.817 ) 0 
( -190.646 127.63 721.7 ) 0 
( -415.121 384.295 689.077 ) 0 
( -318.949 377.746 739.041 ) 0 
( -182.524 229.296 729.43 ) 0 
( -280.789 35.2762 664.454 ) 0 
( -313.395 269.746 692.039 ) 0 
( -166.722 420.205 741.357 ) 0 
( -219.523 55.3368 786.07 ) 0 
( -60.806 398.182 697.486 ) 0 
( -450.439 289.974 676.554 ) 0 
( -222.038 287.633 640.18 ) 0 
( -319.43 486.856 744.837 ) 0 
( -315.859 32.2178 773.264 ) 0 
( -116.771 490.577 679.216 ) 0 
( -480.786 355.909 767.086 ) 0 
( -113.951 294.332 771.629 ) 0 
( -386.871 107.98 750.938 ) 0 
( -456.31 107.706 665.261 ) 0 
( -48.8573 40.8156 758.055 ) 0 
( -263.332 250.83 784.903 ) 0 
( -491.782 450.059 713.173 ) 0 
( -429.015 213.512 739.502 ) 0 
( -2.0594 468.633 738.229 ) 0 
( -226.124 336.953 744.323 ) 0 
( -90.7487 151.159 714.932 ) 0 
( -249.478 152.468 804.469 ) 0 
( -392.047 3.45583 711.362 ) 0 
( -47.3387 361.157 803.652 ) 0 
( -180.431 486.991 818.302 ) 0 
( -43.8877 138.576 844.391 ) 0 
( -382.454 300.653 763.453 ) 0 
( -404.72 440.95 777.704 ) 0 
( -331.909 106.495 839.698 ) 0 
( -343.698 191.238 788.175 ) 0 
( -127.722 94.753 796.198 ) 0 
( -339.523 276.258 851.264 ) 0 
( -122.928 194.45 809.604 ) 0 
( -262.018 427.92 808.212 ) 0 
( -180.012 139.659 877.929 ) 0 
( -36.2227 230.699 768.937 ) 0 
( -254.444 333.552 842.146 ) 0 
( -469.773 52.5397 758.696 ) 0 
( -178.256 269.649 845.816 ) 0 
( -8.81829 2.12639 845.639 ) 0 
( -494.256 435.297 828.227 ) 0 
( -4.51739 240.891 868.195 ) 0 
( -94.5239 46.5203 877.998 ) 0 
( -160.905 366.652 830 ) 0 
( -203.629 4.26548 872.015 ) 0 
( -447.215 348.584 865.097 ) 0 
( -360.079 188.463 896.059 ) 0 
( -34.7211 429.473 874.253 ) 0 
( -88.1828 451.715 793.653 ) 0 
( -435.573 60.7074 861.459 ) 0 
( -352.457 375.092 838.317 ) 0 
( -144.749 434.206 901.447 ) 0 
( -256.898 218.762 881.448 ) 0 
( -201.238 352.042 926.018 ) 0 
( -306.825 9.33369 870.732 ) 0 
( -10.9238 61.1505 931.765 ) 0 
( -417.548 266.959 913.599 ) 0 
( -260.525 91.5848 912.097 ) 0 
( -473.156 261.966 823.37 ) 0 
( -410.407 439.178 893.42 ) 0 
( -434.151 157.595 836.03 ) 0 
( -375.331 355.826 934.773 ) 0 
( -327.272 493.199 874.853 ) 0 
( -85.3999 299.748 877.523 ) 0 
( -127.498 216.65 912.638 ) 0 
( -289.62 171.998 963.585 ) 0 
( -168.871 415.155 995.604 ) 0 
( -97.4602 362.582 952.766 ) 0 
( -206.85 256.93 959.404 ) 0 
( -39.981 219.326 958.941 ) 0 
( -67.3984 456.171 962.968 ) 0 
( -289.828 304.871 933.231 ) 0 
( -361.855 69.8374 927.399 ) 0 
( -286.166 403.259 907.207 ) 0 
( -83.3832 130.514 935.629 ) 0 
( -167.91 65.2694 943.191 ) 0 
( -246.892 2.29283 961.735 ) 0 
( -499.815 406.707 925.378 ) 0 
( -344.002 458.608 965.431 ) 0 
( -440.531 145.709 936.619 ) 0 
( -114.739 274.133 993.813 ) 0 
( -476.229 225.889 983.939 ) 0 
( -432.177 35.6484 987.972 ) 0 
( -268.561 86.0854 1010.1 ) 0 
( -124.25 105.672 1023.08 ) 0 
( -27.0189 247.668 1053.66 ) 0 
( -286.671 257.922 1021.86 ) 0 
( -229.35 485.281 909.164 ) 0 
( -77.9843 346.469 1049.82 ) 0 
( -380.766 201.319 994.034 ) 0 
( -463.704 326.3 976.945 ) 0 
( -376.891 297.475 1016.32 ) 0 
( -182.915 27.4244 1034.12 ) 0 
( -15.3287 313.325 979.934 ) 0 
( -464.298 119.777 1030.1 ) 0 
( -190.564 160.544 975.132 ) 0 
( -302.917 376.493 1001.6 ) 0 
( -217.116 332.302 1024.06 ) 0 
( -15.97 137.027 1007.7 ) 0 
( -427.916 416.58 995.204 ) 0 
( -49.8437 41.8282 1027.26 ) 0 
( -207.708 211.373 1058.63 ) 0 
( -204.857 113.955 1078.15 ) 0 
( -338.088 12.7245 1009.72 ) 0 
( -364.302 107.26 1019.72 ) 0 
( -57.4824 114.094 1094.77 ) 0 
( -440.076 245.452 1072.39 ) 0 
( -242.45 431.777 1058.51 ) 0 
( -62.5039 454.523 1060.68 ) 0 
( -429.659 356.991 1073 ) 0 
( -110.355 197.67 1055.71 ) 0 
( -271.026 15.7346 1079.93 ) 0 
( -319.487 332.932 1087.59 ) 0 
( -151.377 289.142 1084.7 ) 0 
( -65.1835 391.424 1137.84 ) 0 
( -155.585 387.059 1093.59 ) 0 
( -296.451 166.937 1061.54 ) 0 
( -68.1411 292.829 1136.59 ) 0 
( -155.147 487.715 1061.47 ) 0 
( -339.582 441.784 1069.81 ) 0 
( -400.079 297.317 1143.03 ) 0 
( -149.141 171.009 1140.87 ) 0 
( -10.9316 486.644 1138.39 ) 0 
( -441.559 208.56 1169.96 ) 0 
( -317.558 93.6555 1124.18 ) 0 
( -230.539 60.187 1154.69 ) 0 
( -400.697 155.709 1097.8 ) 0 
( -431.856 454.403 1103 ) 0 
( -231.747 274.26 1137.66 ) 0 
( -243.95 373.066 1138.06 ) 0 
( -134.349 55.7577 1124.42 ) 0 
( -156.556 331.388 1175.94 ) 0 
( -366.278 10.3534 1105.18 ) 0 
( -459.624 33.6239 1083.29 ) 0 
( -409.898 81.0512 1162.53 ) 0 
( -49.7399 196.907 1149.74 ) 0 
( -352.509 163.934 1185.55 ) 0 
( -85.5278 112.781 1189.55 ) 0 
( -199.358 458.528 1143.18 ) 0 
( -311.132 319.769 1183.46 ) 0 
( -236.884 489.215 1230.11 ) 0 
( -122.629 242.787 1206.27 ) 0 
( -322.591 238.276 1126.87 ) 0 
( -371.018 253.032 1222.01 ) 0 
( -107.244 476.362 1174.74 ) 0 
( -374.521 392.474 1160.43 ) 0 
( -180.713 116.952 1213.94 ) 0 
( -366.134 332.051 1271.74 ) 0 
( -129.248 485.903 1288.17 ) 0 
( -15.6708 322.027 1214.43 ) 0 
( -484.706 16.0561 1177.4 ) 0 
( -9.8902 422.681 1213.74 ) 0 
( -274.673 234.056 1216.77 ) 0 
( -297.646 455.337 1159.59 ) 0 
( -479.967 431.34 1185.07 ) 0 
( -203.382 284.994 1285.61 ) 0 
( -68.3348 286.85 1312.9 ) 0 
( -398.082 118.993 1277.25 ) 0 
( -420.749 463.998 1256.74 ) 0 
( -332.663 41.7394 1207.44 ) 0 
( -483.981 122.995 1221.72 ) 0 
( -293.133 107.456 1262.62 ) 0 
( -251.342 166.345 1149.2 ) 0 
( -33.0838 30.2731 1190.66 ) 0 
( -97.0039 381.624 1238.66 ) 0 
( -413.697 12.0798 1308.44 ) 0 
( -305.598 430.094 1277.52 ) 0 
( -52.7834 106.027 1334.54 ) 0 
( -213.964 392.05 1230.64 ) 0 
( -469.203 400.696 1335.29 ) 0 
( -471.414 290.426 1217.64 ) 0 
)
