FoamFile
{version 2.0; format ascii;class vectorField; location 0;object  v;}
353
(
( 5.81163e-06 3.45874e-06 1.23563e-06 )  
( 3.51983e-06 3.53021e-06 1.486e-06 )  
( 1.13892e-06 1.89605e-06 -1.04353e-08 )  
( -1.09304e-06 -7.66757e-07 2.60173e-09 )  
( 4.62944e-06 1.64445e-06 1.57273e-07 )  
( 4.80758e-06 1.90472e-06 -2.36778e-06 )  
( 8.52879e-06 1.54275e-06 -2.2217e-07 )  
( 7.49044e-06 -3.93151e-07 -8.73178e-08 )  
( 3.64875e-06 1.89169e-06 -7.74625e-07 )  
( 6.27866e-06 6.50907e-06 1.67974e-12 )  
( 7.84602e-06 4.00915e-06 -9.24422e-07 )  
( 5.71443e-06 1.74523e-06 -1.32517e-06 )  
( 9.43754e-06 3.51247e-06 1.11522e-07 )  
( 6.7727e-06 3.77978e-06 -2.95537e-07 )  
( 5.22157e-06 3.37358e-06 -2.62931e-06 )  
( 2.87879e-06 3.30596e-06 -8.24958e-10 )  
( 5.02674e-06 2.30514e-06 -7.16415e-07 )  
( 1.23383e-05 5.70697e-06 -1.75083e-06 )  
( 1.00563e-05 4.27789e-06 -3.01768e-06 )  
( 1.15392e-05 4.7672e-06 2.20093e-12 )  
( 1.26277e-05 5.51869e-06 -2.25602e-06 )  
( 1.42804e-05 4.08211e-06 -3.10548e-06 )  
( 1.05416e-05 3.3945e-06 1.00456e-06 )  
( 8.29067e-06 3.11403e-06 -5.54974e-07 )  
( 6.08516e-06 1.04095e-06 1.71232e-06 )  
( 5.4699e-06 1.09356e-06 -5.64779e-07 )  
( 1.11133e-05 4.1827e-06 -1.25423e-06 )  
( 5.03434e-06 2.02851e-06 1.17759e-06 )  
( 1.02738e-05 4.83092e-06 -1.90881e-06 )  
( 6.2712e-06 1.52121e-06 -7.51804e-07 )  
( 9.70526e-06 3.35279e-06 -1.7755e-06 )  
( 1.22741e-05 4.08381e-06 -2.39969e-06 )  
( 1.11139e-05 4.07774e-06 -2.31957e-06 )  
( 9.17689e-06 4.27543e-06 -7.35897e-08 )  
( 1.34857e-05 7.28711e-06 -2.19174e-06 )  
( 1.02923e-05 5.37129e-06 -6.50455e-07 )  
( 1.22109e-05 4.05769e-06 -1.73073e-06 )  
( 1.09511e-05 5.02311e-06 -3.68294e-07 )  
( 1.21182e-05 4.24001e-06 -1.80637e-06 )  
( 1.13691e-05 4.06142e-06 -5.66549e-07 )  
( 1.18728e-05 4.83345e-06 -7.98665e-07 )  
( 1.34193e-05 2.31845e-06 -2.08969e-07 )  
( 1.20697e-05 4.73564e-06 -3.20321e-06 )  
( 1.34061e-05 4.47887e-06 -3.2401e-07 )  
( 1.54336e-05 7.86868e-06 -3.84126e-06 )  
( 1.08871e-05 6.46143e-06 -4.23721e-06 )  
( 1.06329e-05 2.76441e-06 -9.08826e-07 )  
( 1.18846e-05 4.70935e-06 -1.58125e-07 )  
( 1.68231e-05 8.3958e-06 -3.32816e-06 )  
( 1.44778e-05 5.15385e-06 -1.88505e-07 )  
( 1.39333e-05 5.38008e-06 -9.90305e-07 )  
( 1.372e-05 2.25235e-06 1.87262e-07 )  
( 9.84828e-06 3.17669e-06 6.47422e-08 )  
( 1.24524e-05 4.18725e-06 -2.62885e-07 )  
( 1.25683e-05 5.09261e-06 -3.01684e-06 )  
( 1.35882e-05 7.33959e-06 -2.93193e-06 )  
( 1.72653e-05 6.54559e-06 -9.83378e-07 )  
( 1.68456e-05 5.13492e-06 -2.31234e-06 )  
( 1.70022e-05 5.71835e-06 -3.68057e-06 )  
( 1.83933e-05 6.55809e-06 -2.37573e-06 )  
( 1.63725e-05 3.9419e-06 -5.78499e-07 )  
( 1.73242e-05 8.0433e-06 7.36314e-07 )  
( 1.88051e-05 5.37449e-06 -2.01033e-06 )  
( 1.39654e-05 4.94899e-06 -6.12304e-07 )  
( 1.5023e-05 6.81635e-06 -3.32852e-06 )  
( 1.7731e-05 5.75876e-06 -5.94423e-06 )  
( 1.76571e-05 7.42666e-06 -3.71025e-06 )  
( 1.60822e-05 4.1215e-06 -1.20722e-06 )  
( 1.71298e-05 2.97636e-06 3.00661e-07 )  
( 2.08364e-05 6.65899e-06 -3.25119e-06 )  
( 1.55814e-05 7.70176e-06 -1.25216e-06 )  
( 1.95174e-05 6.49823e-06 -3.81824e-06 )  
( 1.68602e-05 1.04494e-05 -4.81918e-06 )  
( 1.91497e-05 5.1939e-06 -2.7252e-06 )  
( 2.07194e-05 5.64981e-06 -1.15587e-06 )  
( 1.96694e-05 4.27642e-06 -1.17854e-06 )  
( 1.97138e-05 8.44583e-06 -2.13541e-06 )  
( 1.92403e-05 6.05624e-06 -1.52402e-06 )  
( 1.44638e-05 3.99892e-06 -3.33044e-06 )  
( 1.6701e-05 5.58199e-06 -2.47562e-06 )  
( 1.84594e-05 7.80172e-06 -1.78771e-06 )  
( 1.59535e-05 3.17676e-06 4.55872e-09 )  
( 2.64302e-05 6.91484e-06 -1.50811e-06 )  
( 2.24403e-05 7.44674e-06 -4.65519e-06 )  
( 2.4868e-05 8.31605e-06 -2.19504e-06 )  
( 2.13882e-05 5.63165e-06 -6.65471e-07 )  
( 2.22665e-05 4.0129e-06 -6.71513e-07 )  
( 2.86166e-05 6.75983e-06 8.56086e-07 )  
( 2.39423e-05 6.7996e-06 -1.66609e-06 )  
( 1.97344e-05 5.074e-06 -8.68609e-08 )  
( 1.848e-05 7.02267e-06 -3.48019e-06 )  
( 2.19661e-05 1.05506e-06 -4.13526e-06 )  
( 2.16836e-05 5.22999e-06 1.33979e-06 )  
( 2.09263e-05 5.43166e-06 7.56246e-08 )  
( 2.20823e-05 7.26259e-06 -2.17341e-06 )  
( 1.99783e-05 7.00724e-06 -3.31224e-06 )  
( 2.24209e-05 7.85414e-06 7.66288e-07 )  
( 2.18141e-05 9.22352e-06 -2.95645e-06 )  
( 3.10825e-05 8.40198e-06 -7.51615e-07 )  
( 1.53422e-05 5.73463e-06 -1.65257e-06 )  
( 3.19094e-05 6.79831e-06 -1.12435e-07 )  
( 2.14952e-05 6.50929e-06 -1.01246e-06 )  
( 2.63705e-05 8.4168e-06 -3.9477e-06 )  
( 1.97154e-05 6.46103e-06 -9.42798e-07 )  
( 2.1003e-05 9.03465e-06 -2.39663e-06 )  
( 2.37254e-05 7.8558e-06 -1.51064e-06 )  
( 2.64415e-05 9.75694e-06 -1.81979e-06 )  
( 2.65367e-05 8.20783e-06 -1.80671e-06 )  
( 2.35231e-05 4.55028e-06 -1.21535e-06 )  
( 2.10057e-05 7.41616e-06 -3.30906e-06 )  
( 2.84807e-05 1.03677e-05 -4.77379e-06 )  
( 2.78307e-05 4.8565e-06 -2.40997e-06 )  
( 2.95042e-05 9.61455e-06 -2.74269e-06 )  
( 2.85021e-05 1.00553e-05 -3.21092e-06 )  
( 2.73222e-05 7.95261e-06 -4.77781e-06 )  
( 2.72264e-05 8.4068e-06 -2.43267e-07 )  
( 3.05151e-05 7.95502e-06 -1.31679e-06 )  
( 3.15193e-05 6.83192e-06 6.4868e-06 )  
( 2.46587e-05 8.51017e-06 -5.00419e-06 )  
( 2.52546e-05 7.37713e-06 -9.50758e-07 )  
( 3.05073e-05 8.04355e-06 -7.50906e-07 )  
( 2.76517e-05 1.09019e-05 -2.70707e-06 )  
( 2.9047e-05 8.92315e-06 -1.53244e-06 )  
( 3.32327e-05 9.20069e-06 2.25324e-06 )  
( 2.96865e-05 8.54314e-06 -7.7475e-07 )  
( 2.94045e-05 1.05738e-05 -4.86512e-06 )  
( 3.34867e-05 9.52854e-06 1.35672e-06 )  
( 3.28422e-05 9.6682e-06 -3.07743e-06 )  
( 2.75762e-05 4.56226e-06 -4.12228e-06 )  
( 3.79626e-05 7.79972e-06 -8.60111e-08 )  
( 2.91143e-05 1.12612e-05 -3.48353e-06 )  
( 3.34211e-05 7.68562e-06 -8.24917e-07 )  
( 3.08655e-05 1.00653e-05 -1.19618e-07 )  
( 3.54458e-05 1.1342e-05 3.53567e-07 )  
( 3.54699e-05 1.22266e-05 3.40591e-06 )  
( 3.35659e-05 5.69071e-06 -1.74614e-06 )  
( 3.04066e-05 1.03934e-05 -2.48324e-06 )  
( 3.00479e-05 7.65793e-06 1.42937e-06 )  
( 3.72581e-05 1.05627e-05 -3.79302e-07 )  
( 3.51645e-05 1.19454e-05 -1.74298e-06 )  
( 3.8733e-05 1.39507e-05 -2.44225e-06 )  
( 3.21817e-05 1.42639e-05 -4.14017e-06 )  
( 3.36108e-05 6.1524e-06 -1.48173e-06 )  
( 3.96961e-05 1.0729e-05 3.91309e-07 )  
( 3.43428e-05 1.14688e-05 -2.21427e-06 )  
( 3.43764e-05 1.57632e-05 -1.85244e-06 )  
( 3.60059e-05 1.34322e-05 8.24451e-07 )  
( 3.40011e-05 1.27882e-05 -2.46926e-06 )  
( 3.49286e-05 1.43536e-05 -3.61387e-06 )  
( 2.92649e-05 8.77935e-06 -1.96428e-06 )  
( 3.30692e-05 9.00648e-06 -2.91476e-06 )  
( 3.78149e-05 1.51306e-05 -1.69561e-06 )  
( 3.17902e-05 1.02383e-05 -8.98603e-07 )  
( 3.24809e-05 6.96437e-06 -5.64624e-07 )  
( 4.15455e-05 1.01386e-05 -5.73619e-06 )  
( 3.24704e-05 5.20088e-06 3.09364e-06 )  
( 4.17993e-05 1.94922e-05 -3.45229e-06 )  
( 3.44642e-05 1.13737e-05 -1.9233e-06 )  
( 4.0248e-05 1.45612e-05 -4.7297e-06 )  
( 4.37824e-05 1.51306e-05 1.13774e-06 )  
( 4.073e-05 6.3134e-06 -4.18209e-06 )  
( 3.93623e-05 1.24521e-05 -4.78385e-07 )  
( 3.42692e-05 1.02477e-05 -4.13599e-07 )  
( 4.31922e-05 1.34845e-05 -1.62793e-06 )  
( 3.54177e-05 1.22291e-05 -1.16348e-06 )  
( 3.89747e-05 1.32542e-05 -1.59113e-06 )  
( 3.28915e-05 1.12936e-05 -1.49377e-06 )  
( 3.81895e-05 1.43664e-05 -2.23286e-06 )  
( 3.35644e-05 9.50183e-06 -2.41665e-06 )  
( 3.78211e-05 1.28877e-05 -8.76097e-07 )  
( 3.94703e-05 1.59535e-05 -3.00875e-07 )  
( 4.50905e-05 1.57852e-05 -2.69518e-06 )  
( 4.03388e-05 1.18977e-05 -7.57747e-07 )  
( 3.69e-05 8.49031e-06 2.26907e-06 )  
( 3.69464e-05 1.04023e-05 1.8927e-06 )  
( 4.33529e-05 1.23227e-05 4.42925e-07 )  
( 4.14931e-05 1.28843e-05 -4.31855e-06 )  
( 3.90365e-05 1.59007e-05 -6.89224e-07 )  
( 3.75193e-05 1.28084e-05 -2.17486e-06 )  
( 4.8178e-05 1.87213e-05 -1.18744e-06 )  
( 4.57613e-05 9.038e-06 -1.30979e-06 )  
( 4.41935e-05 1.28127e-05 -6.94002e-07 )  
( 4.12443e-05 1.45418e-05 2.78118e-06 )  
( 4.72952e-05 1.26998e-05 -1.01283e-08 )  
( 5.23964e-05 1.40178e-05 -1.18618e-07 )  
( 3.83676e-05 1.26596e-05 -4.42651e-06 )  
( 4.59803e-05 1.72017e-05 6.21587e-07 )  
( 4.43696e-05 1.31675e-05 1.81228e-06 )  
( 4.33563e-05 1.2993e-05 -1.66856e-06 )  
( 3.97643e-05 1.19525e-05 -7.97822e-06 )  
( 4.18429e-05 1.32376e-05 -1.69747e-06 )  
( 4.64352e-05 1.07878e-05 -6.69097e-06 )  
( 4.42859e-05 1.42624e-05 2.48047e-08 )  
( 4.54575e-05 1.50571e-05 -8.66901e-07 )  
( 4.25915e-05 1.29441e-05 -5.04559e-06 )  
( 4.17058e-05 1.17211e-05 -9.04758e-07 )  
( 4.31525e-05 1.72047e-05 -8.08309e-07 )  
( 4.85401e-05 1.49348e-05 -4.89559e-06 )  
( 4.69218e-05 1.69611e-05 5.36885e-07 )  
( 4.72848e-05 1.42622e-05 1.611e-06 )  
( 4.78556e-05 1.30697e-05 -1.46825e-06 )  
( 4.77699e-05 1.24625e-05 -8.08527e-06 )  
( 4.66265e-05 1.41558e-05 -2.68925e-06 )  
( 4.9998e-05 1.6376e-05 -3.08088e-06 )  
( 4.96322e-05 2.1086e-05 3.30352e-06 )  
( 5.51705e-05 1.93692e-05 5.09917e-06 )  
( 4.88358e-05 1.46261e-05 -1.7093e-07 )  
( 4.85954e-05 1.59944e-05 7.58153e-08 )  
( 4.51462e-05 1.91484e-05 3.00507e-07 )  
( 4.82555e-05 1.4044e-05 -6.73066e-07 )  
( 5.96367e-05 1.65864e-05 -8.37801e-06 )  
( 5.57058e-05 1.99626e-05 3.34468e-06 )  
( 5.08805e-05 2.08615e-05 1.09299e-06 )  
( 5.18973e-05 1.62324e-05 -6.01768e-06 )  
( 5.02887e-05 1.87346e-05 -4.71281e-06 )  
( 4.61315e-05 1.57433e-05 -1.71537e-06 )  
( 4.79487e-05 1.57425e-05 2.67913e-07 )  
( 4.86656e-05 1.73715e-05 -2.02253e-06 )  
( 4.97803e-05 1.54747e-05 -1.45705e-06 )  
( 4.93978e-05 2.00472e-05 7.98674e-07 )  
( 5.48896e-05 1.50566e-05 1.6835e-06 )  
( 4.91038e-05 1.27454e-05 -1.94484e-06 )  
( 4.44847e-05 2.18849e-05 -1.90867e-06 )  
( 4.90416e-05 1.63173e-05 1.16109e-06 )  
( 5.68599e-05 1.51851e-05 1.7485e-06 )  
( 5.38524e-05 1.67695e-05 1.48078e-06 )  
( 5.54479e-05 1.99748e-05 1.03745e-06 )  
( 5.29072e-05 1.75762e-05 -5.5659e-06 )  
( 5.45215e-05 1.83466e-05 -1.28974e-06 )  
( 5.63684e-05 1.79822e-05 5.86648e-06 )  
( 5.61938e-05 1.94339e-05 -8.10957e-07 )  
( 5.03224e-05 1.7568e-05 -1.96958e-06 )  
( 5.21681e-05 1.64775e-05 -2.21089e-06 )  
( 5.53801e-05 1.90578e-05 1.9193e-06 )  
( 5.99184e-05 1.7254e-05 4.46585e-06 )  
( 6.19853e-05 1.50217e-05 -2.58001e-06 )  
( 4.88248e-05 1.81806e-05 7.55918e-07 )  
( 5.16221e-05 1.55672e-05 1.35987e-06 )  
( 5.92294e-05 1.83127e-05 2.41753e-06 )  
( 5.61029e-05 1.8768e-05 -7.5237e-07 )  
( 5.77362e-05 1.83049e-05 -3.73851e-06 )  
( 5.79381e-05 1.56424e-05 -3.24839e-06 )  
( 5.96087e-05 1.70452e-05 -6.35533e-06 )  
( 5.82497e-05 1.56565e-05 -6.78568e-07 )  
( 5.71704e-05 1.89266e-05 -2.44148e-06 )  
( 5.93127e-05 1.60878e-05 -1.00907e-06 )  
( 4.87716e-05 1.97876e-05 2.64697e-06 )  
( 5.91619e-05 1.82228e-05 2.55226e-06 )  
( 4.96055e-05 2.18042e-05 2.02356e-06 )  
( 5.99633e-05 1.45215e-05 -4.41059e-06 )  
( 5.56795e-05 1.80829e-05 3.89312e-06 )  
( 5.91447e-05 1.69116e-05 -4.70903e-08 )  
( 5.7163e-05 1.14129e-05 4.48424e-06 )  
( 5.54556e-05 1.69638e-05 -1.849e-06 )  
( 5.74034e-05 1.84889e-05 7.39205e-06 )  
( 5.87779e-05 1.83941e-05 2.02377e-06 )  
( 5.84835e-05 1.98111e-05 6.50913e-06 )  
( 5.85448e-05 1.84143e-05 1.08599e-06 )  
( 5.67935e-05 1.46373e-05 5.45499e-07 )  
( 6.27361e-05 1.69448e-05 -2.93491e-06 )  
( 5.79106e-05 1.69828e-05 5.38972e-07 )  
( 5.75985e-05 1.0033e-05 5.32088e-06 )  
( 5.80372e-05 1.33106e-05 5.90945e-07 )  
( 5.6484e-05 1.54612e-05 2.0199e-06 )  
( 5.84689e-05 1.69211e-05 -2.65923e-06 )  
( 5.96669e-05 1.61437e-05 1.38353e-06 )  
( 6.04007e-05 1.49565e-05 -2.45686e-07 )  
( 6.12013e-05 1.59252e-05 -2.42238e-07 )  
( 5.91123e-05 2.05141e-05 9.06876e-06 )  
( 6.2906e-05 2.01112e-05 4.59981e-07 )  
( 5.95278e-05 1.62074e-05 7.65333e-07 )  
( 5.91131e-05 9.01991e-06 1.22002e-06 )  
( 5.97866e-05 1.99392e-05 -2.31004e-06 )  
( 6.09146e-05 1.78151e-05 5.56429e-06 )  
( 6.28179e-05 1.68643e-05 8.8389e-07 )  
( 6.15922e-05 1.20808e-05 4.50525e-06 )  
( 6.19233e-05 2.10876e-05 4.75502e-07 )  
( 6.55848e-05 1.86016e-05 -1.12228e-06 )  
( 5.87587e-05 1.73093e-05 -1.81675e-06 )  
( 6.51218e-05 2.21264e-05 -2.03954e-06 )  
( 5.79645e-05 1.4949e-05 2.33703e-06 )  
( 5.90671e-05 1.46256e-05 -8.3653e-08 )  
( 6.23221e-05 2.63877e-05 -9.05184e-07 )  
( 6.11666e-05 8.48352e-06 1.9439e-06 )  
( 6.36797e-05 1.65446e-05 -1.15793e-06 )  
( 6.52515e-05 1.41196e-05 -2.02159e-06 )  
( 6.13305e-05 1.81683e-05 -1.03858e-06 )  
( 6.21074e-05 1.87295e-05 -3.46486e-06 )  
( 6.03031e-05 1.76582e-05 1.37992e-06 )  
( 6.71435e-05 1.74932e-05 -1.89042e-06 )  
( 6.93934e-05 2.62404e-05 2.97171e-06 )  
( 6.74515e-05 2.49679e-05 2.30115e-06 )  
( 6.27862e-05 1.8146e-05 4.23537e-06 )  
( 6.20826e-05 1.66244e-05 -1.46874e-06 )  
( 6.33714e-05 2.34265e-05 1.9335e-06 )  
( 6.50701e-05 1.68867e-05 -1.44124e-06 )  
( 6.5025e-05 1.69147e-05 -3.5581e-07 )  
( 6.63931e-05 2.05013e-05 -6.44482e-07 )  
( 6.5743e-05 1.56271e-05 1.13502e-06 )  
( 6.01124e-05 1.06346e-05 -2.43805e-06 )  
( 6.43606e-05 2.26954e-05 2.29333e-06 )  
( 6.38595e-05 1.63669e-05 -2.45825e-06 )  
( 6.10233e-05 2.31115e-05 -1.51501e-06 )  
( 6.86179e-05 1.90561e-05 2.12968e-06 )  
( 6.38795e-05 2.04797e-05 -2.08359e-06 )  
( 6.36739e-05 1.96003e-05 6.51422e-06 )  
( 6.87905e-05 1.94816e-05 -8.05421e-07 )  
( 6.60527e-05 1.85471e-05 -9.68642e-07 )  
( 6.33138e-05 2.71153e-05 5.11685e-06 )  
( 6.36768e-05 2.06012e-05 7.97322e-06 )  
( 5.56501e-05 7.92927e-06 7.5288e-06 )  
( 6.94597e-05 1.85812e-05 -1.10096e-06 )  
( 6.79236e-05 9.69262e-06 4.64289e-06 )  
( 6.60442e-05 1.45313e-05 1.76333e-06 )  
( 6.81054e-05 1.18148e-05 -3.94872e-07 )  
( 7.09805e-05 1.78256e-05 -2.81137e-06 )  
( 6.72495e-05 8.20088e-06 -5.71922e-06 )  
( 6.88015e-05 1.88898e-05 -2.11697e-06 )  
( 6.53189e-05 1.72692e-05 -7.59763e-07 )  
( 6.7265e-05 1.57915e-05 3.69714e-06 )  
( 6.60621e-05 3.50187e-05 1.38424e-06 )  
( 6.16072e-05 2.17232e-05 -9.17076e-06 )  
( 5.52955e-05 2.77985e-05 3.02214e-07 )  
( 6.82708e-05 1.84823e-05 -2.97358e-06 )  
( 6.68812e-05 1.59209e-05 -7.77398e-07 )  
( 7.28346e-05 1.30812e-05 -5.08416e-06 )  
( 6.74858e-05 1.62428e-05 -4.76304e-06 )  
( -0.000278812 -0.000148594 -0.000215717 )  
( 6.64173e-05 2.22227e-05 -2.43511e-06 )  
( 7.05929e-05 2.09459e-05 2.94789e-06 )  
( 4.68383e-05 2.28383e-06 -5.61242e-06 )  
( 6.81384e-05 2.22367e-05 -3.89311e-07 )  
( 7.77819e-05 1.86366e-05 1.87584e-06 )  
( 7.47137e-05 1.27875e-05 -9.90361e-07 )  
( 5.57852e-05 2.33746e-05 5.34045e-06 )  
( 7.06184e-05 1.90475e-05 -2.0553e-06 )  
( 5.282e-05 -6.9888e-06 -2.04135e-05 )  
( 7.08783e-05 1.80802e-05 -3.25101e-06 )  
( 6.60475e-05 2.53609e-05 -9.75648e-07 )  
( 6.86951e-05 1.45961e-05 -6.65132e-06 )  
( 7.13274e-05 3.03311e-05 -1.56264e-06 )  
( 1.2702e-05 2.75294e-06 -6.08231e-06 )  
( 7.39288e-05 3.82207e-05 -1.54043e-05 )  
( -0.000121556 -0.000172724 -2.65735e-05 )  
( 6.62827e-05 3.34739e-05 1.15692e-06 )  
( 6.98594e-05 1.79899e-05 -8.30829e-07 )  
( 6.83398e-05 2.83259e-05 3.78882e-07 )  
( -0.000388101 9.20822e-05 -0.000296013 )  
( 6.50556e-05 2.44514e-05 -1.12538e-05 )  
( -0.00138612 -0.00051193 -0.00149 )  
( 0.000179273 -0.000202229 -0.000169394 )  
( -0.000126732 2.90307e-05 -0.000477244 )  
( 6.8983e-05 1.52497e-05 -9.53222e-06 )  
)
