/*--------------------------------*- C++ -*----------------------------------*\
  =========                 |
  \\      /  F ield         | OpenFOAM: The Open Source CFD Toolbox
   \\    /   O peration     | Website:  https://openfoam.org
    \\  /    A nd           | Version:  9
     \\/     M anipulation  |
\*---------------------------------------------------------------------------*/
FoamFile
{
    format      ascii;
    class       volScalarField;
    location    "300";
    object      p;
}
// * * * * * * * * * * * * * * * * * * * * * * * * * * * * * * * * * * * * * //

dimensions      [0 2 -2 0 0 0 0];

internalField   nonuniform List<scalar> 
360
(
0.00854417
0.00891619
0.0133514
0.00666042
0.0556929
0.040307
0.074125
0.0279954
0.139097
0.109381
0.162476
0.049199
0.181119
0.185996
0.190104
0.0785714
0.164702
0.223517
0.201399
0.139863
0.157403
0.255469
0.253522
0.201262
0.199434
0.289749
0.297632
0.259432
0.287466
0.332465
0.318196
0.343406
0.378814
0.404447
0.394544
0.433951
0.4207
0.478453
0.445567
0.528035
0.488884
0.558881
0.461284
0.625153
0.592645
0.66225
0.556873
0.730312
0.663444
0.758177
0.69382
0.841942
0.741831
0.85452
0.716684
0.930133
0.8452
0.956807
0.715526
0.969821
0.94739
1.05532
0.790149
1.03215
1.0506
1.14959
0.919265
1.10756
1.15658
1.24443
1.03487
1.18603
1.26259
1.33561
1.14789
1.23466
1.36868
1.42501
1.25315
1.2476
1.47399
1.50663
1.35493
1.2998
1.57834
1.58573
1.45492
1.34821
1.68282
1.68325
1.55706
1.41713
1.78672
1.79064
1.66135
1.55615
1.88995
1.89803
1.76652
1.71335
1.99227
2.01043
1.87185
1.86416
2.09321
2.1236
1.97689
2.01269
2.1922
2.23709
2.0812
2.15792
2.28858
2.3493
2.18447
2.30093
2.38163
2.45897
2.28652
2.44234
2.47061
2.56486
2.38731
2.58246
2.55472
2.66577
2.4869
2.72113
2.63321
2.76053
2.58542
2.85791
2.70537
2.84806
2.68294
2.99193
2.77052
2.92736
2.77956
3.12201
2.8279
2.99758
2.87544
3.24666
2.87671
3.05805
2.97072
3.36416
2.91619
3.1083
3.06545
3.47269
2.94569
3.14813
3.15951
3.57051
2.9647
3.17755
3.25257
3.65609
2.97287
3.19682
3.344
3.72833
2.97005
3.20633
3.43287
3.78673
2.95635
3.20649
3.51797
3.83138
2.93216
3.1975
3.59781
3.863
2.89782
3.17959
3.67044
3.88308
2.85343
3.15305
3.73313
3.89394
2.79898
3.11806
3.78308
3.89777
2.73445
3.07456
3.81816
3.89567
2.66007
3.022
3.83645
3.8878
2.57628
2.95948
3.83603
3.87332
2.48357
2.8861
3.81517
3.85009
2.38243
2.80122
3.77248
3.81466
2.27343
2.70453
3.707
3.76242
2.15704
2.59571
3.61825
3.68788
2.03345
2.47345
3.50628
3.58542
1.90227
2.335
3.37142
3.45039
1.76282
2.17854
3.21408
3.27963
1.6145
2.00425
3.03466
3.07166
1.45713
1.81264
2.83398
2.82629
1.29132
1.60453
2.61339
2.5445
1.11845
1.38099
2.37442
2.22866
0.940466
1.14315
2.11875
1.88242
0.759278
0.89195
1.84797
1.51067
0.576013
0.628043
1.56338
1.11943
0.390371
0.351756
1.2664
0.7151
0.200269
0.0633485
0.959198
0.303748
0.0023031
-0.236793
0.644401
-0.108866
-0.207205
-0.547997
0.324928
-0.517332
-0.431328
-0.869135
0.00315977
-0.917297
-0.672257
-1.19851
-0.319141
-1.30632
-0.931438
-1.53386
-0.64042
-1.68366
-1.20982
-1.87299
-0.960136
-2.04837
-1.50799
-2.2156
-1.27775
-2.39764
-1.82568
-2.56176
-1.59318
-2.72922
-2.1618
-2.90914
-1.90588
-3.04335
-2.51446
-3.2544
-2.21601
-3.34089
-2.88126
-3.59462
-2.5225
-3.62176
-3.25956
-3.92744
-2.82468
-3.88548
-3.64602
-4.25097
-3.12181
-4.13104
-4.03763
-4.56354
-3.41198
-4.35695
-4.43145
-4.86375
-3.69422
-4.5619
-4.82525
-5.15053
-3.96543
-4.74466
-5.21633
-5.42321
-4.22391
-4.9044
-5.60143
-5.68148
-4.46721
-5.0411
-5.97794
-5.92526
-4.69396
-5.15636
-6.34802
-6.15491
-4.89393
-5.25476
-6.71752
-6.37405
-5.04958
-5.33972
-7.07957
-6.59085
-5.17794
-5.39511
-7.38342
-6.7979
-5.38603
-5.37558
-7.50511
-6.90724
-5.72022
-5.25615
)
;

boundaryField
{
    inlet
    {
        type            zeroGradient;
    }
    outlet
    {
        type            fixedValue;
        value           uniform 0;
    }
    repeat_boundary
    {
        type            zeroGradient;
    }
}


// ************************************************************************* //
