FoamFile
{version 2.0; format ascii;class Cloud<passiveParticle>; location 0;object  positions;}
43
(
( -3.54236e-06 -0.000277683 9.98306e-05 ) 0 
( -0.000466672 -0.000421987 9.99702e-05 ) 0 
( -9.57273e-05 -0.000455112 9.98376e-05 ) 0 
( -0.000285644 -1.4894e-05 9.99059e-05 ) 0 
( -0.000380595 -0.000192586 9.98203e-05 ) 0 
( -0.000180714 -0.000185105 9.98408e-05 ) 0 
( -0.000275479 -0.00036299 9.99702e-05 ) 0 
( -0.000104335 -5.61923e-05 0.000232234 ) 0 
( -0.000443197 -0.000286704 0.000264658 ) 0 
( -0.000342019 -0.000459131 0.000262318 ) 0 
( -0.000281871 -0.00015672 0.000269841 ) 0 
( -0.000140132 -0.000320725 0.000241013 ) 0 
( -0.000435309 -0.000136527 0.000396409 ) 0 
( -0.00023311 -1.6227e-05 0.000403384 ) 0 
( -1.80856e-05 -0.000327019 0.000399265 ) 0 
( -0.000166031 -0.000480427 0.000426239 ) 0 
( -0.000276029 -0.000318013 0.000387611 ) 0 
( -0.000483294 -0.000424611 0.000403684 ) 0 
( -0.000155898 -0.000320811 0.000547379 ) 0 
( -9.58949e-05 -0.000152415 0.000457784 ) 0 
( -0.000284108 -0.000169363 0.000522843 ) 0 
( -0.00041539 -0.000102358 0.000680761 ) 0 
( -0.000335766 -0.000430326 0.000541737 ) 0 
( -5.55875e-05 -0.000487691 0.00059276 ) 0 
( -0.000333334 -0.000284647 0.000678581 ) 0 
( -2.63894e-05 -0.000122448 0.000642848 ) 0 
( -0.000216753 -0.000120316 0.000704562 ) 0 
( -9.22139e-05 -0.000351413 0.000734406 ) 0 
( -7.0276e-05 -6.77829e-05 0.000830071 ) 0 
( -0.000323049 -0.000195012 0.000857001 ) 0 
( -0.000437745 -8.06881e-05 0.000974273 ) 0 
( -0.0001338 -0.000244671 0.000898274 ) 0 
( -0.000261871 -0.000386433 0.000835123 ) 0 
( -0.000466643 -0.000377408 0.000795184 ) 0 
( -0.000212304 -7.28188e-05 0.00097071 ) 0 
( -8.79128e-05 -0.000438762 0.000918674 ) 0 
( -0.000447611 -0.000383205 0.000994126 ) 0 
( -0.000256712 -0.000334271 0.0010281 ) 0 
( -5.66384e-05 -6.0587e-06 0.00108281 ) 0 
( -6.77285e-05 -0.000291951 0.00108098 ) 0 
( -0.000320166 -9.1e-05 0.00113809 ) 0 
( -9.76909e-05 -0.000487168 0.00111243 ) 0 
( -0.000468236 -0.000222749 0.00111165 ) 0 
)
