FoamFile
{version 2.0; format ascii;class vectorField; location 0;object  v;}
43
(
( -8.20199e-05 -3.34703e-05 -4.56928e-05 )  
( 6.89844e-05 2.15405e-05 -4.15515e-06 )  
( -8.45613e-05 -7.07962e-05 -0.000126226 )  
( 4.58712e-05 -5.49931e-05 -8.35997e-05 )  
( 4.04026e-05 -5.99835e-05 -7.00208e-05 )  
( 1.9521e-05 -4.79756e-05 -8.25529e-05 )  
( 1.88172e-05 -1.41205e-06 -3.06947e-05 )  
( 2.58974e-05 -8.85588e-05 -0.000196651 )  
( -5.30893e-05 -9.49332e-05 -0.00018234 )  
( -0.000112442 -0.000141885 -0.000116792 )  
( 5.91161e-05 -0.000103306 -6.9456e-05 )  
( -8.10448e-05 -0.00020026 -0.000143012 )  
( 5.31716e-05 -0.000129951 -7.29853e-05 )  
( 8.9884e-05 5.34409e-05 -0.000121375 )  
( -8.92499e-05 -0.000184868 -0.000241667 )  
( 1.78643e-05 8.24879e-06 -9.94742e-05 )  
( -5.99283e-05 -6.26294e-05 -5.98525e-05 )  
( -8.11576e-05 -5.04337e-05 -0.000218519 )  
( -9.71589e-05 0.000109481 0.000157525 )  
( -1.33762e-05 -0.000120011 -0.000151721 )  
( -2.96356e-05 8.0809e-05 6.49338e-05 )  
( -1.73032e-05 8.67942e-05 0.000372591 )  
( -5.15558e-06 4.0279e-05 8.25439e-05 )  
( -5.53406e-05 0.000167713 -8.51408e-05 )  
( -2.86189e-06 0.00011227 0.000357467 )  
( 2.91478e-05 -0.000209674 5.34385e-05 )  
( -0.000176902 0.000130054 0.000253058 )  
( -0.000104251 -6.48981e-05 0.000357189 )  
( -2.20955e-05 -0.000107977 0.000312179 )  
( 0.000122363 0.0002143 0.000478122 )  
( 3.20501e-05 9.98416e-05 0.000618273 )  
( 2.34439e-05 7.07613e-05 0.000687267 )  
( -3.02245e-05 7.56704e-05 0.000448965 )  
( 2.07791e-05 -0.00017907 0.000507032 )  
( -3.16909e-05 -6.6139e-05 0.000653597 )  
( -0.000156578 0.000217961 0.000614751 )  
( 9.44632e-05 -1.83401e-05 0.000905995 )  
( 5.55544e-05 0.00018065 0.00073346 )  
( -0.000147134 -6.37504e-05 0.000319896 )  
( -1.22056e-05 8.49494e-05 0.000957002 )  
( -8.56089e-05 0.000168286 0.000885082 )  
( -8.79062e-05 -1.52505e-05 0.00071099 )  
( -0.000220232 0.000341513 0.000666411 )  
)
