FoamFile
{version 2.0; format ascii;class Cloud<passiveParticle>; location 0;object  positions;}
350
(
( -3.38126 1.96381 0.499818 ) 0 
( -2.40599 2.2424 0.499619 ) 0 
( -4.24105 3.81487 0.499974 ) 0 
( -2.25727 4.04582 0.499741 ) 0 
( -2.75331 4.92879 0.499612 ) 0 
( -1.45321 1.4958 0.499571 ) 0 
( -0.599424 2.12631 0.499904 ) 0 
( -0.869591 4.25679 0.499625 ) 0 
( -4.4707 1.09318 0.499975 ) 0 
( -0.311791 3.39037 0.499742 ) 0 
( -2.71286 0.280717 0.4996 ) 0 
( -1.3112 3.35989 0.499724 ) 0 
( -0.504186 1.13005 0.499664 ) 0 
( -4.35582 2.20543 0.499706 ) 0 
( -4.7057 0.121191 0.499639 ) 0 
( -3.75782 4.69802 0.499831 ) 0 
( -4.75024 4.81973 0.499524 ) 0 
( -3.70742 0.177772 0.499856 ) 0 
( -4.6139 1.91019 1.41942 ) 0 
( -2.42115 1.23925 0.499787 ) 0 
( -1.2175 0.689057 1.04368 ) 0 
( -1.74352 0.0355197 0.499786 ) 0 
( -4.88807 3.05202 0.499758 ) 0 
( -1.48629 2.43339 0.845016 ) 0 
( -3.23666 3.84478 0.51613 ) 0 
( -1.67103 4.85617 0.499783 ) 0 
( -0.00726433 4.19921 1.00238 ) 0 
( -3.63954 2.92974 0.499571 ) 0 
( -4.87474 0.659687 1.32493 ) 0 
( -4.46762 4.33809 1.32871 ) 0 
( -3.3309 1.03187 0.858704 ) 0 
( -1.60584 4.19157 1.244 ) 0 
( -2.19595 3.13484 0.906992 ) 0 
( -1.38809 3.24727 1.49009 ) 0 
( -0.536277 2.77694 1.25655 ) 0 
( -0.575901 0.221216 1.75095 ) 0 
( -2.14357 1.73695 1.32127 ) 0 
( -4.27402 2.8411 1.26692 ) 0 
( -0.728592 4.81652 1.31576 ) 0 
( -3.00161 2.624 1.2059 ) 0 
( -2.1903 0.643961 1.27029 ) 0 
( -0.00918966 3.49455 1.71142 ) 0 
( -0.878041 1.60823 1.30921 ) 0 
( -2.69383 4.40101 1.34651 ) 0 
( -3.62283 1.78344 1.45305 ) 0 
( -4.83913 3.51277 1.75335 ) 0 
( -3.90308 0.454349 1.44056 ) 0 
( -4.27615 1.71282 2.3394 ) 0 
( -3.588 4.4441 1.79209 ) 0 
( -0.845292 3.10151 2.31705 ) 0 
( -2.49657 2.36596 2.02917 ) 0 
( -2.61404 3.48711 1.74388 ) 0 
( -1.55998 1.13766 1.8687 ) 0 
( -2.86882 1.19868 1.75115 ) 0 
( -0.542173 2.17942 2.05799 ) 0 
( -1.51582 2.31876 1.83793 ) 0 
( -0.856223 3.99985 1.87827 ) 0 
( -4.42249 0.0996037 2.21782 ) 0 
( -2.04695 0.0533824 2.0644 ) 0 
( -4.66984 2.61346 2.15635 ) 0 
( -3.55531 3.52133 1.40876 ) 0 
( -0.497092 1.18326 2.12989 ) 0 
( -2.23837 4.28627 2.22913 ) 0 
( -1.25113 1.73697 2.60682 ) 0 
( -3.61963 2.62598 1.99145 ) 0 
( -0.619139 2.43039 3.02279 ) 0 
( -2.77407 0.60108 2.5471 ) 0 
( -4.00361 3.49498 2.30213 ) 0 
( -2.25877 1.50639 2.481 ) 0 
( -3.70097 0.895322 2.31467 ) 0 
( -1.50632 4.9043 1.93794 ) 0 
( -4.92231 0.950778 2.37729 ) 0 
( -1.13381 0.52937 2.53752 ) 0 
( -0.403489 4.53265 2.644 ) 0 
( -4.43836 4.23673 2.81197 ) 0 
( -4.86644 3.33316 2.82196 ) 0 
( -1.87954 1.70801 3.38378 ) 0 
( -4.31892 1.13633 3.15517 ) 0 
( -1.94261 0.755017 3.08044 ) 0 
( -2.44832 3.19627 2.68579 ) 0 
( -1.61323 2.65363 2.77487 ) 0 
( -3.12717 3.92728 2.51353 ) 0 
( -3.28468 1.79602 2.43676 ) 0 
( -1.37444 4.3111 2.73171 ) 0 
( -3.51446 0.54635 3.23285 ) 0 
( -0.217858 3.47742 3.13821 ) 0 
( -3.91656 2.73027 2.9403 ) 0 
( -2.62541 0.0968522 3.39773 ) 0 
( -0.834718 0.312132 3.46637 ) 0 
( -3.86031 4.54774 3.56595 ) 0 
( -1.26246 2.78303 3.70203 ) 0 
( -2.89538 1.33158 3.23179 ) 0 
( -4.47705 0.150896 3.21476 ) 0 
( -2.62136 2.26878 3.01644 ) 0 
( -3.50243 4.87316 2.69106 ) 0 
( -1.75358 3.57757 3.29527 ) 0 
( -2.58106 4.73531 3.05419 ) 0 
( -3.18426 3.2671 3.35878 ) 0 
( -0.690659 1.30405 3.31243 ) 0 
( -0.713529 2.01012 4.01999 ) 0 
( -0.869355 4.66504 3.51858 ) 0 
( -2.25925 2.84429 3.74929 ) 0 
( -4.13713 3.54821 3.47128 ) 0 
( -1.42871 0.984919 3.90664 ) 0 
( -2.61298 3.99364 3.74022 ) 0 
( -4.38348 2.06442 3.52166 ) 0 
( -3.65187 1.29222 3.8845 ) 0 
( -4.65913 4.1812 4.04266 ) 0 
( -0.0427525 0.443104 4.06238 ) 0 
( -0.29087 2.95096 4.00205 ) 0 
( -0.912175 3.71228 3.81813 ) 0 
( -1.97401 1.98202 4.34048 ) 0 
( -2.41348 1.057 4.06341 ) 0 
( -1.69423 4.31822 3.96443 ) 0 
( -0.197744 1.26778 4.60607 ) 0 
( -3.40408 2.22893 3.63723 ) 0 
( -4.74852 1.29437 4.04413 ) 0 
( -3.70789 3.89355 4.30638 ) 0 
( -4.88165 2.90689 3.72635 ) 0 
( -3.0625 4.66877 4.32499 ) 0 
( -1.69469 3.39974 4.35971 ) 0 
( -3.95356 2.86545 4.17837 ) 0 
( -3.21075 0.53715 4.3695 ) 0 
( -0.299589 4.75828 4.33501 ) 0 
( -1.23369 1.46048 4.76405 ) 0 
( -2.92819 2.22301 4.5165 ) 0 
( -2.98372 3.20486 4.33619 ) 0 
( -4.10021 1.93277 4.5078 ) 0 
( -2.15376 0.570299 4.89712 ) 0 
( -2.41497 3.72751 4.97084 ) 0 
( -0.51799 2.01573 5.18737 ) 0 
( -0.66195 3.74167 4.78557 ) 0 
( -4.10408 0.86478 4.67612 ) 0 
( -1.00237 2.71966 4.66519 ) 0 
( -4.5085 3.48888 4.74808 ) 0 
( -2.1287 4.66879 4.79387 ) 0 
( -0.875525 0.533926 4.65022 ) 0 
( -2.19257 2.75335 4.93786 ) 0 
( -2.02745 1.37795 5.47261 ) 0 
( -2.96333 0.486579 5.47797 ) 0 
( -3.35167 3.95197 5.23874 ) 0 
( -3.58139 2.96574 5.10106 ) 0 
( -0.670074 2.9276 5.58482 ) 0 
( -4.706 1.44595 5.22369 ) 0 
( -2.58107 4.43737 5.65498 ) 0 
( -1.47978 2.2091 5.37997 ) 0 
( -4.0834 4.77068 4.6089 ) 0 
( -1.3808 0.43264 5.51613 ) 0 
( -0.618517 4.60532 5.28734 ) 0 
( -2.86678 1.30932 4.91814 ) 0 
( -0.401505 0.61604 5.59969 ) 0 
( -4.50441 2.59162 5.18914 ) 0 
( -4.91726 0.137622 4.90108 ) 0 
( -2.46588 2.24042 5.75152 ) 0 
( -1.49022 3.58382 5.32273 ) 0 
( -4.05375 3.50825 5.79538 ) 0 
( -3.75285 0.266561 6.07705 ) 0 
( -4.74862 2.81063 6.13359 ) 0 
( -0.738391 2.16503 6.22772 ) 0 
( -4.42643 4.39334 5.46901 ) 0 
( -3.80868 1.13856 5.59111 ) 0 
( -3.39482 2.02324 5.37776 ) 0 
( -1.06464 1.35354 5.74346 ) 0 
( -2.78202 3.18868 5.7287 ) 0 
( -3.33436 4.95194 5.24578 ) 0 
( -2.90443 1.36469 5.9524 ) 0 
( -4.23719 1.97585 5.93021 ) 0 
( -0.0327424 2.8873 6.39698 ) 0 
( -1.00018 0.397969 6.44035 ) 0 
( -1.78215 2.92166 6.01273 ) 0 
( -1.91448 3.89992 6.17116 ) 0 
( -4.49232 4.80003 6.41027 ) 0 
( -0.399631 3.83929 5.89341 ) 0 
( -2.17745 0.733473 6.22222 ) 0 
( -3.62268 4.45101 6.06163 ) 0 
( -3.58271 1.6688 6.62102 ) 0 
( -4.64233 0.623731 5.78931 ) 0 
( -3.55274 2.68135 6.11365 ) 0 
( -0.918722 4.62006 6.24098 ) 0 
( -2.63254 1.97061 6.69984 ) 0 
( -0.439604 1.22273 6.51271 ) 0 
( -0.405938 0.533984 7.23655 ) 0 
( -2.0081 2.70602 6.96247 ) 0 
( -4.17135 2.44051 6.86118 ) 0 
( -2.88416 3.88955 6.43447 ) 0 
( -1.54897 4.36837 6.97526 ) 0 
( -2.98585 0.893277 6.83031 ) 0 
( -0.57573 4.03832 6.97836 ) 0 
( -0.958661 3.25707 6.48371 ) 0 
( -4.48252 0.416386 6.75428 ) 0 
( -1.70828 1.882 6.29683 ) 0 
( -3.85557 3.42788 6.77197 ) 0 
( -1.71311 0.63035 7.10165 ) 0 
( -0.0758194 2.06917 6.9702 ) 0 
( -4.69883 1.37788 6.58533 ) 0 
( -1.85571 1.69146 7.26725 ) 0 
( -4.68563 2.81867 7.63054 ) 0 
( -0.390872 3.11091 7.3033 ) 0 
( -1.07344 2.39866 7.1403 ) 0 
( -3.35431 2.24709 7.40413 ) 0 
( -3.86557 0.987476 7.29607 ) 0 
( -3.82987 4.3914 7.03796 ) 0 
( -4.47839 1.74723 7.51292 ) 0 
( -2.85462 4.57193 7.16464 ) 0 
( -0.202886 4.96644 7.04567 ) 0 
( -1.34702 3.47599 7.37877 ) 0 
( -0.901385 1.41443 7.37856 ) 0 
( -2.96177 2.98805 6.85964 ) 0 
( -1.84128 2.81398 7.94228 ) 0 
( -0.938303 4.7194 7.68489 ) 0 
( -4.6834 3.87551 7.10986 ) 0 
( -0.0721078 1.88001 7.95187 ) 0 
( -2.30168 3.73508 7.23242 ) 0 
( -4.81031 4.83595 7.35764 ) 0 
( -3.30625 0.585968 8.05811 ) 0 
( -4.52374 0.389191 7.7529 ) 0 
( -1.18747 2.06967 8.07758 ) 0 
( -3.16907 4.90805 8.0522 ) 0 
( -3.73776 3.12455 7.71727 ) 0 
( -2.46035 0.960055 7.67827 ) 0 
( -0.890354 3.02731 8.1654 ) 0 
( -1.135 0.604928 7.91707 ) 0 
( -1.44377 0.312895 8.82205 ) 0 
( -4.07309 4.37144 8.00756 ) 0 
( -2.07449 2.68308 8.9057 ) 0 
( -3.15824 3.92589 7.8648 ) 0 
( -4.07555 2.37593 8.28751 ) 0 
( -1.98938 4.43925 7.87006 ) 0 
( -0.719825 1.29728 8.50714 ) 0 
( -2.48698 1.90155 8.01367 ) 0 
( -3.99057 0.0152519 8.51159 ) 0 
( -2.39009 0.517816 8.57225 ) 0 
( -1.21137 3.96686 8.284 ) 0 
( -0.0986687 4.50346 8.18294 ) 0 
( -2.83599 2.83813 8.04008 ) 0 
( -3.52529 1.56009 8.11009 ) 0 
( -1.75657 1.28151 8.31164 ) 0 
( -3.43396 4.2555 8.76772 ) 0 
( -0.488428 2.32028 8.74714 ) 0 
( -4.32065 3.32046 8.50572 ) 0 
( -3.07257 1.16599 8.90982 ) 0 
( -2.33898 3.64312 8.3635 ) 0 
( -1.3075 2.21009 9.33916 ) 0 
( -1.52969 4.83325 8.82932 ) 0 
( -2.22314 0.0127974 9.41897 ) 0 
( -4.7198 2.30235 9.06041 ) 0 
( -4.87374 0.395327 8.78629 ) 0 
( -4.90179 4.67793 8.47563 ) 0 
( -3.07242 2.1958 8.76896 ) 0 
( -0.345852 3.67872 8.69347 ) 0 
( -1.07725 3.16213 9.13839 ) 0 
( -0.358728 0.423589 8.83288 ) 0 
( -4.43084 1.19128 8.3427 ) 0 
( -3.04491 2.48833 9.72473 ) 0 
( -3.10825 0.5032 9.73651 ) 0 
( -1.74767 3.90377 9.12644 ) 0 
( -2.49406 4.59323 8.71933 ) 0 
( -4.39163 4.10293 9.12415 ) 0 
( -3.91223 1.71423 9.01905 ) 0 
( -2.24978 1.71201 9.0674 ) 0 
( -0.513134 1.62703 9.50894 ) 0 
( -2.30567 3.16113 9.75293 ) 0 
( -3.92394 0.732 9.20547 ) 0 
( -0.826442 4.0876 9.46917 ) 0 
( -2.97447 3.16972 8.97322 ) 0 
( -1.39253 1.21852 9.24276 ) 0 
( -1.99993 1.94033 10.0083 ) 0 
( -3.5864 3.68402 9.57393 ) 0 
( -2.8739 1.94778 10.5484 ) 0 
( -3.86143 2.78621 9.23024 ) 0 
( -0.532051 0.873419 10.1659 ) 0 
( -0.465304 2.6094 9.70393 ) 0 
( -4.80122 1.3263 9.26168 ) 0 
( -1.39128 0.399685 9.81674 ) 0 
( -4.0785 0.224008 10.0527 ) 0 
( -2.66539 4.07304 9.55587 ) 0 
( -1.61806 4.15751 10.0849 ) 0 
( -2.22479 0.971461 9.73885 ) 0 
( -1.51845 1.16552 10.4469 ) 0 
( -4.26743 4.97691 9.59379 ) 0 
( -1.38397 2.92443 10.0599 ) 0 
( -3.36152 1.47067 9.81733 ) 0 
( -3.09322 3.2982 10.3535 ) 0 
( -2.43797 4.68967 10.3094 ) 0 
( -4.06297 3.09201 10.2238 ) 0 
( -4.08319 1.31972 10.4928 ) 0 
( -0.970628 4.18869 10.8463 ) 0 
( -1.14709 0.173408 10.7596 ) 0 
( -2.20189 3.6091 10.6834 ) 0 
( -0.365929 3.50306 10.1413 ) 0 
( -1.02378 2.01969 10.2871 ) 0 
( -4.87234 0.827686 10.1254 ) 0 
( -0.0861032 4.41566 10.439 ) 0 
( -4.1887 2.11304 9.89329 ) 0 
( -3.41184 4.53541 10.0685 ) 0 
( -2.14968 2.61183 10.734 ) 0 
( -4.75133 3.19685 9.50614 ) 0 
( -2.83681 3.15672 11.3097 ) 0 
( -4.97097 2.77865 10.5015 ) 0 
( -3.83811 3.22266 11.1893 ) 0 
( -0.145427 2.57914 10.6508 ) 0 
( -2.74301 0.877364 10.5889 ) 0 
( -4.28778 4.06522 10.1761 ) 0 
( -4.38901 0.377509 10.9907 ) 0 
( -3.52321 1.65519 11.2503 ) 0 
( -2.0794 1.6816 11.0941 ) 0 
( -1.89534 4.45673 11.1164 ) 0 
( -4.15573 2.33029 10.8688 ) 0 
( -3.02546 4.13378 10.8987 ) 0 
( -0.926883 3.19163 10.9082 ) 0 
( -1.31329 2.31586 11.1973 ) 0 
( -0.789166 1.03533 11.1186 ) 0 
( -4.38539 4.06219 11.1712 ) 0 
( -3.50213 0.660978 11.3553 ) 0 
( -3.44461 2.50764 11.7671 ) 0 
( -3.44813 3.92791 11.7813 ) 0 
( -4.99115 1.16178 11.1399 ) 0 
( -4.60278 4.94369 10.5352 ) 0 
( -1.95997 0.606667 11.1488 ) 0 
( -0.129365 3.09708 11.506 ) 0 
( -2.90624 4.7624 11.6816 ) 0 
( -1.65625 3.50725 11.5151 ) 0 
( -0.476108 4.99179 11.5246 ) 0 
( -0.0723474 4.08789 11.3836 ) 0 
( -0.229995 0.207206 11.1568 ) 0 
( -4.46352 2.58399 11.7857 ) 0 
( -4.59178 0.682375 11.9213 ) 0 
( -3.94267 4.79238 11.6916 ) 0 
( -4.24577 1.62038 11.9407 ) 0 
( -2.48373 3.78447 12.0034 ) 0 
( -4.33933 3.54651 12.0267 ) 0 
( -1.13801 2.61856 12.1341 ) 0 
( -1.37345 1.50544 11.78 ) 0 
( -1.09178 4.26786 11.8357 ) 0 
( -0.167324 2.39196 12.214 ) 0 
( -0.178432 1.34539 12.1428 ) 0 
( -0.215893 4.11542 12.3728 ) 0 
( -0.724195 0.514759 11.9699 ) 0 
( -2.69236 1.15034 11.6788 ) 0 
( -0.406999 1.92671 11.362 ) 0 
( -2.01696 4.6601 12.1273 ) 0 
( -1.29211 4.47985 12.7922 ) 0 
( -1.01118 1.3351 12.6964 ) 0 
( -2.09539 2.63546 11.7322 ) 0 
( -4.946 2.96865 12.5726 ) 0 
( -1.49208 0.462772 12.6083 ) 0 
( -3.4822 3.21066 12.4772 ) 0 
( -2.19959 1.79474 12.2635 ) 0 
( -3.62902 4.69371 12.636 ) 0 
( -1.01879 3.53611 12.5134 ) 0 
)
