FoamFile
{version 2.0; format ascii;class vectorField; location 0;object  v;}
350
(
( 4.44615e-06 1.77576e-06 -1.10261e-07 )  
( 5.26267e-06 1.12739e-06 -1.78586e-07 )  
( 1.3854e-05 -2.34334e-05 -1.12899e-12 )  
( 3.5887e-06 6.91178e-07 8.37521e-07 )  
( 3.77475e-06 1.23558e-06 -3.49088e-07 )  
( 6.41725e-06 4.95224e-08 1.06506e-06 )  
( 4.5056e-06 1.36924e-06 9.12886e-07 )  
( 3.17607e-06 5.0895e-07 2.20397e-07 )  
( 1.28809e-05 4.09518e-07 6.68817e-08 )  
( 3.23665e-06 1.02049e-06 -6.95443e-07 )  
( 2.75549e-06 1.59584e-06 2.41515e-07 )  
( 2.91358e-06 9.26315e-07 4.65652e-07 )  
( 3.90093e-06 1.01928e-06 9.29459e-07 )  
( 5.26627e-06 1.48273e-06 2.28396e-07 )  
( 3.73372e-06 2.05763e-06 7.17561e-08 )  
( 3.12149e-06 6.25566e-07 -4.54371e-07 )  
( 4.1723e-06 1.02417e-06 8.0017e-08 )  
( 2.65411e-06 1.13089e-06 -6.98795e-07 )  
( 9.37378e-06 2.75093e-06 7.42582e-07 )  
( 7.31613e-06 2.58855e-06 1.12536e-07 )  
( 5.7356e-06 8.04198e-07 -3.34117e-07 )  
( 3.73928e-06 2.97046e-06 -3.86896e-07 )  
( 4.14861e-06 2.44195e-06 -6.44824e-07 )  
( 6.02637e-06 1.03812e-06 1.40663e-06 )  
( 3.69987e-06 1.34453e-06 -1.76676e-07 )  
( 2.31939e-06 5.96741e-07 -2.61858e-07 )  
( 5.15285e-06 1.3141e-06 -1.83093e-07 )  
( 5.14552e-06 1.20825e-06 -3.46718e-07 )  
( 6.35532e-06 3.48993e-06 -3.78686e-07 )  
( 6.91808e-06 4.53593e-06 2.0754e-06 )  
( 7.5998e-06 3.82275e-06 1.72437e-06 )  
( 6.70693e-06 2.35113e-06 -2.23446e-09 )  
( 5.24248e-06 9.02871e-07 4.62331e-07 )  
( 8.09889e-06 2.1646e-06 2.5009e-07 )  
( 7.58783e-06 2.22109e-06 6.60254e-07 )  
( 9.61629e-06 4.21762e-06 9.85835e-07 )  
( 1.10362e-05 2.17671e-06 -7.42108e-07 )  
( 8.71822e-06 2.35209e-06 6.82446e-07 )  
( 5.65727e-06 1.55481e-06 -2.78832e-07 )  
( 6.54954e-06 1.57533e-06 -1.31717e-07 )  
( 6.02376e-06 3.11708e-06 5.97195e-08 )  
( 6.83496e-06 1.92097e-06 -5.98915e-07 )  
( 1.05456e-05 2.81673e-06 -9.81812e-07 )  
( 8.85814e-06 2.9664e-06 6.34896e-07 )  
( 9.46158e-06 4.09961e-06 1.59891e-06 )  
( 8.73703e-06 4.66805e-06 1.95222e-06 )  
( 6.92421e-06 2.97499e-06 -3.92075e-07 )  
( 1.21722e-05 4.66849e-06 2.12336e-07 )  
( 8.16008e-06 4.14593e-06 1.1914e-06 )  
( 1.26589e-05 8.17575e-07 -2.58988e-06 )  
( 9.6206e-06 4.9946e-06 1.05541e-09 )  
( 1.05316e-05 2.98437e-06 1.98748e-06 )  
( 1.06082e-05 1.98437e-06 -1.57441e-07 )  
( 1.02267e-05 5.4698e-06 1.00608e-06 )  
( 1.08168e-05 3.27806e-06 1.75198e-07 )  
( 8.75533e-06 2.80604e-06 1.11203e-06 )  
( 1.07348e-05 6.30875e-07 -1.517e-06 )  
( 7.88628e-06 4.33637e-06 5.78996e-07 )  
( 7.79521e-06 4.58989e-06 -4.89093e-07 )  
( 1.13409e-05 4.13635e-06 8.88987e-08 )  
( 9.46509e-06 2.45156e-06 3.17972e-06 )  
( 1.13916e-05 5.02636e-06 2.73921e-07 )  
( 1.02758e-05 3.0706e-06 1.74099e-06 )  
( 1.35154e-05 3.1115e-06 -1.57451e-07 )  
( 8.9662e-06 4.62273e-06 2.49196e-07 )  
( 1.60076e-05 5.20525e-06 -1.01556e-07 )  
( 1.31436e-05 6.38296e-06 -1.90836e-07 )  
( 9.96006e-06 4.77707e-06 8.93204e-07 )  
( 1.31168e-05 5.01013e-06 -3.08367e-07 )  
( 1.19983e-05 4.97193e-06 -2.43291e-07 )  
( 9.07699e-06 2.31354e-06 1.74334e-06 )  
( 1.08415e-05 4.98424e-06 -1.04456e-07 )  
( 1.35452e-05 2.86513e-06 1.96975e-07 )  
( 1.15006e-05 4.72686e-06 6.86518e-07 )  
( 1.43891e-05 5.84635e-06 1.54664e-06 )  
( 1.41117e-05 4.92574e-06 4.25259e-09 )  
( 1.61493e-05 5.18597e-06 -4.66427e-08 )  
( 1.77213e-05 5.70496e-06 -2.38679e-07 )  
( 1.37439e-05 5.95663e-06 6.41545e-07 )  
( 1.61579e-05 4.73607e-06 1.40252e-06 )  
( 1.49721e-05 4.00813e-06 1.11953e-06 )  
( 9.08007e-06 5.54682e-06 5.2882e-07 )  
( 1.29092e-05 6.24974e-06 -2.10232e-07 )  
( 1.21206e-05 2.97913e-06 1.2676e-06 )  
( 1.4793e-05 6.42402e-06 5.59805e-07 )  
( 1.47898e-05 5.07251e-06 1.31798e-07 )  
( 1.39123e-05 5.40842e-06 1.75005e-06 )  
( 1.56658e-05 4.77248e-06 -3.40959e-06 )  
( 1.57951e-05 4.98026e-06 4.81499e-07 )  
( 1.53021e-05 8.13268e-06 1.31733e-06 )  
( 1.83344e-05 4.9913e-06 7.83836e-07 )  
( 1.41076e-05 5.17496e-06 -5.56811e-07 )  
( 1.37717e-05 6.64107e-06 1.71071e-06 )  
( 1.52451e-05 5.18329e-06 7.17476e-07 )  
( 1.15761e-05 6.45954e-06 7.61062e-07 )  
( 1.64994e-05 3.76748e-06 2.22028e-06 )  
( 1.30937e-05 7.40488e-06 7.44573e-07 )  
( 1.60952e-05 5.05244e-06 1.80039e-07 )  
( 1.64514e-05 4.43244e-06 7.71723e-07 )  
( 1.82074e-05 5.53089e-06 1.01526e-06 )  
( 1.38682e-05 5.52135e-06 -8.01072e-08 )  
( 1.76338e-05 4.66036e-06 8.5973e-07 )  
( 1.56337e-05 5.88462e-06 1.01957e-06 )  
( 1.64915e-05 5.69571e-06 1.74745e-07 )  
( 1.79923e-05 2.81096e-06 2.53169e-07 )  
( 1.54806e-05 5.34528e-06 1.24861e-06 )  
( 1.90828e-05 6.91257e-06 3.13664e-06 )  
( 1.78725e-05 7.11453e-06 1.43004e-06 )  
( 1.69586e-05 6.93287e-06 -3.53259e-07 )  
( 1.93596e-05 6.54252e-06 5.038e-07 )  
( 1.76726e-05 5.61636e-06 8.01968e-07 )  
( 1.95305e-05 7.17319e-06 3.16817e-08 )  
( 1.78599e-05 7.39173e-06 -6.46951e-07 )  
( 1.72381e-05 4.25297e-06 6.57496e-07 )  
( 1.99264e-05 7.06948e-06 -1.74796e-06 )  
( 1.68045e-05 6.84947e-06 1.35641e-06 )  
( 1.82165e-05 4.30084e-06 2.6445e-07 )  
( 1.96997e-05 7.85897e-06 1.02363e-06 )  
( 1.79563e-05 7.04918e-06 8.94189e-07 )  
( 1.6301e-05 2.01641e-06 -1.98443e-06 )  
( 2.04474e-05 5.18122e-06 9.0028e-07 )  
( 1.89014e-05 7.87092e-06 2.08108e-06 )  
( 1.95212e-05 6.0638e-06 1.13099e-07 )  
( 1.64259e-05 2.99403e-06 -2.94665e-07 )  
( 2.03201e-05 7.0875e-06 -3.69357e-07 )  
( 1.95155e-05 8.24465e-06 5.53741e-07 )  
( 2.01282e-05 8.08279e-06 5.3692e-07 )  
( 1.96005e-05 7.10303e-06 3.16021e-06 )  
( 2.42897e-05 1.00364e-05 1.05038e-07 )  
( 2.26819e-05 7.57254e-06 7.02119e-07 )  
( 2.33457e-05 5.62157e-06 1.89854e-07 )  
( 2.00526e-05 6.2827e-06 2.28845e-06 )  
( 2.13828e-05 8.47685e-06 5.99961e-07 )  
( 2.06342e-05 6.79843e-06 3.63123e-07 )  
( 2.17913e-05 6.85089e-06 1.28236e-06 )  
( 2.34779e-05 6.3556e-06 6.10712e-07 )  
( 2.01869e-05 6.96535e-06 1.97041e-07 )  
( 2.20478e-05 7.24623e-06 8.84626e-07 )  
( 2.50564e-05 9.41394e-06 1.72989e-06 )  
( 2.39821e-05 1.01574e-05 1.12763e-07 )  
( 2.30812e-05 6.48576e-06 1.73038e-06 )  
( 2.24455e-05 8.37393e-06 1.37873e-06 )  
( 2.27253e-05 1.16008e-05 -1.67543e-06 )  
( 2.23471e-05 6.26969e-06 2.30599e-06 )  
( 2.53384e-05 8.48122e-06 1.96231e-06 )  
( 2.4326e-05 8.7603e-06 1.80081e-06 )  
( 2.08666e-05 6.57182e-06 1.67437e-06 )  
( 2.67337e-05 9.52488e-06 -1.27824e-06 )  
( 2.44295e-05 8.15038e-06 8.29853e-07 )  
( 2.24511e-05 9.05611e-06 5.84701e-08 )  
( 2.67095e-05 1.01097e-05 2.92647e-06 )  
( 2.30143e-05 6.28895e-06 1.23927e-06 )  
( 2.16347e-05 1.0564e-05 1.32806e-06 )  
( 2.58168e-05 8.5687e-06 1.65269e-06 )  
( 2.18474e-05 6.80908e-06 2.18274e-06 )  
( 2.60261e-05 6.11351e-06 3.86591e-06 )  
( 2.77639e-05 9.5316e-06 7.05803e-07 )  
( 2.90394e-05 1.0115e-05 2.54091e-06 )  
( 3.15827e-05 1.04594e-05 -1.84309e-06 )  
( 2.50539e-05 7.5316e-06 2.69429e-06 )  
( 2.46339e-05 9.08263e-06 6.79299e-07 )  
( 2.32261e-05 8.99787e-06 9.32533e-07 )  
( 2.67469e-05 1.01739e-05 -9.25153e-07 )  
( 2.47507e-05 8.28051e-06 6.6169e-07 )  
( 2.29692e-05 7.41577e-06 8.76925e-07 )  
( 2.52146e-05 9.18735e-06 7.98827e-07 )  
( 2.48887e-05 8.24809e-06 2.72626e-06 )  
( 2.69622e-05 1.03136e-05 -2.14413e-06 )  
( 2.74791e-05 1.09836e-05 -1.96648e-06 )  
( 2.64668e-05 8.50387e-06 2.74985e-06 )  
( 2.67467e-05 9.95758e-06 3.23137e-06 )  
( 3.04342e-05 9.05801e-06 4.51459e-06 )  
( 2.32155e-05 1.10181e-05 -7.75372e-07 )  
( 2.68042e-05 9.98757e-06 2.4346e-07 )  
( 2.80209e-05 7.84023e-06 3.06649e-06 )  
( 2.80801e-05 8.91181e-06 1.72985e-06 )  
( 2.55379e-05 7.32822e-06 -5.42495e-07 )  
( 2.87091e-05 7.75109e-06 2.18987e-06 )  
( 3.01747e-05 1.30814e-05 1.58506e-06 )  
( 2.71134e-05 7.79691e-06 1.9217e-06 )  
( 2.9787e-05 9.48654e-06 -2.10749e-06 )  
( 3.017e-05 1.06624e-05 -1.75785e-06 )  
( 3.19166e-05 5.22055e-06 2.83492e-06 )  
( 3.11357e-05 9.93825e-06 2.22402e-06 )  
( 2.92726e-05 8.33395e-06 1.79421e-06 )  
( 3.24043e-05 1.28722e-05 1.7777e-06 )  
( 3.01839e-05 1.15703e-05 1.91689e-06 )  
( 3.59916e-05 1.47908e-05 2.23247e-06 )  
( 2.77862e-05 1.15713e-05 5.27052e-07 )  
( 2.79033e-05 1.03293e-05 8.21121e-07 )  
( 2.56598e-05 5.08117e-06 1.11152e-06 )  
( 3.21039e-05 8.21003e-06 2.95533e-06 )  
( 3.05895e-05 1.2454e-05 -7.60898e-07 )  
( 3.12638e-05 8.65678e-06 -1.94483e-06 )  
( 2.67758e-05 9.86606e-06 3.14267e-06 )  
( 3.19062e-05 9.94441e-06 2.35619e-06 )  
( 3.41973e-05 1.06307e-05 1.87643e-06 )  
( 3.51088e-05 1.28399e-05 7.76407e-07 )  
( 3.5417e-05 1.07759e-05 1.00574e-06 )  
( 3.10087e-05 7.98194e-06 1.69658e-06 )  
( 3.16773e-05 1.06191e-05 3.0951e-06 )  
( 3.25785e-05 9.0291e-06 2.19403e-06 )  
( 3.14037e-05 1.06572e-05 3.96573e-06 )  
( 3.47063e-05 8.39725e-06 2.74861e-06 )  
( 3.27672e-05 1.6607e-05 1.19559e-06 )  
( 3.47099e-05 1.45734e-05 2.58336e-06 )  
( 3.36689e-05 1.21923e-05 -7.41944e-07 )  
( 3.12947e-05 7.43399e-06 2.57472e-06 )  
( 3.77036e-05 1.17141e-05 1.99435e-06 )  
( 3.30612e-05 1.44144e-05 2.53188e-06 )  
( 3.32648e-05 7.35452e-06 1.38135e-06 )  
( 3.49393e-05 1.01051e-05 -2.94208e-06 )  
( 3.40943e-05 1.1247e-05 1.52828e-06 )  
( 2.52901e-05 5.74593e-06 3.40462e-06 )  
( 3.59095e-05 1.29875e-05 5.20894e-07 )  
( 3.40859e-05 1.03521e-05 2.40475e-06 )  
( 4.04778e-05 1.18561e-05 2.93721e-06 )  
( 3.62153e-05 9.86542e-06 2.8375e-06 )  
( 3.52128e-05 1.2083e-05 3.75184e-06 )  
( 3.3796e-05 1.56409e-05 4.44609e-07 )  
( 3.81557e-05 1.29356e-05 1.57388e-06 )  
( 3.22903e-05 1.12075e-05 -9.5088e-07 )  
( 3.3657e-05 1.18804e-05 -2.26394e-06 )  
( 3.97176e-05 1.42786e-05 2.94868e-06 )  
( 4.31975e-05 1.7791e-05 3.97251e-06 )  
( 3.56624e-05 1.11927e-05 3.32669e-06 )  
( 3.58506e-05 1.13223e-05 2.94799e-06 )  
( 3.7103e-05 1.28055e-05 3.90462e-06 )  
( 4.00206e-05 7.92844e-06 -3.31602e-06 )  
( 3.52855e-05 1.44259e-05 2.36141e-06 )  
( 3.82793e-05 1.13724e-05 1.75007e-06 )  
( 3.63046e-05 1.68151e-05 7.36377e-07 )  
( 3.9143e-05 1.27656e-05 6.50491e-07 )  
( 3.54231e-05 1.2337e-05 -5.39982e-07 )  
( 3.67656e-05 1.27001e-05 3.98604e-06 )  
( 3.6206e-05 1.16503e-05 5.46779e-06 )  
( 3.57741e-05 1.40101e-05 8.4302e-07 )  
( 3.97949e-05 1.46552e-05 2.53351e-06 )  
( 4.48366e-05 1.43463e-05 1.25212e-06 )  
( 3.48315e-05 1.12396e-05 2.52763e-06 )  
( 3.95171e-05 1.66527e-05 5.15883e-06 )  
( 3.5825e-05 1.38769e-05 4.6222e-06 )  
( 4.29808e-05 1.17479e-05 -1.99134e-07 )  
( 3.93691e-05 1.93775e-05 3.31041e-06 )  
( 3.68432e-05 1.69319e-05 1.70055e-06 )  
( 3.7995e-05 9.55737e-06 1.71766e-06 )  
( 3.8914e-05 1.32221e-05 4.56731e-06 )  
( 4.12403e-05 1.10175e-05 4.75546e-06 )  
( 3.69399e-05 1.45879e-05 4.54401e-06 )  
( 3.98603e-05 1.21438e-05 2.96503e-06 )  
( 3.69472e-05 1.29438e-05 1.06216e-06 )  
( 3.3563e-05 5.2859e-06 -2.86557e-06 )  
( 3.82587e-05 1.00721e-05 3.37222e-06 )  
( 4.33495e-05 1.47558e-05 2.97686e-06 )  
( 4.13072e-05 1.79053e-05 9.32751e-06 )  
( 3.99261e-05 1.89474e-05 1.80404e-06 )  
( 3.98721e-05 1.2673e-05 4.72041e-06 )  
( 3.64689e-05 1.36893e-05 4.54697e-07 )  
( 3.9005e-05 1.36407e-05 4.73827e-06 )  
( 3.84153e-05 1.68353e-05 2.65498e-06 )  
( 4.30533e-05 1.03608e-05 -3.59322e-06 )  
( 4.41145e-05 1.55232e-05 6.77939e-06 )  
( 4.25585e-05 1.27531e-05 2.46273e-06 )  
( 3.77944e-05 1.3529e-05 -7.74987e-08 )  
( 3.4729e-05 1.49092e-05 1.39309e-06 )  
( 4.22166e-05 1.18358e-05 -8.07364e-07 )  
( 4.37543e-05 1.35081e-05 1.79822e-06 )  
( 3.73414e-05 1.34954e-05 7.60499e-07 )  
( 4.27514e-05 1.53148e-05 3.81878e-06 )  
( 3.67498e-05 1.25497e-05 3.07338e-06 )  
( 4.08063e-05 1.38774e-05 8.49779e-07 )  
( 3.81877e-05 1.47868e-05 2.66404e-06 )  
( 4.14982e-05 8.82247e-06 2.30574e-06 )  
( 3.94934e-05 1.47275e-05 -4.02382e-06 )  
( 4.6933e-05 1.50522e-05 3.6582e-06 )  
( 3.66831e-05 1.39854e-05 4.44762e-06 )  
( 4.93246e-05 1.3505e-05 2.4199e-06 )  
( 4.28281e-05 1.56821e-05 3.03732e-06 )  
( 4.31798e-05 1.81064e-05 -9.38517e-06 )  
( 3.8697e-05 1.58013e-05 -2.44639e-06 )  
( 4.55297e-05 1.52782e-05 5.86519e-06 )  
( 4.01466e-05 1.68387e-05 5.62106e-06 )  
( 4.27404e-05 1.91341e-05 1.40631e-06 )  
( 5.1345e-05 1.27874e-05 1.64809e-06 )  
( 4.23076e-05 1.61965e-05 8.10068e-06 )  
( 4.3447e-05 1.53782e-05 5.74409e-06 )  
( 5.49528e-05 9.17162e-06 3.26958e-06 )  
( 4.29045e-05 1.52232e-05 -5.37901e-06 )  
( 5.01529e-05 9.34404e-06 -5.25343e-06 )  
( 4.13001e-05 1.41913e-05 -2.81617e-07 )  
( 4.30211e-05 1.26954e-05 1.1287e-06 )  
( 4.46806e-05 1.26856e-05 3.8014e-06 )  
( 4.75644e-05 1.20928e-05 -1.99437e-06 )  
( 4.10444e-05 1.60764e-05 6.66961e-06 )  
( 4.33337e-05 1.30875e-05 4.66993e-07 )  
( 4.17986e-05 1.19477e-05 2.25675e-06 )  
( 4.24793e-05 1.04563e-05 3.58778e-06 )  
( 4.06356e-05 2.88329e-05 3.33199e-06 )  
( 4.08179e-05 1.42814e-05 9.9576e-06 )  
( 4.38742e-05 3.26132e-05 2.97266e-06 )  
( 3.97699e-05 1.92701e-05 4.69646e-06 )  
( -0.000318988 0.000716587 -0.000139537 )  
( 4.13069e-05 1.53654e-05 1.58023e-06 )  
( 4.61136e-05 1.69647e-05 2.47908e-06 )  
( 4.01169e-05 2.59526e-05 6.90093e-06 )  
( 4.52173e-05 1.38541e-05 1.00497e-06 )  
( 5.58198e-05 7.26882e-06 -6.70253e-06 )  
( 3.15967e-05 3.4234e-05 5.63854e-06 )  
( 5.63363e-05 1.94963e-05 -4.98293e-06 )  
( 5.14884e-05 1.06733e-05 5.32234e-06 )  
( 4.27062e-05 1.48917e-05 8.83817e-07 )  
( 4.46138e-05 1.30306e-05 -1.38077e-06 )  
( 4.83077e-05 7.89377e-06 1.2693e-06 )  
( 4.63737e-05 2.26724e-05 5.53176e-06 )  
( 4.08359e-05 3.32058e-05 2.36899e-06 )  
( 5.30125e-05 3.51491e-05 -2.35323e-06 )  
( 4.11242e-05 1.52952e-05 2.05313e-06 )  
( 4.0568e-05 1.47649e-05 -9.5507e-07 )  
( -0.000366894 -0.000264725 -0.000544376 )  
( 2.86953e-05 1.88659e-05 6.09515e-06 )  
( 5.71438e-05 2.57378e-05 4.01766e-06 )  
( 4.52422e-05 1.92564e-05 -4.7951e-06 )  
( 5.49354e-05 1.9923e-05 9.79277e-06 )  
( 4.59575e-05 1.76883e-05 -4.67109e-07 )  
( 4.46655e-05 3.4856e-06 -1.90693e-05 )  
( 4.20617e-05 4.83307e-05 1.95918e-06 )  
( 4.68073e-05 1.90733e-05 1.75569e-06 )  
( 4.9865e-05 3.01315e-05 -2.10569e-05 )  
( -3.65925e-06 3.45322e-05 -3.79446e-05 )  
( 5.12717e-05 3.87862e-05 -9.54034e-06 )  
( 7.15291e-05 3.60701e-05 1.28466e-05 )  
( 3.46257e-05 2.91904e-05 -2.72365e-06 )  
( 4.73933e-05 9.74242e-06 6.52262e-07 )  
( 2.80088e-05 3.15831e-05 -5.46461e-06 )  
( 2.95218e-05 1.91869e-05 1.18862e-05 )  
( 3.98906e-05 2.08422e-06 -3.85261e-06 )  
( -0.000133174 0.000260133 -3.33854e-05 )  
( -8.44154e-05 -0.00015429 -7.81692e-05 )  
( 4.99131e-05 1.59874e-05 7.71108e-06 )  
( 4.31565e-05 1.44255e-05 6.72332e-06 )  
( 6.43489e-05 3.28324e-05 -1.20182e-05 )  
( 0.000167186 0.000332096 -4.12776e-05 )  
( 6.51917e-05 0.000276557 4.28659e-05 )  
( 4.00498e-05 2.11543e-05 -2.43935e-07 )  
( 3.66743e-05 7.49598e-05 -1.03279e-05 )  
( -5.17664e-05 0.00033333 -3.08686e-05 )  
( -9.03488e-05 3.69346e-05 -3.02006e-06 )  
( 4.99441e-05 2.39245e-05 1.37864e-06 )  
( 0.0010672 -0.000276343 -0.000392889 )  
( 2.83396e-05 3.26497e-05 -3.42971e-06 )  
)
