# vtk DataFile Version 4.0
Generated by LIGGGHTS
ASCII
DATASET POLYDATA
POINTS 855 float
-378.799 -381.293 49.9767 -460.51 -438.917 49.9807 -257.092 -470.313 49.9961 
-90.3834 -364.214 49.9765 -165.49 -430.201 49.9792 90.8702 -486.892 49.9563 
125.559 -362.036 49.9807 25.464 -411.298 49.9914 182.452 -445.698 49.9935 
221.812 -334.854 49.9604 284.307 -412.874 50.004 440.746 -454.784 49.9561 
377.691 -377.197 49.9556 476.405 -361.372 49.9906 -441.904 -303.731 49.9958 
-374.141 -230.222 49.9685 -311.048 -307.76 49.9707 -275.476 -214.121 49.9622 
-175.573 -210.151 49.9801 -174.478 -310.135 49.987 -87.1845 -261.424 49.9783 
-3.08799 -315.5 49.9653 1.70743 -215.628 49.9753 85.7897 -269.733 49.9867 
270.184 -195.735 49.9611 182.144 -243.098 49.9841 313.396 -286.858 49.981 
370.143 -193.672 49.958 476.327 -206.163 49.9911 413.336 -283.806 49.9957 
-441.156 -149.701 49.9719 -479.714 -53.3503 49.9933 -379.966 -45.1909 49.9782 
-339.32 -136.519 49.9877 -191.134 -10.847 49.9827 -185.633 -110.677 49.9838 
-280.525 -55.6378 49.9509 -82.3826 -161.557 49.9565 -97.8709 -62.7802 49.9898 
94.4181 -163.888 49.9911 140.12 -74.8918 49.9844 6.65486 -115.76 49.9785 
308.724 -3.45585 49.9785 240.099 -76.1658 49.9944 429.928 -9.44801 49.9892 
439.101 -111.735 49.9918 337.388 -99.225 49.9822 -449.818 148.968 49.9902 
-361.275 102.485 49.9787 -436.866 37.0081 49.9642 -265.492 143.599 49.979 
-276.948 44.2826 49.9783 -24.4824 5.11132 49.9864 -150.248 109.214 49.9604 
-29.4325 104.975 49.9905 75.4209 1.33839 49.9657 70.486 101.342 49.9807 
267.305 87.5273 49.9612 198.543 14.7799 49.9672 170.037 110.603 49.9704 
474.54 83.5405 49.9935 373.226 72.9256 49.9926 413.473 164.446 49.9733 
-365.083 202.386 49.9658 -425.269 282.232 49.9724 -181.857 204.053 49.9557 
-273.837 243.236 49.9914 -206.258 316.914 49.9969 -114.257 277.734 49.9921 
-12.3604 247.886 49.977 80.5085 210.833 49.9763 64.6009 313.62 49.9811 
244.876 291.02 49.9647 187.673 209.011 49.9864 285.057 185.935 49.9929 
489.984 228.809 49.9642 432.561 310.763 49.9907 342.163 268.032 49.9592 
-387.32 393.73 49.9767 -482.798 364.002 49.9674 -486.341 464.497 49.9857 
-386.573 493.728 49.9822 -303.934 338.574 49.9826 -197.959 446.729 49.9504 
-297.838 438.377 49.9886 -2.27965 476.389 49.9705 -26.403 379.359 49.9664 
-102.255 475.571 49.9801 -126.34 376.983 49.9806 75.1113 413.063 49.9928 
157.639 350.258 49.9913 259.568 490.277 49.9742 249.008 390.887 49.9495 
168.157 449.695 49.9844 359.308 482.987 49.9935 429.065 411.207 49.9979 
-413.486 -459.977 135.651 -454.665 -369.591 124.211 -380.741 -383.116 190.588 
-321.528 -424.083 119.856 -243.922 -375.692 79.5133 -223.257 -422.837 165.228 
-288.637 -347.406 174.967 -137.348 -380.353 136.747 -56.6391 -447.266 94.2573 
-142.528 -480.266 133.412 -50.5468 -475.329 190.021 16.6046 -375.188 142.811 
117.055 -426.957 125.578 30.9755 -477.409 132.144 182.7 -479.768 179.405 
210.346 -391.371 131.613 274.503 -467.641 139.418 301.412 -350.441 126.198 
370.621 -447.338 120.838 466.195 -427.797 142.785 399.675 -353.164 144.463 
-376.495 -307.287 125.55 -449.008 -226.651 116.089 -451.858 -298.333 196.658 
-193.977 -321.46 194.379 -324.728 -222.472 136.556 -242.274 -280.29 117.138 
-145.482 -259.704 131.429 -60.9006 -313.025 131.495 -57.1784 -212.808 132.031 
105.491 -329.053 142.204 120.417 -219.293 129.068 27.8492 -266.961 131.702 
31.721 -167.066 132.053 197.736 -290.926 136.477 286.026 -244.004 136.072 
206.109 -199.8 176.773 478.655 -295.097 124.842 399.992 -234.437 136.234 
485.405 -220.329 191.269 -392.812 -145.879 137.389 -430.066 -45.878 136.492 
-216.195 -165.843 196.047 -329.37 -68.6308 136.19 -260.295 -136.571 111.226 
-232.452 -44.0163 136.815 -313.929 -145.01 198.813 -142.736 -154.069 129.285 
-133.334 -55.506 143.202 -51.6652 -111.906 131.104 23.6445 -46.9872 120.531 
113.147 -109.6 139.792 100.044 -20.6192 183.446 184.285 -39.7367 132.53 
189.138 -152.01 90.5781 284.852 -144.045 134.245 284.031 -44.1595 137.911 
221.175 -103.7 199.92 494.825 -144.62 126.601 384.487 -135.839 130.213 
446.489 -57.6263 136.028 369.039 -64.8378 198.864 -351.645 26.2563 113.931 
-422.118 95.4044 129.753 -499.173 25.8388 127.336 -311.224 118.021 135.14 
-205.536 61.0679 117.929 -278.461 35.6194 181.418 -213.293 159.477 133.751 
-49.8145 1.8283 168.897 -110.836 28.8227 94.4333 -111.038 117.038 141.582 
-23.2831 112.287 189.251 23.3095 52.9399 123.654 132.674 47.341 117.78 
76.6356 110.726 185.411 24.6918 160.736 116.106 131.913 166.634 123.46 
175.355 96.9995 193.311 238.957 45.053 136.267 229.503 143.748 123.476 
322.972 100.718 131.94 369.89 6.17353 128.477 422.431 90.9551 135.145 
488.695 165.378 127.22 499.658 96.0876 198.456 -492.926 295.601 122.354 
-351.012 280.678 116.89 -416.201 195.038 135.55 -198.927 259.347 131.447 
-293.104 212.716 161.865 -274.026 310.291 173.406 -86.319 184.247 71.8131 
-49.3275 310.43 118.671 -46.1476 218.174 157.1 -134.82 326.87 167.842 
-139.906 201.118 187.367 135.146 271.625 107.565 38.8734 265.823 133.94 
226.706 242.912 135.665 315.939 199.284 147.199 311.405 298.908 139.942 
398.766 168.206 194.086 405.268 235.165 120.154 471.511 236.84 195.002 
406.414 331.74 145.962 -486.453 495.995 187.912 -428.425 351.579 174.412 
-428.008 441.412 127.845 -339.768 378.066 136.55 -335.151 477.919 134.256 
-235.304 482.476 135.489 -242.537 384.448 114.192 -151.857 420.24 136.432 
-52.2761 436.972 127.484 114.605 463.331 133.321 25.6076 374.539 135.193 
124.702 364.377 143.386 15.6648 450.376 199.587 221.742 342.714 133.177 
225.58 443.585 131.61 293.635 384.311 188.797 341.734 377.018 84.6257 
486.315 391.605 140.938 438.888 477.914 123.844 343.077 459.903 145.979 
-409.956 -446.785 262.109 -417.74 -348.185 276.672 -494.421 -384.599 223.871 
-331.66 -395.013 296.56 -321.452 -461.135 212.701 -238.553 -395.262 260.114 
-193.201 -462.178 318.955 -230.7 -497.717 233.362 -96.3753 -437.239 318.341 
-6.94792 -415.94 279.061 -65.3707 -377.993 207.35 -142.746 -363.535 269.214 
-140.021 -455.592 230.27 66.0003 -428.248 211.833 56.0149 -486.347 311.83 
153.705 -380.311 213.235 92.5548 -373.679 292.075 169.791 -456.838 275.873 
252.452 -427.131 228.118 299.233 -467.547 306.695 293.376 -365.49 295.382 
196.14 -342.193 295.327 493.612 -467.303 278.764 406.585 -469.25 211.527 
374.027 -378.429 237.719 495.429 -377.695 323.103 391.678 -367.487 335.51 
399.054 -464.285 311.1 -355.715 -290.924 223.077 -418.125 -205.71 213.373 
-459.428 -258.003 287.91 -366.819 -282.442 332.16 -338.445 -206.403 273.796 
-408.714 -192.148 343.495 -279.85 -309.587 290.961 -264.38 -252.241 210.529 
-178.624 -234.122 258.668 -189.082 -301.146 332.12 -252.875 -219.123 323.932 
-76.7167 -229.036 295.758 -14.4915 -240.647 218.357 -103.495 -286.209 218.202 
-95.2783 -172.65 215.302 -39.0482 -321.509 285.983 45.297 -320.736 221.618 
141.485 -273.686 217.309 128.556 -271.499 316.429 76.0398 -198.097 216.123 
89.1582 -172.034 311.74 30.7568 -253.037 306.821 252.895 -328.656 210.858 
178.398 -196.331 273.237 266.289 -236.893 248.215 225.765 -256.537 337.494 
330.269 -185.022 304.979 347.122 -289.473 200.839 352.628 -282.369 300.41 
341.557 -188.689 203.421 417.492 -211.898 264.144 443.621 -306.168 221.008 
450.645 -288.385 319.323 -366.186 -8.03757 206.691 -459.068 -109.412 208.049 
-374.48 -92.8934 258.901 -487.085 -161.904 288.413 -430.776 -94.6386 341.49 
-279.531 -54.6821 224.363 -245.682 -127.852 283.696 -313.198 -33.6064 316.1 
-210.238 -33.6178 293.304 -328.831 -131.319 339.128 -151.631 -153.845 311.806 
-71.6451 -95.0333 323.626 -11.9711 -155.695 271.016 -157.861 -93.262 232.487 
-58.9861 -80.0413 225.57 -14.1702 -14.3451 306.087 -104.677 -0.760382 265.751 
37.0251 -98.8274 204.963 129.671 -116.383 238.173 78.3286 -40.8751 278.923 
26.7278 -97.8823 342.838 170.277 -7.66013 325.65 206.848 -96.6932 298.614 
299.748 -100.243 261.653 269.998 -20.6288 314.329 192.192 -11.7133 228.18 
480.522 -62.5276 273.48 443.089 -131.111 211.087 372.037 -2.98589 277.341 
393.767 -107.794 294.887 -465.19 0.387229 217.871 -405.477 0.507272 298.217 
-480.895 65.8542 291.791 -405.774 81.4052 227.391 -480.527 161.304 321.564 
-382.419 116.549 318.024 -179.719 11.6667 200.924 -319.399 55.1505 270.518 
-259.487 135.15 219.026 -218.029 64.6608 276.567 -130.458 91.2017 236.182 
-42.2437 78.4103 281.438 -138.229 79.2265 335.152 26.7994 33.3793 224.867 
30.1335 165.128 255.233 119.082 48.4949 260.231 49.7313 90.4536 318.772 
126.566 147.157 274.647 269.49 124.356 213.051 289.394 10.6777 221.348 
214.244 70.5326 281.519 310.948 70.439 306.86 235.052 166.191 301.786 
437.001 15.4616 203.6 362.119 79.2878 221.401 437.414 120.296 272.847 
433.388 45.813 339.39 374.332 135.308 348.953 -353.986 166.934 226.637 
-395.594 262.672 206.204 -453.184 179.462 227.124 -471.437 267.432 271.185 
-400.019 321.724 315.326 -395.764 215.368 310.687 -268.852 175.299 310.133 
-222.62 241.131 226.838 -314.878 251.128 264.029 -216.334 320.139 287.764 
-174.146 170.551 278.451 -303.207 315.556 339.571 -174.993 247.364 342.441 
-69.4225 174.056 252.902 -88.5848 271.124 236.991 -90.4382 299.925 333.064 
-20.3954 229.828 319.854 -102.081 179.092 347.252 97.4995 219.87 200.757 
10.4734 259.758 229.6 93.1723 271.785 286.082 69.539 192.749 342.957 
166.561 292.923 200.067 192.695 192.972 215.286 274.506 249.907 223.211 
191.731 255.876 292.988 321.207 301.059 295.325 331.773 180.768 267.25 
372.792 263.326 210.66 442.664 218.806 289.012 418.578 312.267 315.13 
-492.85 357.526 325.427 -390.097 466.265 216.953 -369.081 415.644 300.566 
-468.597 410.721 244.303 -452.444 463.965 327.369 -345.314 344.254 234.721 
-303.509 496.955 301.667 -297.238 429.17 212.887 -209.641 381.156 208.543 
-176.762 442.435 292.546 -269.228 403.125 305.315 -49.9617 368.548 200.363 
-10.4239 338.763 287.236 -106.922 448.244 221.25 -128.068 359.473 262.119 
-35.9432 487.951 281.877 -72.9832 408.342 329.745 137.306 361.451 289.085 
51.8685 416.992 286.593 105.409 481.024 231.264 65.665 342.708 221.111 
[...]
POINT_DATA 855
FIELD FieldData 7
id 1 855 int
92 20 9 74 35 73 25 53 19 
61 37 101 79 26 29 119 22 31 
82 52 36 84 99 14 4 60 97 
41 80 102 72 27 34 15 110 17 
18 28 142 111 24 85 105 89 33 
39 43 58 91 81 8 69 11 1 
104 21 93 134 46 32 44 5 76 
87 56 23 86 45 129 30 57 100 
2 95 48 3 16 59 10 38 50 
12 63 70 42 7 71 66 62 51 
13 114 6 54 40 55 77 154 249 
106 155 173 157 67 96 127 230 228 
118 185 192 122 171 164 88 175 207 
140 159 279 120 183 161 116 141 112 
167 124 193 169 208 227 216 90 150 
214 133 170 211 68 103 221 240 78 
146 166 123 224 200 151 132 181 245 
272 108 47 158 163 98 109 75 138 
152 215 197 210 165 172 271 117 196 
248 115 107 191 178 113 130 223 156 
160 217 143 65 204 137 219 190 136 
121 176 168 187 145 202 139 194 182 
225 131 162 269 281 256 94 184 125 
147 213 128 220 144 64 149 285 212 
148 257 153 49 83 188 393 296 199 
379 195 273 381 270 376 334 254 290 
284 239 300 126 365 345 252 320 308 
317 303 246 286 347 439 357 267 251 
352 432 326 426 335 276 307 389 445 
323 189 277 292 306 233 205 339 186 
331 373 218 236 262 364 351 201 396 
174 238 255 318 244 259 293 366 424 
302 234 380 359 367 363 370 324 241 
342 392 304 283 301 329 374 340 297 
309 385 319 268 179 287 388 341 362 
265 258 298 402 229 282 177 235 253 
315 350 180 294 397 346 395 226 242 
289 338 368 209 206 260 356 358 266 
278 330 328 390 401 386 247 295 384 
310 353 399 332 321 403 414 448 135 
263 360 460 325 312 275 313 291 231 
250 237 427 354 264 311 314 428 232 
421 222 280 316 337 198 377 327 305 
387 349 383 322 203 243 344 261 336 
333 355 382 299 274 288 372 343 423 
453 469 549 534 440 411 456 458 418 
567 369 501 484 559 615 624 430 431 
509 472 600 514 400 450 481 557 574 
556 564 508 544 623 480 498 530 592 
520 553 512 405 478 523 604 570 443 
416 447 536 524 517 542 513 409 474 
516 415 455 429 420 601 595 596 371 
491 489 582 410 505 482 616 649 538 
408 394 464 528 496 470 522 551 519 
378 488 510 548 483 554 404 504 532 
562 476 413 471 537 575 507 452 436 
412 444 497 611 451 487 468 555 525 
361 419 462 540 526 493 454 398 527 
597 425 494 490 591 477 434 459 467 
588 547 664 495 475 546 566 437 485 
535 417 406 492 463 539 457 438 473 
521 603 531 348 511 422 502 499 461 
466 581 626 550 449 407 500 533 552 
563 433 435 391 518 479 503 442 561 
465 486 375 565 558 568 620 506 541 
441 446 572 731 678 690 630 699 515 
708 707 599 606 632 661 713 621 725 
629 631 722 730 645 701 740 663 666 
653 585 672 580 669 660 685 712 579 
573 668 641 696 676 694 684 560 605 
654 714 646 674 644 716 642 590 609 
681 687 602 583 634 706 733 643 622 
651 636 665 543 594 732 529 656 723 
586 625 652 689 627 569 617 686 613 
589 614 693 695 637 670 667 729 577 
704 739 593 683 648 735 610 737 724 
700 639 677 598 612 618 655 691 711 
571 619 675 671 608 692 705 635 545 
576 633 688 587 659 638 697 658 607 
647 734 679 673 682 762 584 628 703 
657 640 715 578 662 702 720 680 650 
736 717 757 709 781 718 721 738 773 
710 760 726 728 741 770 749 776 788 
796 744 698 727 719 785 751 758 764 
798 780 794 778 754 784 765 759 748 
795 775 742 755 752 763 747 745 768 
753 777 743 790 779 793 787 769 766 
746 767 797 756 783 772 792 786 802 
761 789 750 782 774 771 791 839 840 
812 801 851 832 814 846 854 807 819 
800 811 844 821 810 843 845 822 806 
833 837 799 852 817 815 824 827 829 
842 853 836 804 835 823 831 838 803 
826 813 808 834 841 828 855 850 809 
847 849 818 820 825 805 848 830 816 

type 1 855 int
1 1 1 1 1 1 1 1 1 
1 1 1 1 1 1 1 1 1 
1 1 1 1 1 1 1 1 1 
1 1 1 1 1 1 1 1 1 
1 1 1 1 1 1 1 1 1 
1 1 1 1 1 1 1 1 1 
1 1 1 1 1 1 1 1 1 
1 1 1 1 1 1 1 1 1 
1 1 1 1 1 1 1 1 1 
1 1 1 1 1 1 1 1 1 
1 1 1 1 1 1 1 1 1 
1 1 1 1 1 1 1 1 1 
1 1 1 1 1 1 1 1 1 
1 1 1 1 1 1 1 1 1 
1 1 1 1 1 1 1 1 1 
1 1 1 1 1 1 1 1 1 
1 1 1 1 1 1 1 1 1 
1 1 1 1 1 1 1 1 1 
1 1 1 1 1 1 1 1 1 
1 1 1 1 1 1 1 1 1 
1 1 1 1 1 1 1 1 1 
1 1 1 1 1 1 1 1 1 
1 1 1 1 1 1 1 1 1 
1 1 1 1 1 1 1 1 1 
1 1 1 1 1 1 1 1 1 
1 1 1 1 1 1 1 1 1 
1 1 1 1 1 1 1 1 1 
1 1 1 1 1 1 1 1 1 
1 1 1 1 1 1 1 1 1 
1 1 1 1 1 1 1 1 1 
1 1 1 1 1 1 1 1 1 
1 1 1 1 1 1 1 1 1 
1 1 1 1 1 1 1 1 1 
1 1 1 1 1 1 1 1 1 
1 1 1 1 1 1 1 1 1 
1 1 1 1 1 1 1 1 1 
1 1 1 1 1 1 1 1 1 
1 1 1 1 1 1 1 1 1 
1 1 1 1 1 1 1 1 1 
1 1 1 1 1 1 1 1 1 
1 1 1 1 1 1 1 1 1 
1 1 1 1 1 1 1 1 1 
1 1 1 1 1 1 1 1 1 
1 1 1 1 1 1 1 1 1 
1 1 1 1 1 1 1 1 1 
1 1 1 1 1 1 1 1 1 
1 1 1 1 1 1 1 1 1 
1 1 1 1 1 1 1 1 1 
1 1 1 1 1 1 1 1 1 
1 1 1 1 1 1 1 1 1 
1 1 1 1 1 1 1 1 1 
1 1 1 1 1 1 1 1 1 
1 1 1 1 1 1 1 1 1 
1 1 1 1 1 1 1 1 1 
1 1 1 1 1 1 1 1 1 
1 1 1 1 1 1 1 1 1 
1 1 1 1 1 1 1 1 1 
1 1 1 1 1 1 1 1 1 
1 1 1 1 1 1 1 1 1 
1 1 1 1 1 1 1 1 1 
1 1 1 1 1 1 1 1 1 
1 1 1 1 1 1 1 1 1 
1 1 1 1 1 1 1 1 1 
1 1 1 1 1 1 1 1 1 
1 1 1 1 1 1 1 1 1 
1 1 1 1 1 1 1 1 1 
1 1 1 1 1 1 1 1 1 
1 1 1 1 1 1 1 1 1 
1 1 1 1 1 1 1 1 1 
1 1 1 1 1 1 1 1 1 
1 1 1 1 1 1 1 1 1 
1 1 1 1 1 1 1 1 1 
1 1 1 1 1 1 1 1 1 
1 1 1 1 1 1 1 1 1 
1 1 1 1 1 1 1 1 1 
1 1 1 1 1 1 1 1 1 
1 1 1 1 1 1 1 1 1 
1 1 1 1 1 1 1 1 1 
1 1 1 1 1 1 1 1 1 
1 1 1 1 1 1 1 1 1 
1 1 1 1 1 1 1 1 1 
1 1 1 1 1 1 1 1 1 
1 1 1 1 1 1 1 1 1 
1 1 1 1 1 1 1 1 1 
1 1 1 1 1 1 1 1 1 
1 1 1 1 1 1 1 1 1 
1 1 1 1 1 1 1 1 1 
1 1 1 1 1 1 1 1 1 
1 1 1 1 1 1 1 1 1 
1 1 1 1 1 1 1 1 1 
1 1 1 1 1 1 1 1 1 
1 1 1 1 1 1 1 1 1 
1 1 1 1 1 1 1 1 1 
1 1 1 1 1 1 1 1 1 
1 1 1 1 1 1 1 1 1 

i 3 855 int
0 0 0 0 0 0 0 1 0 
0 0 0 0 0 0 0 1 0 
0 1 0 0 0 0 0 0 0 
0 0 0 0 0 0 0 1 0 
0 0 0 -1 0 0 1 0 0 
0 0 0 1 0 0 0 0 0 
0 0 0 0 0 0 0 0 0 
0 0 0 0 0 0 0 0 0 
0 0 0 0 0 0 0 0 0 
0 0 0 -1 0 0 0 0 0 
0 0 0 1 0 0 0 0 0 
0 0 0 0 0 0 0 0 0 
0 0 0 0 0 0 0 0 0 
0 0 0 0 0 0 0 0 0 
0 0 0 0 0 0 -1 0 0 
-1 0 0 0 0 0 0 0 0 
0 0 0 0 0 0 0 0 0 
0 0 0 0 0 0 0 0 0 
0 0 0 0 0 0 0 0 0 
0 0 0 0 0 0 0 0 0 
-1 0 0 0 0 0 0 0 0 
0 0 0 0 0 0 0 0 0 
0 0 0 0 0 0 0 0 0 
0 0 0 0 0 0 0 0 0 
0 0 0 0 0 0 0 0 0 
-1 0 0 -1 0 0 0 0 0 
0 0 0 1 0 0 0 0 0 
0 -1 0 0 0 0 0 0 0 
0 0 0 0 -1 0 0 0 0 
0 -1 0 0 0 0 0 0 0 
0 0 0 0 0 0 0 0 0 
0 0 0 0 -1 0 0 -1 0 
0 0 0 0 0 0 0 0 0 
0 1 0 0 0 0 0 0 0 
1 0 0 0 1 0 0 1 0 
0 0 0 0 1 0 0 0 0 
0 0 0 0 0 0 0 0 0 
0 0 0 0 0 0 0 0 0 
0 0 0 0 1 0 0 0 0 
0 0 0 0 0 0 0 0 0 
0 0 0 0 0 0 0 0 0 
0 0 0 0 0 0 0 0 0 
0 0 0 0 0 0 0 0 0 
0 0 0 0 0 0 0 0 0 
0 0 0 0 0 0 0 0 0 
-1 0 0 0 0 0 0 0 0 
0 0 0 0 0 0 0 0 0 
0 0 0 0 0 0 0 0 0 
0 0 0 0 0 0 0 0 0 
0 0 0 0 0 0 0 0 0 
0 0 0 0 0 0 0 0 0 
0 0 0 0 0 0 0 0 0 
0 0 0 0 0 0 0 0 0 
0 0 0 1 0 0 0 0 0 
0 0 0 0 0 0 0 0 0 
0 0 0 0 0 0 0 0 0 
0 0 0 0 0 0 0 0 0 
0 0 0 0 0 0 0 0 0 
0 0 0 0 0 0 0 0 0 
0 0 0 0 0 0 0 0 0 
-1 0 0 -1 0 0 1 0 0 
0 0 0 0 0 0 0 0 0 
0 0 0 0 0 0 0 0 0 
0 0 0 0 0 0 0 0 0 
0 0 0 0 0 0 0 0 0 
0 0 0 0 0 0 0 0 0 
0 0 0 0 0 0 -1 0 0 
0 0 0 0 0 0 0 0 0 
0 0 0 0 0 0 0 0 0 
0 0 0 0 0 0 0 -1 0 
0 0 0 0 0 0 0 0 0 
0 0 0 0 0 0 0 0 0 
0 0 0 0 0 0 0 0 0 
0 0 0 0 0 0 0 0 0 
0 0 0 0 0 0 1 0 0 
0 0 0 0 0 0 0 0 0 
0 0 0 0 1 0 0 0 0 
0 0 0 0 0 0 0 0 0 
0 1 0 0 0 0 0 1 0 
0 0 0 0 0 0 0 0 0 
0 0 0 0 0 0 0 0 0 
0 0 0 -1 0 0 0 0 0 
0 0 0 0 0 0 0 0 0 
0 0 0 0 0 0 0 0 0 
0 0 0 0 0 0 0 0 0 
1 0 0 0 0 0 0 0 0 
0 0 0 0 0 0 0 0 0 
0 0 0 0 0 0 0 0 0 
0 0 0 0 0 0 0 0 0 
0 0 0 0 0 0 0 0 0 
0 0 0 0 0 0 0 0 0 
0 0 0 0 0 0 0 0 0 
0 0 0 -1 0 0 0 0 0 
0 0 0 0 0 0 0 0 0 
-1 0 0 0 0 0 0 0 0 
0 0 0 0 0 0 0 0 0 
0 0 0 0 0 0 0 0 0 
0 0 0 0 0 0 0 0 0 
0 0 0 0 0 0 0 0 0 
0 0 0 0 0 0 0 0 0 
0 0 0 0 0 0 0 0 0 
0 0 0 0 0 0 0 0 0 
0 0 0 0 0 0 0 0 0 
0 0 0 -1 0 0 0 0 0 
0 0 0 0 0 0 0 0 0 
0 0 0 0 0 0 0 0 0 
0 0 0 0 0 0 0 0 0 
0 0 0 0 0 0 0 0 0 
0 0 0 0 0 0 0 0 0 
0 0 0 0 0 0 0 0 0 
0 0 0 0 0 0 0 0 0 
0 0 0 0 0 0 0 0 0 
-1 0 0 0 0 0 0 0 0 
0 0 0 0 0 0 0 0 0 
0 0 0 0 0 0 0 0 0 
0 0 0 0 0 0 0 0 0 
0 0 0 0 0 0 0 0 0 
0 0 0 0 0 0 0 0 0 
0 0 0 0 0 0 0 0 0 
0 0 0 0 0 0 0 0 0 
0 0 0 0 0 0 0 0 0 
0 0 0 0 0 0 0 0 0 
0 0 0 0 0 0 0 0 0 
-1 0 0 0 0 0 0 0 0 
0 0 0 0 0 0 0 0 0 
0 0 0 1 -1 0 0 0 0 
0 -1 0 0 0 0 0 0 0 
0 0 0 0 0 0 0 0 0 
0 0 0 0 0 0 0 0 0 
0 0 0 0 0 0 0 0 0 
0 0 0 0 -1 0 0 0 0 
0 0 0 0 0 0 0 0 0 
0 0 0 0 0 0 0 0 0 
-1 0 0 0 0 0 0 0 0 
0 0 0 -1 0 0 0 0 0 
0 1 0 0 0 0 1 0 0 
1 0 0 0 0 0 0 0 0 
0 0 0 0 0 0 0 0 0 
0 0 0 0 0 0 0 0 0 
0 0 0 0 1 0 0 0 0 
0 1 0 0 0 0 0 0 0 
0 0 0 0 0 0 0 0 0 
0 0 0 0 0 0 0 0 0 
0 0 0 0 0 0 0 1 0 
-1 1 0 -1 0 0 0 0 0 
0 0 0 0 0 0 1 0 0 
1 0 0 0 0 0 1 0 0 
0 0 0 0 0 0 0 0 0 
0 0 0 0 0 0 0 0 0 
0 0 0 0 0 0 0 0 0 
0 0 0 0 0 0 0 0 0 
0 0 0 0 0 0 0 0 0 
0 0 0 0 1 0 0 0 0 
0 0 0 0 0 0 0 0 0 
0 0 0 0 1 0 -1 0 0 
0 0 0 0 0 0 0 0 0 
0 0 0 0 0 0 0 0 0 
0 0 0 0 0 0 0 0 0 
0 0 0 0 0 0 0 0 0 
0 0 0 0 0 0 0 0 0 
0 0 0 0 0 0 0 0 0 
0 0 0 0 0 0 0 0 0 
0 0 0 0 0 0 0 0 0 
0 0 0 0 0 0 0 0 0 
0 0 0 0 0 0 -1 0 0 
0 0 0 0 0 0 1 0 0 
0 0 0 0 0 0 0 0 0 
0 0 0 0 0 0 0 0 0 
0 0 0 0 0 0 0 0 0 
0 0 0 0 0 0 0 0 0 
0 0 0 0 0 0 0 0 0 
0 0 0 0 0 0 0 0 0 
0 0 0 0 0 0 0 0 0 
0 0 0 0 0 0 0 0 0 
0 0 0 0 0 0 0 0 0 
0 0 0 0 0 0 0 0 0 
0 0 0 0 0 0 0 0 0 
0 0 0 0 0 0 0 0 0 
0 0 0 0 0 0 0 0 0 
0 0 0 0 0 0 0 0 0 
0 0 0 0 0 0 0 0 0 
0 0 0 0 0 0 0 0 0 
0 0 0 0 0 0 0 0 0 
0 0 0 0 0 0 0 0 0 
0 0 0 0 0 0 -1 0 0 
0 0 0 0 0 0 0 0 0 
0 0 0 0 0 0 0 0 0 
0 -1 0 0 0 0 0 0 0 
0 0 0 0 0 0 0 0 0 
0 0 0 0 0 0 0 0 0 
0 0 0 0 0 0 0 0 0 
0 0 0 0 0 0 0 0 0 
0 0 0 0 0 0 0 0 0 
0 0 0 0 0 0 0 -1 0 
0 0 0 0 0 0 0 0 0 
0 0 0 0 0 0 0 0 0 
0 0 0 0 1 0 0 0 0 
0 0 0 0 0 0 0 0 0 
0 0 0 0 0 0 0 0 0 
0 0 0 0 0 0 0 0 0 
0 0 0 0 1 0 0 0 0 
0 0 0 0 0 0 0 0 0 
0 0 0 0 0 0 0 0 0 
0 0 0 0 0 0 0 0 0 
0 0 0 0 0 0 0 0 0 
0 0 0 0 0 0 0 0 0 
0 0 0 0 0 0 0 0 0 
0 0 0 0 0 0 0 0 0 
0 0 0 0 0 0 0 0 0 
0 0 0 0 0 0 0 0 0 
0 0 0 0 0 0 0 0 0 
0 0 0 0 0 0 0 0 0 
0 0 0 0 0 0 0 0 0 
0 0 0 0 0 0 0 0 0 
0 0 0 0 0 0 0 0 0 
0 0 0 0 0 0 0 0 0 
0 0 0 0 0 0 0 0 0 
0 0 0 0 0 0 0 0 0 
0 0 0 0 0 0 0 0 0 
0 0 0 0 0 0 0 0 0 
0 0 0 0 0 0 0 0 0 
0 0 0 0 0 0 0 0 0 
0 0 0 0 0 0 0 0 0 
0 0 0 0 0 0 0 0 0 
0 0 0 0 0 0 0 0 0 
0 0 0 0 0 0 -1 0 0 
0 0 0 0 0 0 0 0 0 
0 0 0 0 0 0 0 0 0 
0 0 0 0 0 0 0 0 0 
0 0 0 0 0 0 0 0 0 
0 0 0 0 0 0 0 0 0 
0 0 0 0 0 0 0 0 0 
0 0 0 0 0 0 0 0 0 
0 0 0 0 0 0 0 0 0 
0 0 0 0 0 0 0 0 0 
0 -1 0 0 0 0 0 0 0 
0 0 0 0 0 0 0 -1 0 
0 0 0 0 0 0 0 0 0 
0 0 0 0 0 0 0 0 0 
0 -1 0 0 0 0 0 0 0 
0 0 0 0 0 0 0 0 0 
0 0 0 0 0 0 0 0 0 
0 0 0 0 -1 0 0 0 0 
0 0 0 0 1 0 0 0 0 
0 0 0 0 0 0 0 0 0 
0 0 0 0 0 0 0 0 0 
0 0 0 0 0 0 0 0 0 
0 0 0 0 0 0 0 0 0 
0 0 0 0 0 0 0 0 0 
0 0 0 0 0 0 0 0 0 
0 0 0 0 -1 0 0 0 0 
0 0 0 0 0 0 0 0 0 
0 0 0 0 0 0 0 0 0 
0 0 0 0 0 0 0 0 0 
0 0 0 0 0 0 0 0 0 
0 0 0 0 0 0 0 0 0 
0 0 0 0 0 0 0 0 0 
0 0 0 0 0 0 0 0 0 
0 0 0 0 0 0 0 0 0 
0 0 0 0 0 0 0 0 0 
0 0 0 0 0 0 0 0 0 
0 0 0 0 0 0 0 0 0 
0 0 0 0 0 0 0 0 0 
0 0 0 0 0 0 0 0 0 
0 0 0 0 0 0 0 0 0 
0 0 0 0 0 0 0 0 0 
0 0 0 0 0 0 0 0 0 
0 0 0 0 0 0 0 0 0 
0 0 0 0 0 0 0 0 0 
0 0 0 0 0 0 0 0 0 
0 0 0 0 0 0 0 0 0 
0 0 0 0 0 0 0 0 0 
0 0 0 0 0 0 0 0 0 
0 0 0 0 0 0 0 0 0 
0 0 0 0 0 0 0 0 0 
0 0 0 0 0 0 0 0 0 
0 0 0 0 0 0 0 0 0 
0 0 0 0 0 0 0 0 0 
0 0 0 0 0 0 0 0 0 
0 0 0 0 0 0 0 0 0 
0 0 0 0 0 0 0 0 0 
0 0 0 0 0 0 0 0 0 
0 0 0 0 0 0 0 0 0 
0 0 0 0 0 0 0 0 0 
0 0 0 0 0 0 0 0 0 

v 3 855 double
-2.69203e-06 -8.25694e-06 4.21153e-05 -1.19247e-05 -3.11669e-05 3.06249e-05 -2.37174e-05 -2.66749e-05 1.19987e-05 
-6.15102e-05 -3.68533e-05 2.67141e-05 1.42459e-05 -3.89444e-05 -1.97776e-05 -8.43212e-05 -0.000148117 -0.000103984 
-3.25106e-05 0.000289769 -0.000112767 -8.8601e-05 -0.000106713 -6.24409e-05 -0.000164345 -5.08198e-05 -1.49945e-15 
-8.39527e-05 -2.20642e-05 -1.20844e-05 -6.46507e-05 -3.0454e-06 2.24933e-05 3.17027e-05 2.11561e-05 1.34156e-05 
-1.73368e-05 -6.49392e-07 2.65201e-05 4.28846e-06 1.62653e-05 2.49918e-05 -8.01201e-06 -5.0501e-06 -2.64456e-05 
-1.39924e-05 -3.18179e-05 -4.59771e-05 -1.31868e-05 -6.67871e-06 5.12293e-06 -3.35073e-05 1.59121e-05 -8.90404e-06 
-2.61757e-05 -2.67469e-05 1.34643e-05 -3.70916e-05 -1.08391e-05 9.87277e-06 -5.26467e-05 -1.45339e-06 2.40829e-06 
-3.50481e-05 -5.08463e-05 2.49093e-05 -5.64288e-05 -4.63372e-05 8.87167e-06 -1.78725e-05 1.24739e-05 -3.61128e-05 
3.1059e-05 -6.91924e-05 -2.06365e-05 -1.72357e-05 -2.96889e-06 -2.86525e-05 2.66056e-05 -3.17758e-05 -3.13488e-05 
2.20585e-05 3.43319e-05 -3.11915e-05 7.2463e-05 -7.01554e-05 -1.55781e-05 3.88483e-05 6.67406e-06 1.1556e-05 
-3.9544e-05 5.66256e-05 -7.06819e-05 1.02773e-05 1.64101e-05 4.62054e-06 4.31078e-05 2.12723e-05 -1.89465e-05 
-6.93371e-06 -2.42169e-05 1.74878e-05 1.51778e-05 -7.65237e-05 2.90496e-05 1.32495e-05 -3.66982e-05 6.96178e-06 
-3.36555e-05 -4.39827e-05 -1.38616e-05 -7.72926e-05 -4.64877e-06 9.71732e-06 -2.64617e-05 6.81312e-06 8.87601e-06 
-0.000135406 3.32861e-05 -1.34187e-05 -1.07712e-05 -1.35066e-05 -9.08262e-05 -5.338e-05 -2.26081e-05 -9.25638e-05 
-1.35163e-05 4.30501e-05 -2.68687e-05 -7.81053e-06 4.07381e-05 -3.12791e-05 -0.000114439 2.96685e-05 -1.62627e-05 
-2.06134e-05 5.40016e-05 7.42768e-06 -3.5165e-05 2.37011e-05 -2.38384e-05 -4.50229e-05 1.76263e-05 -3.34681e-06 
3.47359e-05 2.72607e-05 -1.34689e-06 8.86142e-05 3.56011e-06 -2.73926e-05 -2.75009e-05 -3.11844e-05 4.88573e-06 
5.31979e-05 -5.04599e-05 -2.28672e-05 -1.91443e-06 -6.20886e-06 -2.08887e-06 -1.3652e-06 -6.24467e-05 1.61305e-05 
-3.24748e-05 -3.87082e-05 -9.15879e-06 8.87527e-06 -2.84551e-05 -3.14051e-05 -5.05434e-05 1.80489e-05 -1.58701e-05 
-2.75558e-05 7.34726e-05 -4.41795e-05 -1.98376e-05 4.81605e-05 -7.9086e-05 -4.8062e-05 2.1172e-05 -3.42324e-05 
8.33283e-05 7.7925e-05 -8.0532e-08 -5.9796e-06 -8.40743e-06 -1.64664e-05 -4.68392e-05 4.44341e-06 4.06494e-07 
-6.14752e-05 8.38923e-06 -2.61594e-05 9.42565e-05 5.10932e-05 -5.19662e-05 -4.10323e-05 -8.35009e-06 2.44954e-06 
-4.29402e-05 -1.23468e-05 -1.51847e-06 8.59009e-07 -6.48084e-05 -5.27147e-05 5.27101e-06 -6.07364e-05 -1.51755e-06 
-2.38868e-05 -3.68732e-05 3.95286e-05 -9.94352e-05 -8.38673e-05 0.000121461 -8.81897e-05 5.0228e-05 -1.58777e-05 
-2.56732e-05 3.64859e-05 -4.59566e-07 1.75594e-05 4.6326e-05 -8.29934e-06 -2.18918e-05 5.69301e-05 -1.37922e-05 
4.54814e-05 5.56633e-05 -6.01814e-05 9.72615e-05 -0.00021025 -5.15903e-05 -4.31858e-06 6.14402e-05 -3.33952e-05 
1.87118e-06 0.000100984 -8.98137e-05 1.22871e-05 -3.97446e-05 -2.41414e-05 5.23495e-05 1.31057e-05 3.30502e-05 
-5.6682e-05 0.000129915 1.93311e-05 -6.74568e-05 -2.00063e-05 -7.88788e-06 4.93915e-05 -5.05157e-05 7.62795e-06 
-8.96131e-05 -1.87986e-06 -1.21355e-05 9.82364e-05 -8.19819e-05 -1.13401e-05 0.000106802 -3.48908e-05 -7.51652e-05 
2.8215e-05 -0.00013267 -1.56137e-05 -9.34138e-06 -7.09693e-05 -4.47114e-05 -3.57908e-05 9.23217e-06 -2.03823e-05 
-1.64584e-05 -2.57814e-06 -6.05641e-06 -3.49686e-05 -2.12229e-05 -7.10347e-05 -4.35816e-05 9.97286e-06 -4.40249e-05 
-2.72915e-05 -2.5704e-05 -0.000100262 -0.00016977 5.6114e-05 -6.64412e-10 3.08467e-05 7.34107e-05 -0.000102757 
3.3184e-07 -4.49222e-06 0.000128391 -6.7852e-05 1.14441e-05 0.00015454 7.96972e-05 5.22017e-05 3.14343e-05 
2.39973e-05 -4.30084e-05 7.67485e-05 1.54647e-05 -4.02007e-05 4.50502e-05 -0.000193003 -7.4236e-05 6.57911e-05 
0.000177935 -0.000102785 7.21496e-05 -0.000114094 -1.56876e-05 0.000144594 3.4758e-05 -0.000109403 -6.90209e-05 
-8.68192e-06 -0.00015642 -9.2348e-05 -4.1252e-05 7.62553e-05 -0.000127132 -0.000122988 -1.43093e-05 -9.55289e-05 
-1.73937e-05 3.02749e-05 -0.000339559 9.7117e-06 0.000116683 -8.76522e-05 0.000139291 0.000214067 -0.00028246 
4.8694e-05 -1.26978e-05 7.06346e-06 7.71656e-06 -8.59716e-05 -0.000102868 -4.80794e-05 0.000109887 -2.59132e-05 
-2.76976e-05 -0.000132548 -9.48387e-05 -0.000108962 -2.71584e-05 0.000139049 -8.47277e-05 4.04912e-05 6.89625e-05 
-6.43475e-05 2.02248e-05 -2.25892e-05 0.000103046 8.50712e-05 1.38942e-06 -0.000170415 0.000128788 0.00024912 
-0.000284141 5.31652e-05 -3.25854e-06 -0.000123079 -3.92666e-06 -3.61234e-05 -0.000117044 -1.31517e-05 -1.87166e-06 
-0.000120199 2.08624e-06 4.75264e-05 -0.000187553 1.15615e-05 -1.87347e-05 -8.57675e-05 -5.32513e-05 3.06069e-05 
-9.51958e-05 -1.05781e-05 -0.000176913 -0.000153993 -7.74451e-05 -8.45141e-05 -0.000131982 -3.06248e-05 4.55754e-05 
-4.54115e-05 -8.74302e-05 -0.000162793 -6.00386e-05 3.76689e-06 -6.52969e-05 -0.000102332 -0.000103525 -1.40174e-05 
-0.000123506 5.71448e-05 -9.47053e-05 -4.02882e-05 7.16321e-05 0.000191116 -9.21885e-05 4.09993e-05 -3.30989e-05 
-9.47222e-05 -4.92558e-05 -0.000370723 -0.000102763 -2.15905e-06 -0.000139804 2.96173e-05 -0.000123115 -4.40317e-05 
-0.00011314 -4.50335e-05 0.00017642 -0.000117897 -1.64647e-05 -7.7909e-05 4.83225e-05 -5.87802e-05 5.92715e-05 
-8.21943e-05 8.83809e-06 -7.04301e-05 -0.00014084 -3.0394e-05 -0.000193024 1.02006e-06 -1.29234e-05 0.000253744 
-6.93515e-05 -2.57438e-07 -4.57121e-05 0.000236034 -0.000542552 -7.95709e-05 -0.000135212 8.04166e-06 -8.44082e-05 
-0.000113598 4.4275e-05 -0.000253044 -0.000259764 1.02899e-05 -0.000275502 -6.37085e-05 4.45871e-05 -0.000223977 
2.03933e-05 3.87332e-05 -3.31991e-05 3.84138e-06 -3.5909e-05 -0.000117345 -8.80301e-05 -3.99906e-05 -0.000180516 
-8.8689e-05 8.16475e-05 -0.000262602 -3.61293e-06 4.88078e-05 -0.000138266 -7.53891e-05 1.55407e-05 -3.85431e-05 
-9.82754e-05 4.96915e-06 -0.00010691 4.44676e-05 -1.59144e-05 4.46032e-05 7.64056e-05 3.42228e-05 -5.65345e-05 
7.13976e-05 6.68182e-05 -1.89536e-05 5.27729e-05 7.80671e-08 -0.000168434 -7.91372e-05 0.000196848 4.06993e-05 
-0.000104413 -8.81503e-05 -0.000102469 -0.000110689 0.000293088 -0.000194006 -9.98177e-05 -0.000170993 3.15556e-05 
-5.46594e-05 -9.64436e-05 -0.000132623 3.62553e-05 -1.20945e-05 -2.96445e-05 0.000149348 -0.000155682 1.51973e-05 
9.38127e-05 -0.000172976 7.55208e-05 5.31074e-05 -4.81321e-05 -5.11931e-05 -6.73245e-05 5.3321e-05 -7.27462e-05 
-2.83911e-05 5.02909e-06 -0.000153839 -1.33041e-05 -5.91909e-06 0.000152928 -0.000104516 -0.000253468 9.3945e-05 
-2.61807e-05 -1.38971e-05 -5.20566e-05 -0.000110888 -3.9438e-05 -0.000139594 -6.72117e-05 1.58501e-05 -4.80982e-05 
-8.16505e-05 4.6966e-05 -4.37269e-05 -7.85711e-05 3.16052e-05 3.61634e-05 -2.67139e-05 2.07056e-05 -5.36596e-05 
-4.2263e-05 6.72114e-05 -6.02226e-05 1.85655e-05 1.20873e-05 -0.00016431 0.000102201 1.12614e-06 -8.75772e-05 
0.000137856 -0.000134918 -0.000147307 -5.22284e-05 0.000106188 -4.62768e-05 0.000105729 -8.85225e-05 -1.45211e-05 
-5.09389e-05 -0.000114083 -1.57089e-08 1.45169e-05 2.50135e-05 -1.95242e-05 -3.65445e-05 -8.11714e-05 2.56998e-05 
0.000155761 2.70918e-05 9.20759e-06 -9.55966e-05 2.93605e-05 0.000116358 0.000150277 2.12851e-05 -7.71989e-05 
-0.000112722 -0.00014155 -0.00017225 6.34109e-06 0.000146233 -2.15758e-05 8.87358e-05 1.25126e-05 -1.01085e-05 
-1.65036e-05 7.53047e-06 -5.1993e-06 -0.000130587 7.36686e-05 -3.53783e-05 -0.000134708 3.76904e-05 -5.61732e-05 
-0.000191089 -2.88321e-05 -0.000246743 -7.34642e-05 4.60104e-05 -0.000113538 1.62831e-06 8.36087e-05 -0.0001822 
5.9169e-05 5.11117e-05 -0.000206982 8.94895e-05 3.61108e-05 0.00010998 -1.13466e-05 -0.000104311 0.000122209 
8.16323e-05 -5.02328e-05 -6.01029e-06 3.72451e-06 -0.000180823 -2.80113e-06 -5.23015e-05 -7.58551e-05 -5.48028e-06 
-7.00356e-05 -5.6879e-05 -7.21981e-06 -4.90933e-05 -2.64644e-05 -8.06783e-05 1.56066e-05 -0.000142575 -0.000226059 
1.69305e-05 5.93262e-05 -5.96906e-05 2.44331e-06 1.83432e-05 -0.000165911 9.44905e-05 0.000138199 -5.32864e-05 
5.65074e-05 0.000117668 0.000159899 -1.4492e-05 0.000218015 4.21099e-06 -2.32297e-05 1.74157e-05 6.7628e-05 
0.000153398 0.000234806 -0.000280008 6.14112e-06 -3.84794e-05 7.36421e-05 1.15822e-05 9.16795e-05 -0.000161222 
9.45769e-05 -3.5799e-05 -8.34902e-05 3.69096e-05 -5.26055e-05 -9.30743e-05 3.21498e-05 -0.000181038 -0.000125496 
-0.000397313 0.000146961 -9.07648e-06 -8.68714e-05 4.49467e-05 9.42179e-05 -0.000202897 0.000100713 0.000198715 
-0.000350461 0.000331306 -6.32867e-05 4.72485e-05 0.000245653 0.000228065 -0.000469457 0.000108186 2.08064e-05 
-0.000607114 0.000161979 -0.000222785 -0.000407587 0.000247799 -0.000160082 -0.000350972 -0.000199901 -0.00050583 
-0.00027283 -4.30755e-06 -0.000446215 -0.000363659 2.11306e-05 -0.000145559 -0.000164554 1.75061e-05 -0.000203131 
-0.000457437 -0.000159227 -0.000137117 -8.0167e-05 0.000313842 -0.000216045 3.25879e-05 0.000315173 -0.000428393 
-0.00010786 0.000340199 -0.000133117 -0.00046216 -0.000562298 -0.000272455 5.41922e-06 7.73824e-05 -0.00021539 
0.000236645 9.09622e-05 -5.84742e-05 3.53644e-05 -0.000223514 -0.000155059 -0.000138667 0.000542758 -0.000162191 