# vtk DataFile Version 4.0
Generated by LIGGGHTS
ASCII
DATASET POLYDATA
POINTS 741 float
-377.09 -382.886 49.9706 -460.114 -438.6 49.9857 -257.286 -470.393 49.9873 
-90.5744 -364.212 49.9808 -165.66 -430.223 49.9775 91.3232 -486.59 49.9677 
124.71 -362.75 49.9792 25.3387 -411.494 49.9803 184.023 -444.673 49.9935 
221.164 -335.614 49.9823 284.53 -412.946 49.9999 441.204 -454.727 49.9717 
377.937 -377.3 49.9937 476.621 -361.2 49.9824 -440.368 -305.453 49.9853 
-374.211 -230.5 49.9563 -310.942 -307.892 49.9757 -275.542 -214.349 49.9647 
-174.786 -310.332 50.0008 -175.128 -210.354 49.9883 -87.4865 -261.576 49.9772 
-3.18541 -315.673 49.9813 1.53453 -215.801 49.9788 85.6678 -269.835 49.9906 
269.993 -195.854 49.9638 182.138 -243.587 49.9806 313.432 -287.538 49.9786 
369.952 -193.742 49.9807 413.346 -283.802 49.9884 477.003 -206.712 49.9879 
-439.739 -151.371 49.9727 -480.659 -52.8384 49.9947 -380.565 -45.6858 49.9679 
-339.387 -136.796 50.0001 -191.502 -11.1421 49.9682 -185.742 -110.951 49.9722 
-281.072 -55.5947 49.9482 -82.5408 -161.709 49.9594 -98.0285 -62.9192 49.9856 
94.5108 -163.475 49.994 140.01 -74.4037 49.965 6.4645 -115.831 49.9843 
308.609 -3.46413 49.9714 239.978 -76.1515 50.0051 428.972 -9.73111 49.982 
439.243 -112.738 49.9592 337.331 -99.2287 49.99 -449.485 147.86 49.9931 
-360.553 102.134 49.9844 -436.754 37.021 49.9782 -264.229 143.51 49.9809 
-276.419 44.2782 49.9891 -25.1443 5.52396 49.956 -149.986 109.158 49.9381 
-29.6058 105.443 49.9866 74.744 1.37348 49.9638 70.3104 101.244 49.9458 
267.068 87.4638 49.9673 198.307 14.7466 49.9689 169.83 110.609 49.9511 
474.38 82.94 49.9885 372.914 73.0958 49.9698 413.414 164.517 49.9686 
-365.394 201.996 49.9885 -425.106 282.191 49.9688 -206.498 316.578 49.9895 
-182.209 203.797 49.9546 -114.48 277.416 49.9788 -12.5843 247.318 49.9932 
80.6059 211.004 49.9431 64.1311 315.065 50.0041 245.091 290.806 49.9821 
187.518 209.008 49.9706 284.923 185.927 49.9935 490.753 228.042 49.9765 
433.071 309.944 49.9987 342.393 267.809 49.9865 -387.309 393.8 49.9737 
-482.727 363.873 49.9808 -487.647 465.281 49.9921 -386.494 493.774 49.9797 
-304.106 338.377 49.98 -198.058 446.546 49.9547 -297.699 438.156 49.9999 
-2.30626 477.939 49.9749 -26.6819 380.971 49.9805 -126.569 376.658 49.9843 
-102.277 475.198 49.98 74.9725 414.487 49.9941 157.7 350.323 49.99 
260.011 490.126 49.958 249.153 390.737 49.9624 168.505 449.836 49.9992 
359.75 482.93 49.9934 428.785 410.394 49.9809 -413.313 -460.163 135.681 
-454.475 -369.389 125.538 -380.715 -383.852 191.483 -320.915 -424.631 121.347 
-244.078 -375.908 79.9028 -223.256 -423.35 165.419 -289.206 -346.828 175.536 
-137.747 -380.22 136.675 -56.9022 -447.394 94.0706 -142.819 -480.041 133.591 
-50.7992 -476.685 189.475 16.0109 -375.807 142.91 117.324 -427.192 126.059 
31.8807 -478.664 133.291 183.348 -479.769 179.636 210.565 -391.608 132.118 
274.946 -467.743 139.378 301.695 -350.841 126.481 371.107 -447.461 120.904 
466.807 -428.486 142.979 399.992 -354.113 144.734 -375.636 -307.912 126.214 
-448.833 -227.19 116.363 -453.017 -298.265 197.77 -194.353 -321.649 194.668 
-324.882 -222.392 136.545 -242.406 -280.339 117.352 -216.438 -167.472 195.777 
-145.643 -259.742 131.766 -61.4598 -313.68 131.238 -57.2 -213.104 132.023 
104.773 -329.313 142.104 120.147 -219.164 128.998 27.2166 -267.065 131.887 
31.6156 -167.181 132.006 197.151 -291.501 136.456 285.464 -244.648 135.849 
205.993 -199.429 176.328 478.391 -295.229 125.085 399.668 -234.612 136.281 
485.876 -219.36 191.632 -393.125 -146.894 138.291 -430.502 -46.7659 136.554 
-329.877 -69.5082 136.067 -260.299 -136.886 111.311 -233.018 -44.1521 136.853 
-313.881 -145.318 199.269 -142.724 -154.762 129.468 -133.862 -56.1109 143.083 
-51.9036 -112.184 131.214 23.2418 -47.0904 120.626 113.039 -109.667 139.544 
100.512 -20.7953 183.525 184.592 -39.9471 132.545 188.65 -152.142 89.8255 
284.94 -144.688 134.519 284.571 -44.7782 137.78 495.742 -144.542 126.045 
384.441 -135.969 130.272 446.713 -57.9534 135.749 368.404 -64.5344 198.339 
-351.248 25.6056 113.636 -421.546 94.7874 130.147 -498.943 25.5478 127.419 
-310.138 117.574 134.949 -204.762 60.7521 118.159 -278.011 34.843 181.067 
-212.515 159.14 134.099 -50.1572 2.56123 169.397 -111.5 28.5662 94.8699 
-112.266 116.643 142.168 -23.8079 112.525 188.501 23.1535 52.8459 123.553 
132.277 47.3043 117.602 77.1 111.562 183.967 23.7622 161.112 115.25 
175.763 95.8817 193.392 239.539 44.4799 136.062 230.121 143.319 124.2 
322.692 100.318 132.026 369.481 7.22016 128.557 422.27 91.8929 134.854 
489.917 165.158 127.691 498.499 94.8534 199.446 -492.774 294.909 122.457 
-350.555 279.972 116.527 -414.86 194.336 136.551 -274.192 242.988 50.0051 
-198.758 259.164 131.522 -292.547 212.29 161.761 -273.972 310.039 173.391 
-86.8999 184.116 72.9166 -49.2396 311.102 117.85 -46.0615 219.237 157.204 
-134.708 327.035 167.355 -139.535 201.326 187.807 133.18 167.824 123.254 
135.21 271.755 107.6 38.8426 266.504 133.704 226.686 242.575 135.607 
315.174 198.372 150.077 310.556 297.75 139.926 398.664 167.655 195.686 
403.98 234.064 121.15 471.136 236.546 195.161 406.161 330.786 146.38 
-486.241 495.921 188.562 -428.575 351.648 174.944 -428.959 441.427 127.362 
-339.812 377.368 136.808 -335.16 477.215 134.145 -235.309 481.946 135.7 
-242.682 384.265 114.149 -152.058 420.444 136.217 -51.3066 439.254 128.124 
114.984 463.579 133.332 25.367 375.47 135.161 124.407 364.552 143.204 
221.308 342.353 132.881 225.968 443.585 131.626 293.718 383.871 187.88 
341.603 376.382 85.1597 485.932 390.81 141.016 439.236 477.433 123.419 
343.454 459.756 145.906 -407.658 -448.071 264.428 -418.447 -349.558 277.53 
-495.72 -384.592 224.611 -332.865 -394.32 303.401 -321.977 -461.664 214.18 
-242.81 -397.753 260.079 -194.158 -462.432 318.876 -231.489 -499.414 233.837 
-97.1343 -438.341 318.926 -8.13618 -418.296 278.067 -66.061 -379.361 206.469 
-143.53 -365.25 268.902 -140.619 -457.742 231.025 66.3335 -427.623 212.045 
56.0955 -486.847 312.299 153.986 -379.581 213.658 92.1664 -373.444 292.017 
170.316 -456.113 276.124 253.758 -428.128 228.687 301.098 -464.837 308.735 
294.723 -365.83 296.08 197.417 -342.837 295.862 495.601 -467.886 279.991 
406.481 -468.259 212.08 376.749 -376.989 240.004 495.306 -378.088 323.971 
393.184 -368.029 338.271 400.999 -464.421 312.09 -356.838 -291.571 224.247 
-417.731 -206.28 214.861 -458.606 -258.796 289.468 -367.15 -282.943 331.654 
-338.155 -205.439 275.389 -279.689 -310.317 291.65 -265.481 -253.268 210.804 
-179.13 -235.928 258.378 -188.694 -302.471 332.4 -252.306 -219.807 324.587 
-77.7331 -229.756 295.69 -15.0148 -240.678 218.579 -103.421 -287.349 218.097 
-94.733 -172.518 215.376 -36.4548 -322.525 283.5 44.5512 -320.936 221.482 
140.943 -274.27 217.347 129.367 -272.626 316.688 75.6569 -198.489 216.14 
90.0681 -171.964 311.528 31.8964 -253.1 306 252.072 -329.805 210.706 
178.592 -197.59 272.648 266.468 -237.825 247.127 227.091 -256.715 337.067 
329.951 -185.227 303.699 346.745 -290.258 200.338 353.263 -282.474 299.805 
341.998 -188.697 203.837 417.874 -212.23 264.541 443.574 -305.264 220.365 
450.976 -288.486 320.106 -365.8 -8.39247 206.526 -458.28 -110.759 208.152 
-374.194 -92.8724 259.343 -474.91 -160.247 293.401 -464.89 -0.6526 218.333 
-424.942 -90.8773 345.471 -279.266 -55.0563 224.826 -244.853 -128.566 283.384 
-312.154 -31.6942 316.321 -207.744 -33.4922 291.292 -327.479 -129.022 340.022 
-148.171 -156.609 310.817 -70.3528 -94.4087 323.717 -11.3768 -155.682 271.104 
-156.849 -95.7895 231.926 -58.3635 -79.7585 225.561 -13.3187 -14.7164 303.821 
-104.851 -1.01675 266.002 37.5493 -98.9445 204.891 130.131 -117.45 237.743 
79.7302 -41.6935 279.138 27.9328 -98.4934 343.091 170.118 -8.33216 325.815 
221.72 -103.59 200.15 206.763 -97.4796 298.841 299.874 -99.2316 262.363 
268.997 -20.0503 315.131 192.056 -12.3806 228.355 480.443 -62.9108 274.313 
443.757 -130.679 210.599 372.401 -3.77079 277.621 394.022 -109.001 294.597 
-404.593 2.14292 298.054 -481.501 65.8204 293 -406.838 80.1742 228.072 
-478.646 161.288 322.57 -381.792 118.128 317.123 -355.001 165.573 224.304 
-180.103 10.9887 201.298 -319.014 56.4693 269.648 -259.367 136.791 219.56 
-219.541 64.645 276.166 -131.477 90.8374 236.811 -42.4332 77.9936 280.399 
-139.773 77.2944 335.68 27.4443 34.0955 223.98 30.4598 162.734 256.097 
119.421 48.2071 260.792 49.2075 87.971 319.789 127.698 147.061 273.4 
269.865 122.834 213.904 289.349 9.61144 221.524 215.136 69.1944 281.339 
311.743 70.0172 307.141 238.579 164.057 302.501 437.378 14.685 203.798 
362.126 78.1607 221.184 435.941 119.18 274.777 432.133 44.7774 341.472 
-393.575 263.229 205.8 -454.102 178.397 227.166 -470.126 267.309 270 
-401.657 322.889 317.108 -396.051 217.115 314.637 -268.495 172.535 312.588 
-222.474 241.171 226.947 -314.656 247.446 265.111 -217.844 320.917 287.122 
-174.338 170.751 279.028 -304.078 315.554 337.55 -175.065 248.871 341.564 
-68.7938 174.492 253.148 -87.0953 271.706 235.699 -89.1109 299.365 332.084 
-18.6802 229.236 320.556 -102.012 180.924 347.257 99.5972 217.898 202.984 
11.6249 257.254 229.51 92.2141 271.647 286.977 71.1678 191.508 342.951 
167.452 291.281 200.223 196.612 191.059 215.846 273.941 254.032 223.013 
192.386 256.702 291.172 320.303 302.477 297.179 329.844 183.413 266.5 
372.906 262.903 211.831 445.446 217.572 289.902 418.464 310.69 314.397 
471.987 332.944 221.654 -494.584 359.025 324.52 -390.793 465.863 216.466 
-369.582 416.138 300.592 -470.656 411.96 243.117 -454.503 460.64 328.954 
-342.123 342.218 239.118 -303.544 498.193 303.845 -298.258 428.22 213.092 
-209.699 382.085 208.484 -177.717 440.625 293.093 -270 404.064 305.891 
-50.2612 369.237 200.257 -9.50077 339.813 286.681 -108.028 447.957 221.731 
-128.561 358.778 262.012 -34.6144 485.282 280.518 -73.7642 407.643 329.887 
139.117 359.953 288.576 15.8643 449.729 201.451 55.9008 415.505 286.451 
105.61 482.398 231.07 65.2681 341.111 220.309 139.02 458.104 322.131 
176.942 414.48 213.773 260.969 472.457 220.72 234.819 340.035 255.753 
[...]
POINT_DATA 741
FIELD FieldData 7
id 1 741 int
92 20 9 74 35 73 25 53 19 
61 37 101 79 26 29 119 22 31 
52 82 36 84 99 14 4 60 97 
41 102 80 72 27 34 15 110 17 
18 28 142 111 24 85 105 89 33 
39 43 58 91 81 8 69 11 1 
104 21 93 134 46 32 44 5 76 
87 56 45 23 129 30 57 100 2 
95 48 3 16 59 10 38 50 12 
63 70 42 7 71 62 66 51 13 
114 6 54 40 55 77 154 249 106 
155 173 157 67 96 127 230 228 118 
185 192 122 171 164 88 175 207 140 
159 279 120 183 161 211 116 141 112 
167 124 193 169 208 227 216 90 150 
214 133 170 68 103 221 240 78 146 
166 123 224 200 151 132 181 245 108 
47 158 163 98 109 75 138 152 215 
197 210 165 172 271 117 196 248 115 
191 178 113 130 223 156 160 217 143 
65 204 86 137 219 190 136 121 176 
168 187 107 145 202 139 194 182 225 
131 162 269 281 256 94 184 125 147 
213 128 220 144 64 149 212 148 257 
153 49 83 188 393 296 199 379 195 
273 381 270 376 334 254 290 284 239 
300 126 365 345 252 320 308 317 303 
246 286 347 439 357 267 251 352 432 
326 335 276 307 389 445 323 189 277 
292 306 233 205 339 186 331 373 218 
236 262 364 351 201 396 174 238 255 
318 244 259 293 366 341 424 302 234 
380 359 367 363 370 324 241 342 392 
304 283 301 329 374 340 272 297 309 
385 319 268 179 287 388 362 265 258 
298 402 266 229 282 177 235 253 315 
350 180 294 397 346 395 226 242 289 
338 368 209 206 260 356 278 330 328 
390 401 386 247 295 384 310 353 399 
332 321 403 414 448 135 263 360 460 
325 312 275 313 291 231 250 237 427 
299 354 264 311 314 428 232 421 222 
280 316 337 198 377 327 305 387 349 
383 285 322 203 243 344 261 336 333 
355 382 274 288 372 343 423 453 469 
549 534 440 411 456 458 418 567 369 
501 484 559 615 430 431 509 472 514 
400 450 481 557 556 564 508 544 426 
480 498 530 553 520 512 405 478 523 
570 443 416 447 536 524 517 542 513 
409 415 474 516 455 429 420 601 595 
371 491 489 582 562 476 410 505 482 
538 408 394 464 528 496 470 522 551 
378 488 510 548 519 483 554 404 504 
532 413 471 537 507 452 436 412 444 
497 611 451 487 468 555 525 361 419 
462 540 526 493 454 398 527 597 358 
425 494 490 591 477 434 459 467 588 
547 495 475 546 437 563 485 417 406 
492 535 463 457 438 473 521 348 531 
511 422 502 499 466 461 581 626 449 
407 500 533 433 435 391 552 518 479 
503 442 561 574 486 375 465 565 441 
446 506 541 592 587 572 607 515 599 
606 600 584 623 631 645 604 585 642 
579 573 596 717 605 560 529 683 649 
616 590 609 627 580 602 583 622 543 
594 575 656 586 569 617 625 613 589 
614 667 593 577 659 610 566 598 612 
571 539 619 603 608 545 576 550 647 
624 618 679 568 621 578 558 620 681 
643 677 638 662 663 653 664 651 650 
630 674 669 660 644 634 676 646 675 
678 682 668 641 658 628 632 661 636 
639 640 633 680 629 672 654 665 670 
637 671 635 673 666 652 684 648 723 
688 655 657 731 719 685 694 687 716 
706 686 729 735 737 715 734 736 713 
725 722 690 701 740 733 741 732 689 
695 693 711 692 704 698 703 720 702 
699 707 730 709 708 712 696 721 738 
718 710 726 714 728 739 700 724 727 
691 705 697 
type 1 741 int
1 1 1 1 1 1 1 1 1 
1 1 1 1 1 1 1 1 1 
1 1 1 1 1 1 1 1 1 
1 1 1 1 1 1 1 1 1 
1 1 1 1 1 1 1 1 1 
1 1 1 1 1 1 1 1 1 
1 1 1 1 1 1 1 1 1 
1 1 1 1 1 1 1 1 1 
1 1 1 1 1 1 1 1 1 
1 1 1 1 1 1 1 1 1 
1 1 1 1 1 1 1 1 1 
1 1 1 1 1 1 1 1 1 
1 1 1 1 1 1 1 1 1 
1 1 1 1 1 1 1 1 1 
1 1 1 1 1 1 1 1 1 
1 1 1 1 1 1 1 1 1 
1 1 1 1 1 1 1 1 1 
1 1 1 1 1 1 1 1 1 
1 1 1 1 1 1 1 1 1 
1 1 1 1 1 1 1 1 1 
1 1 1 1 1 1 1 1 1 
1 1 1 1 1 1 1 1 1 
1 1 1 1 1 1 1 1 1 
1 1 1 1 1 1 1 1 1 
1 1 1 1 1 1 1 1 1 
1 1 1 1 1 1 1 1 1 
1 1 1 1 1 1 1 1 1 
1 1 1 1 1 1 1 1 1 
1 1 1 1 1 1 1 1 1 
1 1 1 1 1 1 1 1 1 
1 1 1 1 1 1 1 1 1 
1 1 1 1 1 1 1 1 1 
1 1 1 1 1 1 1 1 1 
1 1 1 1 1 1 1 1 1 
1 1 1 1 1 1 1 1 1 
1 1 1 1 1 1 1 1 1 
1 1 1 1 1 1 1 1 1 
1 1 1 1 1 1 1 1 1 
1 1 1 1 1 1 1 1 1 
1 1 1 1 1 1 1 1 1 
1 1 1 1 1 1 1 1 1 
1 1 1 1 1 1 1 1 1 
1 1 1 1 1 1 1 1 1 
1 1 1 1 1 1 1 1 1 
1 1 1 1 1 1 1 1 1 
1 1 1 1 1 1 1 1 1 
1 1 1 1 1 1 1 1 1 
1 1 1 1 1 1 1 1 1 
1 1 1 1 1 1 1 1 1 
1 1 1 1 1 1 1 1 1 
1 1 1 1 1 1 1 1 1 
1 1 1 1 1 1 1 1 1 
1 1 1 1 1 1 1 1 1 
1 1 1 1 1 1 1 1 1 
1 1 1 1 1 1 1 1 1 
1 1 1 1 1 1 1 1 1 
1 1 1 1 1 1 1 1 1 
1 1 1 1 1 1 1 1 1 
1 1 1 1 1 1 1 1 1 
1 1 1 1 1 1 1 1 1 
1 1 1 1 1 1 1 1 1 
1 1 1 1 1 1 1 1 1 
1 1 1 1 1 1 1 1 1 
1 1 1 1 1 1 1 1 1 
1 1 1 1 1 1 1 1 1 
1 1 1 1 1 1 1 1 1 
1 1 1 1 1 1 1 1 1 
1 1 1 1 1 1 1 1 1 
1 1 1 1 1 1 1 1 1 
1 1 1 1 1 1 1 1 1 
1 1 1 1 1 1 1 1 1 
1 1 1 1 1 1 1 1 1 
1 1 1 1 1 1 1 1 1 
1 1 1 1 1 1 1 1 1 
1 1 1 1 1 1 1 1 1 
1 1 1 1 1 1 1 1 1 
1 1 1 1 1 1 1 1 1 
1 1 1 1 1 1 1 1 1 
1 1 1 1 1 1 1 1 1 
1 1 1 1 1 1 1 1 1 
1 1 1 1 1 1 1 1 1 
1 1 1 1 1 1 1 1 1 
1 1 1 
i 3 741 int
0 0 0 0 0 0 0 1 0 
0 0 0 0 0 0 0 1 0 
0 1 0 0 0 0 0 0 0 
0 0 0 0 0 0 0 1 0 
0 0 0 -1 0 0 1 0 0 
0 0 0 1 0 0 0 0 0 
0 0 0 0 0 0 0 0 0 
0 0 0 0 0 0 0 0 0 
0 0 0 0 0 0 0 0 0 
0 0 0 0 0 0 -1 0 0 
0 0 0 1 0 0 0 0 0 
0 0 0 0 0 0 0 0 0 
0 0 0 0 0 0 0 0 0 
0 0 0 0 0 0 0 0 0 
0 0 0 0 0 0 -1 0 0 
-1 0 0 0 0 0 0 0 0 
0 0 0 0 0 0 0 0 0 
0 0 0 0 0 0 0 0 0 
0 0 0 0 0 0 0 0 0 
0 0 0 0 0 0 0 0 0 
-1 0 0 0 0 0 0 0 0 
0 0 0 0 0 0 0 0 0 
0 0 0 0 0 0 0 0 0 
0 0 0 0 0 0 0 0 0 
0 0 0 0 0 0 -1 0 0 
-1 0 0 0 0 0 0 0 0 
1 0 0 0 0 0 0 -1 0 
0 0 0 0 0 0 0 0 0 
0 -1 0 0 0 0 0 0 0 
0 -1 0 0 0 0 0 0 0 
0 0 0 0 0 0 0 0 0 
0 -1 0 0 -1 0 0 0 0 
0 0 0 0 0 0 0 1 0 
0 0 0 0 0 0 1 0 0 
0 1 0 0 1 0 0 0 0 
0 1 0 0 0 0 0 0 0 
0 0 0 0 0 0 0 0 0 
0 0 0 0 0 0 0 0 0 
0 1 0 0 0 0 0 0 0 
0 0 0 0 0 0 0 0 0 
0 0 0 0 0 0 0 0 0 
0 0 0 0 0 0 0 0 0 
0 0 0 0 0 0 0 0 0 
0 0 0 0 0 0 0 0 0 
0 0 0 0 0 0 0 0 0 
-1 0 0 0 0 0 0 0 0 
0 0 0 0 0 0 0 0 0 
0 0 0 0 0 0 0 0 0 
0 0 0 0 0 0 0 0 0 
0 0 0 0 0 0 0 0 0 
0 0 0 0 0 0 0 0 0 
0 0 0 0 0 0 0 0 0 
0 0 0 0 0 0 1 0 0 
0 0 0 0 0 0 0 0 0 
0 0 0 0 0 0 0 0 0 
0 0 0 0 0 0 0 0 0 
0 0 0 0 0 0 0 0 0 
0 0 0 0 0 0 0 0 0 
0 0 0 0 0 0 0 0 0 
-1 0 0 -1 0 0 1 0 0 
0 0 0 0 0 0 0 0 0 
0 0 0 0 0 0 0 0 0 
0 0 0 0 0 0 0 0 0 
0 0 0 0 0 0 0 0 0 
0 0 0 0 0 0 0 0 0 
0 0 0 0 0 0 0 0 0 
0 0 0 -1 0 0 0 0 0 
0 0 0 0 0 0 0 0 0 
0 0 0 0 0 0 0 0 0 
0 0 0 0 -1 0 0 0 0 
0 0 0 0 0 0 0 0 0 
0 0 0 0 0 0 0 0 0 
0 0 0 0 0 0 0 0 0 
0 0 0 0 0 0 0 0 0 
1 0 0 0 0 0 0 0 0 
0 0 0 0 0 0 0 1 0 
0 0 0 0 0 0 0 0 0 
0 0 0 0 1 0 0 0 0 
0 1 0 0 0 0 0 0 0 
0 0 0 0 0 0 0 0 0 
0 0 0 0 0 0 -1 0 0 
0 0 0 0 0 0 0 0 0 
0 0 0 0 0 0 0 0 0 
0 0 0 0 0 0 0 0 0 
0 0 0 0 0 0 0 0 0 
0 0 0 0 0 0 0 0 0 
0 0 0 0 0 0 0 0 0 
0 0 0 0 0 0 0 0 0 
0 0 0 0 0 0 0 0 0 
0 0 0 0 0 0 0 0 0 
0 0 0 0 0 0 0 0 0 
0 0 0 -1 0 0 0 0 0 
0 0 0 0 0 0 0 0 0 
-1 0 0 0 0 0 0 0 0 
0 0 0 0 0 0 0 0 0 
0 0 0 0 0 0 0 0 0 
0 0 0 0 0 0 0 0 0 
0 0 0 0 0 0 0 0 0 
0 0 0 0 0 0 0 0 0 
0 0 0 0 0 0 0 0 0 
0 0 0 0 0 0 0 0 0 
0 0 0 0 0 0 0 0 0 
0 0 0 0 0 0 0 0 0 
-1 0 0 0 0 0 0 0 0 
0 0 0 0 0 0 0 0 0 
0 0 0 0 0 0 0 0 0 
0 0 0 0 0 0 0 0 0 
0 0 0 0 0 0 0 0 0 
0 0 0 0 0 0 0 0 0 
0 0 0 0 0 0 0 0 0 
0 0 0 0 0 0 0 0 0 
0 0 0 0 0 0 -1 0 0 
0 0 0 0 0 0 0 0 0 
0 0 0 0 0 0 0 0 0 
0 0 0 0 0 0 0 0 0 
0 0 0 0 0 0 0 0 0 
0 0 0 0 0 0 0 0 0 
0 0 0 0 0 0 0 0 0 
0 0 0 0 0 0 0 0 0 
0 0 0 0 0 0 0 0 0 
0 0 0 0 0 0 0 0 0 
0 0 0 0 0 0 0 0 0 
-1 0 0 0 0 0 0 0 0 
-1 0 0 0 0 0 0 0 0 
0 0 0 0 0 0 1 -1 0 
0 0 0 0 -1 0 0 0 0 
0 0 0 0 0 0 0 0 0 
0 0 0 0 0 0 0 0 0 
0 0 0 0 0 0 0 0 0 
0 0 0 0 0 0 0 0 0 
0 -1 0 0 0 0 0 0 0 
0 0 0 0 0 0 0 0 0 
0 0 0 0 0 0 0 0 0 
0 0 0 0 0 0 -1 0 0 
0 0 0 0 1 0 0 0 0 
1 0 0 1 0 0 0 0 0 
0 0 0 0 0 0 0 0 0 
0 0 0 0 0 0 0 0 0 
0 0 0 0 0 0 0 1 0 
0 0 0 0 0 0 0 0 0 
0 0 0 0 0 0 0 0 0 
0 0 0 0 0 0 0 0 0 
0 0 0 -1 1 0 -1 0 0 
0 0 0 0 0 0 1 0 0 
1 0 0 1 0 0 0 0 0 
0 0 0 0 0 0 0 0 0 
0 0 0 0 0 0 0 0 0 
0 0 0 0 0 0 0 0 0 
0 0 0 0 0 0 0 0 0 
0 0 0 0 0 0 0 0 0 
0 1 0 0 0 0 0 0 0 
0 0 0 0 0 0 0 0 0 
0 1 0 -1 0 0 0 0 0 
0 0 0 0 0 0 0 0 0 
0 0 0 0 0 0 0 0 0 
0 0 0 0 0 0 0 0 0 
0 0 0 0 0 0 0 0 0 
0 0 0 0 0 0 0 0 0 
0 0 0 0 0 0 0 0 0 
0 0 0 0 0 0 0 0 0 
0 0 0 0 0 0 0 0 0 
0 0 0 0 0 0 0 0 0 
-1 0 0 1 0 0 0 0 0 
0 0 0 0 0 0 0 0 0 
0 0 0 0 0 0 0 0 0 
0 0 0 0 0 0 0 0 0 
0 0 0 0 0 0 0 0 0 
0 0 0 0 0 0 0 0 0 
0 0 0 0 0 0 0 0 0 
0 0 0 0 0 0 0 0 0 
0 0 0 0 0 0 0 0 0 
0 0 0 0 0 0 0 0 0 
0 0 0 0 0 0 0 0 0 
0 0 0 0 0 0 0 0 0 
0 0 0 0 0 0 0 0 0 
0 0 0 0 0 0 0 0 0 
0 0 0 0 0 0 0 0 0 
0 0 0 0 0 0 0 0 0 
0 0 0 0 0 0 0 0 0 
0 0 0 0 0 0 0 0 0 
0 0 0 -1 0 0 0 0 0 
0 0 0 0 0 0 0 0 0 
0 0 0 0 0 0 0 0 0 
0 0 0 0 0 0 0 0 0 
0 0 0 0 0 0 0 0 0 
0 0 0 0 0 0 0 0 0 
0 0 0 0 0 0 0 0 0 
0 1 0 0 0 0 0 0 0 
0 0 0 0 0 0 0 0 0 
0 0 0 0 0 0 0 0 0 
0 0 0 0 0 0 0 0 0 
0 0 0 0 0 0 0 0 0 
0 0 0 0 0 0 0 0 0 
0 0 0 0 0 0 0 0 0 
0 0 0 0 0 0 0 0 0 
0 0 0 0 0 0 0 0 0 
0 0 0 0 0 0 0 0 0 
0 0 0 0 0 0 0 0 0 
0 0 0 0 0 0 0 0 0 
0 0 0 0 0 0 0 0 0 
0 0 0 0 0 0 0 0 0 
0 0 0 0 0 0 0 0 0 
0 0 0 0 0 0 0 0 0 
0 0 0 0 0 0 0 0 0 
0 0 0 0 0 0 -1 0 0 
0 0 0 0 0 0 0 0 0 
0 0 0 0 0 0 0 0 0 
0 0 0 0 0 0 0 0 0 
0 0 0 0 0 0 0 0 0 
0 0 0 0 -1 0 0 0 0 
0 0 0 0 0 0 0 0 0 
0 -1 0 0 0 0 0 0 0 
0 0 0 0 0 0 0 0 0 
0 0 0 0 0 0 0 0 0 
0 0 0 0 0 0 0 0 0 
0 0 0 0 0 0 0 0 0 
0 0 0 0 0 0 0 0 0 
0 0 0 0 0 0 0 0 0 
0 0 0 0 0 0 0 0 0 
0 0 0 0 0 0 0 0 0 
0 0 0 0 0 0 0 0 0 
0 0 0 0 0 0 0 0 0 
0 0 0 0 0 0 0 0 0 
0 0 0 0 0 0 0 0 0 
0 0 0 0 0 0 0 0 0 
0 0 0 0 0 0 0 0 0 
0 0 0 0 0 0 0 0 0 
0 0 0 0 0 0 0 0 0 
0 0 0 0 0 0 0 0 0 
0 0 0 0 0 0 0 0 0 
0 0 0 0 0 0 0 0 0 
0 0 0 0 0 0 0 0 0 
0 0 0 0 0 0 0 0 0 
0 0 0 0 0 0 0 0 0 
0 0 0 0 0 0 0 0 0 
0 0 0 0 0 0 0 0 0 
0 0 0 0 0 0 0 0 0 
0 0 0 0 0 0 0 0 0 
0 0 0 0 0 0 0 0 0 
0 0 0 0 0 0 0 0 0 
0 0 0 0 0 0 0 0 0 
0 0 0 0 0 0 0 0 0 
0 0 0 0 0 0 0 0 0 
0 0 0 0 0 0 0 0 0 
0 0 0 0 0 0 0 0 0 
0 0 0 0 0 0 0 0 0 
0 0 0 0 0 0 0 0 0 

v 3 741 double
-0.000167508 0.000121351 0.000160394 -7.95221e-05 8.18529e-05 4.09606e-05 0.000171231 -0.000256539 9.79081e-05 
0.000116071 3.47237e-05 -4.30231e-05 0.00048941 -0.000148877 0.000125797 0.000305697 0.000277886 6.97788e-05 
-2.49273e-05 0.000397722 2.60785e-05 5.77593e-05 0.000122685 0.00013808 0.00019823 -0.000562456 2.12512e-15 
0.000104853 -2.18874e-05 -7.23523e-05 7.93277e-06 -3.65474e-05 6.45516e-05 -9.12544e-05 -4.27156e-05 6.63605e-05 
-0.00015298 1.42871e-05 -7.18877e-05 -0.000145639 -0.000100404 3.96936e-05 -0.00030461 0.00019284 -4.01621e-05 
-7.14877e-05 -3.77492e-06 6.12661e-05 -1.98093e-05 -0.000236734 1.49689e-06 -5.92336e-05 1.16561e-05 2.62513e-05 
8.78221e-05 -0.000145623 3.2589e-05 -1.26289e-05 -0.000119915 1.08988e-05 0.000110564 -0.000264216 -1.94376e-05 
4.48645e-05 0.000102173 3.5333e-06 0.00010971 7.43088e-05 -4.5529e-05 5.65726e-06 -3.11928e-05 5.76536e-06 
-0.000141552 -0.000183111 -4.51323e-05 0.000113965 -0.000158585 -8.58697e-05 -1.00749e-05 -9.10192e-05 0.000159098 
6.52265e-05 -0.00012555 2.70397e-05 3.97639e-05 -3.90727e-05 -1.58844e-05 3.08182e-05 -0.0001367 -2.61045e-05 
-0.000204974 0.000126643 0.000137501 -0.000209109 -0.000395202 -1.39771e-05 9.7712e-05 6.71577e-05 0.000157182 
0.000135661 -2.5358e-05 6.01603e-05 0.000233578 -1.16101e-05 -0.000148802 -1.31269e-05 9.09633e-06 5.39857e-05 
0.000170222 -8.46701e-06 -1.43112e-05 7.3232e-06 -0.000114757 0.00014879 -6.60728e-06 -0.00012026 -0.000224039 
0.000167321 0.000110499 -3.37594e-06 0.000115506 -0.000231239 -0.000125401 -0.000115139 5.54968e-05 -0.000148529 
0.000159295 -5.73433e-05 -0.000103726 -4.33954e-05 -6.08321e-05 -2.10246e-05 3.76224e-05 0.000562819 7.70462e-05 
-0.000111783 -4.35981e-05 -0.000102099 -8.12064e-05 -0.000189942 -3.15568e-05 -0.000217372 0.00019092 -1.60975e-05 
-0.000411163 0.000185067 -4.19106e-05 -0.000199699 2.23832e-06 -4.03689e-05 -0.000532207 -9.55943e-05 -1.30609e-05 
-0.00029568 1.55106e-05 -6.37934e-05 0.00087349 -0.00103119 -0.000800655 -0.00148722 -0.000526267 -0.000968164 
0.000124081 -5.51539e-05 0.000180898 0.000695955 -0.000643331 -0.00015362 0.000293761 -0.00113468 -0.000627629 
0.000111815 0.000116948 -3.69864e-05 0.00046334 0.000261768 -0.000429557 -7.82745e-05 0.000442723 -7.51825e-05 
6.53666e-05 0.000338681 -1.28523e-05 6.21399e-05 0.000125427 4.60036e-05 -0.000203944 -0.000144929 0.000113716 
-0.000213596 0.000210827 2.78828e-05 -0.000170685 0.000110243 -3.25191e-05 -0.000245803 0.000266416 6.41042e-05 
-0.000695551 -0.000240438 -7.08547e-05 0.000108206 0.000729966 -0.000165608 -0.000197118 4.90835e-05 1.29946e-05 
0.0013112 0.00150969 -0.000771625 -0.000106232 -0.000478101 0.000115023 -0.000199729 0.000309051 -1.05989e-05 
-1.60768e-05 0.000290047 -0.000137017 -0.000122739 -0.000161869 -1.04302e-07 -1.53657e-05 6.51572e-05 -5.37288e-05 
-0.000134681 -9.56439e-05 5.29351e-05 -0.000197695 -8.05268e-05 0.00016747 1.44168e-05 0.000177895 2.98936e-05 
-7.463e-05 -1.02037e-05 3.31732e-05 7.36194e-05 3.70463e-05 5.41629e-06 0.000150497 0.000208092 -6.43251e-05 
-0.00012262 0.000185292 6.90564e-05 -0.000108551 0.000402311 -0.000201382 -8.19813e-05 7.2241e-05 -0.000182802 
0.000343656 3.85643e-05 -5.47484e-05 0.000102786 9.9369e-05 7.72603e-05 -0.000109137 0.000289638 0.000193952 
-3.2609e-05 0.00020438 -0.000125813 -1.18399e-05 -0.000160426 -9.92819e-05 0.00013267 -2.28592e-05 0.000286693 
-5.63227e-05 -9.78688e-05 0.000241106 2.99264e-05 1.11031e-05 -4.0175e-07 -0.000158873 0.000205639 -1.71666e-05 
0.000198713 0.000247619 -5.067e-06 9.67128e-05 7.7642e-05 6.59057e-05 8.45037e-05 -7.24925e-05 -0.000126419 
-0.000370532 0.000336129 3.61941e-05 -5.83681e-05 -4.00654e-05 -0.00026731 0.000326252 -0.00019211 -0.000190296 
0.00027667 -0.000226965 0.000260303 0.000482837 -4.06528e-05 0.000759688 0.000199276 -0.000254894 0.000191108 
0.000528661 -0.000230645 0.000132015 5.67712e-05 0.000163312 -4.51628e-06 0.000904935 -0.000412061 -5.99345e-05 
0.000434482 0.000219659 0.000100013 0.000310239 0.00022785 0.000362831 0.000275429 0.00038014 8.77006e-05 
0.000444697 3.46189e-05 -6.4632e-05 0.000124698 0.000252742 -7.42043e-05 0.000262719 0.000201409 0.000101915 
-0.000102219 -0.000275382 0.000457223 0.000298425 -0.000336336 0.000456726 -0.000355776 -1.81078e-05 -0.000104516 
-0.000197694 0.00011835 0.00021044 -4.64629e-05 6.74749e-05 -5.33218e-05 -3.18007e-05 -0.00012121 -4.14057e-05 
-0.000135334 0.000142637 0.000171734 -9.97779e-05 0.000652057 1.79761e-06 0.000273599 -0.000326766 0.000372198 
4.59919e-05 -1.16933e-05 5.70615e-05 6.43186e-05 -0.000327677 6.0689e-05 3.07237e-05 0.000249995 0.000330969 
0.000233479 -0.00014255 -5.66934e-06 0.000262906 -1.37243e-05 0.000272565 0.000236696 -0.000214681 -8.07645e-05 
8.00981e-05 0.000374183 8.80788e-05 -0.000190026 6.11023e-05 5.11321e-05 5.28309e-05 0.000258249 1.98311e-05 
-3.26933e-06 0.000188486 -0.000208362 0.000211778 -6.31957e-05 0.00013218 0.000220558 -5.53577e-05 0.000164919 
8.92954e-05 -0.000141248 -0.000272232 -6.17342e-05 0.000202101 -0.000228015 -8.16552e-05 9.7765e-05 -6.97452e-05 
6.82235e-06 0.000514918 0.000489357 -0.000428632 0.00068549 0.00025833 -0.000130705 0.000428106 0.000206569 
5.18551e-05 0.000194371 2.24411e-05 -0.000108257 -8.56864e-05 0.000106197 -8.61474e-05 0.000112515 0.000213914 
-0.000192175 9.71108e-05 0.000136365 5.42002e-05 7.18138e-05 0.000264011 6.6218e-05 0.000295564 -0.000326871 
-3.91635e-05 8.60855e-05 6.64452e-05 0.000159558 -0.000398523 3.46049e-05 0.000455624 -0.000542795 -0.000397307 
0.00339577 -0.000839083 6.76807e-05 0.00041045 8.67863e-06 -0.000218115 -6.35605e-05 -0.000442935 -0.000234293 
-0.00025906 -0.000155883 -0.000231527 -3.02029e-07 -9.03513e-05 -0.000312812 -0.000450639 -6.89388e-05 6.61571e-05 
-0.000295839 0.000132891 -0.000233193 -9.07094e-05 0.000232516 5.65324e-05 0.000281041 -0.000659709 0.000253512 
-0.000263844 0.00043473 0.000174694 -0.000556507 0.000117044 -4.22486e-07 -0.000174675 0.000415739 7.64634e-05 
-0.000659251 0.000537535 0.000138743 0.000277942 0.000205899 0.000356047 -1.15139e-05 -2.72262e-05 0.000206026 
-0.000722833 0.000495163 -0.000117029 0.000781695 -0.00127449 -0.0023053 -0.000572488 0.000319154 -0.000704418 
-0.00212675 0.000780614 -0.00136429 -0.00196133 0.000285994 -0.000652921 0.000366527 -0.000979535 -9.15455e-05 
0.000992545 -0.000432554 -0.000430792 0.000548467 -0.000490839 -0.000803458 0.000909124 0.00213979 0.000182323 
0.000695505 -4.31351e-05 -0.000381356 0.000572434 3.79498e-05 -0.000450948 0.000224574 0.000152663 -0.000327324 
-1.45085e-06 -1.27622e-05 0.000105192 0.000324295 -1.80846e-05 -0.000118493 -2.82105e-05 0.000353781 7.5609e-05 
-0.000304395 0.000662345 0.000335324 -0.000179508 -4.52037e-06 0.000263232 -3.28518e-05 -4.68031e-05 8.87762e-05 
-0.000478476 0.000349387 6.0782e-05 -0.000205119 8.67944e-05 3.25529e-05 -0.000262966 0.000162848 0.000132271 
-0.000570902 0.000505189 -0.000484129 -0.000752772 0.000313993 -7.14557e-05 2.7696e-05 0.000343523 -0.000241178 
-0.000362881 0.00041196 -0.0017545 5.99496e-05 0.000325934 0.000142368 -0.000439397 0.000905863 -0.00095108 
-4.57577e-05 -0.00038357 0.000270207 -0.000230963 0.00108067 -0.000926417 0.000429953 0.000804587 0.000151307 
0.000195681 0.000228594 0.000375054 0.000181992 0.000359685 0.000432125 -0.000305228 0.000158888 3.50232e-05 
-0.000151158 0.000260951 0.00028478 -0.00010847 -0.000261165 0.00044524 -0.000298076 -6.78942e-06 0.00047966 
-0.000185114 -5.26473e-05 0.000166145 3.86224e-05 -0.000128351 6.55705e-05 -7.09152e-05 -1.79712e-05 0.000111055 
-0.000597456 -0.000168042 -4.89919e-05 1.40091e-05 -9.20771e-06 0.000562316 -8.22022e-05 0.000194828 4.27723e-05 
2.83827e-06 0.000303146 0.00075152 9.75519e-05 0.000310084 -6.81393e-05 0.000184942 -5.25926e-05 -0.000163337 
-7.16705e-05 0.000403214 -3.68594e-05 0.000593061 -0.000422268 0.000394215 0.000119749 0.000379163 -0.000293049 
-0.000365888 4.74231e-05 0.000148493 -0.000172587 2.29184e-05 0.00023171 -9.83288e-05 0.000141942 0.000288816 
-0.000120289 0.000340136 0.000164792 -0.000636349 -0.000434066 0.000192022 -0.000103114 -1.40899e-05 0.000289269 
0.000103309 0.000208804 4.24425e-05 4.30372e-05 -3.83357e-06 0.00019741 0.000127896 0.000118088 -3.51672e-05 
0.000137441 -0.000239331 2.02533e-05 0.000559112 0.000283166 0.000141557 0.000491474 0.000304691 -3.74969e-05 
2.63282e-05 0.000657888 7.77227e-05 0.000691453 0.000849267 0.00109558 0.000515862 -8.37098e-05 -0.000230247 
0.000686299 0.000908287 0.000761673 6.64296e-05 -0.00109108 0.000183482 0.000398671 -0.00184039 4.77656e-05 
-0.000262123 -0.00089093 -0.000958212 3.80798e-06 0.000458428 -0.000189411 0.000179348 6.28382e-05 0.000283771 
0.000647436 -0.000336797 0.000715414 -0.000191434 -0.000364114 -0.000241126 0.000446928 0.000197667 0.000237815 
-0.000260264 -5.04403e-05 0.000693245 0.00011091 0.00104527 -0.0001978 0.000361612 0.000254382 0.000224067 
-0.000475043 -3.57018e-06 0.000189265 -0.000168667 -7.79076e-05 0.00051179 -0.000194051 -0.000304292 0.000651663 
-0.000279286 0.000632728 0.000648663 -0.000278615 0.00100371 0.000136328 8.89082e-05 0.000566415 -0.000339509 
-0.000401343 -0.000153118 8.21614e-06 -0.000405127 -7.53246e-05 0.000354357 0.000716512 0.000527206 0.000387872 
-9.65148e-05 0.00100345 -0.000434589 1.287e-05 -0.000514954 0.000316289 2.85848e-05 0.000348398 -0.000218175 
-0.000171744 0.000713474 0.00039045 0.000292644 0.000297758 0.00028233 -0.00111843 0.000811188 0.0010078 
-0.000123674 0.000143635 0.000221019 -0.00168885 0.000570975 0.000424392 0.000153148 -0.000149267 -0.000123039 
0.000413657 -0.000186712 -2.8764e-05 -0.00100359 0.000183529 0.000230346 0.000124765 -0.000760514 -0.000216515 
-7.21066e-05 0.000615366 -5.11528e-05 -0.000239641 0.000335024 -6.84802e-05 9.96755e-05 -0.000337616 0.000286393 
0.000342067 4.94832e-05 0.000148528 0.000736528 0.000250791 -3.13717e-05 0.000203565 0.000581314 0.00030409 
4.28584e-05 0.000454969 0.000177895 -0.000531612 0.000390251 0.00101769 5.1078e-05 0.000581184 -0.000281905 
0.000574674 0.000906236 -0.000673223 -0.000289946 0.00146358 -2.73471e-05 -0.000299235 -0.000112855 0.000449192 
-0.000151767 -1.98511e-05 0.000877685 -0.000325304 -0.000219936 0.000597684 -0.000112018 0.000507406 0.00124814 
-0.000118156 -0.000674438 0.000686487 -8.64719e-05 5.89465e-05 0.000401547 3.10896e-05 0.000488902 0.000240735 
-0.00024775 -0.000110191 3.23229e-05 -0.000205409 0.000360037 0.000358908 -0.00043896 0.000355261 0.00024095 
0.000164386 0.000908599 -3.54132e-06 -0.00017912 0.000171272 0.000177413 -0.000450326 0.000246536 0.000141241 
-0.000403133 3.53695e-05 1.11564e-05 8.33795e-05 0.000200013 0.00049913 0.000310632 -0.000186933 0.000952323 