# vtk DataFile Version 4.0
Generated by LIGGGHTS
ASCII
DATASET POLYDATA
POINTS 1400 float
-379.431 -380.88 49.9801 -460.664 -439.198 49.9632 -256.788 -470.42 49.9843 
-90.5806 -363.727 49.968 -165.226 -430.224 49.9431 90.935 -486.881 49.9283 
125.619 -361.668 49.9493 25.3783 -411.401 49.9783 182.52 -445.999 49.9935 
221.874 -334.667 49.9494 284.171 -412.834 49.9796 440.594 -454.974 49.9341 
377.609 -377.358 49.943 476.332 -361.59 49.9822 -442.46 -303.249 49.9897 
-374.088 -230.289 49.9444 -311.06 -307.866 49.9528 -275.459 -214.001 49.943 
-175.586 -209.716 49.9578 -174.648 -309.678 49.9596 -87.0879 -261.403 49.9646 
-3.02605 -315.547 49.9522 1.83678 -215.698 49.9527 85.9 -269.918 49.9744 
270.243 -195.731 49.9358 182.148 -242.949 49.9616 313.365 -286.573 49.9678 
370.172 -193.833 49.951 476.637 -206.608 49.9861 413.317 -283.985 49.9607 
-441.425 -149.292 49.9624 -479.712 -54.3763 49.9744 -379.792 -45.1303 49.9361 
-339.34 -136.558 49.975 -191.296 -10.4729 49.9721 -186.074 -110.307 49.9792 
-280.406 -55.8027 49.929 -82.166 -161.525 49.9279 -98.1014 -62.8121 49.9772 
94.433 -163.958 49.9859 140.324 -75.1132 49.9416 6.78 -115.831 49.9531 
308.641 -3.59619 49.9554 240.326 -76.5845 49.9878 430.983 -9.34924 49.9816 
439.311 -113.155 49.9935 337.715 -99.2623 49.9934 -449.945 149.336 49.9795 
-361.619 102.491 49.9667 -437.089 36.8007 49.9544 -265.945 143.495 49.9738 
-277.445 44.1526 49.9748 -24.1362 4.44975 49.9697 -150.577 109.076 49.9144 
-29.3977 104.288 49.9829 75.7838 1.24413 49.9536 70.5475 101.422 49.9685 
267.32 87.4331 49.9341 198.577 14.8239 49.9503 170.091 110.648 49.9431 
474.204 84.1812 49.9697 373.374 72.6187 49.9873 413.554 164.187 49.9724 
-364.928 202.396 49.9495 -425.251 282.13 49.9599 -181.695 204.058 49.936 
-273.674 243.193 49.9791 -205.841 316.67 49.9786 -113.849 277.499 49.9758 
-12.2718 247.812 49.9605 80.6555 210.815 49.9918 64.5642 313.86 49.9931 
244.853 291.051 49.953 187.709 209.036 49.9798 285.065 185.915 49.9935 
489.676 229.032 49.9471 342.198 268.366 49.9559 432.581 311.111 49.9915 
-387.12 393.749 49.9518 -482.589 364.037 49.9529 -486.098 464.105 49.9804 
-386.458 493.753 49.9543 -303.775 338.521 49.9815 -197.791 446.158 49.917 
-297.607 438.313 49.9964 -2.4006 476.705 49.9745 -25.8968 379.516 49.9452 
-102.426 476.041 49.9469 -125.839 376.744 49.9736 75.0208 413.328 49.9935 
157.688 350.301 49.9829 259.634 490.271 49.9454 249.061 390.896 49.9313 
168.232 449.732 49.9496 359.333 482.615 49.9895 429.159 411.044 49.9721 
-413.384 -460.146 135.499 -454.886 -370.006 123.389 -380.967 -383.26 190.555 
-321.551 -424.258 119 -243.742 -375.714 79.2385 -222.332 -423.428 164.444 
-288.102 -348.189 174.613 -136.181 -380.57 137.321 -56.9856 -446.762 94.2793 
-142.678 -480.276 133.44 -50.3243 -474.924 189.956 16.2945 -375.565 142.882 
117.534 -426.855 125.271 30.897 -476.257 131.66 182.582 -479.936 179.482 
210.682 -391.129 131.661 274.297 -467.839 139.488 301.839 -350.408 126.051 
370.384 -447.587 120.728 466.046 -428.013 142.737 400.145 -352.839 144.172 
-376.794 -307.638 125.276 -448.082 -226.739 116.993 -451.007 -300.376 195.658 
-193.574 -321.498 194.025 -324.601 -223.12 136.503 -242.491 -280.193 117.218 
-145.74 -259.377 131.382 -60.8643 -312.992 131.47 -57.2781 -212.78 132.097 
105.788 -329.078 142.361 121.179 -219.473 128.726 28.1631 -267.046 131.589 
31.6852 -167.145 132.064 197.908 -290.755 136.49 286.14 -243.795 136.12 
206.32 -199.896 177.329 479.157 -294.88 124.373 399.986 -234.949 136.076 
485.917 -220.833 191.803 -392.894 -145.412 137.263 -430.098 -45.1154 136.269 
-215.968 -166.405 195.802 -329.208 -68.3414 136.272 -260.463 -136.594 111.401 
-232.178 -44.0909 136.651 -313.64 -145.25 198.19 -142.752 -153.639 128.998 
-133.042 -55.1844 143.338 -51.5461 -111.768 131.026 24.2281 -47.2371 120.561 
112.987 -109.512 139.697 98.882 -20.4502 182.83 184.065 -39.577 132.522 
189.208 -152.077 91.001 284.777 -143.855 134.092 283.81 -44.0028 137.956 
221.081 -103.612 199.763 494.797 -145.297 126.846 384.506 -136.279 130.378 
446.646 -58.1557 135.822 369.392 -65.115 198.915 -352.123 26.3947 114.062 
-423.003 95.105 129.927 -499.909 25.8576 126.924 -499.987 96.0556 198.094 
-311.666 118.015 135.169 -206.138 61.3311 117.905 -278.874 35.6723 181.466 
-213.673 159.744 133.629 -49.6761 1.78092 168.533 -110.54 28.7755 93.9659 
-110.761 116.874 141.224 -23.2242 111.8 189.188 23.6948 52.6938 123.606 
132.785 47.4631 117.81 76.6746 110.422 185.7 24.94 160.778 116.258 
132.091 166.63 123.504 175.493 97.3468 193.166 239.029 45.3344 136.137 
229.477 143.985 123.15 323.056 100.866 131.78 370.039 5.63658 128.299 
422.426 90.46 135.27 488.193 165.241 126.891 -492.815 295.647 122.372 
-350.807 280.621 116.661 -416.659 194.744 135.109 -198.635 259.242 131.506 
-293.567 212.535 162.311 -273.915 309.906 173.452 -86.1081 183.835 71.2062 
-49.0494 310.584 118.553 -46.5041 218.068 156.403 -134.578 326.886 167.685 
-139.962 200.611 187.38 135.247 271.699 107.544 39.0003 265.775 133.862 
226.795 243.086 135.722 316.221 199.575 146.064 312.07 299.296 140.202 
398.744 168.266 193.404 405.755 235.406 119.691 471.657 236.689 194.826 
406.439 331.828 146.058 -486.54 495.933 187.585 -428.272 351.707 174.195 
-427.821 441.224 127.927 -339.528 377.993 136.446 -334.999 477.837 134.142 
-235.147 481.759 135.483 -242.227 383.998 114.317 -151.636 420.215 136.212 
-52.3093 437.205 127.19 -49.6234 368.681 199.922 114.609 463.178 133.208 
26.2312 374.378 135.076 125.29 364.35 143.771 16.2615 450.972 198.572 
222.355 342.902 133.436 225.656 443.604 131.575 293.855 384.226 189.746 
341.802 376.795 84.4633 486.368 391.638 140.854 438.597 477.754 123.832 
342.892 459.765 146.389 -412.571 -447.656 261.257 -418.494 -349.089 276.697 
-495.684 -385.415 224.64 -331.122 -395.778 289.98 -321.728 -460.88 212.024 
-236.144 -393.904 258.927 -191.235 -461.376 317.416 -231.129 -497.497 233.177 
-94.4237 -436.516 316.381 -4.50486 -414.479 278.753 -64.8584 -377.613 207.661 
-141.956 -362.153 269.483 -141.202 -453.94 229.82 68.3633 -430.313 212.217 
57.4005 -485.993 311.156 154.522 -379.64 213.546 92.214 -374.374 291.584 
169.582 -456.433 275.776 252.001 -426.563 227.733 296.898 -469.755 305.886 
294.103 -366.808 295.931 198.15 -338.814 293.677 224.077 -417.298 349.896 
491.196 -468.667 278.41 406.496 -469.936 211.234 373.94 -379.009 237.021 
494.489 -379.376 323.946 390.673 -368.012 334.965 396.634 -464.806 310.609 
-355.273 -292.366 223.307 -416.987 -207.696 211.669 -460.274 -258.773 286.075 
-367.181 -282.848 331.157 -337.841 -207.236 272.75 -409.311 -192.743 341.164 
-279.665 -309.886 291.135 -264.45 -252.526 210.727 -178.631 -234.529 258.719 
-189.217 -300.858 332.793 -252.685 -218.35 323.9 -76.4837 -228.787 295.466 
-14.1606 -240.515 218.152 -103.232 -285.853 217.849 -95.6773 -172.451 215.152 
-38.6289 -320.776 285.632 45.1924 -320.878 221.45 141.958 -274.14 217.674 
129.953 -269.498 316.83 76.5687 -198.515 215.688 89.11 -171.112 310.974 
31.9526 -252.976 305.986 253.532 -328.088 210.691 180.173 -193.256 276.088 
266.102 -236.78 249.354 226.908 -254.779 339.55 330.663 -184.951 305.386 
346.942 -289.842 200.686 352.976 -282.234 300.155 341.008 -189.636 202.891 
416.577 -214.281 263.493 443.33 -306.295 221.397 450.753 -289.575 319.684 
-366.417 -8.05159 206.814 -459.206 -108.574 207.784 -374.303 -93.3434 258.353 
-490.945 -163.645 284.913 -432.865 -95.631 339.341 -406.735 -0.630128 298.136 
-279.717 -54.823 223.917 -244.813 -127.382 283.183 -314.772 -35.7199 315.556 
-210.443 -33.3636 292.747 -328.213 -132.2 338.119 -152.547 -153.876 311.692 
-72.6051 -95.0134 323.317 -12.8237 -155.683 270.967 -158.189 -93.4032 232.246 
-59.3661 -79.8531 225.406 -14.6038 -13.1683 306.02 -105.538 -1.16771 266.227 
36.6467 -98.9866 205.164 129.497 -115.957 238.042 77.423 -40.7257 278.315 
25.5133 -97.1944 342.397 170.018 -6.94207 325.569 206.621 -95.8658 298.352 
299.836 -100.718 261.267 271.037 -21.0712 314.35 192.44 -12.1696 228.289 
479.866 -62.6213 272.393 442.969 -132.713 211.395 371.458 -2.86593 277.097 
393.727 -108.108 294.829 -465.8 0.850736 217.507 -480.934 66.0705 291.716 
-405.525 81.601 227.436 -481.362 161.615 321.148 -382.868 114.234 319.169 
-179.85 11.9507 200.729 -319.723 53.6106 270.911 -259.57 134.75 218.848 
-217.207 65.0909 276.709 -129.704 90.9633 235.859 -41.8103 80.0128 282.143 
-133.719 79.9521 335.161 26.1078 32.933 225.851 29.8032 165.238 254.955 
119.079 48.1748 259.469 50.6507 90.9394 318.498 126.234 146.846 273.85 
269.579 124.985 212.758 289.529 10.7436 221.401 214.596 70.7501 281.212 
311.191 71.1349 306.916 239.688 165.866 299.142 436.281 15.0503 203.124 
362.071 79.5362 221.28 437.621 120.634 272.218 432.953 46.2163 338.795 
375.73 134.524 349.465 -353.731 167.105 227.964 -395.696 262.544 205.483 
-452.944 179.441 226.985 -471.184 267.439 270.835 -398.876 321.202 314.129 
-395.745 212.598 306.752 -267.881 176.774 309.182 -222.503 240.901 226.825 
-314.859 252.172 263.336 -215.587 319.886 287.719 -173.152 170.533 277.898 
-302.439 315.308 339.825 -175.211 246.722 342.559 -69.851 172.986 253.073 
-88.6827 270.886 236.628 -90.6826 299.113 332.525 -20.4038 229.22 319.459 
-101.996 178.813 347.651 97.2858 219.651 200.746 10.4196 259.931 229.459 
93.5557 271.484 286.138 69.656 192.46 342.503 165.699 292.577 200.464 
192.636 193.291 215.333 275.148 249.244 222.996 192.12 254.772 294.17 
322.102 299.636 295.443 333.372 181.472 267.892 373.41 263.377 211.029 
443.282 218.984 289.009 419.184 312.233 315.808 -491.722 356.517 325.543 
-389.614 465.744 216.972 -367.907 415.301 300.48 -468.084 410.346 244.683 
-450.426 465.645 326.066 -346.396 345.235 232.509 -304.705 495.912 300.549 
-296.482 429.599 212.77 -209.367 380.74 208.656 -177.348 441.147 290.975 
-268.753 402.752 305.006 -10.8869 338.709 287.162 -106.41 448.281 220.857 
-127.486 359.501 261.896 -35.3396 490.18 282.415 -70.1961 408.192 327.74 
140.779 359.492 290.172 50.8478 417.314 286.053 106.935 479.492 231.484 
[...]
POINT_DATA 1400
FIELD FieldData 7
id 1 1400 int
92 20 9 74 35 73 25 53 19 
61 37 101 79 26 29 119 22 31 
82 52 36 84 99 14 4 60 97 
41 80 102 72 27 34 15 110 17 
18 28 142 111 24 85 105 89 33 
39 43 58 91 81 8 69 11 1 
104 21 93 134 46 32 44 5 76 
87 56 23 86 45 129 30 57 100 
2 95 48 3 59 16 10 38 50 
12 63 70 42 7 71 66 62 51 
13 114 6 54 40 55 77 154 249 
106 155 173 157 67 96 127 230 228 
118 185 192 122 171 164 88 175 207 
140 159 279 120 183 161 116 141 112 
167 124 193 169 208 227 216 90 150 
214 133 170 211 68 103 221 240 78 
146 166 123 224 200 151 132 181 245 
272 108 47 158 163 98 109 75 217 
138 152 215 197 210 165 172 271 117 
196 248 115 107 191 178 113 130 223 
156 160 143 65 204 137 219 190 136 
121 176 168 187 145 202 139 194 182 
225 131 162 269 281 256 94 184 125 
147 213 128 220 198 144 64 149 285 
212 148 257 153 49 83 188 393 296 
199 379 195 273 381 270 376 334 254 
290 284 239 300 126 365 345 252 320 
308 317 400 303 246 286 347 439 357 
267 251 352 432 326 426 335 276 307 
389 445 323 189 277 292 306 233 205 
339 186 331 373 218 236 262 364 351 
201 396 174 238 255 318 244 259 293 
366 424 362 302 234 380 359 367 363 
370 324 241 342 392 304 283 301 329 
374 340 297 309 385 319 268 179 287 
388 341 265 258 298 402 229 282 177 
235 253 315 350 180 294 397 346 395 
226 242 289 338 368 209 206 260 356 
358 266 278 330 328 390 401 386 247 
295 384 310 353 399 332 321 403 414 
448 135 263 360 460 325 312 275 313 
291 231 250 237 427 354 264 311 314 
428 232 421 222 280 316 337 377 327 
305 387 349 383 322 203 243 344 261 
336 333 355 382 299 274 288 372 343 
423 453 469 549 534 572 440 411 456 
458 418 567 369 501 484 559 615 624 
430 431 509 472 600 514 450 481 557 
574 556 564 508 544 623 480 498 530 
592 520 553 512 405 478 523 604 570 
443 416 447 536 524 517 542 513 409 
474 516 455 429 420 601 596 595 371 
491 489 582 410 505 482 616 649 538 
408 394 464 528 496 470 522 551 519 
415 378 488 510 548 483 554 404 504 
532 562 476 413 471 537 575 477 507 
452 436 412 444 497 611 451 487 468 
555 525 361 419 462 540 526 493 454 
398 527 597 425 494 490 591 593 434 
459 467 588 547 495 475 546 566 437 
535 485 417 406 492 463 521 457 438 
473 603 531 348 511 422 502 499 461 
466 581 626 550 449 407 500 533 552 
563 433 435 391 518 479 503 442 561 
465 486 375 565 558 568 578 506 541 
441 446 620 731 678 800 690 843 630 
781 699 663 779 515 708 707 599 606 
632 661 713 719 758 621 725 629 721 
715 717 631 722 730 784 792 645 740 
757 709 701 751 666 761 753 780 653 
585 672 718 669 660 685 712 742 579 
573 668 641 696 755 676 694 738 684 
560 605 654 714 726 646 674 644 716 
797 580 642 590 609 681 687 602 583 
634 706 733 643 622 636 665 760 651 
543 594 732 802 798 529 656 776 723 
586 625 652 689 627 569 617 686 795 
613 589 614 693 741 637 670 667 729 
577 704 739 763 683 648 735 664 610 
737 724 700 639 677 598 612 618 655 
695 691 711 571 539 705 675 671 608 
692 778 635 545 576 633 749 744 754 
688 587 659 638 697 787 658 607 647 
698 727 734 679 673 682 762 793 619 
584 657 640 747 703 628 662 702 785 
720 680 650 736 810 878 884 995 811 
839 864 951 844 883 808 902 972 801 
822 891 901 895 821 898 879 769 914 
885 882 816 928 869 828 903 865 954 
932 766 947 812 889 924 799 887 851 
855 948 933 911 746 765 845 896 871 
953 806 764 767 858 880 961 841 786 
892 944 752 904 921 837 750 817 827 
867 950 906 773 756 850 952 789 710 
759 832 925 917 849 833 872 873 809 
846 852 870 877 775 854 909 946 815 
929 886 748 728 796 847 860 777 824 
805 866 743 835 829 945 868 814 770 
842 893 966 876 831 818 772 958 788 
807 820 825 942 894 794 783 859 923 
853 836 774 848 863 968 782 819 888 
957 941 908 791 823 856 927 939 830 
881 922 890 771 813 862 912 943 965 
745 804 838 875 899 803 897 861 834 
900 959 913 826 905 840 768 907 960 
1012 938 874 790 857 978 1026 973 1125 
1105 916 1069 1133 1039 990 1134 993 1109 
1014 979 1021 1037 1049 1001 1135 1131 984 
937 971 1030 982 1081 1112 1073 1044 956 
1065 1032 1020 1083 1099 1103 967 988 1071 
1060 934 963 1019 1058 1130 1000 1176 1034 
1082 1091 1115 1018 1007 1048 1101 962 1075 
1079 1080 935 918 999 1057 1077 1027 1100 
1005 992 1043 1197 980 915 977 983 1092 
955 1062 1053 1182 1003 1024 1033 1078 1136 
1129 1009 936 974 1036 1072 1093 1008 930 
1006 1040 1106 1117 1002 949 986 1052 1070 
1116 920 969 987 1029 1035 1051 1017 1128 
1038 1054 931 1031 1055 1059 998 1046 981 
1098 970 985 1074 1028 1013 989 1067 1056 
997 1104 1068 994 1061 1011 1042 1025 1111 
1186 964 1010 1022 1114 1047 926 1004 1094 
975 919 976 996 1076 991 1045 1066 1138 
910 1016 1023 1063 1113 1110 1064 1015 940 
1146 1132 1241 1308 1273 1126 1177 1209 1266 
1196 1236 1189 1174 1208 1151 1238 1206 1121 
1137 1191 1368 1213 1172 1148 1297 1210 1256 
1244 1084 1219 1263 1124 1153 1253 1306 1262 
1304 1167 1248 1205 1329 1365 1119 1139 1118 
1160 1309 1237 1120 1140 1245 1211 1231 1143 
1254 1195 1235 1283 1158 1145 1204 1221 1127 
1275 1220 1311 1152 1168 1095 1183 1162 1161 
1203 1252 1233 1107 1287 1249 1230 1097 1163 
1154 1228 1088 1194 1242 1293 1250 1251 1224 
1175 1255 1316 1178 1123 1190 1223 1222 1359 
1141 1240 1243 1214 1229 1232 1286 1171 1096 
1200 1234 1284 1165 1086 1187 1207 1144 1201 
1217 1122 1180 1291 1226 1212 1181 1173 1041 
1192 1274 1247 1170 1087 1156 1278 1269 1102 
1179 1150 1142 1268 1218 1090 1108 1188 1294 
1310 1159 1225 1307 1198 1227 1155 1281 1326 
1193 1185 1157 1050 1184 1216 1299 1089 1169 
1164 1202 1366 1302 1199 1166 1149 1215 1285 
1246 1085 1147 1239 1361 1261 1376 1350 1358 
1352 1394 1395 1272 1341 1264 1354 1385 1276 
1390 1336 1367 1303 1320 1380 1296 1260 1343 
1399 1301 1267 1325 1372 1342 1400 1258 1298 
1348 1330 1335 1397 1324 1270 1375 1332 1300 
1322 1381 1360 1271 1265 1349 1339 1259 1295 
1331 1373 1386 1347 1337 1279 1379 1345 1312 
1355 1280 1364 1387 1277 1353 1371 1257 1321 
1323 1369 1374 1389 1305 1292 1398 1393 1282 
1319 1328 1289 1315 1333 1357 1344 1382 1290 
1334 1392 1377 1396 1338 1327 1313 1288 1388 
1383 1314 1317 1378 1384 1370 1391 1362 1351 
1340 1346 1318 1363 1356 
type 1 1400 int
1 1 1 1 1 1 1 1 1 
1 1 1 1 1 1 1 1 1 
1 1 1 1 1 1 1 1 1 
1 1 1 1 1 1 1 1 1 
1 1 1 1 1 1 1 1 1 
1 1 1 1 1 1 1 1 1 
1 1 1 1 1 1 1 1 1 
1 1 1 1 1 1 1 1 1 
1 1 1 1 1 1 1 1 1 
1 1 1 1 1 1 1 1 1 
1 1 1 1 1 1 1 1 1 
1 1 1 1 1 1 1 1 1 
1 1 1 1 1 1 1 1 1 
1 1 1 1 1 1 1 1 1 
1 1 1 1 1 1 1 1 1 
1 1 1 1 1 1 1 1 1 
1 1 1 1 1 1 1 1 1 
1 1 1 1 1 1 1 1 1 
1 1 1 1 1 1 1 1 1 
1 1 1 1 1 1 1 1 1 
1 1 1 1 1 1 1 1 1 
1 1 1 1 1 1 1 1 1 
1 1 1 1 1 1 1 1 1 
1 1 1 1 1 1 1 1 1 
1 1 1 1 1 1 1 1 1 
1 1 1 1 1 1 1 1 1 
1 1 1 1 1 1 1 1 1 
1 1 1 1 1 1 1 1 1 
1 1 1 1 1 1 1 1 1 
1 1 1 1 1 1 1 1 1 
1 1 1 1 1 1 1 1 1 
1 1 1 1 1 1 1 1 1 
1 1 1 1 1 1 1 1 1 
1 1 1 1 1 1 1 1 1 
1 1 1 1 1 1 1 1 1 
1 1 1 1 1 1 1 1 1 
1 1 1 1 1 1 1 1 1 
1 1 1 1 1 1 1 1 1 
1 1 1 1 1 1 1 1 1 
1 1 1 1 1 1 1 1 1 
1 1 1 1 1 1 1 1 1 
1 1 1 1 1 1 1 1 1 
1 1 1 1 1 1 1 1 1 
1 1 1 1 1 1 1 1 1 
1 1 1 1 1 1 1 1 1 
1 1 1 1 1 1 1 1 1 
1 1 1 1 1 1 1 1 1 
1 1 1 1 1 1 1 1 1 
1 1 1 1 1 1 1 1 1 
1 1 1 1 1 1 1 1 1 
1 1 1 1 1 1 1 1 1 
1 1 1 1 1 1 1 1 1 
1 1 1 1 1 1 1 1 1 
1 1 1 1 1 1 1 1 1 
1 1 1 1 1 1 1 1 1 
1 1 1 1 1 1 1 1 1 
1 1 1 1 1 1 1 1 1 
1 1 1 1 1 1 1 1 1 
1 1 1 1 1 1 1 1 1 
1 1 1 1 1 1 1 1 1 
1 1 1 1 1 1 1 1 1 
1 1 1 1 1 1 1 1 1 
1 1 1 1 1 1 1 1 1 
1 1 1 1 1 1 1 1 1 
1 1 1 1 1 1 1 1 1 
1 1 1 1 1 1 1 1 1 
1 1 1 1 1 1 1 1 1 
1 1 1 1 1 1 1 1 1 
1 1 1 1 1 1 1 1 1 
1 1 1 1 1 1 1 1 1 
1 1 1 1 1 1 1 1 1 
1 1 1 1 1 1 1 1 1 
1 1 1 1 1 1 1 1 1 
1 1 1 1 1 1 1 1 1 
1 1 1 1 1 1 1 1 1 
1 1 1 1 1 1 1 1 1 
1 1 1 1 1 1 1 1 1 
1 1 1 1 1 1 1 1 1 
1 1 1 1 1 1 1 1 1 
1 1 1 1 1 1 1 1 1 
1 1 1 1 1 1 1 1 1 
1 1 1 1 1 1 1 1 1 
1 1 1 1 1 1 1 1 1 
1 1 1 1 1 1 1 1 1 
1 1 1 1 1 1 1 1 1 
1 1 1 1 1 1 1 1 1 
1 1 1 1 1 1 1 1 1 
1 1 1 1 1 1 1 1 1 
1 1 1 1 1 1 1 1 1 
1 1 1 1 1 1 1 1 1 
1 1 1 1 1 1 1 1 1 
1 1 1 1 1 1 1 1 1 
1 1 1 1 1 1 1 1 1 
1 1 1 1 1 1 1 1 1 
1 1 1 1 1 1 1 1 1 
1 1 1 1 1 1 1 1 1 
1 1 1 1 1 1 1 1 1 
1 1 1 1 1 1 1 1 1 
1 1 1 1 1 1 1 1 1 
1 1 1 1 1 1 1 1 1 
1 1 1 1 1 1 1 1 1 
1 1 1 1 1 1 1 1 1 
1 1 1 1 1 1 1 1 1 
1 1 1 1 1 1 1 1 1 
1 1 1 1 1 1 1 1 1 
1 1 1 1 1 1 1 1 1 
1 1 1 1 1 1 1 1 1 
1 1 1 1 1 1 1 1 1 
1 1 1 1 1 1 1 1 1 
1 1 1 1 1 1 1 1 1 
1 1 1 1 1 1 1 1 1 
1 1 1 1 1 1 1 1 1 
1 1 1 1 1 1 1 1 1 
1 1 1 1 1 1 1 1 1 
1 1 1 1 1 1 1 1 1 
1 1 1 1 1 1 1 1 1 
1 1 1 1 1 1 1 1 1 
1 1 1 1 1 1 1 1 1 
1 1 1 1 1 1 1 1 1 
1 1 1 1 1 1 1 1 1 
1 1 1 1 1 1 1 1 1 
1 1 1 1 1 1 1 1 1 
1 1 1 1 1 1 1 1 1 
1 1 1 1 1 1 1 1 1 
1 1 1 1 1 1 1 1 1 
1 1 1 1 1 1 1 1 1 
1 1 1 1 1 1 1 1 1 
1 1 1 1 1 1 1 1 1 
1 1 1 1 1 1 1 1 1 
1 1 1 1 1 1 1 1 1 
1 1 1 1 1 1 1 1 1 
1 1 1 1 1 1 1 1 1 
1 1 1 1 1 1 1 1 1 
1 1 1 1 1 1 1 1 1 
1 1 1 1 1 1 1 1 1 
1 1 1 1 1 1 1 1 1 
1 1 1 1 1 1 1 1 1 
1 1 1 1 1 1 1 1 1 
1 1 1 1 1 1 1 1 1 
1 1 1 1 1 1 1 1 1 
1 1 1 1 1 1 1 1 1 
1 1 1 1 1 1 1 1 1 
1 1 1 1 1 1 1 1 1 
1 1 1 1 1 1 1 1 1 
1 1 1 1 1 1 1 1 1 
1 1 1 1 1 1 1 1 1 
1 1 1 1 1 1 1 1 1 
1 1 1 1 1 1 1 1 1 
1 1 1 1 1 1 1 1 1 
1 1 1 1 1 1 1 1 1 
1 1 1 1 1 1 1 1 1 
1 1 1 1 1 1 1 1 1 
1 1 1 1 1 1 1 1 1 
1 1 1 1 1 1 1 1 1 
1 1 1 1 1 1 1 1 1 
1 1 1 1 1 
i 3 1400 int
0 0 0 0 0 0 0 1 0 
0 0 0 0 0 0 0 1 0 
0 1 0 0 0 0 0 0 0 
0 0 0 0 0 0 0 1 0 
0 0 0 -1 0 0 1 0 0 
0 0 0 1 0 0 0 0 0 
0 0 0 0 0 0 0 0 0 
0 0 0 0 0 0 0 0 0 
0 0 0 0 0 0 0 0 0 
0 0 0 -1 0 0 0 0 0 
0 0 0 1 0 0 0 0 0 
0 0 0 0 0 0 0 0 0 
0 0 0 0 0 0 0 0 0 
0 0 0 0 0 0 0 0 0 
0 0 0 0 0 0 -1 0 0 
-1 0 0 0 0 0 0 0 0 
0 0 0 0 0 0 0 0 0 
0 0 0 0 0 0 0 0 0 
0 0 0 0 0 0 0 0 0 
0 0 0 0 0 0 0 0 0 
-1 0 0 0 0 0 0 0 0 
0 0 0 0 0 0 0 0 0 
0 0 0 0 0 0 0 0 0 
0 0 0 0 0 0 0 0 0 
0 0 0 0 0 0 0 0 0 
-1 0 0 0 0 0 -1 0 0 
0 0 0 1 0 0 0 0 0 
0 -1 0 0 0 0 0 0 0 
0 0 0 0 -1 0 0 0 0 
0 -1 0 0 0 0 0 0 0 
0 0 0 0 0 0 0 0 0 
0 0 0 0 -1 0 0 -1 0 
0 0 0 0 0 0 0 0 0 
0 1 0 0 0 0 0 0 0 
1 0 0 0 1 0 0 1 0 
0 0 0 0 1 0 0 0 0 
0 0 0 0 0 0 0 0 0 
0 0 0 0 0 0 0 0 0 
0 0 0 0 1 0 0 0 0 
0 0 0 0 0 0 0 0 0 
0 0 0 0 0 0 0 0 0 
0 0 0 0 0 0 0 0 0 
0 0 0 0 0 0 0 0 0 
0 0 0 0 0 0 0 0 0 
0 0 0 0 0 0 0 0 0 
-1 0 0 0 0 0 0 0 0 
0 0 0 0 0 0 0 0 0 
0 0 0 0 0 0 0 0 0 
0 0 0 0 0 0 0 0 0 
0 0 0 0 0 0 0 0 0 
0 0 0 0 0 0 0 0 0 
0 0 0 0 0 0 0 0 0 
0 0 0 0 0 0 0 0 0 
0 0 0 1 0 0 0 0 0 
0 0 0 0 0 0 0 0 0 
0 0 0 0 0 0 0 0 0 
0 0 0 0 0 0 0 0 0 
0 0 0 0 0 0 0 0 0 
0 0 0 0 0 0 0 0 0 
0 0 0 0 0 0 0 0 0 
0 0 0 -1 0 0 1 0 0 
0 0 0 0 0 0 0 0 0 
0 0 0 0 0 0 0 0 0 
0 0 0 0 0 0 0 0 0 
0 0 0 0 0 0 0 0 0 
0 0 0 0 0 0 0 0 0 
0 0 0 0 0 0 -1 0 0 
0 0 0 0 0 0 0 0 0 
0 0 0 0 0 0 0 0 0 
0 0 0 0 0 0 0 -1 0 
0 0 0 0 0 0 0 0 0 
0 0 0 0 0 0 0 0 0 
0 0 0 0 0 0 0 0 0 
0 0 0 0 0 0 0 0 0 
0 0 0 0 0 0 0 0 0 
1 0 0 0 0 0 0 0 0 
0 0 0 0 0 0 0 1 0 
0 0 0 0 0 0 0 0 0 
0 0 0 0 1 0 0 0 0 
0 1 0 0 0 0 0 0 0 
0 0 0 0 0 0 0 0 0 
0 0 0 0 0 0 0 0 0 
-1 0 0 0 0 0 0 0 0 
0 0 0 0 0 0 0 0 0 
0 0 0 0 0 0 0 0 0 
0 0 0 0 0 0 1 0 0 
0 0 0 0 0 0 0 0 0 
0 0 0 0 0 0 0 0 0 
0 0 0 0 0 0 0 0 0 
0 0 0 0 0 0 0 0 0 
0 0 0 0 0 0 0 0 0 
0 0 0 0 0 0 0 0 0 
0 0 0 0 0 0 0 0 0 
-1 0 0 0 0 0 0 0 0 
0 0 0 0 0 0 -1 0 0 
0 0 0 0 0 0 0 0 0 
0 0 0 0 0 0 0 0 0 
0 0 0 0 0 0 0 0 0 
0 0 0 0 0 0 0 0 0 
0 0 0 0 0 0 0 0 0 
0 0 0 0 0 0 0 0 0 
0 0 0 0 0 0 0 0 0 
0 0 0 0 0 0 0 0 0 
0 0 0 0 0 0 0 0 0 
0 0 0 -1 0 0 0 0 0 
0 0 0 0 0 0 0 0 0 
0 0 0 0 0 0 0 0 0 
0 0 0 0 0 0 0 0 0 
0 0 0 0 0 0 0 0 0 
0 0 0 0 0 0 0 0 0 
0 0 0 0 0 0 0 0 0 
0 0 0 0 0 0 0 0 0 
0 0 0 0 0 0 -1 0 0 
0 0 0 0 0 0 0 0 0 
0 0 0 0 0 0 0 0 0 
0 0 0 0 0 0 0 0 0 
0 0 0 0 0 0 0 0 0 
0 0 0 0 0 0 0 0 0 
0 0 0 0 0 0 0 0 0 
0 0 0 0 0 0 0 0 0 
0 0 0 0 0 0 0 0 0 
0 0 0 0 0 0 0 0 0 
0 0 0 0 0 0 0 0 0 
0 0 0 0 0 0 -1 0 0 
0 0 0 0 0 0 0 0 0 
0 0 0 0 0 0 0 0 0 
1 -1 0 0 0 0 0 -1 0 
0 0 0 0 0 0 0 0 0 
0 0 0 0 0 0 0 0 0 
0 0 0 0 0 0 0 0 0 
0 0 0 0 0 0 0 -1 0 
0 0 0 0 0 0 0 0 0 
0 0 0 0 0 0 0 0 0 
0 0 0 -1 0 0 0 0 0 
0 0 0 0 0 0 -1 0 0 
0 0 0 0 1 0 0 0 0 
1 0 0 1 0 0 0 0 0 
0 0 0 0 0 0 0 0 0 
0 0 0 0 0 0 0 0 0 
0 0 0 0 0 0 0 0 0 
0 1 0 0 0 0 0 1 0 
0 0 0 0 0 0 0 0 0 
0 0 0 0 0 0 0 0 0 
0 0 0 0 0 0 0 0 0 
0 1 0 -1 1 0 -1 0 0 
0 0 0 0 0 0 0 0 0 
1 0 0 1 0 0 0 0 0 
1 0 0 0 0 0 0 0 0 
0 0 0 0 0 0 0 0 0 
0 0 0 0 0 0 0 0 0 
0 0 0 0 0 0 0 0 0 
0 0 0 0 0 0 0 0 0 
0 0 0 0 0 0 0 1 0 
0 0 0 0 0 0 0 0 0 
0 0 0 0 1 0 -1 0 0 
0 0 0 0 0 0 0 0 0 
0 0 0 0 0 0 0 0 0 
0 0 0 0 0 0 0 0 0 
0 0 0 0 0 0 0 0 0 
0 0 0 0 0 0 0 0 0 
0 0 0 0 0 0 0 0 0 
0 0 0 0 0 0 0 0 0 
0 0 0 0 0 0 0 0 0 
0 0 0 0 0 0 0 0 0 
0 0 0 0 0 0 0 0 0 
-1 0 0 0 0 0 0 0 0 
1 0 0 0 0 0 0 0 0 
0 0 0 0 0 0 0 0 0 
0 0 0 0 0 0 0 0 0 
0 0 0 0 0 0 0 0 0 
0 0 0 0 0 0 0 0 0 
0 0 0 0 0 0 0 0 0 
0 0 0 0 0 0 0 0 0 
0 0 0 0 0 0 0 0 0 
0 0 0 0 0 0 0 0 0 
0 0 0 0 0 0 0 0 0 
0 0 0 -1 0 0 0 0 0 
0 0 0 0 0 0 0 0 0 
0 0 0 0 0 0 0 0 0 
0 0 0 0 0 0 0 0 0 
0 0 0 0 0 0 0 0 0 
0 0 0 0 0 0 0 0 0 
0 0 0 0 0 0 0 0 0 
0 0 0 0 0 0 0 0 0 
0 0 0 0 0 0 -1 0 0 
0 0 0 0 0 0 0 0 0 
0 0 0 0 0 0 0 0 0 
0 -1 0 0 0 0 0 0 0 
0 0 0 0 0 0 0 0 0 
0 0 0 0 0 0 0 0 0 
0 0 0 0 0 0 0 0 0 
0 0 0 0 0 0 0 0 0 
0 0 0 0 0 0 0 0 0 
0 0 0 0 0 0 0 -1 0 
0 0 0 0 0 0 0 0 0 
0 0 0 0 0 0 0 0 0 
0 0 0 0 1 0 0 0 0 
0 0 0 0 0 0 0 0 0 
0 0 0 0 0 0 0 0 0 
0 1 0 0 0 0 0 0 0 
0 0 0 0 0 0 0 0 0 
0 0 0 0 0 0 0 0 0 
0 0 0 0 0 0 0 1 0 
0 0 0 0 0 0 0 0 0 
0 1 0 0 1 0 0 0 0 
0 0 0 0 0 0 0 0 0 
0 0 0 0 0 0 0 0 0 
0 0 0 0 0 0 0 0 0 
0 0 0 0 0 0 0 0 0 
0 0 0 0 0 0 0 0 0 
0 0 0 0 0 0 0 0 0 
0 0 0 0 0 0 0 0 0 
0 0 0 0 0 0 0 0 0 
0 0 0 0 0 0 0 0 0 
0 0 0 0 0 0 0 0 0 
0 0 0 0 0 0 0 0 0 
0 0 0 0 0 0 0 0 0 
0 0 0 1 0 0 0 0 0 
0 0 0 0 0 0 0 0 0 
0 0 0 0 0 0 0 0 0 
0 0 0 0 0 0 0 0 0 
0 0 0 0 0 0 0 0 0 
0 0 0 0 0 0 0 0 0 
0 0 0 0 0 0 0 0 0 
0 0 0 0 0 0 0 0 0 
0 0 0 0 0 0 0 0 0 
-1 0 0 0 0 0 0 0 0 
0 0 0 0 0 0 0 0 0 
0 0 0 0 0 0 0 0 0 
0 0 0 0 0 0 0 0 0 
0 0 0 0 0 0 0 0 0 
0 0 0 0 0 0 0 0 0 
0 0 0 0 0 0 0 0 0 
0 0 0 0 0 0 0 0 0 
0 0 0 0 0 0 0 0 0 
0 0 0 0 0 0 0 0 0 
0 0 0 0 0 0 0 0 0 
0 0 0 0 0 0 0 0 0 
0 0 0 0 0 0 0 0 0 
0 0 0 0 0 0 0 0 0 
0 0 0 0 0 0 0 0 0 
0 0 0 0 0 0 0 0 0 
0 0 0 0 0 0 0 0 0 
0 0 0 0 0 0 0 0 0 
0 0 0 0 0 0 0 0 0 
0 0 0 0 0 0 0 -1 0 
0 0 0 0 -1 0 0 0 0 
0 0 0 0 0 0 1 0 0 
0 0 0 0 -1 0 0 0 0 
0 0 0 0 0 0 0 0 0 
0 0 0 0 0 0 0 0 0 
0 0 0 0 0 0 0 0 0 
0 -1 0 0 0 0 0 0 0 
0 0 0 0 0 0 0 0 0 
0 0 0 0 0 0 0 0 0 
0 0 0 0 -1 0 0 0 0 
0 0 0 1 0 0 0 0 0 
0 1 0 0 0 0 0 0 0 
0 0 0 0 0 0 0 0 0 
0 0 0 0 0 0 0 0 0 
0 1 0 0 0 0 0 0 0 
0 0 0 0 1 0 0 0 0 
0 0 0 0 0 0 0 0 0 
0 0 0 0 0 0 0 0 0 
-1 0 0 0 0 0 0 1 0 
0 0 0 0 0 0 0 0 0 
0 0 0 0 0 0 1 0 0 
0 0 0 0 0 0 1 0 0 
0 0 0 0 0 0 0 0 0 
0 0 0 0 0 0 0 0 0 
0 0 0 0 0 0 0 0 0 
0 0 0 0 0 0 0 0 0 
0 0 0 0 0 0 0 0 0 
0 0 0 0 0 0 0 0 0 
0 0 0 0 0 0 0 0 0 
0 0 0 0 0 0 0 0 0 
0 0 0 0 0 0 1 0 0 
0 0 0 0 0 0 0 0 0 
0 0 0 0 0 0 0 0 0 
0 0 0 0 0 0 0 0 0 
0 0 0 0 0 0 0 0 0 
0 0 0 0 0 0 0 0 0 
0 0 0 0 0 0 0 0 0 
0 0 0 0 0 0 0 0 0 
0 0 0 0 0 0 0 0 0 
0 0 0 0 0 0 0 0 0 
0 0 0 1 0 0 0 0 0 
0 0 0 0 0 0 0 0 0 
0 0 0 0 0 0 0 0 0 
0 0 0 0 0 0 0 0 0 
0 0 0 0 0 0 0 0 0 
0 0 0 0 0 0 0 0 0 
0 0 0 0 0 0 0 0 0 
0 0 0 0 0 0 0 0 0 
0 0 0 0 0 0 0 0 0 
0 0 0 0 0 0 0 0 0 
0 0 0 0 0 0 0 0 0 
0 0 0 0 0 0 0 0 0 
0 0 0 0 0 0 0 0 0 
0 0 0 0 0 0 0 0 0 
0 0 0 0 0 0 0 0 0 
0 0 0 0 0 0 0 0 0 
0 0 0 0 0 0 0 0 0 
0 0 0 0 0 0 0 0 0 
0 0 0 0 0 0 0 0 0 
0 0 0 0 0 0 0 0 0 
0 0 0 0 0 0 0 0 0 
0 0 0 1 0 0 0 0 0 
0 0 0 0 0 0 0 0 0 
0 -1 0 0 0 0 0 0 0 
0 0 0 0 -1 0 0 0 0 
0 0 0 0 0 0 0 -1 0 
0 0 0 0 0 0 0 -1 0 
0 0 0 0 0 0 0 -1 0 
0 -1 0 0 0 0 0 0 0 
0 0 0 0 -1 0 0 0 0 
0 0 0 0 0 0 0 0 0 
0 0 0 0 0 0 0 0 0 
0 0 0 0 0 0 0 0 0 
0 0 0 0 1 0 0 0 0 
0 0 0 0 0 0 0 0 0 
0 0 0 0 0 0 0 0 0 
0 0 0 0 0 0 0 0 0 
0 0 0 0 0 0 0 0 0 
0 0 0 0 0 0 0 0 0 
0 0 0 0 0 0 0 0 0 
1 0 0 0 0 0 0 0 0 
0 0 0 0 0 0 0 0 0 
0 0 0 0 0 0 0 0 0 
0 0 0 0 0 0 0 0 0 
0 0 0 0 0 0 0 0 0 
0 0 0 0 0 0 0 0 0 
0 0 0 0 0 0 0 0 0 
0 0 0 0 0 0 1 0 0 
0 0 0 0 0 0 0 0 0 
0 0 0 0 0 0 0 0 0 
0 0 0 0 0 0 0 0 0 
0 0 0 0 0 0 0 0 0 
0 0 0 0 0 0 0 0 0 
0 0 0 0 0 0 0 0 0 
0 0 0 0 0 0 0 0 0 
0 0 0 0 0 0 0 0 0 
0 0 0 0 0 0 0 0 0 
0 0 0 0 0 0 0 0 0 
0 0 0 0 0 0 0 0 0 
0 0 0 0 0 0 0 0 0 
0 0 0 0 0 0 0 0 0 
0 0 0 0 0 0 0 0 0 
0 0 0 0 0 0 0 0 0 
0 0 0 0 0 0 0 0 0 
0 0 0 0 0 0 0 0 0 
0 0 0 0 0 0 0 0 0 
0 0 0 0 0 0 0 0 0 
0 0 0 0 0 0 0 0 0 
0 0 0 0 0 0 0 0 0 
1 0 0 0 0 0 0 0 0 
0 0 0 0 0 0 0 0 0 
0 0 0 0 0 0 0 0 0 
0 0 0 0 0 0 0 0 0 
0 0 0 0 0 0 0 0 0 
0 0 0 0 0 0 0 0 0 
0 0 0 0 0 0 0 0 0 
0 0 0 0 0 0 0 0 0 
0 0 0 0 0 0 0 0 0 
0 0 0 0 0 0 0 -1 0 
0 0 0 0 0 0 0 0 0 
0 0 0 0 0 0 0 0 0 
0 0 0 0 0 0 0 0 0 
0 0 0 0 -1 0 0 -1 0 
0 -1 0 0 0 0 0 0 0 
0 0 0 0 0 0 0 0 0 
0 0 0 -1 0 0 0 0 0 
0 0 0 1 0 0 0 0 0 
0 0 0 0 1 0 0 0 0 
0 1 0 0 0 0 0 0 0 
0 0 0 0 0 0 0 0 0 
0 0 0 0 0 0 0 0 0 
0 0 0 0 0 0 0 1 0 
0 0 0 0 0 0 0 0 0 
0 0 0 0 0 0 0 0 0 
0 0 0 0 0 0 0 0 0 
0 0 0 0 0 0 0 0 0 
0 0 0 1 0 0 0 0 0 
0 0 0 0 0 0 0 0 0 
1 0 0 0 0 0 0 0 0 
0 0 0 0 0 0 0 0 0 
0 0 0 0 0 0 0 0 0 
0 0 0 0 0 0 0 0 0 
0 0 0 0 0 0 0 0 0 
0 0 0 0 0 0 0 0 0 
0 0 0 0 0 0 0 0 0 
0 0 0 0 0 0 0 0 0 
0 0 0 0 0 0 0 0 0 
0 0 0 0 0 0 1 0 0 
0 0 0 0 0 0 0 0 0 
0 0 0 0 0 0 0 0 0 
0 0 0 0 0 0 0 0 0 
0 0 0 0 0 0 0 0 0 
0 0 0 0 0 0 0 0 0 
0 0 0 -1 0 0 0 0 0 
-1 0 0 0 0 0 0 0 0 
0 0 0 0 0 0 0 0 0 
0 0 0 0 0 0 1 0 0 
0 0 0 0 0 0 0 0 0 
0 0 0 0 0 0 0 0 0 
0 0 0 0 0 0 0 0 0 
0 0 0 0 0 0 0 0 0 
0 0 0 0 0 0 0 0 0 
0 0 0 0 0 0 0 0 0 
0 0 0 0 0 0 0 0 0 
0 0 0 0 0 0 0 0 0 
0 0 0 0 0 0 0 0 0 
0 0 0 0 0 0 0 0 0 
0 0 0 0 0 0 0 0 0 
0 0 0 0 0 0 0 0 0 
0 0 0 0 0 0 0 0 0 
0 0 0 0 0 0 0 0 0 
0 0 0 0 0 0 0 0 0 
0 0 0 -1 0 0 -1 0 0 
-1 0 0 0 0 0 0 0 0 
0 0 0 0 0 0 0 0 0 
0 0 0 0 0 0 0 0 0 
0 0 0 0 0 0 0 0 0 
0 -1 0 0 0 0 0 -1 0 
0 0 0 0 0 0 0 0 0 
0 0 0 0 0 0 0 0 0 
0 0 0 0 0 0 0 0 0 
0 0 0 0 0 0 0 0 0 
0 0 0 0 0 0 0 0 0 
0 0 0 0 0 0 0 0 0 
0 0 0 0 0 0 0 0 0 
0 0 0 0 0 0 0 0 0 
0 0 0 0 0 0 0 0 0 
0 0 0 0 0 0 0 0 0 
0 0 0 0 0 0 0 0 0 
0 0 0 0 0 0 1 0 0 
0 0 0 0 0 0 0 0 0 
0 0 0 0 0 0 0 0 0 
0 0 0 0 0 0 0 0 0 
0 0 0 0 0 0 0 0 0 
0 0 0 0 0 0 0 0 0 
0 0 0 0 0 0 0 0 0 
0 0 0 0 0 0 0 0 0 
0 0 0 0 0 0 0 0 0 
0 0 0 0 0 0 0 0 0 
0 0 0 0 0 0 0 0 0 
0 0 0 0 0 0 0 0 0 
0 0 0 0 0 0 0 0 0 
1 0 0 0 0 0 0 0 0 
0 0 0 0 0 0 0 0 0 
0 0 0 0 0 0 0 0 0 
0 0 0 0 0 0 0 0 0 
0 0 0 0 0 0 0 0 0 
0 0 0 -1 0 0 0 0 0 
0 0 0 0 0 0 0 0 0 
0 0 0 0 0 0 0 0 0 
0 0 0 0 0 0 0 0 0 
0 0 0 0 0 0 0 0 0 
0 0 0 0 0 0 0 0 0 
0 0 0 0 0 0 0 0 0 
0 0 0 0 -1 0 0 0 0 
0 0 0 0 -1 0 0 0 0 
0 0 0 0 -1 0 0 0 0 
0 0 0 0 0 0 0 0 0 
0 0 0 0 -1 0 0 -1 0 
0 0 0 0 0 0 0 0 0 
0 0 0 0 0 0 
v 3 1400 double
-2.1864e-07 -8.54849e-08 4.29811e-08 -3.09788e-07 -9.25464e-08 8.7887e-08 -1.10115e-07 -1.16393e-07 -6.08402e-09 
-2.63534e-07 -1.11747e-08 1.01722e-07 -2.02436e-07 -2.9348e-08 3.48568e-08 -3.34558e-07 -1.33752e-07 -5.90533e-08 
-3.40343e-07 -5.03832e-08 -3.29774e-08 -2.81445e-07 -1.10269e-07 4.89702e-08 9.76134e-06 4.90217e-06 1.60734e-15 
-2.97452e-07 -1.04232e-07 1.10249e-07 -2.07721e-07 -6.69057e-08 1.58644e-08 -3.12214e-07 -9.6835e-08 3.31541e-08 
-2.47323e-07 -3.94185e-08 -4.25669e-09 -2.49702e-07 -6.31223e-08 5.92333e-08 -2.70881e-07 -6.09381e-08 -4.87849e-09 
-2.90877e-07 -1.35809e-08 -5.46528e-08 -3.14658e-07 -1.16457e-07 -1.45296e-08 -2.82843e-07 -3.76512e-08 -1.76479e-08 
-2.39676e-07 -5.5947e-08 3.99889e-08 -2.83522e-07 -3.64927e-08 -2.91893e-08 -2.09722e-07 -3.46857e-08 6.7703e-09 
-1.79602e-07 -1.14137e-08 8.18109e-08 -3.35331e-07 -1.38001e-08 1.02846e-07 -1.56414e-07 -5.15879e-09 -3.84606e-08 
-2.08238e-07 5.55345e-10 -3.39448e-08 -1.69963e-07 7.4398e-09 -2.3146e-08 -2.75451e-07 -1.72363e-08 -8.68348e-09 
-2.23515e-07 -6.81666e-08 5.74527e-08 -3.96418e-07 9.8164e-08 -3.14349e-08 -2.32265e-07 -6.72969e-08 3.90009e-08 
-5.23967e-07 1.22239e-07 8.8404e-08 -6.23927e-07 1.6664e-06 -1.59542e-07 -3.06526e-07 -1.16324e-07 3.30668e-08 
-2.35014e-07 -3.47204e-08 -5.51725e-08 -2.59324e-07 -4.82925e-08 3.64604e-08 -2.35536e-07 -4.81486e-08 7.26419e-09 
-2.46216e-07 -7.25797e-08 3.00116e-08 -3.19951e-07 -3.44176e-08 -2.81035e-08 -2.39342e-07 -2.64689e-08 5.31413e-08 
-7.91967e-08 -4.28139e-08 4.26098e-09 -2.46593e-07 -4.94986e-08 -1.10271e-08 -3.23903e-07 -2.15225e-08 5.78115e-08 
-3.34119e-07 1.07986e-08 6.05656e-08 -2.41411e-07 3.96787e-08 -5.2023e-08 -4.02293e-06 -1.3169e-06 1.48578e-08 
2.21557e-06 -5.23027e-06 3.39145e-08 -2.27531e-07 -3.26969e-08 1.09789e-07 -2.98914e-07 -6.77376e-08 3.76683e-08 
-3.49156e-07 -8.33831e-08 1.70598e-08 -4.29642e-07 -9.51057e-08 5.26414e-09 -3.66593e-07 -7.25227e-08 -8.33619e-09 