/*--------------------------------*- C++ -*----------------------------------*\
| =========                 |                                                 |
| \\      /  F ield         | OpenFOAM: The Open Source CFD Toolbox           |
|  \\    /   O peration     | Version:  5.x                                   |
|   \\  /    A nd           | Web:      www.OpenFOAM.org                      |
|    \\/     M anipulation  |                                                 |
\*---------------------------------------------------------------------------*/
FoamFile
{
    version     2.0;
    format      ascii;
    class       volVectorField;
    location    "200";
    object      stored_U;
}
// * * * * * * * * * * * * * * * * * * * * * * * * * * * * * * * * * * * * * //

dimensions      [0 1 -1 0 0 0 0];

internalField   nonuniform List<vector> 
90
(
(0.00448602 -0.00622505 -1.2374)
(0.00398738 -0.00462165 -1.24179)
(0.00342738 -0.00198688 -1.23938)
(0.00332664 0.00170853 -1.24435)
(0.00400425 0.00686413 -1.24219)
(0.00517819 0.011902 -1.24277)
(0.00670421 0.0169932 -1.24)
(0.00839555 0.0220694 -1.23731)
(0.0102954 0.0271254 -1.23279)
(0.0123704 0.0320039 -1.22719)
(0.0146378 0.0366662 -1.22017)
(0.0170854 0.0410642 -1.2118)
(0.0197041 0.0452019 -1.202)
(0.0224857 0.0491151 -1.19076)
(0.0254281 0.0528722 -1.178)
(0.0285475 0.0565649 -1.16366)
(0.0318765 0.0603078 -1.14763)
(0.0354667 0.0642335 -1.12977)
(0.0393858 0.068494 -1.10987)
(0.0437084 0.0732539 -1.08769)
(0.0485015 0.078693 -1.06285)
(0.0538239 0.084997 -1.03502)
(0.0597135 0.092385 -1.00363)
(0.0662625 0.101028 -0.968209)
(0.0736061 0.11113 -0.928013)
(0.081869 0.122875 -0.882798)
(0.0909583 0.136265 -0.831343)
(0.100777 0.15117 -0.773094)
(0.111247 0.16743 -0.707589)
(0.122213 0.184819 -0.634471)
(0.133424 0.202968 -0.553572)
(0.144572 0.221363 -0.465054)
(0.155322 0.239375 -0.369358)
(0.165469 0.256407 -0.267334)
(0.174999 0.271862 -0.159948)
(0.184072 0.285094 -0.0484268)
(0.192728 0.294999 0.0656338)
(0.200799 0.299851 0.179756)
(0.208052 0.29741 0.290648)
(0.214503 0.285101 0.394106)
(0.220699 0.260519 0.485424)
(0.227884 0.221825 0.560373)
(0.238202 0.167892 0.615983)
(0.252929 0.0986551 0.650036)
(0.271194 0.0166545 0.663922)
(0.292283 -0.0802751 0.654738)
(0.314198 -0.189178 0.624821)
(0.335436 -0.316261 0.57576)
(0.351736 -0.406814 0.531655)
(0.381663 -0.502782 0.452694)
(0.443875 -0.564743 0.370479)
(0.539271 -0.592318 0.289394)
(0.671118 -0.585699 0.214777)
(0.837932 -0.52576 0.15547)
(1.00089 -0.436444 0.110975)
(1.1397 -0.333247 0.0845427)
(1.25255 -0.230248 0.0514362)
(1.35061 -0.144256 0.0158236)
(1.44342 -0.0741587 -0.0334678)
(1.53541 -0.00504124 -0.0953783)
(1.62262 0.100531 -0.172493)
(1.69005 0.246504 -0.219929)
(1.71699 0.391883 -0.231367)
(1.71726 0.555539 -0.229488)
(1.71366 0.713428 -0.184818)
(1.70534 0.895899 -0.0965133)
(1.7172 1.14464 0.0414011)
(1.79486 1.30365 0.277575)
(1.8995 1.45877 0.478398)
(2.08491 1.7027 0.990814)
(2.16119 1.81333 1.5233)
(2.07302 1.72958 2.01736)
(1.81443 1.41348 2.50881)
(1.39252 0.88109 2.96052)
(0.853788 0.281974 3.25449)
(0.299592 -0.192846 3.39475)
(-0.156646 -0.418399 3.27584)
(-0.43184 -0.423113 3.00621)
(-0.520986 -0.337159 2.66274)
(-0.451476 -0.21912 2.27297)
(-0.257546 -0.142671 1.89647)
(0.11385 -0.13866 1.42038)
(0.61005 -0.186206 0.959996)
(1.11917 -0.176777 0.568699)
(1.55102 -0.0132853 0.251516)
(1.87245 0.316747 0.0117724)
(2.09241 0.789411 -0.144584)
(2.19524 1.27035 -0.197479)
(2.11381 1.61526 0.240729)
(1.97097 1.8635 0.61624)
)
;

boundaryField
{
    inlet
    {
        type            calculated;
        value           uniform (1.97097 1.8635 0.61624);
    }
    outlet
    {
        type            calculated;
        value           uniform (0.00448602 -0.00622505 -1.2374);
    }
    repeat_boundary
    {
        type            calculated;
        value           nonuniform List<vector> 
180
(
(0 -0.00622505 -1.2374)
(0 -0.00462165 -1.24179)
(0 -0.00198688 -1.23938)
(0 0.00170853 -1.24435)
(0 0.00686413 -1.24219)
(0 0.011902 -1.24277)
(0 0.0169932 -1.24)
(0 0.0220694 -1.23731)
(0 0.0271254 -1.23279)
(0 0.0320039 -1.22719)
(0 0.0366662 -1.22017)
(0 0.0410642 -1.2118)
(0 0.0452019 -1.202)
(0 0.0491151 -1.19076)
(0 0.0528722 -1.178)
(0 0.0565649 -1.16366)
(0 0.0603078 -1.14763)
(0 0.0642335 -1.12977)
(0 0.068494 -1.10987)
(0 0.0732539 -1.08769)
(0 0.078693 -1.06285)
(0 0.084997 -1.03502)
(0 0.092385 -1.00363)
(0 0.101028 -0.968209)
(0 0.11113 -0.928013)
(0 0.122875 -0.882798)
(0 0.136265 -0.831343)
(0 0.15117 -0.773094)
(0 0.16743 -0.707589)
(0 0.184819 -0.634471)
(0 0.202968 -0.553572)
(0 0.221363 -0.465054)
(0 0.239375 -0.369358)
(0 0.256407 -0.267334)
(0 0.271862 -0.159948)
(0 0.285094 -0.0484268)
(0 0.294999 0.0656338)
(0 0.299851 0.179756)
(0 0.29741 0.290648)
(0 0.285101 0.394106)
(0 0.260519 0.485424)
(0 0.221825 0.560373)
(0 0.167892 0.615983)
(0 0.0986551 0.650036)
(0 0.0166545 0.663922)
(0 -0.0802751 0.654738)
(0 -0.189178 0.624821)
(0 -0.316261 0.57576)
(0 -0.406814 0.531655)
(0 -0.502782 0.452694)
(0 -0.564743 0.370479)
(0 -0.592318 0.289394)
(0 -0.585699 0.214777)
(0 -0.52576 0.15547)
(0 -0.436444 0.110975)
(0 -0.333247 0.0845427)
(0 -0.230248 0.0514362)
(0 -0.144256 0.0158236)
(0 -0.0741587 -0.0334678)
(0 -0.00504124 -0.0953783)
(0 0.100531 -0.172493)
(0 0.246504 -0.219929)
(0 0.391883 -0.231367)
(0 0.555539 -0.229488)
(0 0.713428 -0.184818)
(0 0.895899 -0.0965133)
(0 1.14464 0.0414011)
(0 1.30365 0.277575)
(0 1.45877 0.478398)
(0 1.7027 0.990814)
(0 1.81333 1.5233)
(0 1.72958 2.01736)
(0 1.41348 2.50881)
(0 0.88109 2.96052)
(0 0.281974 3.25449)
(0 -0.192846 3.39475)
(0 -0.418399 3.27584)
(0 -0.423113 3.00621)
(0 -0.337159 2.66274)
(0 -0.21912 2.27297)
(0 -0.142671 1.89647)
(0 -0.13866 1.42038)
(0 -0.186206 0.959996)
(0 -0.176777 0.568699)
(0 -0.0132853 0.251516)
(0 0.316747 0.0117724)
(0 0.789411 -0.144584)
(0 1.27035 -0.197479)
(0 1.61526 0.240729)
(0 1.8635 0.61624)
(0.00448602 0 -1.2374)
(0.00398738 0 -1.24179)
(0.00342738 0 -1.23938)
(0.00332664 0 -1.24435)
(0.00400425 0 -1.24219)
(0.00517819 0 -1.24277)
(0.00670421 0 -1.24)
(0.00839555 0 -1.23731)
(0.0102954 0 -1.23279)
(0.0123704 0 -1.22719)
(0.0146378 0 -1.22017)
(0.0170854 0 -1.2118)
(0.0197041 0 -1.202)
(0.0224857 0 -1.19076)
(0.0254281 0 -1.178)
(0.0285475 0 -1.16366)
(0.0318765 0 -1.14763)
(0.0354667 0 -1.12977)
(0.0393858 0 -1.10987)
(0.0437084 0 -1.08769)
(0.0485015 0 -1.06285)
(0.0538239 0 -1.03502)
(0.0597135 0 -1.00363)
(0.0662625 0 -0.968209)
(0.0736061 0 -0.928013)
(0.081869 0 -0.882798)
(0.0909583 0 -0.831343)
(0.100777 0 -0.773094)
(0.111247 0 -0.707589)
(0.122213 0 -0.634471)
(0.133424 0 -0.553572)
(0.144572 0 -0.465054)
(0.155322 0 -0.369358)
(0.165469 0 -0.267334)
(0.174999 0 -0.159948)
(0.184072 0 -0.0484268)
(0.192728 0 0.0656338)
(0.200799 0 0.179756)
(0.208052 0 0.290648)
(0.214503 0 0.394106)
(0.220699 0 0.485424)
(0.227884 0 0.560373)
(0.238202 0 0.615983)
(0.252929 0 0.650036)
(0.271194 0 0.663922)
(0.292283 0 0.654738)
(0.314198 0 0.624821)
(0.335436 0 0.57576)
(0.351736 0 0.531655)
(0.381663 0 0.452694)
(0.443875 0 0.370479)
(0.539271 0 0.289394)
(0.671118 0 0.214777)
(0.837932 0 0.15547)
(1.00089 0 0.110975)
(1.1397 0 0.0845427)
(1.25255 0 0.0514362)
(1.35061 0 0.0158236)
(1.44342 0 -0.0334678)
(1.53541 0 -0.0953783)
(1.62262 0 -0.172493)
(1.69005 0 -0.219929)
(1.71699 0 -0.231367)
(1.71726 0 -0.229488)
(1.71366 0 -0.184818)
(1.70534 0 -0.0965133)
(1.7172 0 0.0414011)
(1.79486 0 0.277575)
(1.8995 0 0.478398)
(2.08491 0 0.990814)
(2.16119 0 1.5233)
(2.07302 0 2.01736)
(1.81443 0 2.50881)
(1.39252 0 2.96052)
(0.853788 0 3.25449)
(0.299592 0 3.39475)
(-0.156646 0 3.27584)
(-0.43184 0 3.00621)
(-0.520986 0 2.66274)
(-0.451476 0 2.27297)
(-0.257546 0 1.89647)
(0.11385 0 1.42038)
(0.61005 0 0.959996)
(1.11917 0 0.568699)
(1.55102 0 0.251516)
(1.87245 0 0.0117724)
(2.09241 0 -0.144584)
(2.19524 0 -0.197479)
(2.11381 0 0.240729)
(1.97097 0 0.61624)
)
;
    }
    procBoundary3to1
    {
        type            processor;
        value           nonuniform List<vector> 
90
(
(0.00477409 -0.0211431 -1.11347)
(0.00505626 -0.0203782 -1.11349)
(0.00552983 -0.0190273 -1.10478)
(0.00633232 -0.0169561 -1.10607)
(0.00734699 -0.0143407 -1.10087)
(0.008579 -0.0112682 -1.10023)
(0.00992014 -0.00813175 -1.09824)
(0.011411 -0.00483654 -1.09745)
(0.0131951 -0.0012438 -1.097)
(0.0152349 0.00261347 -1.09699)
(0.0175813 0.00676927 -1.0974)
(0.0202228 0.0112117 -1.09811)
(0.0231681 0.0159532 -1.09907)
(0.0264238 0.0210105 -1.10021)
(0.0300014 0.026414 -1.10144)
(0.0339278 0.0322117 -1.1027)
(0.0382436 0.0384716 -1.10391)
(0.0430135 0.0452886 -1.10499)
(0.0483359 0.052792 -1.10582)
(0.0543528 0.061153 -1.10634)
(0.0612387 0.0705946 -1.10635)
(0.0692287 0.0813772 -1.10573)
(0.0785897 0.0937865 -1.10416)
(0.0895517 0.108103 -1.10155)
(0.10233 0.12459 -1.0975)
(0.117087 0.14343 -1.09155)
(0.134149 0.164694 -1.08381)
(0.153633 0.18811 -1.0741)
(0.175401 0.213094 -1.06206)
(0.19905 0.238842 -1.04766)
(0.224026 0.264296 -1.03092)
(0.249236 0.288171 -1.01174)
(0.2735 0.309008 -0.990732)
(0.296126 0.325299 -0.967732)
(0.317978 0.335666 -0.942579)
(0.34154 0.337858 -0.913141)
(0.368161 0.327501 -0.878324)
(0.397529 0.299324 -0.836051)
(0.427338 0.247193 -0.784163)
(0.454079 0.165494 -0.720334)
(0.473967 0.050283 -0.642271)
(0.483624 -0.0993533 -0.547956)
(0.48083 -0.27996 -0.434191)
(0.466217 -0.483277 -0.298485)
(0.441972 -0.697329 -0.13805)
(0.408798 -0.904072 0.0524574)
(0.36952 -1.09499 0.270097)
(0.328611 -1.26878 0.512683)
(0.289729 -1.42624 0.775812)
(0.258376 -1.57314 1.06197)
(0.233204 -1.71383 1.36847)
(0.216401 -1.83929 1.68009)
(0.241439 -1.94079 1.99048)
(0.318067 -2.02725 2.3014)
(0.438451 -2.09426 2.58892)
(0.594238 -2.14967 2.86687)
(0.767691 -2.19111 3.12342)
(0.95756 -2.21811 3.37524)
(1.16288 -2.23197 3.6226)
(1.37979 -2.24593 3.87406)
(1.58884 -2.26415 4.12756)
(1.76937 -2.27912 4.37756)
(1.91632 -2.28051 4.62866)
(2.00672 -2.26537 4.87161)
(2.04114 -2.2183 5.10181)
(2.01097 -2.1549 5.31376)
(1.92394 -2.01884 5.49116)
(1.78235 -1.74651 5.6057)
(1.59287 -1.3594 5.63918)
(1.37189 -0.900439 5.58728)
(1.13501 -0.445298 5.4533)
(0.878374 -0.0845572 5.26496)
(0.604227 0.104493 5.05324)
(0.272095 0.0347186 4.85736)
(-0.134576 -0.34092 4.73654)
(-0.594873 -0.991598 4.71312)
(-1.05881 -1.81665 4.79513)
(-1.44798 -2.63923 4.97264)
(-1.69463 -3.31843 5.21357)
(-1.78985 -3.84963 5.56637)
(-1.67988 -4.19876 5.9656)
(-1.387 -4.40921 6.41858)
(-0.999484 -4.49461 6.95466)
(-0.597287 -4.49136 7.5122)
(-0.252535 -4.3009 8.1653)
(0.022217 -4.01799 8.6347)
(0.249361 -3.35006 9.27598)
(0.358169 -2.79778 9.3518)
(0.576885 -1.56073 9.92829)
(0.497147 -1.12958 9.33604)
)
;
    }
    procBoundary3to2
    {
        type            processor;
        value           nonuniform List<vector> 
90
(
(0.00496493 0.00099661 -1.31761)
(0.00455496 0.00411897 -1.32415)
(0.00406579 0.0100791 -1.32153)
(0.00445083 0.0158848 -1.32564)
(0.00555514 0.0216634 -1.32316)
(0.0071221 0.027161 -1.32332)
(0.00895784 0.0324849 -1.32126)
(0.0109327 0.0376306 -1.31933)
(0.0130894 0.0426728 -1.3166)
(0.0154021 0.0475039 -1.31342)
(0.0178902 0.052162 -1.30968)
(0.0205554 0.0566612 -1.30541)
(0.023416 0.061069 -1.3006)
(0.0265061 0.0654659 -1.29523)
(0.0298833 0.0699452 -1.28928)
(0.0336449 0.0746163 -1.28271)
(0.0379292 0.0795954 -1.2755)
(0.0429253 0.085023 -1.26755)
(0.0488869 0.0910787 -1.25887)
(0.0560665 0.0980469 -1.24933)
(0.0647259 0.106258 -1.23882)
(0.0751372 0.116148 -1.2273)
(0.087455 0.128103 -1.21472)
(0.101745 0.142336 -1.20018)
(0.118236 0.159073 -1.18389)
(0.136976 0.178457 -1.16547)
(0.157862 0.200462 -1.14474)
(0.180586 0.224849 -1.12152)
(0.204675 0.251105 -1.09583)
(0.229506 0.278368 -1.06784)
(0.254318 0.305528 -1.038)
(0.278265 0.330875 -1.00683)
(0.300457 0.35264 -0.975863)
(0.320242 0.369367 -0.946021)
(0.337401 0.380861 -0.918417)
(0.351766 0.387582 -0.892599)
(0.362583 0.387469 -0.870646)
(0.369161 0.376485 -0.85569)
(0.371025 0.348828 -0.851877)
(0.369546 0.2984 -0.865188)
(0.369364 0.219883 -0.904947)
(0.378852 0.110139 -0.979433)
(0.40911 -0.0309255 -1.09526)
(0.470974 -0.200587 -1.27705)
(0.567144 -0.376022 -1.5431)
(0.695634 -0.497235 -1.87113)
(0.852357 -0.50531 -2.25307)
(1.03525 -0.382559 -2.67887)
(1.23322 -0.193049 -3.14862)
(1.41561 -0.0212115 -3.61029)
(1.56981 0.156966 -4.01689)
(1.69274 0.410817 -4.47714)
(1.73854 0.67845 -4.92235)
(1.6848 0.956133 -5.381)
(1.5022 1.1983 -5.81777)
(1.19035 1.39067 -6.24294)
(0.789997 1.51935 -6.6306)
(0.372914 1.59713 -6.99093)
(0.0280645 1.63817 -7.31201)
(-0.171326 1.66436 -7.60594)
(-0.203418 1.71206 -7.87443)
(-0.132409 1.82097 -8.13124)
(-0.00212856 1.92349 -8.37019)
(0.159778 1.94955 -8.56942)
(0.24866 1.94275 -8.72205)
(0.3766 1.89649 -8.915)
(0.667858 1.70325 -9.09206)
(0.883177 1.50867 -9.19314)
(0.900692 1.57161 -9.37897)
(0.860141 1.70729 -9.74751)
(0.913962 1.40258 -9.87384)
(0.903274 1.21885 -10.1108)
(0.867476 1.01211 -10.295)
(0.774829 0.850821 -10.4458)
(0.704437 0.667919 -10.5497)
(0.592047 0.51129 -10.6052)
(0.498939 0.357203 -10.6073)
(0.376128 0.214323 -10.5957)
(0.258458 0.0783836 -10.5838)
(0.119851 -0.0455737 -10.5673)
(-0.0123247 -0.133248 -10.5776)
(-0.140033 -0.20537 -10.606)
(-0.249286 -0.25012 -10.6869)
(-0.353802 -0.282326 -10.7993)
(-0.449649 -0.308915 -10.9516)
(-0.542647 -0.330809 -11.1138)
(-0.65613 -0.36362 -11.2772)
(-0.775927 -0.396249 -11.4476)
(-0.87877 -0.419012 -11.6468)
(-0.920535 -0.431871 -11.7528)
)
;
    }
}


// ************************************************************************* //
