FoamFile
{version 2.0; format ascii;class vectorField; location 0;object  v;}
350
(
( 6.40549e-07 -1.59274e-06 -2.56632e-06 )  
( -3.65404e-06 -9.41326e-07 -4.34896e-06 )  
( -7.45615e-07 -1.53864e-06 -2.61157e-06 )  
( -1.67307e-06 -2.46954e-06 -4.07738e-06 )  
( -0.000130273 -1.84986e-05 -7.3311e-07 )  
( -2.83311e-06 2.93523e-07 -2.67684e-06 )  
( -3.44851e-06 -3.15406e-06 -5.46431e-06 )  
( 1.48099e-06 -3.28135e-06 -4.97928e-06 )  
( 2.91902e-08 -5.20565e-06 -2.01445e-06 )  
( -1.00421e-06 -2.14331e-06 -6.1433e-06 )  
( 2.45157e-07 -2.21285e-06 -2.73981e-06 )  
( 0.000115893 0.000152634 -1.60147e-06 )  
( 1.70196e-07 -1.56116e-06 -3.32518e-06 )  
( 1.87495e-07 -4.77801e-06 -9.12915e-07 )  
( -1.18901e-06 -3.57228e-06 -1.95994e-06 )  
( -6.16961e-06 -7.21893e-06 -9.2093e-06 )  
( -8.15062e-07 -2.99391e-06 -3.28974e-06 )  
( -1.45769e-06 -7.95119e-07 -5.20177e-07 )  
( -3.28109e-06 -2.98953e-06 -2.89624e-06 )  
( -9.00369e-08 -1.33912e-06 -2.90697e-06 )  
( 8.91519e-07 -1.39814e-06 -1.40848e-06 )  
( -8.34229e-07 -1.66596e-06 -3.14662e-06 )  
( -2.14458e-06 -2.18688e-06 -4.49943e-06 )  
( 3.94366e-08 -5.16126e-07 -1.14662e-06 )  
( -2.57163e-06 -2.39109e-06 -7.38044e-06 )  
( -2.70266e-06 -1.42788e-06 -2.86251e-06 )  
( -4.46888e-08 -1.47425e-06 -3.47806e-06 )  
( -5.14603e-06 -4.44653e-06 -5.76247e-06 )  
( -1.76242e-07 -1.93563e-06 -1.00011e-05 )  
( -1.14086e-07 -1.46396e-06 -2.36541e-06 )  
( -1.91856e-06 -3.44381e-06 -4.81378e-06 )  
( -3.46386e-06 4.42638e-07 -6.44935e-06 )  
( 1.24291e-06 -3.27474e-06 -3.40856e-06 )  
( -3.54431e-06 -4.61742e-06 -8.85242e-06 )  
( 1.50206e-06 -3.27892e-06 -5.0642e-06 )  
( -2.56058e-09 -3.00236e-06 -6.44866e-06 )  
( -2.42235e-06 -1.76343e-06 -3.44764e-06 )  
( -2.24125e-06 -2.82924e-06 -7.62422e-06 )  
( -2.29779e-06 -2.46799e-06 -3.88625e-06 )  
( -1.07254e-06 -8.87269e-06 -6.55879e-06 )  
( -5.20682e-06 -1.50614e-06 -5.99421e-06 )  
( 9.46252e-07 -1.06583e-05 -6.52374e-06 )  
( -3.56505e-06 -4.54914e-06 -2.09531e-06 )  
( -1.0704e-06 -3.93028e-06 -6.63312e-06 )  
( -7.06046e-07 -9.32352e-07 -2.31678e-06 )  
( -7.3518e-06 -4.78593e-06 -8.22686e-06 )  
( -7.60749e-07 -3.39769e-06 -1.46908e-05 )  
( -2.56922e-07 -3.74239e-06 -9.09643e-06 )  
( -4.00994e-06 -4.79148e-06 -8.41479e-06 )  
( 2.35507e-07 -3.38122e-06 -6.67335e-06 )  
( -4.1053e-06 -4.05572e-07 -6.46918e-06 )  
( -4.65418e-06 -1.7842e-05 -1.99124e-05 )  
( -1.95128e-06 -4.17153e-06 -1.75561e-05 )  
( -3.67133e-06 -1.76927e-06 -9.05106e-06 )  
( -7.92782e-06 -9.95254e-06 -1.33673e-05 )  
( -8.17267e-07 -2.74614e-06 -3.21595e-06 )  
( -4.5864e-06 -5.11163e-06 -1.12402e-05 )  
( -2.53576e-06 -1.51782e-06 -1.31494e-05 )  
( -5.14126e-06 -4.66258e-06 -1.7074e-05 )  
( -5.58935e-06 -6.37718e-06 -2.02398e-05 )  
( -7.89884e-06 -6.90016e-06 -1.03204e-05 )  
( 2.97363e-06 -4.33097e-06 -8.57142e-06 )  
( -6.24235e-06 -2.12774e-06 -1.4523e-05 )  
( 7.31163e-07 -5.42287e-06 -1.446e-05 )  
( -2.74821e-06 -9.22885e-06 -1.2239e-05 )  
( -6.57849e-06 -7.79218e-06 -1.33147e-05 )  
( 2.37196e-06 7.72067e-06 -3.98625e-06 )  
( -3.14746e-06 -3.03622e-06 -1.15197e-05 )  
( -9.51908e-06 1.26332e-06 -1.87599e-05 )  
( -2.14489e-06 -3.79983e-06 -1.20889e-05 )  
( -3.48165e-06 -2.51702e-06 -1.03379e-05 )  
( -4.35395e-06 1.03487e-06 -9.25718e-06 )  
( -1.98784e-07 -6.09752e-06 -1.23099e-05 )  
( -7.22712e-06 -7.402e-06 -1.94772e-05 )  
( -5.58115e-06 2.38426e-06 -1.58484e-05 )  
( -6.15473e-06 -9.70763e-06 -2.04006e-05 )  
( -2.49802e-06 -2.31805e-06 -9.17661e-06 )  
( -6.1943e-06 -1.2241e-07 -1.06987e-05 )  
( -9.91783e-06 -2.30312e-06 -1.81145e-05 )  
( -7.61414e-06 8.9726e-06 -6.17017e-06 )  
( -8.06138e-06 -2.92032e-06 -1.43933e-05 )  
( 2.35568e-06 -3.78553e-06 -2.65008e-06 )  
( -5.0394e-06 -1.06252e-06 -2.27789e-05 )  
( -1.20027e-05 -5.71704e-06 -2.00068e-05 )  
( -1.01596e-05 -4.01735e-06 -1.0697e-05 )  
( -4.4957e-06 -5.81614e-06 -2.33445e-05 )  
( -7.68521e-06 -5.25455e-06 -1.80658e-05 )  
( -1.20649e-05 -2.96593e-06 -1.97994e-05 )  
( -1.32429e-05 -5.94661e-06 -1.90463e-05 )  
( -4.58582e-06 -5.36657e-06 -3.85151e-05 )  
( -1.85413e-07 -4.44703e-06 -7.46776e-06 )  
( -8.822e-06 -3.2132e-06 -2.96702e-05 )  
( 1.17452e-06 -6.78865e-06 -1.80433e-05 )  
( -1.29569e-05 -1.71431e-06 -2.32853e-05 )  
( -1.13109e-05 -3.81393e-06 -2.05428e-05 )  
( -1.27007e-05 -5.79735e-06 -2.22022e-05 )  
( -5.62625e-06 -5.90404e-06 -2.6285e-05 )  
( -6.68755e-06 -3.57364e-06 -3.40781e-05 )  
( -1.20233e-05 -8.64913e-06 -2.65394e-05 )  
( -1.10728e-05 -2.49017e-06 -3.51353e-05 )  
( -1.50042e-05 -3.9885e-06 -2.69609e-05 )  
( 8.25735e-06 1.01022e-06 2.01833e-07 )  
( -1.40343e-05 -5.11285e-06 -2.43984e-05 )  
( -1.44467e-05 -3.80022e-06 -3.29514e-05 )  
( -1.92685e-06 -1.40911e-05 -2.37983e-05 )  
( -1.15668e-05 -5.69603e-06 -2.94091e-05 )  
( -1.75758e-05 -1.25812e-06 -2.11755e-05 )  
( 1.59299e-06 -1.08746e-05 -2.24841e-05 )  
( -6.36983e-06 1.12848e-06 -3.04652e-05 )  
( -2.07944e-06 -1.1294e-05 -2.01682e-05 )  
( -1.51025e-05 -1.4466e-06 -1.87577e-05 )  
( -1.22214e-05 -1.18177e-06 -2.60933e-05 )  
( -1.46317e-05 -6.66807e-06 -2.44564e-05 )  
( -7.15767e-06 2.56797e-06 -2.1768e-05 )  
( -6.90981e-06 -1.09809e-05 -4.36438e-05 )  
( -1.48129e-05 -2.17268e-06 -3.62879e-05 )  
( -1.42854e-05 4.62984e-07 -2.60066e-05 )  
( -5.67403e-06 -5.13966e-06 -4.01512e-05 )  
( -1.57982e-05 -1.68602e-06 -2.99728e-05 )  
( -2.03996e-05 -1.2271e-05 -3.07929e-05 )  
( 6.4425e-06 9.40143e-06 3.36991e-06 )  
( -1.9214e-05 -7.13934e-06 -2.82469e-05 )  
( -2.25532e-05 -7.83934e-06 -3.40116e-05 )  
( -1.54192e-05 -4.94716e-06 -3.93653e-05 )  
( -1.75253e-05 -7.56321e-06 -3.41603e-05 )  
( -1.21702e-05 -2.75209e-06 -5.80421e-05 )  
( -2.89524e-05 -9.15688e-06 -2.56165e-05 )  
( -1.77243e-05 -7.86042e-06 -3.29164e-05 )  
( -1.41383e-05 5.88592e-07 -3.97348e-05 )  
( -1.52158e-05 -1.04561e-05 -4.69088e-05 )  
( -2.45706e-05 -1.0083e-05 -5.60836e-05 )  
( -3.66839e-05 -6.42719e-06 -4.86717e-05 )  
( -2.38335e-05 -5.5256e-06 -3.16773e-05 )  
( -2.49635e-05 2.28364e-06 -4.20147e-05 )  
( -1.79921e-05 -4.60423e-06 -4.48541e-05 )  
( -1.19159e-05 -1.50906e-07 -4.43958e-05 )  
( -2.82525e-05 -1.32871e-05 -3.87946e-05 )  
( -1.3818e-05 -4.13192e-06 -4.00193e-05 )  
( -2.75867e-05 -7.84941e-06 -5.95207e-05 )  
( -2.92958e-05 -7.5162e-06 -5.28095e-05 )  
( -2.6938e-05 -5.01004e-06 -5.09567e-05 )  
( -1.82077e-05 -3.36228e-06 -3.20176e-05 )  
( -3.03658e-05 -1.04207e-05 -6.33777e-05 )  
( -1.86466e-05 4.42935e-06 -4.87994e-05 )  
( -4.10185e-05 4.20849e-06 -5.30483e-05 )  
( -2.86107e-05 -1.46191e-05 -4.70981e-05 )  
( -4.3094e-05 -8.65796e-06 -5.07311e-05 )  
( -2.45473e-05 -6.03517e-07 -4.20839e-05 )  
( -3.10858e-05 -1.02999e-05 -5.10538e-05 )  
( -1.11747e-05 -8.62286e-06 -6.15319e-05 )  
( -2.78021e-05 -1.4988e-06 -6.43222e-05 )  
( -1.70588e-05 -7.71264e-08 -4.18912e-05 )  
( -1.97209e-05 4.96779e-07 -3.84568e-05 )  
( -2.29861e-05 -8.92979e-06 -3.44667e-05 )  
( -2.07497e-05 -6.40842e-06 -7.12573e-05 )  
( -2.59316e-05 -4.45075e-06 -6.5516e-05 )  
( -2.64721e-05 2.02794e-07 -4.86557e-05 )  
( -2.11528e-05 -9.00871e-06 -6.74319e-05 )  
( -2.29106e-05 1.38465e-06 -5.27061e-05 )  
( -1.20507e-05 -3.45562e-06 -3.97536e-05 )  
( -3.00601e-05 -5.87195e-06 -6.24297e-05 )  
( -2.54224e-05 1.00421e-06 -6.70141e-05 )  
( -2.22876e-05 7.18988e-06 -5.46651e-05 )  
( -2.5808e-05 8.19719e-08 -5.33415e-05 )  
( -2.44698e-05 -1.83482e-05 -7.34749e-05 )  
( -1.95915e-05 1.66383e-06 -4.56474e-05 )  
( -2.53135e-05 -8.48975e-06 -6.96515e-05 )  
( -2.45299e-05 1.38283e-06 -4.76429e-05 )  
( -1.97762e-05 3.72825e-06 -7.61682e-05 )  
( -3.15624e-05 -9.399e-06 -5.35111e-05 )  
( -3.53026e-05 7.97106e-07 -6.59795e-05 )  
( -2.89481e-05 -7.3106e-06 -8.29962e-05 )  
( -2.71565e-05 -5.0723e-06 -7.21429e-05 )  
( -1.97962e-05 2.55971e-06 -6.51705e-05 )  
( -2.24748e-05 4.6193e-06 -6.30217e-05 )  
( -3.23894e-05 -8.32967e-06 -8.72097e-05 )  
( -2.32199e-05 -3.20488e-06 -7.85531e-05 )  
( -2.0901e-05 -1.02619e-05 -7.63378e-05 )  
( -1.99353e-05 -3.50341e-06 -7.21213e-05 )  
( -3.38654e-05 1.16623e-05 -9.77262e-05 )  
( -2.55449e-05 -6.65398e-06 -8.52673e-05 )  
( -3.78353e-06 -4.22793e-06 -8.86319e-05 )  
( -2.9736e-05 -1.31081e-06 -0.000101028 )  
( -5.90302e-05 -1.11082e-05 -5.94155e-05 )  
( -3.35511e-05 1.84398e-05 -3.13486e-05 )  
( -1.3726e-05 5.44793e-06 -8.88099e-05 )  
( -2.51297e-05 -1.55422e-05 -8.85671e-05 )  
( -2.06827e-05 -7.22409e-06 -0.000104358 )  
( -2.41814e-05 4.61215e-06 -8.43088e-05 )  
( -2.91137e-05 -2.25017e-06 -0.000107618 )  
( -2.4289e-05 -9.81571e-06 -9.97355e-05 )  
( -2.89524e-05 4.03275e-06 -9.99698e-05 )  
( -1.36085e-05 8.92982e-06 -7.22029e-05 )  
( -7.83744e-06 1.29067e-06 -0.000106301 )  
( 3.80201e-06 7.85853e-06 -0.000103906 )  
( -3.0896e-05 -5.12162e-06 -7.95261e-05 )  
( -2.28537e-05 -4.31792e-06 -8.09158e-05 )  
( -1.65677e-05 4.81258e-06 -9.22453e-05 )  
( -2.22447e-05 -1.49208e-06 -7.9128e-05 )  
( -7.54854e-06 -2.04552e-08 -0.000136772 )  
( -1.86211e-05 -1.40965e-06 -0.000101299 )  
( -1.12101e-05 3.25096e-06 -0.000121393 )  
( -2.94518e-05 5.25857e-06 -0.000111985 )  
( -1.91644e-05 -5.53917e-07 -4.81774e-05 )  
( -6.10314e-06 -3.00551e-06 -8.61206e-05 )  
( -1.63483e-05 -2.83238e-06 -9.66523e-05 )  
( -3.55865e-06 -5.70313e-06 -0.000105693 )  
( -3.62064e-05 4.71849e-06 -0.000131682 )  
( -4.00502e-05 -2.42377e-05 -0.00013397 )  
( -3.46013e-05 4.35531e-06 -0.000104958 )  
( -6.5962e-06 6.3248e-06 -0.000106378 )  
( -6.15051e-05 -9.9419e-06 -6.86168e-05 )  
( -2.99483e-05 -3.65547e-06 -0.000109679 )  
( -6.33008e-06 -8.3392e-06 -9.91046e-05 )  
( -2.36165e-06 1.37353e-06 -0.000110601 )  
( -2.75452e-05 -5.61753e-06 -0.000135572 )  
( -3.81406e-05 1.0775e-05 -0.00014791 )  
( -1.25819e-05 2.50475e-05 -0.000125703 )  
( 9.65144e-06 -2.89525e-06 -0.000156703 )  
( -1.82575e-06 -1.10688e-05 -0.000111538 )  
( -4.40834e-06 7.05003e-06 -0.000136988 )  
( -2.48732e-05 -5.76297e-06 -0.000123217 )  
( -2.28787e-05 -1.05975e-05 -0.000157184 )  
( -1.64504e-06 1.4967e-05 -0.000103995 )  
( -2.04861e-05 9.7202e-06 -0.000107375 )  
( -2.36463e-05 9.42696e-06 -0.000119758 )  
( -6.37587e-06 1.65798e-06 -0.000130382 )  
( -8.01888e-06 -5.9467e-06 -0.000138647 )  
( -3.43377e-05 -1.11676e-05 -0.000143669 )  
( 2.32269e-06 3.5295e-07 -0.000139052 )  
( 6.06259e-06 -1.09643e-05 -0.000136371 )  
( -1.10394e-05 3.00868e-05 -0.000116887 )  
( -3.03422e-05 2.34898e-05 -0.000125099 )  
( -3.83828e-05 -2.03215e-05 -9.59998e-05 )  
( 1.12989e-06 5.1052e-06 -0.000139223 )  
( -8.5266e-06 8.08114e-06 -0.000150846 )  
( -3.68815e-05 9.30339e-07 -0.000149855 )  
( -4.16002e-05 -3.12313e-05 -0.000162297 )  
( 2.44427e-05 1.80105e-07 -0.000143564 )  
( -9.41048e-06 -7.67988e-06 -0.000142132 )  
( -6.10516e-06 2.21765e-05 -0.000157621 )  
( 4.6764e-07 1.13883e-06 -0.00016749 )  
( -9.86524e-06 -1.81811e-05 -0.000178728 )  
( -1.55127e-05 1.36856e-05 -0.000192076 )  
( 4.13075e-06 -3.44307e-07 -0.000189964 )  
( -4.8849e-06 4.74397e-06 -0.000142869 )  
( -2.30614e-05 -7.35953e-06 -0.000177043 )  
( -1.66955e-05 -1.86537e-05 -0.000147065 )  
( -6.22763e-06 -1.92003e-05 -0.000191082 )  
( 3.46271e-05 2.06903e-05 -0.00011368 )  
( 3.69163e-06 1.68084e-05 -0.00019875 )  
( 1.00654e-06 3.05115e-06 -0.000145405 )  
( -5.18359e-06 2.54835e-07 -0.000197123 )  
( -7.01085e-06 -4.37772e-06 -0.00019399 )  
( 3.65526e-06 1.15627e-05 -0.000210975 )  
( -2.63681e-05 -3.94244e-06 -0.000194393 )  
( -4.25904e-06 1.50556e-05 -0.00021015 )  
( 8.76825e-06 -7.69992e-06 -0.000172305 )  
( 1.39193e-05 1.97814e-05 -0.000198159 )  
( 1.71805e-06 -6.95694e-06 -0.000228867 )  
( -2.06912e-06 3.24556e-05 -0.000141757 )  
( -2.11717e-05 1.78422e-06 -0.000216578 )  
( -1.09861e-05 -2.01247e-07 -0.000156216 )  
( -1.0635e-06 3.7951e-05 -0.000177049 )  
( 2.26985e-05 1.19129e-05 -0.00023439 )  
( -1.74609e-05 2.71204e-05 -0.000215518 )  
( 2.00055e-06 3.58465e-06 -0.00025574 )  
( 1.49673e-06 -1.55657e-06 -0.000203999 )  
( 9.11862e-06 1.01204e-05 -0.000253188 )  
( 1.78098e-06 1.44564e-05 -0.000213928 )  
( -5.87209e-06 -3.21199e-05 -0.000244211 )  
( -5.89394e-06 1.95291e-05 -0.000221038 )  
( -1.77063e-06 -6.96825e-06 -0.000248314 )  
( 8.41432e-07 -1.00237e-05 -0.000215737 )  
( 1.25754e-05 5.74103e-05 -0.00020024 )  
( -2.64218e-06 -9.75183e-06 -0.000193375 )  
( -1.52321e-05 -2.33931e-06 -0.00019754 )  
( -2.90479e-06 -1.78166e-05 -0.000226481 )  
( 3.83167e-06 -2.67144e-06 -0.000250493 )  
( 3.30418e-06 5.4603e-06 -0.000225671 )  
( 1.11191e-05 2.565e-05 -0.000222812 )  
( 1.37807e-05 -3.0471e-05 -0.000268534 )  
( 8.66502e-06 7.18688e-06 -0.000238054 )  
( 1.26809e-06 1.12321e-05 -0.000249447 )  
( 2.88008e-05 -3.83298e-06 -0.000283432 )  
( -7.80206e-05 -1.84253e-05 -0.000189534 )  
( 2.04344e-05 -1.13855e-05 -0.000226071 )  
( 3.27166e-05 9.75407e-06 -0.000235915 )  
( 2.07545e-06 -8.617e-06 -0.000235243 )  
( 2.26696e-05 -4.02262e-05 -0.000237302 )  
( 6.16789e-06 1.63389e-05 -0.000251107 )  
( 1.55991e-05 -1.02236e-05 -0.000237902 )  
( 2.33408e-05 1.51803e-05 -0.000256547 )  
( 4.47464e-06 -7.37134e-06 -0.000232894 )  
( 5.09898e-06 1.04505e-06 -0.000261093 )  
( 3.77147e-05 -2.42734e-07 -0.000245157 )  
( 2.30673e-05 -1.48703e-05 -0.000282524 )  
( 2.18159e-05 -1.34626e-05 -0.000276721 )  
( 8.06827e-06 2.0008e-06 -0.000236563 )  
( -5.68123e-06 1.32306e-05 -0.000216067 )  
( 5.75654e-06 -4.68931e-06 -0.000277634 )  
( 1.93183e-05 5.5797e-06 -0.000263289 )  
( 5.0173e-06 -1.04588e-05 -0.000267858 )  
( -1.20739e-05 6.52491e-06 -0.000238313 )  
( 2.88638e-05 1.20847e-05 -0.000266425 )  
( 1.45073e-05 4.04888e-06 -0.000262398 )  
( 1.94864e-05 3.90556e-07 -0.000283701 )  
( 1.44871e-05 1.06755e-05 -0.000258121 )  
( 3.08615e-06 1.765e-05 -0.000254128 )  
( 1.66915e-05 -2.38202e-07 -0.000254145 )  
( 8.50904e-06 2.8966e-06 -0.000274511 )  
( 2.13815e-05 1.15293e-05 -0.0002533 )  
( 2.2732e-05 -4.41211e-06 -0.00029408 )  
( 6.14218e-07 2.54829e-06 -0.000288375 )  
( 1.38295e-05 -2.17751e-05 -0.000282009 )  
( 2.94109e-05 1.94438e-05 -0.000260159 )  
( 1.52159e-05 2.76426e-06 -0.000270643 )  
( 1.57906e-05 3.53927e-06 -0.000264251 )  
( 1.74953e-05 2.74023e-05 -0.000252156 )  
( 4.42438e-05 -1.7145e-05 -0.000256813 )  
( 3.91118e-05 -1.62275e-05 -0.000301114 )  
( 1.17133e-05 8.9651e-06 -0.000255285 )  
( 7.29934e-06 1.9443e-05 -0.000299251 )  
( 1.30833e-05 1.56168e-05 -0.000268648 )  
( 2.78886e-05 -6.28579e-05 -0.000269185 )  
( 5.65668e-05 2.08095e-05 -0.000282037 )  
( 4.2343e-05 -2.26552e-05 -0.000273934 )  
( 1.54782e-05 1.86816e-05 -0.000259451 )  
( 2.03615e-05 1.81874e-05 -0.000277622 )  
( 4.37974e-05 -2.03047e-05 -0.000277462 )  
( 3.01152e-05 -1.82919e-05 -0.000282873 )  
( 6.0241e-05 -9.63504e-06 -0.000302334 )  
( 4.15694e-05 1.87406e-06 -0.000290372 )  
( 1.56372e-06 -1.03491e-05 -0.000271874 )  
( 2.10385e-05 -7.44848e-06 -0.000302485 )  
( 1.60054e-05 -8.16725e-06 -0.000293702 )  
( 4.06803e-05 -2.86903e-05 -0.000303016 )  
( 4.12969e-05 -4.07463e-05 -0.000296523 )  
( 2.08173e-05 1.72457e-06 -0.000296484 )  
( 2.51767e-05 8.34351e-06 -0.000261197 )  
( -8.23498e-07 3.75478e-05 -0.000318303 )  
( 1.10714e-05 -1.60142e-05 -0.000291751 )  
( -1.15177e-06 6.46067e-06 -0.000277681 )  
( 7.5974e-05 -4.45659e-05 -0.000286811 )  
( 6.77643e-05 8.714e-06 -0.000294569 )  
( 1.84324e-05 3.10286e-05 -0.000293019 )  
( 1.01361e-05 3.3208e-05 -0.000268959 )  
( 2.51534e-06 -1.08569e-05 -0.000287875 )  
( 2.99588e-05 3.58354e-05 -0.000278992 )  
( 8.11394e-06 1.41958e-05 -0.000269985 )  
)
