/*--------------------------------*- C++ -*----------------------------------*\
  =========                 |
  \\      /  F ield         | OpenFOAM: The Open Source CFD Toolbox
   \\    /   O peration     | Website:  https://openfoam.org
    \\  /    A nd           | Version:  9
     \\/     M anipulation  |
\*---------------------------------------------------------------------------*/
FoamFile
{
    format      ascii;
    class       surfaceScalarField;
    location    "300";
    object      phi;
}
// * * * * * * * * * * * * * * * * * * * * * * * * * * * * * * * * * * * * * //

dimensions      [0 3 -1 0 0 0 0];

internalField   nonuniform List<scalar> 
716
(
8.00984e-09
-7.98932e-09
-0.0250001
-8.91847e-09
-0.0249996
6.98333e-09
-0.0250006
-0.0250002
1.74187e-08
-1.80845e-08
-0.0250001
-2.03419e-08
-0.0249996
1.502e-08
-0.0250006
-0.0250001
2.76218e-08
-3.04496e-08
-0.025
-3.27664e-08
-0.0249995
2.49553e-08
-0.0250007
-0.0250001
3.78652e-08
-4.54513e-08
-0.0249999
-4.56069e-08
-0.0249994
3.69373e-08
-0.0250008
-0.025
4.81376e-08
-6.41433e-08
-0.0249999
-5.90546e-08
-0.0249993
5.19437e-08
-0.0250009
-0.025
5.84743e-08
-8.76263e-08
-0.0249997
-7.34197e-08
-0.0249992
7.11109e-08
-0.025001
-0.0249999
6.88939e-08
-1.16998e-07
-0.0249996
-8.90759e-08
-0.024999
9.54334e-08
-0.0250012
-0.0249998
7.93437e-08
-1.53713e-07
-0.0249995
-1.06465e-07
-0.0249988
1.26043e-07
-0.0250015
-0.0249997
8.96006e-08
-1.99549e-07
-0.0249994
-1.26131e-07
-0.0249986
1.6428e-07
-0.0250019
-0.0249997
9.95143e-08
-2.56772e-07
-0.0249992
-1.48663e-07
-0.0249984
2.11702e-07
-0.0250024
-0.0249996
1.09627e-07
-3.28283e-07
-0.024999
-1.74652e-07
-0.0249981
2.7052e-07
-0.025003
-0.0249995
1.20601e-07
-4.1782e-07
-0.0249987
-2.04639e-07
-0.0249978
3.43617e-07
-0.0250037
-0.0249994
1.3218e-07
-5.30213e-07
-0.0249984
-2.39039e-07
-0.0249974
4.3477e-07
-0.0250047
-0.0249992
1.43787e-07
-6.71728e-07
-0.0249979
-2.78003e-07
-0.024997
5.48946e-07
-0.0250059
-0.024999
1.54255e-07
-8.50514e-07
-0.0249973
-3.21223e-07
-0.0249965
6.92696e-07
-0.0250075
-0.0249987
1.61591e-07
-1.07717e-06
-0.0249964
-3.67648e-07
-0.024996
8.74645e-07
-0.0250094
-0.0249983
1.62762e-07
-1.36544e-06
-0.0249953
-4.14993e-07
-0.0249954
1.10613e-06
-0.0250119
-0.0249977
1.53487e-07
-1.73321e-06
-0.0249938
-4.58645e-07
-0.0249948
1.40203e-06
-0.025015
-0.0249968
1.28543e-07
-2.2036e-06
-0.0249917
-4.88565e-07
-0.0249941
1.78186e-06
-0.025019
-0.0249955
8.76982e-08
-2.80656e-06
-0.024989
-5.0221e-07
-0.0249935
2.27128e-06
-0.0250241
-0.0249938
-9.80127e-10
-3.58055e-06
-0.0249855
-5.01966e-07
-0.024993
2.9038e-06
-0.0250305
-0.0249914
-1.75652e-07
-4.57593e-06
-0.0249807
-4.69685e-07
-0.0249927
3.72279e-06
-0.0250388
-0.0249881
-4.97361e-07
-5.85881e-06
-0.0249743
-3.83275e-07
-0.0249928
4.78488e-06
-0.0250495
-0.0249837
-9.64715e-07
-7.51682e-06
-0.0249658
-2.19116e-07
-0.0249936
6.16415e-06
-0.0250632
-0.0249777
-1.64795e-06
-9.66364e-06
-0.0249545
9.9122e-08
-0.0249953
7.95757e-06
-0.0250808
-0.0249696
-2.63618e-06
-1.24478e-05
-0.0249393
6.72813e-07
-0.0249987
1.02934e-05
-0.0251035
-0.0249586
-4.05121e-06
-1.6064e-05
-0.0249192
1.55343e-06
-0.0250043
1.33414e-05
-0.0251329
-0.0249437
-6.05901e-06
-2.07679e-05
-0.0248923
2.88014e-06
-0.0250132
1.73255e-05
-0.0251711
-0.0249234
-8.88593e-06
-2.68957e-05
-0.0248565
4.84071e-06
-0.025027
2.25414e-05
-0.0252205
-0.024896
-1.28401e-05
-3.48902e-05
-0.0248087
7.69359e-06
-0.0250475
2.93804e-05
-0.0252848
-0.0248589
-1.83404e-05
-4.53346e-05
-0.024745
1.17943e-05
-0.0250777
3.8361e-05
-0.0253685
-0.0248087
-2.59553e-05
-5.89988e-05
-0.02466
1.76315e-05
-0.0251212
5.01708e-05
-0.0254776
-0.0247408
-3.64619e-05
-7.69088e-05
-0.0245465
2.588e-05
-0.0251836
6.57324e-05
-0.0256203
-0.0246492
-5.09518e-05
-0.000100493
-0.0243951
3.74919e-05
-0.025272
8.63382e-05
-0.0258071
-0.0245253
-7.10398e-05
-0.00013191
-0.0241921
5.38948e-05
-0.025397
0.000113975
-0.026053
-0.0243574
-9.68716e-05
-0.00017072
-0.0239245
7.52224e-05
-0.025569
0.000148011
-0.0263717
-0.0241342
-0.000130621
-0.000219746
-0.0235742
0.000105347
-0.025805
0.000193209
-0.0267847
-0.0238357
-0.000160956
-0.00025864
-0.0231547
0.000136313
-0.0261023
0.00023248
-0.0272758
-0.023467
-0.000294902
-0.000425678
-0.0224343
0.00022074
-0.0266179
0.000350679
-0.0280521
-0.0228957
0.000272437
0.000355983
-0.0230629
-0.000138798
-0.0262066
-0.000223158
-0.0274729
-0.0232578
-2.09774e-05
-2.46777e-05
-0.0230173
1.21429e-05
-0.0262397
1.69392e-05
-0.0275146
-0.0232287
-0.000189242
-0.000316131
-0.0225119
7.01654e-05
-0.0264991
0.000210496
-0.0280412
-0.0229481
-8.43812e-05
-0.000194171
-0.0222334
0.000113698
-0.0266971
0.000232504
-0.0284678
-0.0226019
-0.000279439
-0.000228834
-0.0217251
8.99295e-05
-0.0270666
4.49889e-05
-0.0287417
-0.022467
-0.000290795
-0.000225454
-0.0212089
-0.000116627
-0.0272407
-0.000190389
-0.0287768
-0.022774
-0.000215358
-8.76524e-05
-0.0209059
-2.00558e-05
-0.027436
-0.000224523
-0.0286399
-0.0230187
-0.000176681
0.000187131
-0.0209164
0.000283494
-0.0278961
-0.000159854
-0.0282928
-0.0228951
-4.57353e-05
0.000478636
-0.0213493
0.000438009
-0.0283798
-0.000168737
-0.0276454
-0.0226258
9.79479e-05
0.000333234
-0.0217804
0.000167715
-0.0284496
-6.77937e-05
-0.0272444
-0.0225258
-0.000165718
1.3093e-05
-0.0216278
-3.08117e-05
-0.0285845
-0.000166646
-0.0270647
-0.0227232
-7.01811e-05
3.54609e-05
-0.021593
-0.000100908
-0.0285537
-0.000201834
-0.0268273
-0.0230259
5.74574e-05
0.000146185
-0.0217967
-1.97468e-05
-0.0284765
-5.89992e-05
-0.0266221
-0.0231046
3.48533e-05
0.000183979
-0.0220154
0.000271996
-0.0287136
-4.10574e-05
-0.0263972
-0.0228735
0.000365133
7.91372e-05
-0.0224597
-0.000193972
-0.0281546
-6.7883e-05
-0.0262502
-0.0231353
0.000403761
0.000196738
-0.0230602
-0.000326942
-0.027424
-0.000173008
-0.0258806
-0.0236353
0.000310537
0.000162767
-0.0235335
-0.000261886
-0.0268517
-0.000116164
-0.0256017
-0.0240133
0.000237661
0.000118651
-0.0238898
-0.000197464
-0.0264166
-7.66142e-05
-0.0254065
-0.0242874
0.000182632
8.59978e-05
-0.0241584
-0.000148764
-0.0260852
-5.07099e-05
-0.0252698
-0.0244869
0.000140576
6.22469e-05
-0.0243612
-0.000112163
-0.0258325
-3.30445e-05
-0.0251746
-0.0246321
0.000108373
4.48908e-05
-0.0245145
-8.45981e-05
-0.0256395
-2.09388e-05
-0.0251087
-0.0247376
8.36889e-05
3.22205e-05
-0.0246304
-6.38342e-05
-0.025492
-1.27182e-05
-0.0250638
-0.0248142
6.47415e-05
2.30015e-05
-0.0247181
-4.81866e-05
-0.0253791
-7.30631e-06
-0.0250335
-0.0248696
5.01734e-05
1.6328e-05
-0.0247846
-3.63927e-05
-0.0252925
-3.96686e-06
-0.0250132
-0.0249099
3.89526e-05
1.15374e-05
-0.024835
-2.75144e-05
-0.0252261
-9.64118e-07
-0.0250007
-0.0249383
3.02941e-05
8.10766e-06
-0.0248733
-2.08185e-05
-0.0251749
7.61112e-07
-0.0249933
-0.0249583
2.36003e-05
5.65532e-06
-0.0249025
-1.57612e-05
-0.0251356
1.54803e-06
-0.0249892
-0.0249725
1.84153e-05
3.91669e-06
-0.0249248
-1.19412e-05
-0.0251052
2.05149e-06
-0.0249874
-0.0249823
1.43911e-05
2.6928e-06
-0.0249418
-9.05316e-06
-0.0250818
2.2471e-06
-0.0249869
-0.0249891
1.1262e-05
1.83712e-06
-0.0249549
-6.86795e-06
-0.0250636
2.25001e-06
-0.0249873
-0.0249937
8.82482e-06
1.24059e-06
-0.024965
-5.21337e-06
-0.0250496
2.13972e-06
-0.0249882
-0.0249968
6.92376e-06
8.262e-07
-0.0249728
-3.95985e-06
-0.0250387
1.968e-06
-0.0249893
-0.0249988
5.43902e-06
5.40032e-07
-0.0249788
-3.00989e-06
-0.0250302
1.76791e-06
-0.0249906
-0.0250001
4.2782e-06
3.44176e-07
-0.0249835
-2.28992e-06
-0.0250237
1.56034e-06
-0.0249918
-0.0250009
3.36982e-06
2.11866e-07
-0.0249871
-1.74429e-06
-0.0250185
1.35827e-06
-0.0249929
-0.0250013
2.65842e-06
1.24119e-07
-0.02499
-1.33086e-06
-0.0250146
1.16927e-06
-0.024994
-0.0250015
2.10085e-06
6.73792e-08
-0.0249922
-1.01761e-06
-0.0250114
9.9732e-07
-0.0249949
-0.0250016
1.66345e-06
3.18886e-08
-0.0249939
-7.80191e-07
-0.025009
8.44117e-07
-0.0249957
-0.0250016
1.31995e-06
1.04485e-08
-0.0249952
-6.00068e-07
-0.0250071
7.09911e-07
-0.0249964
-0.0250015
1.04984e-06
-2.86914e-09
-0.0249963
-4.63155e-07
-0.0250056
5.94045e-07
-0.024997
-0.0250013
8.37076e-07
-9.00579e-09
-0.0249971
-3.58778e-07
-0.0250044
4.95351e-07
-0.0249976
-0.0250012
6.69243e-07
-1.31234e-08
-0.0249977
-2.78895e-07
-0.0250035
4.12295e-07
-0.024998
-0.025001
5.36699e-07
-1.65316e-08
-0.0249982
-2.17482e-07
-0.0250028
3.43226e-07
-0.0249984
-0.0250009
4.31976e-07
-1.93629e-08
-0.0249986
-1.70079e-07
-0.0250022
2.86493e-07
-0.0249987
-0.0250007
3.49334e-07
-2.09386e-08
-0.0249989
-1.33411e-07
-0.0250017
2.40514e-07
-0.024999
-0.0250006
2.84426e-07
-2.19834e-08
-0.0249992
-1.05105e-07
-0.0250013
2.038e-07
-0.0249992
-0.0250005
2.33968e-07
-2.28547e-08
-0.0249994
-8.34733e-08
-0.025001
1.74985e-07
-0.0249994
-0.0250004
1.95501e-07
-2.36516e-08
-0.0249995
-6.7342e-08
-0.0250007
1.52867e-07
-0.0249996
-0.0250003
1.6706e-07
-2.48377e-08
-0.0249997
-5.59489e-08
-0.0250005
1.36314e-07
-0.0249997
-0.0250002
1.46404e-07
-2.59792e-08
-0.0249998
-4.84537e-08
-0.0250003
1.23888e-07
-0.0249998
-0.0250001
1.35472e-07
-2.55693e-08
-4.38403e-08
1.16996e-07
)
;

boundaryField
{
    inlet
    {
        type            calculated;
        value           nonuniform List<scalar> 4(-0.0249999 -0.025 -0.0250001 -0.0250001);
    }
    outlet
    {
        type            calculated;
        value           nonuniform List<scalar> 4(0.0250001 0.0250006 0.0249996 0.0250002);
    }
    repeat_boundary
    {
        type            calculated;
        value           uniform 0;
    }
}


// ************************************************************************* //
