/*--------------------------------*- C++ -*----------------------------------*\
  =========                 |
  \\      /  F ield         | OpenFOAM: The Open Source CFD Toolbox
   \\    /   O peration     | Website:  https://openfoam.org
    \\  /    A nd           | Version:  9
     \\/     M anipulation  |
\*---------------------------------------------------------------------------*/
FoamFile
{
    format      ascii;
    class       volScalarField;
    location    "100000";
    object      p;
}
// * * * * * * * * * * * * * * * * * * * * * * * * * * * * * * * * * * * * * //

dimensions      [0 2 -2 0 0 0 0];

internalField   nonuniform List<scalar> 
9000
(
3.61917e-10
3.61708e-10
3.53303e-10
3.39128e-10
3.22412e-10
3.27176e-10
3.45993e-10
3.71778e-10
3.90682e-10
3.95851e-10
3.8042e-10
3.85688e-10
3.65969e-10
3.39627e-10
3.24145e-10
3.2788e-10
3.4378e-10
3.63422e-10
3.7323e-10
3.68393e-10
4.25484e-10
4.2943e-10
3.92959e-10
3.48065e-10
3.18515e-10
3.19888e-10
3.06234e-10
2.9902e-10
2.87655e-10
2.70546e-10
4.82755e-10
4.84389e-10
4.24552e-10
3.53918e-10
2.86968e-10
3.15675e-10
2.52099e-10
2.00994e-10
1.61609e-10
1.32351e-10
5.87822e-10
5.5412e-10
4.42706e-10
3.25682e-10
2.26721e-10
3.16974e-10
1.9715e-10
8.791e-11
2.61232e-12
-4.61397e-11
5.68145e-10
5.45838e-10
4.40681e-10
3.59698e-10
3.26855e-10
1.75782e-10
1.61908e-10
7.85426e-11
-1.11252e-12
-4.95833e-11
4.70321e-10
4.38254e-10
3.73467e-10
3.19725e-10
2.84292e-10
2.17504e-10
1.85818e-10
1.30294e-10
8.7482e-11
7.32642e-11
3.89976e-10
3.62569e-10
3.29592e-10
2.98894e-10
2.75974e-10
2.48977e-10
2.2825e-10
2.05477e-10
1.92755e-10
1.9314e-10
3.4381e-10
3.26907e-10
3.16061e-10
3.03668e-10
2.90614e-10
2.78471e-10
2.79197e-10
2.84507e-10
2.93271e-10
2.98648e-10
3.27482e-10
3.19005e-10
3.17183e-10
3.12209e-10
3.04506e-10
2.99525e-10
3.15879e-10
3.33348e-10
3.48979e-10
3.51769e-10
1.077e-09
1.05356e-09
1.02071e-09
9.75088e-10
9.34697e-10
9.5535e-10
1.03653e-09
1.11492e-09
1.1607e-09
1.16292e-09
1.11219e-09
1.09774e-09
1.03988e-09
9.70164e-10
9.38715e-10
9.51903e-10
1.02036e-09
1.07443e-09
1.09137e-09
1.06425e-09
1.2281e-09
1.20637e-09
1.10771e-09
9.9554e-10
9.27681e-10
9.20176e-10
9.1026e-10
8.87165e-10
8.4752e-10
7.95526e-10
1.37819e-09
1.34377e-09
1.18825e-09
1.0195e-09
8.62673e-10
8.87661e-10
7.57674e-10
6.16388e-10
5.04489e-10
4.35662e-10
1.60806e-09
1.48695e-09
1.23052e-09
9.73375e-10
7.29002e-10
8.82607e-10
6.0354e-10
3.1292e-10
9.58475e-11
2.52698e-12
1.57828e-09
1.47569e-09
1.2215e-09
1.02483e-09
9.41761e-10
5.73508e-10
4.84981e-10
2.68625e-10
7.37729e-11
-2.30969e-11
1.33054e-09
1.24136e-09
1.09957e-09
9.81554e-10
8.9387e-10
6.70211e-10
5.79852e-10
4.44646e-10
3.49275e-10
3.39459e-10
1.14322e-09
1.08427e-09
1.01884e-09
9.48618e-10
8.83244e-10
7.7699e-10
7.19414e-10
6.61351e-10
6.35836e-10
6.48219e-10
1.04807e-09
1.0227e-09
1.00258e-09
9.68367e-10
9.27186e-10
8.76285e-10
8.68334e-10
8.71478e-10
8.87824e-10
8.95254e-10
1.02414e-09
1.02012e-09
1.014e-09
9.95639e-10
9.74497e-10
9.45289e-10
9.67174e-10
9.90824e-10
1.0128e-09
1.00085e-09
1.70525e-09
1.64157e-09
1.59623e-09
1.54096e-09
1.52616e-09
1.57059e-09
1.72461e-09
1.84102e-09
1.88973e-09
1.86985e-09
1.73399e-09
1.68437e-09
1.61503e-09
1.54497e-09
1.53497e-09
1.56234e-09
1.68809e-09
1.75721e-09
1.76005e-09
1.70115e-09
1.88875e-09
1.82475e-09
1.70609e-09
1.5883e-09
1.53069e-09
1.49642e-09
1.51611e-09
1.47351e-09
1.40258e-09
1.32462e-09
2.08852e-09
2.00067e-09
1.81721e-09
1.63106e-09
1.48999e-09
1.39588e-09
1.27837e-09
1.08611e-09
9.31274e-10
8.56432e-10
2.31786e-09
2.15455e-09
1.8891e-09
1.64484e-09
1.40884e-09
1.30776e-09
1.02086e-09
6.64711e-10
4.1405e-10
3.5224e-10
2.30501e-09
2.14519e-09
1.86787e-09
1.62773e-09
1.4583e-09
1.15004e-09
8.81491e-10
5.89014e-10
3.66302e-10
2.9858e-10
2.02823e-09
1.92342e-09
1.78083e-09
1.63933e-09
1.49341e-09
1.20228e-09
1.03139e-09
8.65433e-10
7.67929e-10
7.86882e-10
1.82834e-09
1.78163e-09
1.71697e-09
1.62557e-09
1.52218e-09
1.35428e-09
1.25121e-09
1.17625e-09
1.15553e-09
1.18256e-09
1.74406e-09
1.74048e-09
1.71506e-09
1.66031e-09
1.60011e-09
1.51103e-09
1.46809e-09
1.45834e-09
1.47532e-09
1.47939e-09
1.73404e-09
1.74776e-09
1.72915e-09
1.6946e-09
1.66981e-09
1.61362e-09
1.59893e-09
1.60598e-09
1.61855e-09
1.58449e-09
2.17778e-09
2.10695e-09
2.09496e-09
2.10055e-09
2.16773e-09
2.24368e-09
2.41099e-09
2.50986e-09
2.52596e-09
2.47545e-09
2.19588e-09
2.1477e-09
2.12129e-09
2.12174e-09
2.18737e-09
2.23583e-09
2.35631e-09
2.39249e-09
2.35836e-09
2.27349e-09
2.35208e-09
2.28657e-09
2.21541e-09
2.16815e-09
2.17575e-09
2.13537e-09
2.14691e-09
2.07111e-09
1.97545e-09
1.89117e-09
2.54907e-09
2.46066e-09
2.335e-09
2.21714e-09
2.14874e-09
1.96623e-09
1.86421e-09
1.66132e-09
1.50917e-09
1.45475e-09
2.71703e-09
2.59961e-09
2.44079e-09
2.29597e-09
2.16807e-09
1.75396e-09
1.5295e-09
1.23174e-09
1.05489e-09
1.05599e-09
2.72931e-09
2.60043e-09
2.41359e-09
2.19786e-09
1.93064e-09
1.86521e-09
1.43274e-09
1.1395e-09
9.8441e-10
9.86287e-10
2.54785e-09
2.48378e-09
2.38524e-09
2.24616e-09
2.03925e-09
1.7945e-09
1.56387e-09
1.42082e-09
1.36464e-09
1.40807e-09
2.41737e-09
2.4097e-09
2.35187e-09
2.24233e-09
2.10121e-09
1.92368e-09
1.78991e-09
1.72783e-09
1.72956e-09
1.76726e-09
2.3757e-09
2.39347e-09
2.35174e-09
2.26887e-09
2.18869e-09
2.08319e-09
2.00914e-09
2.00083e-09
2.0263e-09
2.03241e-09
2.37087e-09
2.38448e-09
2.34375e-09
2.28404e-09
2.24875e-09
2.18244e-09
2.13342e-09
2.13715e-09
2.15023e-09
2.11234e-09
2.54262e-09
2.52363e-09
2.58702e-09
2.70033e-09
2.89135e-09
2.98265e-09
3.07601e-09
3.09969e-09
3.0575e-09
2.97863e-09
2.56978e-09
2.57186e-09
2.62779e-09
2.73514e-09
2.90235e-09
2.96311e-09
3.00162e-09
2.96587e-09
2.88551e-09
2.79004e-09
2.69616e-09
2.67732e-09
2.69654e-09
2.75382e-09
2.84866e-09
2.82389e-09
2.78129e-09
2.67027e-09
2.56375e-09
2.48966e-09
2.84756e-09
2.8099e-09
2.78905e-09
2.77458e-09
2.79142e-09
2.60234e-09
2.50405e-09
2.32783e-09
2.21333e-09
2.18342e-09
2.93243e-09
2.91449e-09
2.89965e-09
2.86156e-09
2.84701e-09
2.27775e-09
2.15389e-09
1.99799e-09
1.93902e-09
1.97354e-09
2.9529e-09
2.91562e-09
2.86339e-09
2.71474e-09
2.38673e-09
2.55764e-09
2.09533e-09
1.89542e-09
1.85427e-09
1.90366e-09
2.91139e-09
2.90888e-09
2.85753e-09
2.73369e-09
2.48753e-09
2.35067e-09
2.14726e-09
2.07711e-09
2.07826e-09
2.12277e-09
2.86381e-09
2.88271e-09
2.82359e-09
2.70049e-09
2.53391e-09
2.39972e-09
2.30468e-09
2.29523e-09
2.33038e-09
2.36683e-09
2.84586e-09
2.85961e-09
2.79796e-09
2.6935e-09
2.59984e-09
2.51742e-09
2.47276e-09
2.49992e-09
2.54539e-09
2.55428e-09
2.82065e-09
2.81399e-09
2.75673e-09
2.68046e-09
2.64009e-09
2.59727e-09
2.56733e-09
2.59723e-09
2.62633e-09
2.59449e-09
2.83341e-09
2.90668e-09
3.05351e-09
3.26601e-09
3.56198e-09
3.65927e-09
3.63855e-09
3.58063e-09
3.4877e-09
3.39791e-09
2.88675e-09
2.96376e-09
3.09995e-09
3.29439e-09
3.53809e-09
3.61047e-09
3.54765e-09
3.45162e-09
3.34261e-09
3.25705e-09
2.9616e-09
3.01311e-09
3.11763e-09
3.26008e-09
3.42524e-09
3.43558e-09
3.34316e-09
3.22471e-09
3.12653e-09
3.06916e-09
3.04467e-09
3.08161e-09
3.15376e-09
3.22458e-09
3.31159e-09
3.17811e-09
3.10922e-09
2.99301e-09
2.92253e-09
2.89689e-09
3.08485e-09
3.16289e-09
3.23761e-09
3.26009e-09
3.33561e-09
2.76875e-09
2.80556e-09
2.8038e-09
2.81611e-09
2.82082e-09
3.085e-09
3.14452e-09
3.18125e-09
3.08454e-09
2.74355e-09
3.09786e-09
2.76697e-09
2.70123e-09
2.73175e-09
2.76308e-09
3.11472e-09
3.15229e-09
3.12701e-09
3.03107e-09
2.80266e-09
2.8061e-09
2.71598e-09
2.73325e-09
2.77229e-09
2.7938e-09
3.09287e-09
3.11015e-09
3.05528e-09
2.95405e-09
2.81988e-09
2.77531e-09
2.78154e-09
2.83886e-09
2.8998e-09
2.92269e-09
3.05453e-09
3.04971e-09
2.99606e-09
2.91943e-09
2.86653e-09
2.84964e-09
2.8827e-09
2.95608e-09
3.02126e-09
3.02941e-09
2.99801e-09
2.97787e-09
2.94058e-09
2.89762e-09
2.90073e-09
2.91479e-09
2.93825e-09
3.00164e-09
3.05266e-09
3.0257e-09
3.00067e-09
3.16143e-09
3.37172e-09
3.64861e-09
3.99819e-09
4.12579e-09
4.0454e-09
3.95754e-09
3.85521e-09
3.78172e-09
3.07421e-09
3.2125e-09
3.40206e-09
3.64858e-09
3.93516e-09
4.04805e-09
3.9523e-09
3.85156e-09
3.75225e-09
3.69505e-09
3.09311e-09
3.20307e-09
3.36165e-09
3.55766e-09
3.77648e-09
3.85722e-09
3.77868e-09
3.69655e-09
3.62691e-09
3.58801e-09
3.11536e-09
3.21208e-09
3.3323e-09
3.45391e-09
3.60612e-09
3.58715e-09
3.59005e-09
3.55033e-09
3.5114e-09
3.47667e-09
3.17574e-09
3.28597e-09
3.36017e-09
3.39894e-09
3.57216e-09
3.15495e-09
3.34622e-09
3.44067e-09
3.45286e-09
3.40881e-09
3.14374e-09
3.24607e-09
3.29028e-09
3.22566e-09
2.96967e-09
3.44587e-09
3.33063e-09
3.36338e-09
3.38771e-09
3.36908e-09
3.11495e-09
3.1547e-09
3.14995e-09
3.11946e-09
2.9974e-09
3.16157e-09
3.20902e-09
3.29046e-09
3.34109e-09
3.34405e-09
3.05095e-09
3.05873e-09
3.04719e-09
3.03674e-09
3.01994e-09
3.10214e-09
3.21322e-09
3.3191e-09
3.39478e-09
3.40984e-09
2.97423e-09
2.97263e-09
2.9834e-09
3.0071e-09
3.06412e-09
3.14555e-09
3.25294e-09
3.35977e-09
3.44462e-09
3.45801e-09
2.90711e-09
2.91159e-09
2.9454e-09
2.99639e-09
3.08919e-09
3.18341e-09
3.26275e-09
3.35714e-09
3.43597e-09
3.42113e-09
2.91098e-09
3.12155e-09
3.38347e-09
3.7237e-09
4.13006e-09
4.34521e-09
4.32376e-09
4.28678e-09
4.23565e-09
4.20898e-09
2.97782e-09
3.14681e-09
3.38186e-09
3.69074e-09
4.04977e-09
4.2608e-09
4.24168e-09
4.2074e-09
4.16833e-09
4.1581e-09
2.95605e-09
3.09542e-09
3.2983e-09
3.55858e-09
3.8629e-09
4.0727e-09
4.09084e-09
4.09506e-09
4.08732e-09
4.08315e-09
2.94417e-09
3.0631e-09
3.21312e-09
3.39299e-09
3.63305e-09
3.81221e-09
3.92225e-09
3.97561e-09
3.98513e-09
3.97103e-09
3.02428e-09
3.09939e-09
3.15328e-09
3.23697e-09
3.51216e-09
3.4238e-09
3.71145e-09
3.85371e-09
3.87146e-09
3.84095e-09
2.98019e-09
3.05766e-09
3.09816e-09
3.127e-09
3.08651e-09
3.57403e-09
3.71255e-09
3.82023e-09
3.83804e-09
3.81939e-09
2.84233e-09
2.87524e-09
2.93497e-09
3.03806e-09
3.11243e-09
3.41862e-09
3.60975e-09
3.7526e-09
3.83113e-09
3.85715e-09
2.73224e-09
2.76374e-09
2.85655e-09
3.00074e-09
3.16264e-09
3.39049e-09
3.59616e-09
3.75144e-09
3.86077e-09
3.8997e-09
2.65209e-09
2.70257e-09
2.82751e-09
2.99413e-09
3.18647e-09
3.39271e-09
3.57732e-09
3.73517e-09
3.86292e-09
3.90731e-09
2.61191e-09
2.68185e-09
2.8182e-09
2.98742e-09
3.16907e-09
3.3706e-09
3.54184e-09
3.70174e-09
3.83287e-09
3.86153e-09
2.41228e-09
2.64507e-09
2.98382e-09
3.44118e-09
3.99627e-09
4.38092e-09
4.53597e-09
4.64737e-09
4.72343e-09
4.77947e-09
2.45048e-09
2.6406e-09
2.95804e-09
3.39373e-09
3.91604e-09
4.30688e-09
4.46244e-09
4.58369e-09
4.67602e-09
4.74474e-09
2.41741e-09
2.57784e-09
2.86393e-09
3.25156e-09
3.71494e-09
4.1267e-09
4.32851e-09
4.49652e-09
4.61861e-09
4.69277e-09
2.40234e-09
2.53162e-09
2.75869e-09
3.06661e-09
3.449e-09
3.90164e-09
4.18458e-09
4.39275e-09
4.52668e-09
4.60041e-09
2.43526e-09
2.49732e-09
2.63084e-09
2.86611e-09
3.25119e-09
3.61826e-09
4.02171e-09
4.26011e-09
4.38464e-09
4.46224e-09
2.41453e-09
2.47523e-09
2.61336e-09
2.86026e-09
3.13596e-09
3.58136e-09
4.01406e-09
4.2627e-09
4.37921e-09
4.45194e-09
2.26873e-09
2.3439e-09
2.54674e-09
2.85604e-09
3.2008e-09
3.62827e-09
4.00559e-09
4.2735e-09
4.44802e-09
4.54977e-09
2.17629e-09
2.28914e-09
2.53655e-09
2.86994e-09
3.24298e-09
3.63962e-09
3.98597e-09
4.25408e-09
4.45127e-09
4.55508e-09
2.14268e-09
2.28484e-09
2.54644e-09
2.86625e-09
3.19697e-09
3.57397e-09
3.91022e-09
4.19322e-09
4.40947e-09
4.52112e-09
2.1443e-09
2.29579e-09
2.54663e-09
2.84049e-09
3.11692e-09
3.48317e-09
3.84769e-09
4.14932e-09
4.3754e-09
4.48804e-09
1.40834e-09
1.67958e-09
2.15498e-09
2.80741e-09
3.60647e-09
4.27713e-09
4.72919e-09
5.11993e-09
5.42252e-09
5.60881e-09
1.42612e-09
1.66926e-09
2.13472e-09
2.77206e-09
3.52576e-09
4.20818e-09
4.66072e-09
5.06879e-09
5.39292e-09
5.59239e-09
1.42284e-09
1.64187e-09
2.08117e-09
2.67681e-09
3.36982e-09
4.07461e-09
4.58643e-09
5.0394e-09
5.39063e-09
5.60129e-09
1.44839e-09
1.6388e-09
2.03142e-09
2.5662e-09
3.19176e-09
3.97e-09
4.54423e-09
5.01952e-09
5.3811e-09
5.60147e-09
1.43794e-09
1.60151e-09
1.95365e-09
2.46666e-09
3.08708e-09
3.9111e-09
4.52419e-09
4.98903e-09
5.34007e-09
5.57332e-09
1.46333e-09
1.61337e-09
1.9848e-09
2.55814e-09
3.24292e-09
3.77647e-09
4.50714e-09
5.01124e-09
5.35084e-09
5.56787e-09
1.43554e-09
1.62852e-09
2.04287e-09
2.62355e-09
3.31493e-09
3.9317e-09
4.5624e-09
5.06341e-09
5.41235e-09
5.61467e-09
1.40752e-09
1.64217e-09
2.07773e-09
2.64163e-09
3.28565e-09
3.92906e-09
4.5217e-09
5.00633e-09
5.35224e-09
5.54644e-09
1.42051e-09
1.66733e-09
2.09265e-09
2.61264e-09
3.16094e-09
3.80355e-09
4.41118e-09
4.90896e-09
5.26262e-09
5.46883e-09
1.43835e-09
1.6758e-09
2.07875e-09
2.56442e-09
3.05715e-09
3.69101e-09
4.35102e-09
4.86682e-09
5.23377e-09
5.45706e-09
-1.29868e-10
2.37937e-10
9.27016e-10
1.85583e-09
2.93046e-09
4.04454e-09
4.98645e-09
5.82008e-09
6.46326e-09
6.83548e-09
-9.38937e-11
2.63359e-10
9.44729e-10
1.85389e-09
2.87844e-09
3.99126e-09
4.94632e-09
5.80277e-09
6.46855e-09
6.85651e-09
-1.73904e-11
3.3069e-10
9.94822e-10
1.88106e-09
2.88376e-09
4.00398e-09
5.00313e-09
5.88344e-09
6.56303e-09
6.95742e-09
1.12695e-10
4.51702e-10
1.08924e-09
1.94222e-09
2.9449e-09
4.13153e-09
5.13911e-09
6.01266e-09
6.68643e-09
7.07509e-09
1.98055e-10
5.55079e-10
1.19099e-09
2.05778e-09
3.10122e-09
4.38774e-09
5.32981e-09
6.17415e-09
6.82392e-09
7.19397e-09
2.72433e-10
6.15498e-10
1.28496e-09
2.2334e-09
3.41496e-09
4.28118e-09
5.33456e-09
6.21268e-09
6.84941e-09
7.20062e-09
3.39808e-10
6.93035e-10
1.36264e-09
2.28533e-09
3.41149e-09
4.38785e-09
5.37798e-09
6.22698e-09
6.81113e-09
7.11553e-09
3.43116e-10
7.1137e-10
1.38654e-09
2.2793e-09
3.3314e-09
4.36801e-09
5.33679e-09
6.13946e-09
6.69123e-09
6.99243e-09
3.51834e-10
7.16531e-10
1.38347e-09
2.24204e-09
3.21551e-09
4.26887e-09
5.2462e-09
6.03273e-09
6.58018e-09
6.90397e-09
3.52197e-10
7.03834e-10
1.35757e-09
2.20339e-09
3.16123e-09
4.20776e-09
5.21047e-09
6.00085e-09
6.56706e-09
6.92262e-09
-2.23147e-09
-1.69166e-09
-6.93447e-10
6.34226e-10
2.07958e-09
3.81997e-09
5.49943e-09
6.93226e-09
8.01757e-09
8.62681e-09
-2.13557e-09
-1.59696e-09
-6.16072e-10
6.87229e-10
2.13205e-09
3.83501e-09
5.52221e-09
6.97201e-09
8.07037e-09
8.69277e-09
-1.9379e-09
-1.39097e-09
-4.20538e-10
8.76385e-10
2.35131e-09
4.04996e-09
5.71616e-09
7.16022e-09
8.25058e-09
8.86009e-09
-1.65234e-09
-1.09965e-09
-1.4976e-10
1.11893e-09
2.62753e-09
4.37516e-09
5.98671e-09
7.40275e-09
8.45874e-09
9.02617e-09
-1.3436e-09
-7.94854e-10
1.2913e-10
1.38088e-09
2.90523e-09
4.78685e-09
6.31212e-09
7.69867e-09
8.69097e-09
9.18508e-09
-1.21775e-09
-6.66865e-10
2.98587e-10
1.63813e-09
3.32319e-09
4.75844e-09
6.37605e-09
7.7687e-09
8.74875e-09
9.22716e-09
-1.19073e-09
-6.68775e-10
3.13893e-10
1.67554e-09
3.34257e-09
4.89678e-09
6.44323e-09
7.75936e-09
8.65138e-09
9.09289e-09
-1.21774e-09
-6.93957e-10
3.22945e-10
1.70556e-09
3.36481e-09
4.98759e-09
6.47869e-09
7.71186e-09
8.56034e-09
9.01522e-09
-1.24576e-09
-7.16235e-10
3.256e-10
1.72786e-09
3.38126e-09
5.02629e-09
6.47312e-09
7.65684e-09
8.49999e-09
8.99e-09
-1.26494e-09
-7.34073e-10
3.18102e-10
1.73991e-09
3.40976e-09
5.05136e-09
6.47451e-09
7.6562e-09
8.52822e-09
9.06021e-09
-5.02134e-09
-4.22987e-09
-2.78019e-09
-8.32564e-10
1.31185e-09
3.89216e-09
6.49689e-09
8.66462e-09
1.02833e-08
1.11776e-08
-4.84925e-09
-4.05768e-09
-2.63321e-09
-7.05033e-10
1.49967e-09
4.00767e-09
6.57999e-09
8.75172e-09
1.03713e-08
1.12714e-08
-4.52038e-09
-3.71502e-09
-2.30569e-09
-3.94418e-10
1.82933e-09
4.33666e-09
6.82688e-09
8.97996e-09
1.05763e-08
1.14434e-08
-4.08209e-09
-3.28125e-09
-1.90645e-09
-4.92656e-11
2.14172e-09
4.67541e-09
7.10766e-09
9.23257e-09
1.07709e-08
1.15687e-08
-3.58266e-09
-2.85258e-09
-1.55501e-09
2.14119e-10
2.29572e-09
5.0028e-09
7.43774e-09
9.5174e-09
1.09407e-08
1.16401e-08
-3.38166e-09
-2.63386e-09
-1.30561e-09
5.47545e-10
2.82413e-09
5.0456e-09
7.59852e-09
9.65542e-09
1.1067e-08
1.17509e-08
-3.44337e-09
-2.71133e-09
-1.28539e-09
6.87289e-10
3.08178e-09
5.462e-09
7.81037e-09
9.74273e-09
1.10787e-08
1.17631e-08
-3.4975e-09
-2.74567e-09
-1.23075e-09
8.45926e-10
3.32086e-09
5.77266e-09
7.98401e-09
9.82805e-09
1.11358e-08
1.18432e-08
-3.53237e-09
-2.75313e-09
-1.17346e-09
9.81897e-10
3.50853e-09
5.97164e-09
8.10053e-09
9.89404e-09
1.1205e-08
1.19501e-08
-3.54095e-09
-2.73827e-09
-1.12888e-09
1.0558e-09
3.59727e-09
6.06256e-09
8.15523e-09
9.95772e-09
1.13044e-08
1.20898e-08
-8.77823e-09
-7.63845e-09
-5.52326e-09
-2.63267e-09
6.97079e-10
4.41206e-09
8.09117e-09
1.11794e-08
1.34709e-08
1.47227e-08
-8.5401e-09
-7.40092e-09
-5.31003e-09
-2.4365e-09
9.4088e-10
4.5785e-09
8.19439e-09
1.12825e-08
1.35732e-08
1.48244e-08
-8.09939e-09
-6.9584e-09
-4.89898e-09
-2.07612e-09
1.24349e-09
4.88957e-09
8.42544e-09
1.14984e-08
1.37618e-08
1.49723e-08
-7.5473e-09
-6.4337e-09
-4.42293e-09
-1.67548e-09
1.53264e-09
5.17271e-09
8.6775e-09
1.1715e-08
1.39094e-08
1.50556e-08
-6.96988e-09
-5.95001e-09
-4.016e-09
-1.37712e-09
1.65832e-09
5.50771e-09
9.00336e-09
1.19298e-08
1.39781e-08
1.5055e-08
-6.6491e-09
-5.6106e-09
-3.66733e-09
-9.46619e-10
2.35032e-09
5.5973e-09
9.28107e-09
1.21813e-08
1.42176e-08
1.52701e-08
-6.67415e-09
-5.61041e-09
-3.51667e-09
-6.44642e-10
2.79357e-09
6.28831e-09
9.68695e-09
1.24732e-08
1.44747e-08
1.55529e-08
-6.67258e-09
-5.56938e-09
-3.35732e-09
-3.45549e-10
3.17045e-09
6.75921e-09
1.00039e-08
1.2742e-08
1.47377e-08
1.58306e-08
-6.64692e-09
-5.50405e-09
-3.21182e-09
-1.05806e-10
3.47243e-09
7.05264e-09
1.02431e-08
1.29622e-08
1.49666e-08
1.60826e-08
-6.60363e-09
-5.42121e-09
-3.10567e-09
1.19896e-11
3.60335e-09
7.1875e-09
1.03686e-08
1.3109e-08
1.51422e-08
1.62819e-08
-1.39357e-08
-1.2311e-08
-9.24717e-09
-5.03132e-09
-7.65222e-11
5.19851e-09
1.02824e-08
1.46287e-08
1.78411e-08
1.95738e-08
-1.36427e-08
-1.20198e-08
-8.97969e-09
-4.79696e-09
1.26855e-10
5.34623e-09
1.03899e-08
1.47426e-08
1.79588e-08
1.96853e-08
-1.31061e-08
-1.14985e-08
-8.5046e-09
-4.39768e-09
4.13132e-10
5.63552e-09
1.06381e-08
1.49703e-08
1.81569e-08
1.98508e-08
-1.24495e-08
-1.08755e-08
-7.92761e-09
-3.88832e-09
8.20671e-10
6.01146e-09
1.09495e-08
1.52116e-08
1.83333e-08
1.99969e-08
-1.18019e-08
-1.02681e-08
-7.33683e-09
-3.3649e-09
1.19872e-09
6.61439e-09
1.13676e-08
1.54497e-08
1.84392e-08
2.0091e-08
-1.13037e-08
-9.76593e-09
-6.83119e-09
-2.76694e-09
2.11438e-09
6.77211e-09
1.17608e-08
1.58479e-08
1.88265e-08
2.04337e-08
-1.11056e-08
-9.53679e-09
-6.49151e-09
-2.34722e-09
2.54357e-09
7.52543e-09
1.23366e-08
1.6364e-08
1.93301e-08
2.09589e-08
-1.09387e-08
-9.33321e-09
-6.19201e-09
-1.94909e-09
2.95356e-09
8.05871e-09
1.28e-08
1.68161e-08
1.97749e-08
2.13966e-08
-1.07812e-08
-9.14019e-09
-5.94348e-09
-1.63724e-09
3.32673e-09
8.41727e-09
1.31523e-08
1.71757e-08
2.01333e-08
2.17492e-08
-1.06499e-08
-8.97605e-09
-5.78266e-09
-1.48013e-09
3.51791e-09
8.61777e-09
1.33478e-08
1.73869e-08
2.03543e-08
2.19688e-08
-2.10675e-08
-1.87635e-08
-1.44019e-08
-8.41547e-09
-1.39898e-09
6.02438e-09
1.31532e-08
1.92748e-08
2.37674e-08
2.61565e-08
-2.07061e-08
-1.84086e-08
-1.40787e-08
-8.14942e-09
-1.21361e-09
6.18042e-09
1.33099e-08
1.94337e-08
2.39238e-08
2.63035e-08
-2.00543e-08
-1.77826e-08
-1.35022e-08
-7.64413e-09
-8.00848e-10
6.57063e-09
1.36657e-08
1.97467e-08
2.42061e-08
2.65712e-08
-1.92384e-08
-1.69892e-08
-1.27443e-08
-6.93626e-09
-1.37794e-10
7.20044e-09
1.41483e-08
2.01254e-08
2.45414e-08
2.69141e-08
-1.83988e-08
-1.61209e-08
-1.1846e-08
-6.07758e-09
5.70263e-10
8.09624e-09
1.47467e-08
2.05419e-08
2.48828e-08
2.72986e-08
-1.76372e-08
-1.53821e-08
-1.10857e-08
-5.22199e-09
1.70725e-09
8.4383e-09
1.52844e-08
2.11169e-08
2.54395e-08
2.77811e-08
-1.70853e-08
-1.48321e-08
-1.05199e-08
-4.665e-09
2.19462e-09
9.22765e-09
1.60204e-08
2.18167e-08
2.61111e-08
2.84485e-08
-1.66438e-08
-1.43703e-08
-1.00206e-08
-4.13811e-09
2.71073e-09
9.8435e-09
1.66536e-08
2.24295e-08
2.66835e-08
2.89867e-08
-1.6284e-08
-1.39958e-08
-9.63684e-09
-3.7324e-09
3.18064e-09
1.03145e-08
1.71138e-08
2.28875e-08
2.71126e-08
2.93786e-08
-1.60439e-08
-1.37467e-08
-9.40615e-09
-3.50804e-09
3.44274e-09
1.06104e-08
1.73542e-08
2.31194e-08
2.73351e-08
2.9587e-08
-3.09214e-08
-2.76736e-08
-2.15625e-08
-1.31972e-08
-3.39651e-09
6.98797e-09
1.69882e-08
2.55388e-08
3.17663e-08
3.50483e-08
-3.04484e-08
-2.72217e-08
-2.11533e-08
-1.2847e-08
-3.10956e-09
7.26017e-09
1.72536e-08
2.57802e-08
3.19904e-08
3.52664e-08
-2.96256e-08
-2.64343e-08
-2.04091e-08
-1.21477e-08
-2.45433e-09
7.8574e-09
1.7783e-08
2.62487e-08
3.24336e-08
3.57079e-08
-2.85562e-08
-2.53837e-08
-1.93893e-08
-1.11739e-08
-1.51148e-09
8.7827e-09
1.851e-08
2.68658e-08
3.30331e-08
3.63303e-08
-2.73871e-08
-2.41633e-08
-1.81505e-08
-9.98846e-09
-5.09481e-10
9.91796e-09
1.93661e-08
2.75796e-08
3.37433e-08
3.71162e-08
-2.62221e-08
-2.30512e-08
-1.7004e-08
-8.78017e-09
8.69879e-10
1.05376e-08
2.01239e-08
2.83781e-08
3.44975e-08
3.7785e-08
-2.52104e-08
-2.20722e-08
-1.61005e-08
-7.95384e-09
1.60577e-09
1.15147e-08
2.10282e-08
2.92251e-08
3.52818e-08
3.85167e-08
-2.43731e-08
-2.12335e-08
-1.52885e-08
-7.17711e-09
2.36598e-09
1.22868e-08
2.18325e-08
2.9973e-08
3.5946e-08
3.91185e-08
-2.37368e-08
-2.06095e-08
-1.46916e-08
-6.59849e-09
2.9696e-09
1.28992e-08
2.23933e-08
3.04925e-08
3.64035e-08
3.95272e-08
-2.33685e-08
-2.02466e-08
-1.43484e-08
-6.27301e-09
3.27986e-09
1.32608e-08
2.26593e-08
3.07247e-08
3.6617e-08
3.97282e-08
-4.45269e-08
-3.99921e-08
-3.15034e-08
-1.98598e-08
-6.13787e-09
8.33599e-09
2.21646e-08
3.39679e-08
4.254e-08
4.70508e-08
-4.38888e-08
-3.94021e-08
-3.09603e-08
-1.93537e-08
-5.6755e-09
8.77424e-09
2.25555e-08
3.4311e-08
4.28572e-08
4.73665e-08
-4.28112e-08
-3.83747e-08
-2.99685e-08
-1.83908e-08
-4.74671e-09
9.60686e-09
2.32914e-08
3.49837e-08
4.35071e-08
4.80127e-08
-4.13653e-08
-3.69611e-08
-2.85917e-08
-1.70753e-08
-3.50907e-09
1.08259e-08
2.43048e-08
3.58984e-08
4.44153e-08
4.89279e-08
-3.97285e-08
-3.52975e-08
-2.69653e-08
-1.55415e-08
-2.18255e-09
1.2293e-08
2.55055e-08
3.6975e-08
4.55367e-08
5.01125e-08
-3.79723e-08
-3.36065e-08
-2.52713e-08
-1.38633e-08
-4.04302e-10
1.32002e-08
2.65784e-08
3.80581e-08
4.65323e-08
5.10692e-08
-3.6335e-08
-3.20262e-08
-2.38422e-08
-1.26016e-08
6.43868e-10
1.44941e-08
2.76939e-08
3.9076e-08
4.74405e-08
5.18411e-08
-3.4958e-08
-3.06724e-08
-2.25678e-08
-1.1427e-08
1.70922e-09
1.54897e-08
2.86694e-08
3.99556e-08
4.82013e-08
5.25134e-08
-3.39519e-08
-2.96973e-08
-2.16494e-08
-1.05787e-08
2.47835e-09
1.62323e-08
2.93411e-08
4.05419e-08
4.87026e-08
5.29737e-08
-3.34095e-08
-2.91684e-08
-2.11505e-08
-1.01172e-08
2.85559e-09
1.66115e-08
2.96614e-08
4.08119e-08
4.89386e-08
5.3187e-08
-6.33463e-08
-5.70798e-08
-4.53243e-08
-2.91437e-08
-1.00432e-08
1.00411e-08
2.90655e-08
4.52984e-08
5.70948e-08
6.33116e-08
-6.24895e-08
-5.62963e-08
-4.45896e-08
-2.84435e-08
-9.40474e-09
1.06261e-08
2.9576e-08
4.57525e-08
5.75167e-08
6.37303e-08
-6.10211e-08
-5.48902e-08
-4.32305e-08
-2.71393e-08
-8.1665e-09
1.17358e-08
3.0556e-08
4.66577e-08
5.83841e-08
6.458e-08
-5.8999e-08
-5.29234e-08
-4.13333e-08
-2.53454e-08
-6.5342e-09
1.33016e-08
3.18943e-08
4.78958e-08
5.9597e-08
6.5763e-08
-5.66348e-08
-5.05927e-08
-3.91333e-08
-2.33143e-08
-4.78041e-09
1.52077e-08
3.35086e-08
4.93717e-08
6.11077e-08
6.72633e-08
-5.40642e-08
-4.80727e-08
-3.66866e-08
-2.09952e-08
-2.38532e-09
1.65008e-08
3.50216e-08
5.08066e-08
6.23948e-08
6.85738e-08
-5.15728e-08
-4.56743e-08
-3.44949e-08
-1.90795e-08
-8.71848e-10
1.82431e-08
3.64736e-08
5.20943e-08
6.34965e-08
6.94524e-08
-4.94767e-08
-4.3634e-08
-3.2583e-08
-1.73431e-08
5.95588e-10
1.95884e-08
3.76968e-08
5.31614e-08
6.44113e-08
7.02627e-08
-4.79635e-08
-4.21716e-08
-3.12172e-08
-1.61034e-08
1.63646e-09
2.05356e-08
3.85522e-08
5.3886e-08
6.50303e-08
7.08375e-08
-4.71735e-08
-4.14153e-08
-3.05015e-08
-1.54375e-08
2.19532e-09
2.0986e-08
3.89967e-08
5.42554e-08
6.53299e-08
7.11065e-08
-8.94173e-08
-8.0806e-08
-6.45494e-08
-4.21464e-08
-1.57746e-08
1.19579e-08
3.82566e-08
6.06402e-08
7.69065e-08
8.54844e-08
-8.82574e-08
-7.97251e-08
-6.35353e-08
-4.12091e-08
-1.4921e-08
1.2728e-08
3.89082e-08
6.12082e-08
7.74239e-08
8.599e-08
-8.61695e-08
-7.77117e-08
-6.16186e-08
-3.94167e-08
-1.32589e-08
1.42273e-08
4.01886e-08
6.23591e-08
7.84937e-08
8.7015e-08
-8.32499e-08
-7.488e-08
-5.89348e-08
-3.69269e-08
-1.10567e-08
1.62765e-08
4.19236e-08
6.39401e-08
7.99779e-08
8.84193e-08
-7.97288e-08
-7.14888e-08
-5.5809e-08
-3.40985e-08
-8.64225e-09
1.87292e-08
4.40164e-08
6.58363e-08
8.17951e-08
9.0109e-08
-7.60256e-08
-6.78415e-08
-5.23346e-08
-3.08788e-08
-5.41522e-09
2.06635e-08
4.61161e-08
6.7689e-08
8.3431e-08
9.17248e-08
-7.24092e-08
-6.43448e-08
-4.90747e-08
-2.79946e-08
-3.08499e-09
2.30503e-08
4.80918e-08
6.939e-08
8.4853e-08
9.29206e-08
-6.93405e-08
-6.13708e-08
-4.62898e-08
-2.54679e-08
-9.49593e-10
2.49525e-08
4.97285e-08
7.07729e-08
8.60354e-08
9.39921e-08
-6.71224e-08
-5.9235e-08
-4.42941e-08
-2.36575e-08
5.7461e-10
2.6313e-08
5.09022e-08
7.1747e-08
8.68651e-08
9.47643e-08
-6.59845e-08
-5.8145e-08
-4.32521e-08
-2.26841e-08
1.44259e-09
2.6983e-08
5.15356e-08
7.22605e-08
8.72853e-08
9.51643e-08
-1.255e-07
-1.13669e-07
-9.12176e-08
-6.02849e-08
-2.39106e-08
1.43147e-08
5.07139e-08
8.16251e-08
1.04076e-07
1.1591e-07
-1.2388e-07
-1.12125e-07
-8.97791e-08
-5.89823e-08
-2.27262e-08
1.5368e-08
5.15504e-08
8.23065e-08
1.04667e-07
1.16465e-07
-1.20842e-07
-1.09191e-07
-8.70254e-08
-5.64623e-08
-2.04679e-08
1.7352e-08
5.31854e-08
8.37077e-08
1.05904e-07
1.17609e-07
-1.16583e-07
-1.05068e-07
-8.31774e-08
-5.29764e-08
-1.7474e-08
2.00466e-08
5.5421e-08
8.5653e-08
1.07613e-07
1.19167e-07
-1.11402e-07
-1.00123e-07
-7.86401e-08
-4.89215e-08
-1.4063e-08
2.32596e-08
5.81073e-08
8.79853e-08
1.09636e-07
1.20954e-07
-1.06035e-07
-9.49034e-08
-7.37416e-08
-4.44359e-08
-9.73596e-09
2.61448e-08
6.09189e-08
9.03327e-08
1.11688e-07
1.22821e-07
-1.00891e-07
-8.98803e-08
-6.90022e-08
-4.01925e-08
-6.1814e-09
2.9474e-08
6.36407e-08
9.26016e-08
1.13593e-07
1.24566e-07
-9.64661e-08
-8.55939e-08
-6.49887e-08
-3.65457e-08
-3.00345e-09
3.21795e-08
6.58899e-08
9.44624e-08
1.15172e-07
1.2602e-07
-9.32593e-08
-8.25001e-08
-6.2092e-08
-3.39263e-08
-7.41886e-10
3.41778e-08
6.75229e-08
9.5793e-08
1.16302e-07
1.27078e-07
-9.16138e-08
-8.0907e-08
-6.05838e-08
-3.25308e-08
5.18052e-10
3.5192e-08
6.83857e-08
9.64952e-08
1.1691e-07
1.27652e-07
-1.75323e-07
-1.59048e-07
-1.28068e-07
-8.53805e-08
-3.51316e-08
1.76331e-08
6.78363e-08
1.10502e-07
1.41504e-07
1.57829e-07
-1.73008e-07
-1.56819e-07
-1.25992e-07
-8.35108e-08
-3.35054e-08
1.90164e-08
6.8891e-08
1.11305e-07
1.42144e-07
1.58391e-07
-1.68579e-07
-1.52548e-07
-1.22024e-07
-7.99544e-08
-3.04464e-08
2.15348e-08
7.09415e-08
1.12966e-07
1.43511e-07
1.5959e-07
-1.62398e-07
-1.46584e-07
-1.16508e-07
-7.50519e-08
-2.632e-08
2.50476e-08
7.3807e-08
1.15305e-07
1.45418e-07
1.61245e-07
-1.54981e-07
-1.39485e-07
-1.09953e-07
-6.9231e-08
-2.14913e-08
2.93607e-08
7.72984e-08
1.18125e-07
1.47641e-07
1.6314e-07
-1.47176e-07
-1.31975e-07
-1.02992e-07
-6.29517e-08
-1.56902e-08
3.35542e-08
8.09448e-08
1.21092e-07
1.50141e-07
1.65286e-07
-1.3981e-07
-1.24773e-07
-9.6223e-08
-5.68756e-08
-1.04972e-08
3.81772e-08
8.46477e-08
1.24046e-07
1.52619e-07
1.67604e-07
-1.33456e-07
-1.18622e-07
-9.04825e-08
-5.16892e-08
-5.93537e-09
4.19549e-08
8.76923e-08
1.2651e-07
1.54671e-07
1.69479e-07
-1.28845e-07
-1.14164e-07
-8.63296e-08
-4.79579e-08
-2.69187e-09
4.47511e-08
8.99032e-08
1.28286e-07
1.56166e-07
1.7085e-07
-1.26461e-07
-1.11867e-07
-8.41856e-08
-4.5999e-08
-9.60149e-10
4.61849e-08
9.10424e-08
1.29225e-07
1.56979e-07
1.71588e-07
-2.44014e-07
-2.21605e-07
-1.78881e-07
-1.19999e-07
-5.06583e-08
2.22418e-08
9.14239e-08
1.50339e-07
1.93177e-07
2.15727e-07
-2.40674e-07
-2.18382e-07
-1.7589e-07
-1.17347e-07
-4.84866e-08
2.39791e-08
9.27404e-08
1.51281e-07
1.93847e-07
2.16267e-07
-2.34242e-07
-2.122e-07
-1.70201e-07
-1.1234e-07
-4.43085e-08
2.72336e-08
9.53342e-08
1.53235e-07
1.95314e-07
2.17452e-07
-2.25321e-07
-2.03626e-07
-1.62303e-07
-1.05382e-07
-3.8476e-08
3.19047e-08
9.90262e-08
1.56021e-07
1.97403e-07
2.19157e-07
-2.14772e-07
-1.93475e-07
-1.52901e-07
-9.70638e-08
-3.15806e-08
3.77635e-08
1.03604e-07
1.59419e-07
1.99894e-07
2.2118e-07
-2.03548e-07
-1.82673e-07
-1.42929e-07
-8.82136e-08
-2.37826e-08
4.37222e-08
1.08277e-07
1.63147e-07
2.02789e-07
2.23577e-07
-1.92888e-07
-1.72355e-07
-1.33356e-07
-7.96725e-08
-1.64633e-08
4.99007e-08
1.13142e-07
1.66829e-07
2.05772e-07
2.26261e-07
-1.83781e-07
-1.63569e-07
-1.25222e-07
-7.24137e-08
-1.01972e-08
5.50607e-08
1.17161e-07
1.69957e-07
2.08287e-07
2.28477e-07
-1.7718e-07
-1.57207e-07
-1.1933e-07
-6.7149e-08
-5.68527e-09
5.88233e-08
1.20082e-07
1.72246e-07
2.10145e-07
2.30106e-07
-1.7376e-07
-1.53941e-07
-1.16294e-07
-6.44242e-08
-3.36066e-09
6.07873e-08
1.2159e-07
1.73447e-07
2.11133e-07
2.30969e-07
-3.38688e-07
-3.07827e-07
-2.48961e-07
-1.67826e-07
-7.22791e-08
2.83452e-08
1.23945e-07
2.05404e-07
2.64664e-07
2.95854e-07
-3.3385e-07
-3.0317e-07
-2.44688e-07
-1.64108e-07
-6.9307e-08
3.0613e-08
1.25612e-07
2.06498e-07
2.65327e-07
2.96308e-07
-3.24534e-07
-2.94248e-07
-2.36526e-07
-1.57003e-07
-6.34679e-08
3.50686e-08
1.28943e-07
2.08774e-07
2.66796e-07
2.97341e-07
-3.11664e-07
-2.81899e-07
-2.2518e-07
-1.47062e-07
-5.51852e-08
4.14641e-08
1.33706e-07
2.12041e-07
2.68965e-07
2.98926e-07
-2.96504e-07
-2.67284e-07
-2.11704e-07
-1.35213e-07
-4.53721e-08
4.9359e-08
1.39615e-07
2.16073e-07
2.71659e-07
3.0092e-07
-2.80471e-07
-2.51858e-07
-1.97466e-07
-1.22726e-07
-3.4801e-08
5.76142e-08
1.45636e-07
2.20589e-07
2.74807e-07
3.03363e-07
-2.65079e-07
-2.37091e-07
-1.83923e-07
-1.10766e-07
-2.46482e-08
6.56878e-08
1.51804e-07
2.24999e-07
2.78094e-07
3.06063e-07
-2.52049e-07
-2.24578e-07
-1.72422e-07
-1.00632e-07
-1.61479e-08
7.26526e-08
1.57024e-07
2.28825e-07
2.8096e-07
3.08421e-07
-2.42632e-07
-2.1554e-07
-1.6408e-07
-9.32321e-08
-9.91804e-09
7.76543e-08
1.60822e-07
2.31648e-07
2.83094e-07
3.10178e-07
-2.37755e-07
-2.1088e-07
-1.59767e-07
-8.94301e-08
-6.75245e-09
8.02955e-08
1.62804e-07
2.33121e-07
2.84206e-07
3.11083e-07
-4.69247e-07
-4.26763e-07
-3.45713e-07
-2.3397e-07
-1.02212e-07
3.65916e-08
1.6896e-07
2.81672e-07
3.63766e-07
4.0691e-07
-4.62221e-07
-4.20033e-07
-3.39592e-07
-2.28702e-07
-9.80022e-08
3.97254e-08
1.7107e-07
2.82876e-07
3.64271e-07