/*--------------------------------*- C++ -*----------------------------------*\
  =========                 |
  \\      /  F ield         | OpenFOAM: The Open Source CFD Toolbox
   \\    /   O peration     | Website:  https://openfoam.org
    \\  /    A nd           | Version:  9
     \\/     M anipulation  |
\*---------------------------------------------------------------------------*/
FoamFile
{
    format      ascii;
    class       surfaceScalarField;
    location    "100000";
    object      phi;
}
// * * * * * * * * * * * * * * * * * * * * * * * * * * * * * * * * * * * * * //

dimensions      [0 3 -1 0 0 0 0];

internalField   nonuniform List<scalar> 
25100
(
-2.89842e-06
5.36655e-05
-1000
-1.32799e-05
4.21653e-05
-1000
-1.28063e-05
5.90543e-05
-1000
-1.06256e-05
7.65236e-05
-1000
-8.58799e-05
6.59605e-05
-1000
-0.000133331
8.26064e-05
-1000
-0.000102019
7.98444e-05
-1000
-7.38445e-05
8.3659e-05
-1000
-3.63975e-05
8.7329e-05
-1000
9.15884e-05
-1000
-1.29399e-05
6.13741e-05
-1000
-1.72698e-07
5.08983e-05
-1000
9.73509e-07
7.42283e-05
-1000
-1.2392e-05
0.000100665
-1000
-7.57979e-05
0.000105192
-1000
-0.000130446
0.000137115
-1000
-0.000101977
0.000150746
-1000
-7.00519e-05
0.00017676
-1000
-3.10843e-05
0.000189178
-1000
0.000194904
-1000
-1.94083e-05
7.04846e-05
-1000
2.1015e-05
6.65076e-05
-1000
2.65629e-05
0.000103577
-1000
4.97437e-06
0.000150862
-1000
-6.67625e-05
0.000162378
-1000
-9.81085e-05
0.000199326
-1000
-8.28368e-05
0.000208543
-1000
-5.65379e-05
0.000250895
-1000
-2.43176e-05
0.000265862
-1000
0.000269843
-1000
-1.76253e-05
2.14217e-05
-1000
5.49155e-05
6.05932e-05
-1000
6.57822e-05
0.000131416
-1000
5.35929e-05
0.000211921
-1000
-0.000109301
0.000290498
-1000
-4.43126e-05
0.000200784
-1000
-5.12951e-05
0.000253019
-1000
-4.03513e-05
0.00028968
-1000
-1.90284e-05
0.000312924
-1000
0.000320989
-1000
3.51411e-05
0.000252727
-1000
0.000125742
0.000237785
-1000
9.60914e-05
0.000227485
-1000
0.000113087
0.000143973
-1000
-5.39087e-05
0.000173486
-1000
1.74901e-05
0.000281689
-1000
-4.51158e-05
0.000291571
-1000
-2.13675e-05
0.000220594
-1000
-1.27876e-05
0.000235556
-1000
0.000237454
-1000
2.22878e-05
0.000369024
-1000
0.000116276
0.000375635
-1000
0.000116059
0.000313539
-1000
3.98381e-06
0.00027506
-1000
4.60149e-05
0.000265538
-1000
-9.87919e-05
0.000120015
-1000
1.28511e-05
0.000157267
-1000
-1.48943e-05
0.000176147
-1000
-1.08241e-05
0.000160011
-1000
0.00014696
-1000
1.24633e-05
0.000302852
-1000
4.87248e-05
0.000299842
-1000
2.78164e-05
0.000256059
-999.999
-5.59331e-06
0.000222497
-999.999
2.86891e-05
0.000170333
-999.999
-4.27292e-05
0.000163947
-999.999
-3.08371e-05
0.000131667
-999.999
-3.0162e-05
0.00012954
-1000
-2.40123e-05
0.000113616
-1000
0.000109442
-1000
6.74659e-06
0.00021848
-999.999
1.3147e-05
0.000210942
-999.999
-2.63489e-06
0.00017926
-999.999
-3.22658e-05
0.00015328
-999.999
-3.93768e-05
0.000135409
-999.999
-3.77358e-05
0.000124405
-999.999
-4.50778e-05
0.000100996
-999.999
-4.33153e-05
8.84278e-05
-999.999
-2.82688e-05
7.50236e-05
-999.999
7.38043e-05
-999.999
-4.71236e-06
0.00011563
-999.999
-1.52938e-05
0.00010767
-999.999
-3.14187e-05
9.46785e-05
-999.999
-5.36357e-05
8.2571e-05
-999.999
-5.35731e-05
7.82098e-05
-999.999
-5.36596e-05
6.97534e-05
-999.999
-6.02219e-05
5.34287e-05
-999.999
-5.30925e-05
4.51038e-05
-999.999
-2.94849e-05
4.16497e-05
-999.999
4.38928e-05
-999.999
-1.22832e-05
-999.999
-2.90316e-05
-999.999
-4.30886e-05
-999.999
-6.14908e-05
-999.999
-6.03335e-05
-999.999
-6.83297e-05
-999.999
-6.80993e-05
-999.999
-5.81209e-05
-999.999
-2.67751e-05
-999.999
-999.999
1.52063e-06
0.00014529
-1000
-3.30666e-05
0.000120403
-1000
-4.20943e-05
0.000156865
-1000
-5.03775e-05
0.000188705
-1000
-0.000211305
0.000159445
-1000
-0.000350756
0.000199688
-1000
-0.000258095
0.000207274
-1000
-0.000172283
0.000225295
-1000
-7.60964e-05
0.000242479
-1000
0.000256803
-1000
-1.98598e-05
0.000164117
-1000
-5.67172e-06
0.000148247
-1000
-1.59205e-05
0.000208107
-1000
-4.63094e-05
0.000271714
-1000
-0.000178943
0.000292882
-1000
-0.000334879
0.000365316
-1000
-0.000242356
0.000411975
-1000
-0.000155229
0.000479271
-1000
-5.89841e-05
0.00051249
-1000
0.000524497
-1000
-2.23926e-05
0.000200885
-1000
5.10898e-05
0.000212529
-1000
4.75065e-05
0.000304121
-1000
-3.17563e-06
0.000408226
-1000
-0.000145361
0.000438333
-1000
-0.000254738
0.000535938
-1000
-0.000185217
0.000563677
-1000
-0.00011865
0.000670601
-1000
-4.5168e-05
0.000711246
-1000
0.000716174
-1000
-1.71825e-06
0.000128495
-1000
0.000136695
0.000245579
-1000
0.00014008
0.000396852
-1000
9.21548e-05
0.000556893
-1000
-0.000245364
0.00076304
-1000
-0.000131034
0.000524728
-1000
-0.000102762
0.000659879
-1000
-7.54524e-05
0.000760158
-1000
-3.76803e-05
0.000814863
-1000
0.000819839
-1000
0.00013387
0.000641572
-1000
0.000279194
0.00060691
-1000
0.000171135
0.000601656
-1000
0.000207609
0.00043158
-1000
-9.9645e-05
0.000508772
-1000
3.56643e-05
0.000751379
-1000
-7.67225e-05
0.000797298
-1000
-4.09572e-05
0.000615466
-1000
-3.54277e-05
0.000629521
-1000
0.000632904
-1000
0.000108513
0.000971167
-1000
0.000265913
0.000946225
-1000
0.000247728
0.000775699
-1000
-4.69986e-05
0.000671766
-1000
0.000105517
0.00064002
-1000
-0.000200511
0.000378547
-1000
3.3796e-05
0.000430081
-1000
-2.58688e-05
0.000461347
-1000
-2.44184e-05
0.000417607
-1000
0.000389193
-1000
5.35955e-05
0.000774681
-999.999
9.78624e-05
0.000744339
-999.999
3.64002e-05
0.000642444
-999.999
-5.7529e-05
0.000579806
-999.999
9.73672e-05
0.000474646
-999.999
-0.000104124
0.000437744
-999.999
-7.2617e-05
0.000355494
-999.999
-7.59784e-05
0.000346149
-1000
-6.39629e-05
0.000305244
-1000
0.000302502
-1000
1.72969e-05
0.000550295
-999.999
7.32055e-06
0.000520007
-999.999
-2.87616e-05
0.000453419
-999.999
-9.65829e-05
0.00040789
-999.999
-7.30586e-05
0.000365752
-999.999
-9.65874e-05
0.000332905
-999.999
-0.000110136
0.000266802
-999.999
-0.000104941
0.000233548
-999.999
-6.74027e-05
0.000207903
-999.999
0.000212924
-999.999
-1.84211e-05
0.000286504
-999.998
-4.82245e-05
0.000266989
-999.998
-8.35381e-05
0.000241251
-999.998
-0.000131976
0.00021765
-999.999
-0.000127735
0.00019875
-999.999
-0.000137054
0.000180643
-999.999
-0.000146488
0.000139523
-999.999
-0.000129306
0.000124693
-999.999
-6.01178e-05
0.000124383
-999.999
0.000139196
-999.999
-3.33419e-05
-999.998
-7.36026e-05
-999.998
-0.000108777
-999.998
-0.000148947
-999.998
-0.000146603
-999.998
-0.000169246
-999.999
-0.000162255
-999.999
-0.000132782
-999.999
-4.50691e-05
-999.999
-999.999
-1.17735e-05
0.000283688
-1000
-0.000109713
0.000246252
-1000
-0.00016116
0.000280002
-1000
-0.000201038
0.000301075
-1000
-0.0003497
0.00028849
-1000
-0.000517347
0.00033061
-1000
-0.000374207
0.00035913
-1000
-0.000231717
0.000396747
-1000
-9.13835e-05
0.000428718
-1000
0.000448409
-1000
-2.24939e-05
0.000377938
-1000
-8.11262e-05
0.000381532
-1000
-0.000144672
0.000454208
-1000
-0.000215426
0.000526167
-1000
-0.000310397
0.000572342
-1000
-0.000483438
0.000653774
-1000
-0.000334331
0.000734718
-1000
-0.000199357
0.000817874
-1000
-6.78101e-05
0.000862246
-1000
0.000871
-1000
-1.59145e-05
0.000522995
-1000
-1.00149e-05
0.000565122
-1000
-7.25392e-05
0.000667156
-1000
-0.000165451
0.000775237
-1000
-0.000241672
0.000819506
-1000
-0.000386384
0.000952396
-1000
-0.000247928
0.00100735
-1000
-0.000153433
0.00112843
-1000
-5.74278e-05
0.00117782
-1000
0.00117323
-1000
2.56184e-05
0.000577684
-1000
9.38827e-05
0.000716261
-1000
3.52933e-05
0.000853176
-1000
-5.68728e-05
0.000965232
-1000
-0.000262196
0.00111005
-1000
-0.000257977
0.00106436
-1000
-0.000137987
0.00117297
-1000
-0.000102589
0.00128621
-1000
-5.75083e-05
0.00132979
-1000
0.00131424
-1000
0.000149953
0.00108875
-1000
0.000207317
0.00106711
-1000
7.00551e-05
0.00107554
-1000
5.45389e-05
0.000971644
-1000
-0.000125042
0.00113924
-1000
-7.67184e-05
0.00118082
-1000
-9.04153e-05
0.00127441
-1000
-6.7303e-05
0.00112304
-1000
-7.71215e-05
0.00111791
-1000
0.00111853
-1000
0.00013172
0.00146782
-999.999
0.000214124
0.00139765
-999.999
0.000123231
0.00120141
-999.999
-0.000156959
0.0010862
-1000
-4.73229e-05
0.00103466
-1000
-0.00016776
0.000947595
-1000
-3.45122e-05
0.000889791
-1000
-6.66225e-05
0.000869265
-1000
-7.01535e-05
0.000802242
-1000
0.000770153
-1000
4.17067e-05
0.00119665
-999.998
3.80457e-05
0.00113332
-999.999
-5.98194e-05
0.00103123
-999.999
-0.00015701
0.000979754
-999.999
-3.64205e-06
0.000887522
-999.999
-0.000172032
0.000829896
-999.999
-0.000152309
0.000710877
-999.999
-0.000135784
0.0006798
-1000
-0.000108838
0.000630824
-1000
0.000630343
-1000
-1.49236e-05
0.000850109
-999.998
-6.0996e-05
0.000805528
-999.998
-0.00012648
0.000745793
-999.998
-0.000193746
0.00070276
-999.998
-0.000165949
0.000648635
-999.999
-0.000188177
0.000600246
-999.999
-0.000207336
0.00051219
-999.999
-0.000183418
0.000467124
-999.999
-0.000107093
0.000440792
-999.999
0.000452557
-999.999
-5.14177e-05
0.000441511
-999.998
-0.000116723
0.000424783
-999.998
-0.000176683
0.000399922
-999.998
-0.000234136
0.000371577
-999.998
-0.00023991
0.000338621
-999.998
-0.000248423
0.000312685
-999.998
-0.000253146
0.000266352
-999.999
-0.000210118
0.000252761
-999.999
-9.05676e-05
0.000259548
-999.999
0.000287267
-999.999
-7.26752e-05
-999.998
-0.000138782
-999.998
-0.000205552
-999.998
-0.000264877
-999.998
-0.000265404
-999.998
-0.000288451
-999.998
-0.000266983
-999.998
-0.000205106
-999.998
-6.22549e-05
-999.999
-999.999
-6.02596e-05
0.0004671
-1000
-0.000268579
0.000434596
-1000
-0.000403357
0.000449294
-1000
-0.00051485
0.000457209
-1000
-0.000519471
0.000470229
-1000
-0.00059424
0.000505014
-1000
-0.000433555
0.000554343
-1000
-0.000255712
0.000607564
-1000
-9.76672e-05
0.000644352
-1000
0.000659487
-1000
-9.39641e-05
0.000748365
-1000
-0.000256493
0.000769671
-1000
-0.000398802
0.000834491
-1000
-0.000511533
0.000899731
-1000
-0.000484797
0.000966371
-1000
-0.000543596
0.00104473
-1000
-0.000377958
0.00113136
-1000
-0.000218943
0.00120585
-1000
-7.87995e-05
0.00124226
-1000
0.0012385
-1000
-7.15144e-05
0.00106885
-1000
-0.000191551
0.00111755
-1000
-0.000328537
0.00119753
-1000
-0.000445462
0.00128584
-1000
-0.000409462
0.00135905
-1000
-0.000447495
0.00148589
-1000
-0.00029799
0.00155566
-1000
-0.000185457
0.00164546
-1000
-8.10481e-05
0.00168077
-1000
0.00166155
-1000
-2.47887e-05
0.00132453
-1000
-0.000113271
0.00141254
-1000
-0.000239748
0.00147667
-1000
-0.00036714
0.00151823
-1000
-0.000336616
0.00158237
-1000
-0.00035556
0.0017717
-1000
-0.000205575
0.00183191
-1000
-0.000154687
0.00189745
-1000
-9.57524e-05
0.00190341
-1000
0.00186498
-1000
2.87646e-05
0.00166217
-999.999
-5.44005e-05
0.00167028
-1000
-0.000220347
0.0016944
-1000
-0.000334993
0.00170273
-1000
-0.000141703
0.00187542
-1000
-0.000248947
0.00170024
-1000
-0.000168366
0.00181715
-1000
-0.000154242
0.00175567
-1000
-0.000137484
0.00173196
-1000
0.00172623
-1000
2.62875e-05
0.00189944
-999.998
-3.14181e-05
0.00182569
-999.999
-0.000169741
0.00171578
-999.999
-0.000308451
0.00166279
-999.999
-0.000492138
0.0016442
-1000
-0.000163501
0.00167219
-1000
-0.000171413
0.00152089
-1000
-0.000171148
0.00144109
-1000
-0.00013944
0.00136829
-1000
0.00134618
-1000
-2.91017e-05
0.00160911
-999.998
-0.000130481
0.00155416
-999.998
-0.000239076
0.00149692
-999.998
-0.000277973
0.00147503
-999.998
-0.000235146
0.00140462
-999.999
-0.000261709
0.00134151
-999.999
-0.00028281
0.00121943
-999.999
-0.000238249
0.00116766
-999.999
-0.000160242
0.0011179
-1000
0.00111435
-1000
-8.36949e-05
0.00115958
-999.997
-0.000185194
0.00113115
-999.997
-0.000271414
0.0010958
-999.998
-0.000314413
0.00105983
-999.998
-0.000335001
0.00099883
-999.998
-0.000340001
0.00094038
-999.998
-0.000349407
0.000860505
-999.999
-0.000287551
0.000810702
-999.999
-0.000159465
0.000785284
-999.999
0.000797617
-999.999
-0.000115622
0.00061299
-999.997
-0.000221643
0.000606651
-999.997
-0.000308263
0.0005892
-999.997
-0.000382488
0.000556526
-999.997
-0.000403807
0.000515217
-999.998
-0.00041157
0.000479136
-999.998
-0.00039693
0.000445192
-999.998
-0.000311688
0.000432982
-999.998
-0.000144337
0.000440233
-999.998
0.000471038
-999.999
-0.000122889
-999.997
-0.000239544
-999.997
-0.00033955
-999.997
-0.000434152
-999.997
-0.000436245
-999.997
-0.000445152
-999.998
-0.000408433
-999.998
-0.000303479
-999.998
-0.000112613
-999.998
-999.998
-0.00019925
0.00070449
-1000
-0.000501033
0.000679852
-1000
-0.000721416
0.000682213
-1000
-0.000898939
0.00068848
-1000
-0.000722402
0.000734005
-1000
-0.000627451
0.000758127
-1000
-0.00047676
0.000816833
-1000
-0.000288587
0.000869501
-1000
-0.000121092
0.000896789
-1000
0.000898621
-1000
-0.000227478
0.00127205
-1000
-0.000501893
0.00130368
-1000
-0.000716281
0.00135467
-1000
-0.000863955
0.0014162
-1000
-0.000697697
0.0015072
-1000
-0.000570503
0.00156943
-1000
-0.000423546
0.00162984
-1000
-0.000262381
0.00167347
-1000
-0.000116825
0.00168329
-1000
0.00166423
-1000
-0.00019693
0.00180529
-1000
-0.000452516
0.0018456
-1000
-0.000648714
0.0019028
-1000
-0.000775072
0.0019852
-1000
-0.000633774
0.00209768
-1000
-0.000507326
0.00220064
-1000
-0.000377425
0.00222997
-1000
-0.000255216
0.00226825
-1000
-0.000132441
0.00227155
-1000
0.00224023
-1000
-0.000161441
0.00225778
-1000
-0.000397973
0.00226842
-1000
-0.000562307
0.00228129
-1000
-0.00066214
0.0022984
-1000
-0.000535116
0.00240879
-1000
-0.00046539
0.00265225
-1000
-0.000336522
0.00264709
-1000
-0.000258393
0.00263747
-1000
-0.000159662
0.00259827
-1000
0.00254874
-1000
-0.000168877
0.00244128
-999.999
-0.000388716
0.0024741
-1000
-0.000544128
0.00250952
-1000
-0.000705773
0.00258135
-1000
-0.000314886
0.00273756
-1000
-0.000464273
0.00245959
-1000
-0.00036197
0.00256751
-1000
-0.000304399
0.00255306
-1000
-0.000204606
0.00251838
-1000
0.00250452
-1000
-0.000140227
0.00245307
-999.998
-0.000346289
0.00243756
-999.998
-0.000486467
0.00243656
-999.999
-0.00047891
0.00244763
-999.999
-0.000851184
0.00244183
-999.999
-0.0003066
0.00248966
-1000
-0.00037742
0.00232097
-1000
-0.000332079
0.00221648
-1000
-0.000219648
0.00215659
-1000
0.00213998
-1000
-0.000158509
0.00214902
-999.997
-0.000341547
0.00212964
-999.997
-0.000458222
0.00212279
-999.998
-0.000472398
0.00212316
-999.998
-0.000527342
0.00204977
-999.998
-0.000488882
0.0019851
-999.999
-0.000488515
0.00188838
-999.999
-0.000383303
0.00182833
-999.999
-0.000226657
0.00178197
-999.999
0.00176962
-1000
-0.000181221
0.0015718
-999.996
-0.000350421
0.00156664
-999.997
-0.00046333
0.00155218
-999.997
-0.000521188
0.00152157
-999.997
-0.000579163
0.00144261
-999.997
-0.000592522
0.00138046
-999.998
-0.000555436
0.00132703
-999.998
-0.000430418
0.00128067
-999.998
-0.000234629
0.0012564
-999.999
0.00126286
-999.999
-0.000188156
0.00083909
-999.996
-0.000366989
0.000839547
-999.996
-0.00049424
0.000825639
-999.996
-0.00060254
0.000793853
-999.996
-0.00063965
0.000738919
-999.997
-0.000648467
0.000699088
-999.997
-0.000598165
0.000689223
-999.997
-0.000452875
0.000679347
-999.998
-0.000225163
0.000682448
-999.998
0.000709229
-999.998
-0.00018641
-999.996
-0.000381225
-999.996
-0.000523291
-999.996
-0.00065583
-999.996
-0.000675803
-999.996
-0.00066151
-999.997
-0.000606832
-999.997
-0.000448001
-999.997
-0.000195933
-999.998
-999.998
-0.000384889
0.00100532
-1000
-0.000766201
0.00099997
-1000
-0.00105486
0.00100303
-1000
-0.00128238
0.00102277
-1000
-0.000990574
0.00109837
-1000
-0.000724945
0.00111294
-1000
-0.000592629
0.00115865
-1000
-0.000390655
0.00119147
-1000.01
-0.000190137
0.00119948
-1000.01
0.00118696
-1000.01
-0.000396908
0.0019442
-1000
-0.000765691
0.00198179
-1000
-0.00103685
0.00202365
-1000
-0.00121253
0.00208769
-1000
-0.000977692
0.00219411
-1000
-0.000680364
0.00224027
-1000
-0.000560402
0.00225045
-1000
-0.000382996
0.00225168
-1000
-0.000200063
0.00223468
-1000.01
0.00220963
-1000.01
-0.000364064
0.00272313
-1000
-0.000724747
0.00275531
-1000
-0.000969183
0.00280372
-1000
-0.00110861
0.0028906
-1000
-0.000928756
0.00302239
-1000
-0.00067067
0.00311084
-1000
-0.000558039
0.00307155
-1000
-0.000399992
0.00305408
-1000
-0.000221089
0.00302841
-1000
0.00299813
-1000
-0.000337821
0.00332327
-1000
-0.000677383
0.00329795
-1000
-0.000877629
0.00330941
-1000
-0.000977426
0.00336162
-1000
-0.00083785
0.00347621
-1000
-0.000707449
0.00373515
-1000
-0.000571624
0.00363017
-1000
-0.000427973
0.00355623
-1000
-0.000245809
0.00350029
-1000
0.00346356
-1000
-0.000374318
0.00349186
-999.999
-0.000672597
0.00354149
-999.999
-0.000816064
0.00357583
-1000
-0.000910637
0.00365521
-1000
-0.000580967
0.00383829
-1000
-0.000818156
0.00348686
-1000
-0.000654801
0.00357553
-1000
-0.000487533
0.00357806
-1000
-0.000274244
0.00353675
-1000
0.00351094
-1000
-0.000332318
0.00333292
-999.998
-0.000625538
0.00338045
-999.998
-0.000760896
0.00344419
-999.998
-0.000685138
0.00346881
-999.999
-0.00115885
0.00340428
-999.999
-0.000652198
0.00348488
-1000
-0.000677887
0.00333173
-1000
-0.000528597
0.00323537
-1000
-0.000296626
0.00318343
-1000
0.00315269
-1000
-0.000296522
0.00293571
-999.996
-0.00056309
0.00295153
-999.997
-0.000716248
0.00296341
-999.997
-0.000739982
0.00295395
-999.997
-0.00088332
0.0028678
-999.998
-0.000849223
0.00282664
-999.998
-0.000772183
0.00274791
-999.999
-0.0005733
0.00268714
-999.999
-0.000315753
0.0026408
-999.999
0.00261729
-999.999
-0.000283491
0.0021555
-999.995
-0.000550263
0.0021654
-999.995
-0.000722516
0.00215372
-999.996
-0.000825419
0.00211865
-999.996
-0.000918261
0.00203153
-999.997
-0.00094104
0.00197211
-999.997
-0.000831372
0.00194357
-999.998
-0.000620327
0.00190448
-999.998
-0.000332976
0.00187768
-999.998
0.00187545
-999.998
-0.000277458
0.00114464
-999.995
-0.000565679
0.00114101
-999.995
-0.000758178
0.0011272
-999.995
-0.000910197
0.001099
-999.995
-0.000967443
0.0010481
-999.996
-0.000973452
0.0010112
-999.996
-0.000867951
0.0010188
-999.997
-0.00064636
0.00101045
-999.997
-0.000330795
0.00100634
-999.997
0.00103149
-999.997
-0.000280418
-999.994
-0.00057945
-999.994
-0.000783872
-999.995
-0.000954579
-999.995
-0.00100224
-999.995
-0.0009671
-999.996
-0.000874381
-999.996
-0.000648526
-999.997
-0.000302096
-999.997
-999.997
-0.000580088
0.0014078
-1000
-0.0010344
0.00142875
-1000
-0.00138919
0.00144554
-1000
-0.00164327
0.00148054
-1000
-0.00137877
0.00156183
-1000.01
-0.00100952
0.00157079
-1000.01
-0.000865766
0.00158593
-1000.01
-0.00061188
0.00159244
-1000.01
-0.000322476
0.00158485
-1000.01
0.0015664
-1000.01
-0.000567611
0.00279084
-1000
-0.00102136
0.00283079
-1000
-0.0013574
0.00286855
-1000
-0.00156473
0.0029288
-1000
-0.00137364
0.00301972
-1000
-0.000995375
0.00305276
-1000.01
-0.000860767
0.00302212
-1000.01
-0.000619789
0.00299788
-1000.01
-0.000337998
0.00297211
-1000.01
0.00295294
-1000.01
-0.000534775
0.00386872
-1000
-0.000984423
0.00389678
-1000
-0.00129664
0.0039437
-1000
-0.00147483
0.00402446
-1000
-0.00133582
0.00412604
-1000
-0.00102685
0.00421154
-1000
-0.000886271
0.00413261
-1000
-0.000645868
0.00408834
-1000.01
-0.000352439
0.00405929
-1000.01
0.0040405
-1000.01
-0.000513493
0.00459874
-1000
-0.000938001
0.00458778
-1000
-0.00121103
0.00462266
-1000
-0.00137397
0.00469262
-1000
-0.00126226
0.00476497
-1000
-0.00110886
0.00498977
-1000
-0.000925226
0.00484993
-1000
-0.000671986
0.00476701
-1000
-0.000362146
0.00472968
-1000
0.00471184
-1000
-0.000540295
0.00487318
-999.999
-0.000911653
0.00491813
-999.999
-0.00113336
0.00494885
-999.999
-0.00131875
0.00501643
-1000
-0.000994206
0.00521136
-1000
-0.00128189
0.00481559
-1000
-0.00102511
0.00489206
-1000
-0.000713263
0.00489804
-1000
-0.000369738
0.00486187
-1000
0.00482908
-1000
-0.000501547
0.00464177
-999.997
-0.000869217
0.00472233
-999.997
-0.00106043
0.00478446
-999.998
-0.00106238
0.00477598
-999.998
-0.00159185
0.00469408
-999.999
-0.00112546
0.00475809
-999.999
-0.001031
0.00464298
-1000
-0.000748237
0.0045569
-1000
-0.000391934
0.00448846
-1000
0.00443147
-1000
-0.000434971
0.00403686
-999.995
-0.000817978
0.00406623
-999.995
-0.00106405
0.00406403
-999.996
-0.00115719
0.00402879
-999.996
-0.00136747
0.00394262
-999.997
-0.00128647
0.00393835
-999.998
-0.00112411
0.00386356
-999.998
-0.000816135
0.00379836
-999.999
-0.000437038
0.00374358
-999.999
0.0037118
-999.999
-0.000410991
0.00294856
-999.994
-0.000814792
0.00295561
-999.994
-0.00108863
0.00293651
-999.994
-0.00125419
0.00290125
-999.995
-0.00138032
0.00283205
-999.995
-0.00137712
0.00278681
-999.996
-0.00118291
0.00276425
-999.997
-0.000869997
0.00272654
-999.997
-0.000459993
0.00269113
-999.998
0.00268206
-999.998
-0.000410944
0.00154663
-999.993
-0.000837931
0.00153331
-999.993
-0.00112657
0.00152215
-999.993
-0.00132112
0.00150529
-999.994
-0.00141215
0.00147912
-999.994
-0.0014033
0.00145542
-999.995
-0.00121993
0.00145939
-999.996
-0.000905126
0.00144728
-999.996
-0.000463891
0.00143791
-999.996
0.00146434
-999.997
-0.000425916
-999.992
-0.00084745
-999.992
-0.00114059
-999.993
-0.00134336
-999.993
-0.00143463
-999.994
-0.00139638
-999.994
-0.0012289
-999.995
-0.000911586
-999.995
-0.00043262
-999.996
-999.996
-0.000761872
0.00196875
-1000.01
-0.00132915
0.00201074
-1000.01
-0.00178287
0.00203922
-1000.01
-0.00206507
0.00207467
-1000.01
-0.00194545
0.00212644
-1000.01
-0.00158025
0.00213394
-1000.01
-0.00134906
0.00212548
-1000.01
-0.000981364
0.00211605
-1000.01
-0.000526962
0.00210487
-1000.01
0.00209085
-1000.01
-0.000727965
0.00387317
-1000
-0.0013056
0.00391053
-1000
-0.0017508
0.00394105
-1000
-0.00201762
0.00398653
-1000.01
-0.0019422
0.00403856
-1000.01
-0.00159153
0.0040579
-1000.01
-0.00136033
0.00402714
-1000.01
-0.000993806
0.00400341
-1000.01
-0.00053774
0.0039861
-1000.01
0.00397494
-1000.01
-0.000698816
0.0053346
-1000
-0.00127678
0.00536074
-1000
-0.00170544
0.005403
-1000
-0.00196465
0.00546926
-1000
-0.00191836
0.00552282
-1000
-0.00162203
0.00558108
-1000.01
-0.0013863
0.00552274
-1000.01
-0.00101166
0.00549072
-1000.01
-0.000541078
0.0054767
-1000.01
0.00546442
-1000.01
-0.000683595
0.00626471
-1000
-0.00123666
0.00628675
-1000
-0.00163722
0.00633769
-1000
-0.00190141
0.00639377
-1000
-0.00187949
0.00641693
-1000
-0.00167852
0.00655387
-1000
-0.00141342
0.00646755
-1000
-0.00102127
0.00642188
-1000.01
-0.000539816
0.00640852
-1000.01
0.00639293
-1000.01
-0.000676665
0.00666696
-999.998
-0.00118818
0.00669924
-999.999
-0.00157604
0.00671747
-999.999
-0.00191303
0.00675694
-1000
-0.00166781
0.00688875
-1000
-0.00181702
0.00661268
-1000
-0.00148713
0.00663674
-1000
-0.00103944
0.00663387
-1000
-0.000543508
0.00661136
-1000
0.00657911
-1000
-0.00065591
0.00641497
-999.996
-0.00116594
0.00648425
-999.996
-0.00151179
0.0064945
-999.997
-0.0016895
0.00645343
-999.997
-0.00216079
0.00641473
-999.998
-0.00172873
0.00640216
-999.999
-0.00148637
0.00633843
-1000
-0.00105554
0.00625374
-1000
-0.00055928
0.00616451
-1000
0.00609641
-1000
-0.000603561
0.00549755
-999.994
-0.00116013
0.00551364
-999.994
-0.00155296
0.00549172
-999.994
-0.00176721
0.00545392
-999.995
-0.00198375
0.0053899
-999.996
-0.00185641
0.00538024
-999.997
-0.00158455
0.00531663
-999.998
-0.00114754
0.00525069
-999.998
-0.000613934
0.00518963
-999.999
0.00515841
-999.999
-0.000598268
0.00398733
-999.992
-0.00117946
0.00398162
-999.992
-0.00158927
0.00396134
-999.992
-0.00183518
0.00394129
-999.993
-0.00198479
0.00391282
-999.994
-0.00193992
0.00388713
-999.995
-0.00164639
0.00385345
-999.996
-0.0012069
0.00380814
-999.996
-0.000633526
0.00376667
-999.997
0.00375545
-999.997
-0.000612519
0.00207361
-999.99
-0.00120072
0.00205702
-999.991
-0.00161201
0.00205718
-999.991
-0.00186249
0.00205834
-999.992
-0.00200518
0.00206494
-999.992
-0.00197656
0.00205783
-999.993
-0.00169095
0.00203749
-999.994
-0.00124737
0.00201732
-999.995
-0.000636745
0.00200908
-999.995
0.00203288
-999.995
-0.000631641
-999.99
-0.00119811
-999.99
-0.00160721
-999.99
-0.00185065
-999.991
-0.00201041
-999.992
-0.00199263
-999.992
-0.00170645
-999.993
-0.00125118
-999.994
-0.000606909
-999.994
-999.995
-0.000953191
0.00273731
-1000.01
-0.00172107
0.00278271
-1000.01
-0.00233664
0.00280731
-1000.01
-0.00270526
0.00282772
-1000.01
-0.00274582
0.00284196
-1000.01
-0.00245299
0.0028473
-1000.01
-0.00207178
0.00284199
-1000.01
-0.00151656
0.00283305
-1000.01
-0.000813282
0.00282664
-1000.01
0.00281912
-1000.01
-0.000917352
0.00528211
-1000.01
-0.00170269
0.00531248
-1000.01
-0.00232065
0.00533075
-1000.01
-0.00269786
0.0053588
-1000.01
-0.00274342
0.00538504
-1000.01
-0.00246406
0.0053899
-1000.01
-0.00208401
0.00538663
-1000.01
-0.00152661
0.00537566
-1000.01
-0.000816637
0.00536936
-1000.01
0.00535809
-1000.01
-0.000898129
0.00725231
-1000
-0.0016867
0.0072777
-1000
-0.00229058
0.00731265
-1000
-0.00267087
0.00736527
-1000.01
-0.0027367
0.00740248
-1000.01
-0.00247094
0.00740753
-1000.01
-0.00209478
0.00739377
-1000.01
-0.00153321
0.0073893
-1000.01
-0.000815653
0.0073883
-1000.01
0.00737004
-1000.01
-0.00088923
0.00852553
-1000
-0.00165734
0.0085658
-1000
-0.00223867
0.00861354
-1000
-0.0026182
0.00864932
-1000
-0.00273948
0.00863929
-1000
-0.00247669
0.00872004
-1000.01
-0.00209586
0.00867497
-1000.01
-0.00153191
0.00866105
-1000.01
-0.000816808
0.00865807
-1000.01
0.00862916
-1000.01
-0.000866394
0.00902976
-999.998
-0.00160607
0.0090581
-999.998
-0.0021878
0.00905477
-999.999
-0.00261802
0.00904528
-1000
-0.00269126
0.00906238
-1000
-0.00255097
0.00902795
-1000
-0.00212148
0.00899039
-1000
-0.0015346
0.00897745
-1000
-0.000827532
0.00896526
-1000
0.00893689
-1000.01
-0.000859662
0.0086988
-999.995
-0.00161225
0.00872667
-999.995
-0.00219243
0.00869827
-999.996
-0.0025269
0.00864941
-999.997
-0.0027844
0.00860813
-999.998
-0.00258865
0.00855025
-999.999
-0.0021616
0.00853671
-1000
-0.00154391
0.00847235
-1000
-0.000836459
0.00839888
-1000
0.00835176
-1000
-0.000850229
0.00741013
-999.991
-0.00163983
0.00740323
-999.992
-0.00222564
0.00737494
-999.993
-0.00258205
0.00734871
-999.993
-0.00276305
0.00731929
-999.995
-0.00264197
0.00727319
-999.996
-0.00223012
0.00723634
-999.997
-0.00161672
0.00718576
-999.998
-0.000864783
0.00713812
-999.998
0.00711829
-999.999
-0.000873321
0.00535584
-999.989
-0.00167004
0.00534693
-999.989
-0.00225563
0.00533815
-999.99
-0.00262102
0.00533841
-999.991
-0.00277826
0.00535603
-999.992
-0.00269612
0.00533751
-999.993
-0.00228061
0.00529196
-999.994
-0.00166408
0.00524269
-999.995
-0.000869431
0.0052105
-999.996
0.00520024
-999.996
-0.000892974
0.00278823
-999.987
-0.00167827
0.00278364
-999.987
-0.0022545
0.00279417
-999.988
-0.0026036
0.00280851
-999.989
-0.00280249
0.00283981
-999.99
-0.00274067
0.00283801
-999.991
-0.00232757
0.00279122
-999.992
-0.00169475
0.0027699
-999.993
-0.000868911
0.00276831
-999.994
0.00278036
-999.994
-0.000901352
-999.986
-0.0016644
-999.986
-0.00223569
-999.987
-0.00256644
-999.988
-0.00279761
-999.989
-0.00278124
-999.99
-0.0023428
-999.991
-0.00169156
-999.992
-0.000847915
-999.993
-999.993
-0.00122848
0.00375453
-1000.01
-0.00230154
0.00378718
-1000.01
-0.00315253
0.00379748
-1000.01
-0.00368588
0.00380299
-1000.01
-0.00386003
0.0038097
-1000.01
-0.00362154
0.00381186
-1000.01
-0.00306891
0.00382421
-1000.02
-0.00224729
0.00382362
-1000.02
-0.00120051
0.00381958
-1000.02
0.00381114
-1000.02
-0.00120816
0.00714622
-1000.01
-0.00229939
0.00716827
-1000.01
-0.00315361
0.00717768
-1000.01
-0.0036888
0.00719361
-1000.01
-0.00386229
0.00721627
-1000.01
-0.00361857
0.00721561
-1000.01
-0.00307559
0.00722986
-1000.01
-0.00225681
0.00723288
-1000.02
-0.00120264
0.00723252
-1000.02
0.00721503
-1000.02
-0.00120124
0.00980675
-1000
-0.00229233
0.0098325
-1000.01
-0.00313346
0.00986089
-1000.01
-0.00366569
0.00989963
-1000.01
-0.003864
0.00993811
-1000.01
-0.00361006
0.00989951
-1000.01
-0.00307019
0.00991731
-1000.01
-0.00225659
0.00993646
-1000.01
-0.00120402
0.00994433
-1000.01
0.00991932
-1000.01
-0.00119863
0.0115747
-1000
-0.00227127
0.0116054
-1000
-0.00309428
0.0116338
-1000
-0.00362803
0.0116496
-1000
-0.0038748
0.011593
-1000.01
-0.00359559
0.0116704
-1000.01
-0.00304664
0.0116379
-1000.01
-0.00224797
0.0116507
-1000.01
-0.00120676
0.0116554
-1000.01
0.0116207
-1000.01
-0.00119257
0.0122114
-999.997
-0.00224049
0.0122448
-999.998
-0.00304968
0.0122167
-999.999
-0.00359131
0.0121721
-1000
-0.0039448
0.0121026
-1000
-0.00361676
0.0122184
-1000
-0.00302957
0.0121956
-1000
-0.00223941
0.0121715
-1000.01
-0.00121445
0.0121655
-1000.01
0.0121415
-1000.01
-0.00118835
0.0116944
-999.993
-0.00227017
0.0116939
-999.993
-0.00312885
0.011659
-999.994
-0.00363266
0.0116187
-999.995
-0.00369746
0.0115094
-999.997
-0.00370602
0.0115002
-999.998
-0.00310806
0.0115058
-1000
-0.00224509
0.0114838
-1000
-0.00121526
0.0114648
-1000
0.0114562
-1000
-0.00121262
0.00996997
-999.988
-0.00230159
0.00995723
-999.989
-0.00314462
0.00993482
-999.99
-0.00368637
0.00992172
-999.991
-0.00381506
0.00991008
-999.993
-0.00369038
0.0098292
-999.994
-0.00312436
0.00982638
-999.996
-0.00225956
0.00980782
-999.997
-0.00119654
0.00979494
-999.998
0.0097862
-999.998
-0.00124668
0.00721732
-999.985
-0.00232876
0.00721993
-999.985
-0.00316399
0.00721797
-999.986
-0.00371229
0.00722742
-999.988
-0.00386281
0.00727158
-999.989
-0.00371302
0.00724421
-999.991
-0.00314408
0.00720257
-999.992
-0.00227399
0.00717054
-999.993
-0.00118541
0.00716055
-999.994
0.00714509
-999.995
-0.00125857
0.00378286
-999.982
-0.00232999
0.00379349
-999.983
-0.00315092
0.00380368
-999.984
-0.00366939
0.00381719
-999.985
-0.00390009
0.00384475
-999.987
-0.00375347
0.00384092
-999.988
-0.00317188
0.00379355
-999.989
-0.00228236
0.00378402
-999.991
-0.00118475
0.003784
-999.991
0.00377603
-999.992
-0.00125341
-999.981
-0.002316
-999.981
-0.00313125
-999.982
-0.0036354
-999.983
-0.00389305
-999.985
-0.00379184
-999.987
-0.00317385
-999.988
-0.00227734
-999.989
-0.00118097
-999.99
-999.991
-0.00166284
0.00509109
-1000.01
-0.00315461
0.00510895
-1000.01
-0.00432544
0.00511338
-1000.01
-0.005064
0.00511925
-1000.02
-0.00540322
0.00513676
-1000.02
-0.005159
0.00514724
-1000.02
-0.00439815
0.0051658
-1000.02
-0.00322232
0.0051699
-1000.02
-0.00171948
0.00516423
-1000.03
0.00514853
-1000.03
-0.00166156
0.00965282
-1000.01