/*--------------------------------*- C++ -*----------------------------------*\
  =========                 |
  \\      /  F ield         | OpenFOAM: The Open Source CFD Toolbox
   \\    /   O peration     | Website:  https://openfoam.org
    \\  /    A nd           | Version:  9
     \\/     M anipulation  |
\*---------------------------------------------------------------------------*/
FoamFile
{
    format      ascii;
    class       volVectorField;
    location    "100000";
    object      stored_U;
}
// * * * * * * * * * * * * * * * * * * * * * * * * * * * * * * * * * * * * * //

dimensions      [0 1 -1 0 0 0 0];

internalField   nonuniform List<vector> 
9000
(
(3.64982e-12 4.08387e-11 -0.001)
(-7.08926e-12 3.71039e-11 -0.001)
(-3.09672e-11 3.89408e-11 -0.001)
(-1.30052e-11 4.13272e-11 -0.001)
(-4.12754e-11 3.57173e-11 -0.001)
(-1.01853e-10 4.38009e-11 -0.001)
(-9.39322e-11 4.05204e-11 -0.001)
(-6.65237e-11 3.95975e-11 -0.001)
(-4.20984e-11 3.70039e-11 -0.001)
(-1.61399e-11 3.3731e-11 -0.001)
(-1.36766e-13 9.44937e-11 -0.001)
(-9.05835e-12 8.38561e-11 -0.001)
(-2.6745e-11 8.88723e-11 -0.001)
(-1.64092e-11 9.55501e-11 -0.001)
(-3.90782e-11 8.4793e-11 -0.001)
(-9.73516e-11 1.05346e-10 -0.001)
(-9.84133e-11 9.76793e-11 -0.001)
(-7.01207e-11 9.69988e-11 -0.001)
(-4.7961e-11 9.00719e-11 -0.001)
(-1.93793e-11 8.36558e-11 -0.001)
(-7.07277e-12 1.18967e-10 -0.001)
(-1.28807e-11 1.08566e-10 -0.001)
(-1.93311e-11 1.19442e-10 -0.001)
(-1.72537e-11 1.34293e-10 -0.001)
(-3.17156e-11 1.27246e-10 -0.001)
(-8.92523e-11 1.55666e-10 -0.001)
(-1.02519e-10 1.36048e-10 -0.001)
(-7.4213e-11 1.35785e-10 -0.001)
(-5.53096e-11 1.2535e-10 -0.001)
(-2.23813e-11 1.18317e-10 -0.001)
(-1.07209e-11 1.24556e-10 -0.001)
(-8.84452e-12 1.27345e-10 -0.001)
(-1.05567e-12 1.45212e-10 -0.001)
(-8.63087e-12 1.67863e-10 -0.001)
(-1.77718e-11 9.93554e-11 -0.001)
(-8.8573e-11 2.78581e-10 -0.001)
(-1.18275e-10 1.81711e-10 -0.001)
(-8.07972e-11 1.70083e-10 -0.001)
(-6.51649e-11 1.49112e-10 -0.001)
(-2.61477e-11 1.38062e-10 -0.001)
(-4.71519e-12 1.78255e-10 -0.001)
(7.35714e-12 1.82793e-10 -0.001)
(2.11416e-11 1.94171e-10 -0.001)
(-6.31248e-11 1.91509e-10 -0.001)
(7.89483e-11 2.7954e-10 -0.001)
(-6.93888e-12 9.64361e-11 -0.000999999)
(-2.11042e-10 2.34615e-10 -0.001)
(-1.06776e-10 1.98707e-10 -0.001)
(-8.70238e-11 1.95857e-10 -0.001)
(-3.31462e-11 1.90124e-10 -0.001)
(-6.74124e-12 2.56107e-10 -0.000999999)
(6.5385e-12 2.50426e-10 -0.000999999)
(7.60601e-12 2.35943e-10 -0.000999999)
(7.66504e-11 2.05285e-10 -0.000999999)
(-1.13001e-10 2.66368e-10 -0.000999999)
(-1.33554e-10 8.7005e-11 -0.001)
(-1.58876e-11 2.21391e-10 -0.000999999)
(-1.19472e-10 2.23843e-10 -0.001)
(-7.3307e-11 2.44896e-10 -0.001)
(-3.14687e-11 2.5623e-10 -0.001)
(-1.09155e-11 2.50225e-10 -0.000999999)
(-1.33465e-11 2.47794e-10 -0.000999999)
(-2.4045e-11 2.27468e-10 -0.000999999)
(-3.28043e-11 2.0972e-10 -0.000999999)
(-3.93859e-11 1.10262e-10 -0.000999999)
(-5.17869e-11 2.65366e-10 -0.000999999)
(-7.4072e-11 1.79446e-10 -0.000999999)
(-8.31892e-11 2.21978e-10 -0.000999999)
(-5.40195e-11 2.37902e-10 -0.000999999)
(-2.12278e-11 2.52958e-10 -0.000999999)
(-9.63349e-12 2.0043e-10 -0.000999998)
(-1.66963e-11 2.02999e-10 -0.000999998)
(-3.05005e-11 1.93909e-10 -0.000999998)
(-4.05646e-11 1.88382e-10 -0.000999999)
(-5.73286e-11 1.77447e-10 -0.000999999)
(-6.42682e-11 1.6573e-10 -0.000999999)
(-5.92484e-11 1.66976e-10 -0.000999999)
(-6.09663e-11 1.90056e-10 -0.000999999)
(-4.17144e-11 2.01622e-10 -0.000999999)
(-1.58439e-11 2.08283e-10 -0.000999999)
(-8.69058e-12 1.37534e-10 -0.000999998)
(-2.02477e-11 1.39105e-10 -0.000999998)
(-3.86781e-11 1.33084e-10 -0.000999998)
(-4.92512e-11 1.26038e-10 -0.000999998)
(-6.20188e-11 1.22305e-10 -0.000999998)
(-6.22279e-11 1.21993e-10 -0.000999998)
(-4.97222e-11 1.23409e-10 -0.000999999)
(-4.85023e-11 1.32111e-10 -0.000999999)
(-3.52942e-11 1.37988e-10 -0.000999999)
(-1.40905e-11 1.38999e-10 -0.000999999)
(-8.25876e-12 5.02627e-11 -0.000999998)
(-2.13519e-11 5.07643e-11 -0.000999998)
(-4.35121e-11 4.92143e-11 -0.000999998)
(-5.11506e-11 4.58964e-11 -0.000999998)
(-6.124e-11 4.70997e-11 -0.000999998)
(-6.30505e-11 4.65426e-11 -0.000999998)
(-4.89818e-11 4.62153e-11 -0.000999998)
(-4.63334e-11 4.71816e-11 -0.000999998)
(-3.45099e-11 4.84539e-11 -0.000999999)
(-1.45113e-11 4.79657e-11 -0.000999999)
(2.62983e-12 1.00362e-10 -0.001)
(-3.00036e-11 8.83158e-11 -0.001)
(-8.89851e-11 9.28265e-11 -0.001)
(-6.26064e-11 9.63286e-11 -0.001)
(-1.17892e-10 8.34017e-11 -0.001)
(-2.40343e-10 1.00778e-10 -0.001)
(-2.22676e-10 9.949e-11 -0.001)
(-1.53508e-10 9.67116e-11 -0.001)
(-9.95513e-11 9.13178e-11 -0.001)
(-3.99742e-11 8.30461e-11 -0.001)
(-9.55091e-12 2.41352e-10 -0.001)
(-3.77581e-11 2.16832e-10 -0.001)
(-8.10763e-11 2.31135e-10 -0.001)
(-7.25352e-11 2.45541e-10 -0.001)
(-1.14076e-10 2.25028e-10 -0.001)
(-2.24713e-10 2.63245e-10 -0.001)
(-2.27152e-10 2.53006e-10 -0.001)
(-1.61837e-10 2.46887e-10 -0.001)
(-1.13157e-10 2.29834e-10 -0.001)
(-4.813e-11 2.1545e-10 -0.001)
(-2.21235e-11 3.19954e-10 -0.001)
(-4.06528e-11 3.06374e-10 -0.001)
(-6.04883e-11 3.35156e-10 -0.001)
(-6.91489e-11 3.7034e-10 -0.001)
(-1.007e-10 3.59495e-10 -0.001)
(-2.1276e-10 4.04505e-10 -0.001)
(-2.39432e-10 3.61295e-10 -0.001)
(-1.76847e-10 3.54245e-10 -0.001)
(-1.30675e-10 3.27348e-10 -0.001)
(-5.39581e-11 3.15831e-10 -0.001)
(-2.36284e-11 3.58123e-10 -0.001)
(-2.31842e-11 3.81933e-10 -0.001)
(-1.72072e-11 4.25068e-10 -0.001)
(-4.82479e-11 4.72904e-10 -0.001)
(-7.99282e-11 2.92235e-10 -0.001)
(-2.22948e-10 7.0383e-10 -0.001)
(-2.77477e-10 4.82018e-10 -0.001)
(-1.9574e-10 4.44561e-10 -0.001)
(-1.50956e-10 3.96351e-10 -0.001)
(-5.90452e-11 3.79584e-10 -0.001)
(7.47069e-13 4.90621e-10 -0.000999999)
(2.54023e-11 5.07481e-10 -0.000999999)
(3.0378e-11 5.35134e-10 -0.000999999)
(-2.01986e-10 5.1854e-10 -0.001)
(1.3021e-10 7.14202e-10 -0.001)
(-2.306e-11 3.037e-10 -0.001)
(-4.98718e-10 6.03678e-10 -0.001)
(-2.62432e-10 5.26876e-10 -0.001)
(-1.94925e-10 5.18258e-10 -0.001)
(-7.00676e-11 5.07407e-10 -0.001)
(-8.01156e-12 6.78265e-10 -0.000999999)
(2.01457e-11 6.61666e-10 -0.000999999)
(-6.25639e-12 6.27725e-10 -0.000999999)
(1.3086e-10 5.57565e-10 -0.000999999)
(-2.94843e-10 7.37316e-10 -0.000999999)
(-3.33461e-10 2.87444e-10 -0.000999999)
(-5.41899e-11 5.99167e-10 -0.001)
(-2.81042e-10 6.14185e-10 -0.001)
(-1.69424e-10 6.61416e-10 -0.001)
(-6.89422e-11 6.87919e-10 -0.001)
(-1.70505e-11 6.66468e-10 -0.000999999)
(-2.64226e-11 6.57839e-10 -0.000999999)
(-7.38375e-11 6.10634e-10 -0.000999999)
(-9.2595e-11 5.77843e-10 -0.000999999)
(-1.39902e-10 3.64426e-10 -0.000999999)
(-1.60973e-10 7.11666e-10 -0.000999999)
(-1.71928e-10 5.24224e-10 -0.000999999)
(-2.00101e-10 6.15481e-10 -0.000999999)
(-1.19753e-10 6.52592e-10 -0.000999999)
(-4.21989e-11 6.88409e-10 -0.000999999)
(-1.76784e-11 5.30707e-10 -0.000999998)
(-3.68308e-11 5.32433e-10 -0.000999998)
(-8.63294e-11 5.12017e-10 -0.000999998)
(-1.15373e-10 5.04334e-10 -0.000999998)
(-1.61012e-10 4.74007e-10 -0.000999998)
(-1.73714e-10 4.7991e-10 -0.000999999)
(-1.50388e-10 4.65607e-10 -0.000999999)
(-1.52591e-10 5.13249e-10 -0.000999999)
(-9.50105e-11 5.36362e-10 -0.000999999)
(-3.17566e-11 5.45755e-10 -0.000999999)
(-1.61774e-11 3.65135e-10 -0.000999998)
(-4.60491e-11 3.66993e-10 -0.000999998)
(-1.01974e-10 3.51392e-10 -0.000999998)
(-1.3057e-10 3.4108e-10 -0.000999998)
(-1.64275e-10 3.3286e-10 -0.000999998)
(-1.69312e-10 3.41323e-10 -0.000999998)
(-1.38547e-10 3.32384e-10 -0.000999998)
(-1.29251e-10 3.4782e-10 -0.000999998)
(-8.6055e-11 3.58247e-10 -0.000999999)
(-3.16642e-11 3.55123e-10 -0.000999999)
(-1.63679e-11 1.34133e-10 -0.000999998)
(-5.11323e-11 1.34143e-10 -0.000999998)
(-1.12104e-10 1.29242e-10 -0.000999998)
(-1.33475e-10 1.23908e-10 -0.000999998)
(-1.60423e-10 1.25868e-10 -0.000999998)
(-1.73902e-10 1.27459e-10 -0.000999998)
(-1.43592e-10 1.21133e-10 -0.000999998)
(-1.26569e-10 1.22173e-10 -0.000999998)
(-8.67886e-11 1.23731e-10 -0.000999998)
(-3.40399e-11 1.21069e-10 -0.000999998)
(-2.42057e-11 1.63977e-10 -0.001)
(-9.8389e-11 1.501e-10 -0.001)
(-1.94812e-10 1.54175e-10 -0.001)
(-2.15604e-10 1.56504e-10 -0.001)
(-2.64399e-10 1.48525e-10 -0.001)
(-3.41214e-10 1.61515e-10 -0.001)
(-3.08444e-10 1.65661e-10 -0.001)
(-2.24944e-10 1.61534e-10 -0.001)
(-1.48848e-10 1.55355e-10 -0.001)
(-6.04202e-11 1.45268e-10 -0.001)
(-3.83834e-11 4.34309e-10 -0.001)
(-1.08861e-10 4.14574e-10 -0.001)
(-1.89019e-10 4.30913e-10 -0.001)
(-2.22137e-10 4.46182e-10 -0.001)
(-2.60312e-10 4.39076e-10 -0.001)
(-3.24567e-10 4.5864e-10 -0.001)
(-3.08755e-10 4.54283e-10 -0.001)
(-2.35533e-10 4.37684e-10 -0.001)
(-1.6506e-10 4.16422e-10 -0.001)
(-7.03283e-11 4.01032e-10 -0.001)
(-4.45616e-11 6.37296e-10 -0.001)
(-1.0284e-10 6.40606e-10 -0.001)
(-1.63822e-10 6.73259e-10 -0.001)
(-2.08212e-10 7.07146e-10 -0.001)
(-2.52748e-10 7.03104e-10 -0.001)
(-3.26544e-10 7.19354e-10 -0.001)
(-3.29815e-10 6.78927e-10 -0.001)
(-2.63092e-10 6.53215e-10 -0.001)
(-1.84913e-10 6.21901e-10 -0.001)
(-7.50714e-11 6.17075e-10 -0.001)
(-3.61102e-11 7.89624e-10 -0.001)
(-7.41231e-11 8.33129e-10 -0.001)
(-1.22662e-10 8.7856e-10 -0.001)
(-1.92408e-10 9.18659e-10 -0.001)
(-2.48192e-10 7.45673e-10 -0.001)
(-3.4874e-10 1.07992e-09 -0.001)
(-3.74917e-10 8.79194e-10 -0.001)
(-2.92477e-10 8.27434e-10 -0.001)
(-1.99987e-10 7.80179e-10 -0.001)
(-7.39916e-11 7.79092e-10 -0.001)
(-2.60436e-12 9.67774e-10 -0.000999999)
(-1.54899e-11 9.94399e-10 -0.000999999)
(-7.8506e-11 1.01862e-09 -0.000999999)
(-3.41131e-10 9.92207e-10 -0.001)
(-9.14045e-11 1.13597e-09 -0.001)
(-1.92792e-10 8.23483e-10 -0.001)
(-5.82234e-10 1.0436e-09 -0.001)
(-3.61959e-10 9.80892e-10 -0.001)
(-2.3173e-10 9.6466e-10 -0.001)
(-7.47838e-11 9.61769e-10 -0.001)
(-1.1518e-11 1.153e-09 -0.000999999)
(-2.53299e-11 1.13574e-09 -0.000999999)
(-1.25083e-10 1.10178e-09 -0.000999999)
(-7.50291e-11 1.04056e-09 -0.000999999)
(-4.16644e-10 1.22011e-09 -0.000999999)
(-4.41025e-10 8.18338e-10 -0.000999999)
(-2.17708e-10 1.09045e-09 -0.001)
(-3.7131e-10 1.11788e-09 -0.001)
(-2.17247e-10 1.15931e-09 -0.001)
(-7.51732e-11 1.18333e-09 -0.001)
(-2.19477e-11 1.11568e-09 -0.000999998)
(-6.89633e-11 1.10363e-09 -0.000999998)
(-1.73874e-10 1.05992e-09 -0.000999998)
(-2.22641e-10 1.04557e-09 -0.000999998)
(-3.13484e-10 8.9325e-10 -0.000999999)
(-3.22723e-10 1.15504e-09 -0.000999999)
(-2.82848e-10 1.01005e-09 -0.000999999)
(-2.92951e-10 1.0913e-09 -0.000999999)
(-1.63965e-10 1.13148e-09 -0.000999999)
(-4.86212e-11 1.16053e-09 -0.000999999)
(-2.53617e-11 8.97681e-10 -0.000999998)
(-8.30924e-11 8.94417e-10 -0.000999998)
(-1.83259e-10 8.7334e-10 -0.000999998)
(-2.41638e-10 8.71057e-10 -0.000999998)
(-3.07162e-10 8.45198e-10 -0.000999998)
(-3.24263e-10 8.81663e-10 -0.000999998)
(-2.8142e-10 8.45032e-10 -0.000999998)
(-2.49715e-10 8.8536e-10 -0.000999999)
(-1.45628e-10 9.05328e-10 -0.000999999)
(-4.39027e-11 9.03119e-10 -0.000999999)
(-2.66923e-11 6.09363e-10 -0.000999997)
(-9.492e-11 6.09111e-10 -0.000999997)
(-1.97289e-10 5.89429e-10 -0.000999998)
(-2.50722e-10 5.80189e-10 -0.000999998)
(-3.02824e-10 5.78017e-10 -0.000999998)
(-3.22819e-10 5.90098e-10 -0.000999998)
(-2.79079e-10 5.72825e-10 -0.000999998)
(-2.32491e-10 5.83337e-10 -0.000999998)
(-1.44279e-10 5.89756e-10 -0.000999998)
(-4.89684e-11 5.79163e-10 -0.000999998)
(-2.66148e-11 2.19574e-10 -0.000999997)
(-1.04007e-10 2.20007e-10 -0.000999997)
(-2.11906e-10 2.10799e-10 -0.000999997)
(-2.52446e-10 2.05161e-10 -0.000999997)
(-2.96592e-10 2.08423e-10 -0.000999998)
(-3.2872e-10 2.10699e-10 -0.000999998)
(-2.87569e-10 2.01905e-10 -0.000999998)
(-2.32457e-10 2.01798e-10 -0.000999998)
(-1.4841e-10 2.01857e-10 -0.000999998)
(-5.32158e-11 1.97152e-10 -0.000999998)
(-6.87342e-11 2.50378e-10 -0.001)
(-2.08412e-10 2.45215e-10 -0.001)
(-3.48754e-10 2.44253e-10 -0.001)
(-4.32294e-10 2.44636e-10 -0.001)
(-4.59323e-10 2.47213e-10 -0.001)
(-4.40251e-10 2.51727e-10 -0.001)
(-3.79068e-10 2.55537e-10 -0.001)
(-2.94941e-10 2.51457e-10 -0.001)
(-1.99159e-10 2.45613e-10 -0.001)
(-7.89558e-11 2.35889e-10 -0.001)
(-7.44395e-11 7.11021e-10 -0.001)
(-2.15567e-10 7.07819e-10 -0.001)
(-3.50256e-10 7.17477e-10 -0.001)
(-4.30507e-10 7.27908e-10 -0.001)
(-4.53302e-10 7.37499e-10 -0.001)
(-4.32498e-10 7.34364e-10 -0.001)
(-3.79849e-10 7.28594e-10 -0.001)
(-3.05349e-10 7.07726e-10 -0.001)
(-2.14625e-10 6.88204e-10 -0.001)
(-8.83829e-11 6.76238e-10 -0.001)
(-7.30963e-11 1.10256e-09 -0.001)
(-2.0369e-10 1.11823e-09 -0.001)
(-3.29609e-10 1.14269e-09 -0.001)
(-4.13334e-10 1.16168e-09 -0.001)
(-4.53862e-10 1.17092e-09 -0.001)
(-4.49846e-10 1.15096e-09 -0.001)
(-4.06311e-10 1.12112e-09 -0.001)
(-3.35793e-10 1.08496e-09 -0.001)
(-2.2966e-10 1.06138e-09 -0.001)
(-8.97382e-11 1.06556e-09 -0.001)
(-6.0559e-11 1.41737e-09 -0.001)
(-1.77504e-10 1.4582e-09 -0.001)
(-3.07064e-10 1.48592e-09 -0.001)
(-4.02339e-10 1.50062e-09 -0.001)
(-4.6409e-10 1.44003e-09 -0.001)
(-4.82445e-10 1.53683e-09 -0.001)
(-4.45933e-10 1.43294e-09 -0.001)
(-3.64984e-10 1.38515e-09 -0.001)
(-2.31954e-10 1.36488e-09 -0.001)
(-8.22395e-11 1.38013e-09 -0.001)
(-3.46021e-11 1.62589e-09 -0.000999999)
(-1.37726e-10 1.65268e-09 -0.000999999)
(-2.87406e-10 1.6635e-09 -0.000999999)
(-4.59171e-10 1.63264e-09 -0.001)
(-4.17673e-10 1.6529e-09 -0.001)
(-4.57123e-10 1.61687e-09 -0.001)
(-5.57994e-10 1.64455e-09 -0.001)
(-4.03644e-10 1.60273e-09 -0.001)
(-2.32042e-10 1.59054e-09 -0.001)
(-7.20885e-11 1.59854e-09 -0.001)
(-3.67898e-11 1.72772e-09 -0.000999998)
(-1.42986e-10 1.72164e-09 -0.000999998)
(-3.27293e-10 1.70989e-09 -0.000999999)
(-4.12967e-10 1.68746e-09 -0.000999999)
(-4.80021e-10 1.7537e-09 -0.000999999)
(-4.90809e-10 1.61028e-09 -0.000999999)
(-4.60007e-10 1.70924e-09 -0.000999999)
(-4.18745e-10 1.72849e-09 -0.001)
(-2.33145e-10 1.74061e-09 -0.001)
(-7.15672e-11 1.7484e-09 -0.001)
(-4.39297e-11 1.63122e-09 -0.000999998)
(-1.58931e-10 1.62609e-09 -0.000999998)
(-3.21811e-10 1.60923e-09 -0.000999998)
(-4.15275e-10 1.62801e-09 -0.000999998)
(-4.94963e-10 1.6035e-09 -0.000999998)
(-5.01625e-10 1.62166e-09 -0.000999999)
(-4.39723e-10 1.58593e-09 -0.000999999)
(-3.71977e-10 1.63141e-09 -0.000999999)
(-2.08809e-10 1.64847e-09 -0.000999999)
(-6.12551e-11 1.65217e-09 -0.000999999)
(-4.47334e-11 1.32322e-09 -0.000999997)
(-1.68076e-10 1.32217e-09 -0.000999997)
(-3.25629e-10 1.3042e-09 -0.000999997)
(-4.18729e-10 1.30337e-09 -0.000999998)
(-4.86393e-10 1.29621e-09 -0.000999998)
(-5.08356e-10 1.31442e-09 -0.000999998)
(-4.50209e-10 1.28577e-09 -0.000999998)
(-3.5596e-10 1.30129e-09 -0.000999998)
(-2.0908e-10 1.30415e-09 -0.000999998)
(-6.47333e-11 1.28941e-09 -0.000999999)
(-4.73298e-11 8.79133e-10 -0.000999997)
(-1.8048e-10 8.71896e-10 -0.000999997)
(-3.40752e-10 8.53128e-10 -0.000999997)
(-4.23192e-10 8.42826e-10 -0.000999997)
(-4.8382e-10 8.46203e-10 -0.000999997)
(-5.11986e-10 8.49218e-10 -0.000999998)
(-4.52757e-10 8.40152e-10 -0.000999998)
(-3.53352e-10 8.41498e-10 -0.000999998)
(-2.17994e-10 8.38439e-10 -0.000999998)
(-7.34156e-11 8.22398e-10 -0.000999998)
(-5.34145e-11 3.09938e-10 -0.000999997)
(-1.95431e-10 3.04324e-10 -0.000999997)
(-3.542e-10 2.95345e-10 -0.000999997)
(-4.24801e-10 2.90401e-10 -0.000999997)
(-4.791e-10 2.9292e-10 -0.000999997)
(-5.13417e-10 2.94265e-10 -0.000999997)
(-4.57079e-10 2.90599e-10 -0.000999998)
(-3.57066e-10 2.8926e-10 -0.000999998)
(-2.26191e-10 2.86516e-10 -0.000999998)
(-7.90475e-11 2.80276e-10 -0.000999998)
(-1.14263e-10 3.75644e-10 -0.001)
(-3.38324e-10 3.73604e-10 -0.001)
(-5.38057e-10 3.70146e-10 -0.001)
(-6.75375e-10 3.69932e-10 -0.001)
(-6.8934e-10 3.80026e-10 -0.001)
(-5.92082e-10 3.7748e-10 -0.001)
(-4.97543e-10 3.79638e-10 -0.001)
(-4.01912e-10 3.76675e-10 -0.001)
(-2.73625e-10 3.7181e-10 -0.001)
(-1.04899e-10 3.64138e-10 -0.001)
(-1.17108e-10 1.08816e-09 -0.001)
(-3.4523e-10 1.09142e-09 -0.001)
(-5.42848e-10 1.09564e-09 -0.001)
(-6.6677e-10 1.10261e-09 -0.001)
(-6.82993e-10 1.12444e-09 -0.001)
(-5.93441e-10 1.1088e-09 -0.001)
(-4.99246e-10 1.10026e-09 -0.001)
(-4.10503e-10 1.08176e-09 -0.001)
(-2.8604e-10 1.06848e-09 -0.001)
(-1.12128e-10 1.06188e-09 -0.001)
(-1.12889e-10 1.70549e-09 -0.001)
(-3.33467e-10 1.72249e-09 -0.001)
(-5.28094e-10 1.73902e-09 -0.001)
(-6.47881e-10 1.75079e-09 -0.001)
(-6.84426e-10 1.77882e-09 -0.001)
(-6.17343e-10 1.74076e-09 -0.001)
(-5.25564e-10 1.71689e-09 -0.001)
(-4.34422e-10 1.68594e-09 -0.001)
(-2.92041e-10 1.67431e-09 -0.001)
(-1.09771e-10 1.68253e-09 -0.001)
(-1.02981e-10 2.19963e-09 -0.001)
(-3.1492e-10 2.22268e-09 -0.001)
(-5.14886e-10 2.2406e-09 -0.001)
(-6.27083e-10 2.24108e-09 -0.001)
(-6.93167e-10 2.29718e-09 -0.001)
(-6.55511e-10 2.22398e-09 -0.001)
(-5.54184e-10 2.18254e-09 -0.001)
(-4.5293e-10 2.1615e-09 -0.001)
(-2.86241e-10 2.16885e-09 -0.001)
(-1.00911e-10 2.18477e-09 -0.001)
(-9.3354e-11 2.46072e-09 -0.000999999)
(-2.96396e-10 2.48193e-09 -0.000999999)
(-5.09964e-10 2.48824e-09 -0.000999999)
(-5.91358e-10 2.46389e-09 -0.001)
(-7.01558e-10 2.40465e-09 -0.001)
(-7.32001e-10 2.57448e-09 -0.001)
(-5.88025e-10 2.45996e-09 -0.001)
(-4.47772e-10 2.43118e-09 -0.001)
(-2.6456e-10 2.42812e-09 -0.001)
(-8.99975e-11 2.43808e-09 -0.001)
(-8.61385e-11 2.48197e-09 -0.000999998)
(-2.92013e-10 2.49988e-09 -0.000999998)
(-5.3331e-10 2.50081e-09 -0.000999998)
(-7.10812e-10 2.50485e-09 -0.000999999)
(-5.82786e-10 2.45603e-09 -0.000999999)
(-6.00204e-10 2.52216e-09 -0.000999999)
(-6.97338e-10 2.48756e-09 -0.000999999)
(-4.84376e-10 2.47496e-09 -0.000999999)
(-2.74648e-10 2.45487e-09 -0.001)
(-8.67296e-11 2.44577e-09 -0.001)
(-8.00955e-11 2.3002e-09 -0.000999997)
(-2.82425e-10 2.30942e-09 -0.000999997)
(-5.05377e-10 2.30566e-09 -0.000999998)
(-6.36286e-10 2.32999e-09 -0.000999998)
(-6.84306e-10 2.37683e-09 -0.000999998)
(-7.00301e-10 2.20987e-09 -0.000999998)
(-6.35202e-10 2.25658e-09 -0.000999999)
(-4.80147e-10 2.26487e-09 -0.000999999)
(-2.89098e-10 2.25093e-09 -0.000999999)
(-9.48259e-11 2.22996e-09 -0.000999999)
(-8.09115e-11 1.86329e-09 -0.000999997)
(-2.90907e-10 1.85875e-09 -0.000999997)
(-5.13077e-10 1.84207e-09 -0.000999997)
(-6.3969e-10 1.83539e-09 -0.000999997)
(-7.02776e-10 1.82894e-09 -0.000999997)
(-7.20354e-10 1.80781e-09 -0.000999998)
(-6.42354e-10 1.8039e-09 -0.000999998)
(-4.89685e-10 1.79743e-09 -0.000999998)
(-3.05198e-10 1.78309e-09 -0.000999998)
(-1.03542e-10 1.76184e-09 -0.000999998)
(-8.78963e-11 1.20611e-09 -0.000999996)
(-3.0714e-10 1.19002e-09 -0.000999996)
(-5.28907e-10 1.17584e-09 -0.000999996)
(-6.49291e-10 1.16756e-09 -0.000999997)
(-7.11721e-10 1.16543e-09 -0.000999997)
(-7.25205e-10 1.15894e-09 -0.000999997)
(-6.45444e-10 1.16139e-09 -0.000999997)
(-5.00596e-10 1.15266e-09 -0.000999998)
(-3.21063e-10 1.13926e-09 -0.000999998)
(-1.12646e-10 1.12266e-09 -0.000999998)
(-9.88642e-11 4.15219e-10 -0.000999996)
(-3.2283e-10 4.048e-10 -0.000999996)
(-5.34706e-10 3.99793e-10 -0.000999996)
(-6.48799e-10 3.98154e-10 -0.000999996)
(-7.1006e-10 3.99034e-10 -0.000999997)
(-7.23133e-10 3.98557e-10 -0.000999997)
(-6.47532e-10 4.0003e-10 -0.000999997)
(-5.10882e-10 3.95599e-10 -0.000999997)
(-3.32467e-10 3.89092e-10 -0.000999997)
(-1.17871e-10 3.83004e-10 -0.000999998)
(-1.63555e-10 5.41624e-10 -0.001)
(-4.81623e-10 5.40257e-10 -0.001)
(-7.50395e-10 5.36247e-10 -0.001)
(-9.37786e-10 5.37093e-10 -0.001)
(-9.63901e-10 5.48907e-10 -0.001)
(-8.36153e-10 5.44139e-10 -0.001)
(-7.10251e-10 5.4553e-10 -0.001)
(-5.79957e-10 5.43569e-10 -0.001)
(-3.93007e-10 5.39889e-10 -0.001)
(-1.45428e-10 5.35281e-10 -0.001)
(-1.66091e-10 1.5703e-09 -0.001)
(-4.88878e-10 1.57507e-09 -0.001)
(-7.54902e-10 1.57649e-09 -0.001)
(-9.26669e-10 1.58413e-09 -0.001)
(-9.58385e-10 1.61054e-09 -0.001)
(-8.40954e-10 1.59813e-09 -0.001)
(-7.12129e-10 1.58871e-09 -0.001)
(-5.86586e-10 1.57617e-09 -0.001)
(-4.01047e-10 1.56934e-09 -0.001)
(-1.4937e-10 1.5665e-09 -0.001)
(-1.6167e-10 2.45399e-09 -0.001)
(-4.79228e-10 2.46965e-09 -0.001)
(-7.42938e-10 2.48333e-09 -0.001)
(-9.05439e-10 2.49708e-09 -0.001)
(-9.51599e-10 2.53813e-09 -0.001)
(-8.5956e-10 2.50452e-09 -0.001)
(-7.33649e-10 2.48722e-09 -0.001)
(-6.00265e-10 2.46836e-09 -0.001)
(-4.00458e-10 2.46585e-09 -0.001)
(-1.45744e-10 2.46919e-09 -0.001)
(-1.54737e-10 3.1515e-09 -0.001)
(-4.64253e-10 3.16369e-09 -0.001)
(-7.27968e-10 3.1767e-09 -0.001)
(-8.72051e-10 3.18498e-09 -0.001)
(-9.51121e-10 3.28662e-09 -0.001)
(-8.92036e-10 3.15446e-09 -0.001)
(-7.48442e-10 3.14986e-09 -0.001)
(-6.0772e-10 3.15556e-09 -0.001)
(-3.95538e-10 3.17147e-09 -0.001)
(-1.41688e-10 3.17127e-09 -0.001)
(-1.54666e-10 3.50499e-09 -0.000999999)
(-4.59757e-10 3.52564e-09 -0.000999999)
(-7.22103e-10 3.53251e-09 -0.001)
(-7.95543e-10 3.51873e-09 -0.001)
(-9.82095e-10 3.42903e-09 -0.001)
(-9.96227e-10 3.66378e-09 -0.001)
(-7.32538e-10 3.51129e-09 -0.001)
(-5.78201e-10 3.49152e-09 -0.001)
(-3.78772e-10 3.49056e-09 -0.001)
(-1.40453e-10 3.48973e-09 -0.001)
(-1.40189e-10 3.4889e-09 -0.000999998)
(-4.43324e-10 3.51768e-09 -0.000999998)
(-7.35405e-10 3.52013e-09 -0.000999998)
(-9.75594e-10 3.52141e-09 -0.000999999)
(-8.05762e-10 3.41859e-09 -0.000999999)
(-8.09724e-10 3.57697e-09 -0.000999999)
(-9.20868e-10 3.48058e-09 -0.000999999)
(-6.27952e-10 3.43829e-09 -0.001)
(-3.90673e-10 3.40262e-09 -0.001)
(-1.36427e-10 3.38499e-09 -0.001)
(-1.32233e-10 3.19683e-09 -0.000999997)
(-4.35258e-10 3.20567e-09 -0.000999997)
(-7.1891e-10 3.19886e-09 -0.000999997)
(-8.97008e-10 3.20947e-09 -0.000999997)
(-9.26542e-10 3.27213e-09 -0.000999998)
(-9.34424e-10 3.04299e-09 -0.000999998)
(-8.7122e-10 3.10726e-09 -0.000999998)
(-6.55652e-10 3.08694e-09 -0.000999999)
(-4.25569e-10 3.05422e-09 -0.000999999)
(-1.52058e-10 3.02424e-09 -0.000999999)
(-1.36886e-10 2.56446e-09 -0.000999996)
(-4.47306e-10 2.55509e-09 -0.000999996)
(-7.32056e-10 2.54167e-09 -0.000999996)
(-9.02368e-10 2.52962e-09 -0.000999996)
(-9.72342e-10 2.52732e-09 -0.000999997)
(-9.74522e-10 2.46991e-09 -0.000999997)
(-8.76892e-10 2.47428e-09 -0.000999997)
(-6.80562e-10 2.45079e-09 -0.000999998)
(-4.47464e-10 2.42598e-09 -0.000999998)
(-1.60806e-10 2.40652e-09 -0.000999998)
(-1.45985e-10 1.63294e-09 -0.000999995)
(-4.62798e-10 1.61647e-09 -0.000999995)
(-7.44616e-10 1.61122e-09 -0.000999996)
(-9.11221e-10 1.60806e-09 -0.000999996)
(-9.86033e-10 1.60929e-09 -0.000999996)
(-9.87274e-10 1.59431e-09 -0.000999996)
(-8.90171e-10 1.58989e-09 -0.000999997)
(-7.03453e-10 1.56874e-09 -0.000999997)
(-4.64989e-10 1.54857e-09 -0.000999997)
(-1.67011e-10 1.5367e-09 -0.000999997)
(-1.55805e-10 5.55325e-10 -0.000999995)
(-4.71168e-10 5.46177e-10 -0.000999995)
(-7.3931e-10 5.4717e-10 -0.000999995)
(-9.02548e-10 5.50258e-10 -0.000999995)
(-9.84281e-10 5.54194e-10 -0.000999996)
(-9.92252e-10 5.50402e-10 -0.000999996)
(-9.00954e-10 5.4783e-10 -0.000999996)
(-7.20444e-10 5.38378e-10 -0.000999997)
(-4.75737e-10 5.29714e-10 -0.000999997)
(-1.69681e-10 5.25877e-10 -0.000999997)
(-2.17719e-10 7.57272e-10 -0.001)
(-6.4137e-10 7.55461e-10 -0.001)
(-9.93052e-10 7.53197e-10 -0.001)
(-1.23417e-09 7.55387e-10 -0.001)
(-1.30458e-09 7.64871e-10 -0.001)
(-1.19961e-09 7.62056e-10 -0.001)
(-1.04613e-09 7.61636e-10 -0.00100001)
(-8.52043e-10 7.59261e-10 -0.00100001)
(-5.70622e-10 7.57132e-10 -0.00100001)
(-2.04791e-10 7.55611e-10 -0.00100001)
(-2.21152e-10 2.18928e-09 -0.001)
(-6.47925e-10 2.19325e-09 -0.001)
(-9.94858e-10 2.19435e-09 -0.001)
(-1.22453e-09 2.20136e-09 -0.001)
(-1.30005e-09 2.22185e-09 -0.001)
(-1.20489e-09 2.22233e-09 -0.001)
(-1.05072e-09 2.21423e-09 -0.001)
(-8.57884e-10 2.20826e-09 -0.00100001)
(-5.73896e-10 2.20768e-09 -0.00100001)
(-2.05371e-10 2.20601e-09 -0.00100001)
(-2.17879e-10 3.40984e-09 -0.001)
(-6.41558e-10 3.42316e-09 -0.001)
(-9.87075e-10 3.43113e-09 -0.001)
(-1.20897e-09 3.43956e-09 -0.001)
(-1.28598e-09 3.4742e-09 -0.001)
(-1.20949e-09 3.45761e-09 -0.001)
(-1.0622e-09 3.4542e-09 -0.001)
(-8.59892e-10 3.45199e-09 -0.001)
(-5.69824e-10 3.45526e-09 -0.001)
(-2.02995e-10 3.44961e-09 -0.001)
(-2.13841e-10 4.36276e-09 -0.001)
(-6.33196e-10 4.3657e-09 -0.001)
(-9.79142e-10 4.36143e-09 -0.001)
(-1.18172e-09 4.35896e-09 -0.001)
(-1.28226e-09 4.45185e-09 -0.001)
(-1.22517e-09 4.33646e-09 -0.001)
(-1.05655e-09 4.36552e-09 -0.001)
(-8.56509e-10 4.38347e-09 -0.001)
(-5.69895e-10 4.39093e-09 -0.001)
(-2.05083e-10 4.37233e-09 -0.001)
(-2.22223e-10 4.84847e-09 -0.000999999)
(-6.50891e-10 4.86462e-09 -0.000999999)
(-9.94454e-10 4.8633e-09 -0.001)
(-1.11857e-09 4.85024e-09 -0.001)
(-1.30854e-09 4.75447e-09 -0.001)
(-1.29583e-09 4.96456e-09 -0.001)
(-1.01512e-09 4.84498e-09 -0.001)
(-8.33849e-10 4.83149e-09 -0.001)
(-5.72717e-10 4.82486e-09 -0.001)
(-2.13992e-10 4.81002e-09 -0.001)
(-2.06002e-10 4.81459e-09 -0.000999998)
(-6.27447e-10 4.84141e-09 -0.000999998)
(-9.94208e-10 4.84857e-09 -0.000999998)
(-1.29042e-09 4.85535e-09 -0.000999998)
(-1.16793e-09 4.74502e-09 -0.000999999)
(-1.13466e-09 4.90649e-09 -0.000999999)
(-1.1896e-09 4.79311e-09 -0.001)
(-8.75923e-10 4.7391e-09 -0.001)
(-5.82204e-10 4.7054e-09 -0.001)
(-2.11457e-10 4.68699e-09 -0.001)
(-2.03943e-10 4.37503e-09 -0.000999996)
(-6.26049e-10 4.37997e-09 -0.000999996)
(-9.81178e-10 4.37864e-09 -0.000999996)
(-1.22221e-09 4.39088e-09 -0.000999997)
(-1.25733e-09 4.45896e-09 -0.000999997)
(-1.24767e-09 4.24724e-09 -0.000999998)
(-1.18253e-09 4.27745e-09 -0.000999998)
(-9.20855e-10 4.23378e-09 -0.000999998)
(-6.15817e-10 4.19725e-09 -0.000999999)
(-2.24017e-10 4.17121e-09 -0.000999999)
(-2.08671e-10 3.48703e-09 -0.000999995)
(-6.32034e-10 3.48314e-09 -0.000999995)
(-9.83893e-10 3.48228e-09 -0.000999995)
(-1.21007e-09 3.47857e-09 -0.000999996)
(-1.31155e-09 3.49458e-09 -0.000999996)
(-1.31633e-09 3.41138e-09 -0.000999996)
(-1.20304e-09 3.39511e-09 -0.000999997)
(-9.55476e-10 3.35613e-09 -0.000999997)
(-6.36654e-10 3.32747e-09 -0.000999997)
(-2.29897e-10 3.31357e-09 -0.000999998)
(-2.13815e-10 2.21752e-09 -0.000999994)
(-6.37261e-10 2.2115e-09 -0.000999994)
(-9.8606e-10 2.21768e-09 -0.000999994)
(-1.20971e-09 2.22107e-09 -0.000999995)
(-1.32435e-09 2.22987e-09 -0.000999995)
(-1.34691e-09 2.20741e-09 -0.000999995)
(-1.23752e-09 2.17864e-09 -0.000999996)
(-9.87804e-10 2.14725e-09 -0.000999996)
(-6.51872e-10 2.12682e-09 -0.000999996)
(-2.3197e-10 2.12255e-09 -0.000999997)
(-2.18069e-10 7.54562e-10 -0.000999993)
(-6.34804e-10 7.51209e-10 -0.000999994)
(-9.72814e-10 7.57276e-10 -0.000999994)
(-1.19564e-09 7.62833e-10 -0.000999994)
(-1.32287e-09 7.69244e-10 -0.000999994)
(-1.36523e-09 7.62271e-10 -0.000999995)
(-1.26096e-09 7.49e-10 -0.000999995)
(-1.00514e-09 7.36894e-10 -0.000999996)
(-6.56173e-10 7.2988e-10 -0.000999996)
(-2.30139e-10 7.30109e-10 -0.000999996)
(-2.82983e-10 1.03999e-09 -0.001)
(-8.32045e-10 1.03804e-09 -0.001)
(-1.28729e-09 1.03859e-09 -0.00100001)
(-1.59176e-09 1.04067e-09 -0.00100001)
(-1.73867e-09 1.04319e-09 -0.00100001)
(-1.70921e-09 1.04505e-09 -0.00100001)
(-1.53136e-09 1.04176e-09 -0.00100001)
(-1.23568e-09 1.03928e-09 -0.00100001)
(-8.14272e-10 1.03973e-09 -0.00100001)
(-2.85745e-10 1.04056e-09 -0.00100001)
(-2.87127e-10 3.00357e-09 -0.001)
(-8.36728e-10 3.00511e-09 -0.001)
(-1.28694e-09 3.00462e-09 -0.001)
(-1.5898e-09 3.00495e-09 -0.001)
(-1.73718e-09 3.00614e-09 -0.00100001)
(-1.71354e-09 3.01905e-09 -0.00100001)
(-1.53967e-09 3.01863e-09 -0.00100001)
(-1.23964e-09 3.0224e-09 -0.00100001)
(-8.12516e-10 3.02939e-09 -0.00100001)
(-2.83639e-10 3.02841e-09 -0.00100001)
(-2.87085e-10 4.67085e-09 -0.001)
(-8.38107e-10 4.67602e-09 -0.001)
(-1.29028e-09 4.66943e-09 -0.001)
(-1.59322e-09 4.66088e-09 -0.001)
(-1.7278e-09 4.6618e-09 -0.001)
(-1.69994e-09 4.67067e-09 -0.001)
(-1.53086e-09 4.69357e-09 -0.00100001)
(-1.22683e-09 4.71174e-09 -0.00100001)
(-8.04146e-10 4.72149e-09 -0.00100001)
(-2.82003e-10 4.71124e-09 -0.00100001)
(-2.90116e-10 5.94725e-09 -0.001)
(-8.47101e-10 5.93446e-09 -0.001)
(-1.30302e-09 5.90627e-09 -0.001)
(-1.59777e-09 5.88368e-09 -0.001)
(-1.72775e-09 5.92215e-09 -0.001)
(-1.68221e-09 5.8713e-09 -0.001)
(-1.49889e-09 5.92765e-09 -0.001)
(-1.21128e-09 5.94813e-09 -0.001)
(-8.04331e-10 5.94701e-09 -0.001)
(-2.85805e-10 5.92258e-09 -0.001)
(-3.0998e-10 6.60961e-09 -0.000999999)
(-8.90183e-10 6.61238e-09 -0.000999999)
(-1.34194e-09 6.59619e-09 -0.001)
(-1.5774e-09 6.58042e-09 -0.001)
(-1.74031e-09 6.50224e-09 -0.001)
(-1.69446e-09 6.63959e-09 -0.001)
(-1.45391e-09 6.58251e-09 -0.001)
(-1.20659e-09 6.57341e-09 -0.001)
(-8.18446e-10 6.55917e-09 -0.001)
(-2.96018e-10 6.53612e-09 -0.001)
(-2.98699e-10 6.57107e-09 -0.000999997)
(-8.72921e-10 6.59854e-09 -0.000999997)
(-1.33594e-09 6.61706e-09 -0.000999998)
(-1.69176e-09 6.63685e-09 -0.000999998)
(-1.66856e-09 6.57302e-09 -0.000999998)
(-1.60184e-09 6.65854e-09 -0.000999999)
(-1.56501e-09 6.5606e-09 -0.001)
(-1.23365e-09 6.50944e-09 -0.001)
(-8.29153e-10 6.48373e-09 -0.001)
(-2.97307e-10 6.46571e-09 -0.001)
(-2.94026e-10 5.94369e-09 -0.000999995)
(-8.56585e-10 5.96002e-09 -0.000999995)
(-1.3046e-09 5.9788e-09 -0.000999995)
(-1.62151e-09 6.0027e-09 -0.000999996)
(-1.71861e-09 6.07157e-09 -0.000999996)
(-1.70685e-09 5.91349e-09 -0.000999997)
(-1.60297e-09 5.88352e-09 -0.000999997)
(-1.2825e-09 5.82438e-09 -0.000999998)
(-8.49825e-10 5.79343e-09 -0.000999998)
(-3.02593e-10 5.77484e-09 -0.000999998)
(-2.9271e-10 4.7336e-09 -0.000999993)
(-8.48939e-10 4.74475e-09 -0.000999993)
(-1.29412e-09 4.75706e-09 -0.000999994)
(-1.59902e-09 4.76165e-09 -0.000999994)
(-1.75778e-09 4.78054e-09 -0.000999995)
(-1.78988e-09 4.70308e-09 -0.000999995)
(-1.65407e-09 4.64934e-09 -0.000999996)
(-1.32286e-09 4.60158e-09 -0.000999996)
(-8.67596e-10 4.57489e-09 -0.000999997)
(-3.05634e-10 4.5655e-09 -0.000999997)
(-2.90961e-10 3.02766e-09 -0.000999992)
(-8.41797e-10 3.03477e-09 -0.000999992)
(-1.28814e-09 3.04615e-09 -0.000999992)
(-1.59774e-09 3.04869e-09 -0.000999993)
(-1.77684e-09 3.04944e-09 -0.000999993)
(-1.83771e-09 3.02152e-09 -0.000999994)
(-1.70411e-09 2.97545e-09 -0.000999995)
(-1.35601e-09 2.94457e-09 -0.000999995)
(-8.77116e-10 2.93159e-09 -0.000999995)
(-3.04018e-10 2.93495e-09 -0.000999996)
(-2.90271e-10 1.03636e-09 -0.000999991)
(-8.34539e-10 1.03832e-09 -0.000999992)
(-1.2783e-09 1.04409e-09 -0.000999992)
(-1.59282e-09 1.04616e-09 -0.000999992)
(-1.78181e-09 1.04631e-09 -0.000999993)