/*--------------------------------*- C++ -*----------------------------------*\
  =========                 |
  \\      /  F ield         | OpenFOAM: The Open Source CFD Toolbox
   \\    /   O peration     | Website:  https://openfoam.org
    \\  /    A nd           | Version:  9
     \\/     M anipulation  |
\*---------------------------------------------------------------------------*/
FoamFile
{
    format      ascii;
    class       volVectorField;
    location    "100000";
    object      U;
}
// * * * * * * * * * * * * * * * * * * * * * * * * * * * * * * * * * * * * * //

dimensions      [0 1 -1 0 0 0 0];

internalField   nonuniform List<vector> 
9000
(
(3.73906e-12 3.16556e-11 -0.001)
(-2.80945e-12 2.5182e-11 -0.001)
(-1.97003e-11 3.26614e-11 -0.001)
(2.29482e-12 4.111e-11 -0.001)
(-3.54703e-11 3.49156e-11 -0.001)
(-1.13781e-10 4.34983e-11 -0.001)
(-1.16411e-10 4.1712e-11 -0.001)
(-8.89877e-11 4.38709e-11 -0.001)
(-5.42015e-11 4.58297e-11 -0.001)
(-1.87389e-11 4.75273e-11 -0.001)
(-2.76652e-12 6.28951e-11 -0.001)
(-1.84188e-12 5.01553e-11 -0.001)
(-3.72649e-12 6.92151e-11 -0.001)
(4.40687e-12 9.12607e-11 -0.001)
(-3.33463e-11 8.69914e-11 -0.001)
(-1.07303e-10 1.09227e-10 -0.001)
(-1.16353e-10 1.1785e-10 -0.001)
(-8.49819e-11 1.337e-10 -0.001)
(-5.05202e-11 1.41938e-10 -0.001)
(-1.69853e-11 1.46543e-10 -0.001)
(-9.01121e-12 6.80703e-11 -0.001)
(3.41562e-12 5.94691e-11 -0.001)
(2.13709e-11 9.04462e-11 -0.001)
(1.993e-11 1.27488e-10 -0.001)
(-1.7728e-11 1.46174e-10 -0.001)
(-8.32288e-11 1.62241e-10 -0.001)
(-9.22234e-11 1.82367e-10 -0.001)
(-6.50279e-11 2.17504e-10 -0.001)
(-4.11255e-11 2.31708e-10 -0.001)
(-1.3859e-11 2.36659e-10 -0.001)
(-1.14431e-11 4.39211e-11 -0.001)
(2.03787e-11 6.54285e-11 -0.001)
(6.42544e-11 1.20773e-10 -0.001)
(6.01094e-11 1.79406e-10 -0.001)
(1.34071e-12 1.45964e-10 -0.001)
(-7.11337e-11 2.8024e-10 -0.001)
(-6.1073e-11 2.36919e-10 -0.001)
(-3.56192e-11 2.76235e-10 -0.001)
(-3.08609e-11 2.92279e-10 -0.001)
(-1.15543e-11 2.96741e-10 -0.001)
(1.21881e-11 1.36161e-10 -0.001)
(8.00069e-11 1.52618e-10 -0.001)
(1.35303e-10 1.86621e-10 -0.001)
(4.51073e-11 1.89202e-10 -0.001)
(8.30517e-11 2.59888e-10 -0.001)
(7.68404e-12 1.67192e-10 -0.001)
(-9.62533e-11 2.80168e-10 -0.001)
(-9.63133e-12 2.60588e-10 -0.001)
(-1.99907e-11 2.77839e-10 -0.001)
(-8.82232e-12 2.81529e-10 -0.001)
(4.51435e-12 3.15322e-10 -0.001)
(7.03868e-11 3.08907e-10 -0.001)
(1.00783e-10 2.71106e-10 -0.001)
(1.33288e-10 2.08897e-10 -0.001)
(-2.08261e-11 2.37985e-10 -0.001)
(-5.09091e-11 1.37528e-10 -0.001)
(3.24403e-11 2.27508e-10 -0.001)
(-3.78644e-11 2.03211e-10 -0.001)
(-9.29485e-12 2.02971e-10 -0.001)
(-7.28603e-12 1.97158e-10 -0.001)
(5.14048e-12 3.39828e-10 -0.001)
(3.51365e-11 3.40015e-10 -0.001)
(3.52467e-11 2.83587e-10 -0.001)
(1.18816e-11 2.40566e-10 -0.001)
(1.16289e-11 1.36499e-10 -0.001)
(-2.664e-12 2.28956e-10 -0.000999999)
(-3.04386e-11 1.46844e-10 -0.000999999)
(-3.40872e-11 1.58891e-10 -0.001)
(-2.55506e-11 1.41347e-10 -0.001)
(-1.41408e-11 1.32214e-10 -0.001)
(4.05424e-12 2.64136e-10 -0.000999999)
(1.34892e-11 2.59188e-10 -0.000999999)
(1.30207e-12 2.23101e-10 -0.000999999)
(-1.3808e-11 1.96851e-10 -0.000999999)
(-3.24091e-11 1.746e-10 -0.000999999)
(-4.04629e-11 1.35696e-10 -0.000999999)
(-3.75981e-11 1.206e-10 -0.000999999)
(-4.33112e-11 1.13232e-10 -0.000999999)
(-3.56073e-11 9.89991e-11 -0.000999999)
(-1.60527e-11 9.6081e-11 -0.000999999)
(-2.65715e-13 1.6907e-10 -0.000999999)
(-6.40643e-12 1.61214e-10 -0.000999999)
(-2.71076e-11 1.39598e-10 -0.000999999)
(-3.66046e-11 1.19684e-10 -0.000999999)
(-4.95069e-11 1.083e-10 -0.000999999)
(-5.66334e-11 9.69401e-11 -0.000999999)
(-5.28787e-11 7.97848e-11 -0.000999999)
(-5.56468e-11 6.83522e-11 -0.000999999)
(-4.24287e-11 6.00495e-11 -0.000999999)
(-1.679e-11 6.00196e-11 -0.000999999)
(-4.05289e-12 5.85088e-11 -0.000999999)
(-1.62621e-11 5.48166e-11 -0.000999999)
(-4.01814e-11 4.87535e-11 -0.000999999)
(-4.49275e-11 4.17342e-11 -0.000999999)
(-5.50305e-11 4.0241e-11 -0.000999999)
(-6.88523e-11 3.61014e-11 -0.000999999)
(-6.60028e-11 2.7972e-11 -0.000999999)
(-6.29581e-11 2.28705e-11 -0.000999999)
(-4.37622e-11 2.07155e-11 -0.000999999)
(-1.59132e-11 2.15743e-11 -0.000999999)
(1.42066e-11 8.28025e-11 -0.001)
(-2.02649e-12 6.63121e-11 -0.001)
(-4.98607e-11 8.32517e-11 -0.001)
(-2.00776e-11 9.87384e-11 -0.001)
(-1.08374e-10 8.14917e-11 -0.001)
(-2.91056e-10 1.02512e-10 -0.001)
(-3.02257e-10 1.07625e-10 -0.001)
(-2.15492e-10 1.17007e-10 -0.001)
(-1.23509e-10 1.26004e-10 -0.001)
(-4.1069e-11 1.32273e-10 -0.001)
(-2.35757e-12 1.66097e-10 -0.001)
(-1.69036e-12 1.4072e-10 -0.001)
(-1.74108e-11 1.87841e-10 -0.001)
(-2.225e-11 2.35455e-10 -0.001)
(-1.05214e-10 2.28867e-10 -0.001)
(-2.65449e-10 2.81049e-10 -0.001)
(-2.88293e-10 3.16384e-10 -0.001)
(-1.97343e-10 3.60997e-10 -0.001)
(-1.08078e-10 3.86667e-10 -0.001)
(-3.45884e-11 3.99015e-10 -0.001)
(-1.1214e-11 1.8758e-10 -0.001)
(1.94977e-11 1.83908e-10 -0.001)
(4.47427e-11 2.61436e-10 -0.001)
(2.05915e-11 3.46065e-10 -0.001)
(-6.32713e-11 3.97743e-10 -0.001)
(-2.04026e-10 4.37168e-10 -0.001)
(-2.22866e-10 4.93092e-10 -0.001)
(-1.45501e-10 5.83575e-10 -0.001)
(-8.4858e-11 6.21123e-10 -0.001)
(-2.80069e-11 6.29839e-10 -0.001)
(-6.26915e-12 1.69468e-10 -0.001)
(7.1807e-11 2.42477e-10 -0.001)
(1.44649e-10 3.64279e-10 -0.001)
(1.14005e-10 4.84181e-10 -0.001)
(-1.4128e-11 3.92921e-10 -0.001)
(-1.70136e-10 7.22e-10 -0.001)
(-1.41951e-10 6.36056e-10 -0.001)
(-6.92671e-11 7.32012e-10 -0.001)
(-6.05674e-11 7.72519e-10 -0.001)
(-2.46833e-11 7.75645e-10 -0.001)
(6.11208e-11 3.91667e-10 -0.001)
(2.13781e-10 4.42324e-10 -0.001)
(2.86342e-10 5.19053e-10 -0.001)
(4.92297e-11 5.16627e-10 -0.001)
(1.74532e-10 6.74431e-10 -0.001)
(3.90268e-11 4.62213e-10 -0.001)
(-2.12872e-10 7.40002e-10 -0.001)
(-8.9553e-12 7.01289e-10 -0.001)
(-3.97e-11 7.34005e-10 -0.001)
(-2.347e-11 7.3671e-10 -0.001)
(4.32663e-11 8.16817e-10 -0.001)
(1.98198e-10 7.8458e-10 -0.001)
(2.18842e-10 6.93501e-10 -0.001)
(2.69422e-10 5.54331e-10 -0.001)
(-6.86153e-11 6.54804e-10 -0.001)
(-1.04553e-10 3.95189e-10 -0.001)
(9.72344e-11 6.11218e-10 -0.001)
(-7.51459e-11 5.48924e-10 -0.001)
(-2.3683e-11 5.3524e-10 -0.001)
(-2.05889e-11 5.20357e-10 -0.001)
(2.74504e-11 8.83652e-10 -0.000999999)
(8.89122e-11 8.53517e-10 -0.000999999)
(5.59761e-11 7.12245e-10 -0.000999999)
(1.03344e-11 6.16148e-10 -0.000999999)
(1.53995e-11 3.95161e-10 -0.000999999)
(-4.3247e-12 6.09472e-10 -0.000999999)
(-5.90878e-11 4.0788e-10 -0.000999999)
(-8.48496e-11 4.19534e-10 -0.001)
(-6.71781e-11 3.72073e-10 -0.001)
(-3.7256e-11 3.53951e-10 -0.001)
(1.1705e-11 6.71924e-10 -0.000999999)
(2.52205e-11 6.41987e-10 -0.000999999)
(-1.86051e-11 5.60836e-10 -0.000999999)
(-4.76869e-11 5.11199e-10 -0.000999999)
(-7.52829e-11 4.57478e-10 -0.000999999)
(-9.18848e-11 3.77411e-10 -0.000999999)
(-9.27171e-11 3.21759e-10 -0.000999999)
(-1.10868e-10 3.00173e-10 -0.000999999)
(-8.84664e-11 2.6747e-10 -0.000999999)
(-3.79269e-11 2.68754e-10 -0.000999999)
(-3.56117e-12 4.24704e-10 -0.000999999)
(-2.3394e-11 3.99232e-10 -0.000999999)
(-7.48504e-11 3.54027e-10 -0.000999999)
(-9.29883e-11 3.17799e-10 -0.000999999)
(-1.18337e-10 2.87436e-10 -0.000999999)
(-1.39983e-10 2.57345e-10 -0.000999999)
(-1.36283e-10 2.08725e-10 -0.000999999)
(-1.39043e-10 1.83314e-10 -0.000999999)
(-9.79618e-11 1.70001e-10 -0.000999999)
(-3.53707e-11 1.79368e-10 -0.000999999)
(-1.43857e-11 1.46085e-10 -0.000999998)
(-4.61469e-11 1.35489e-10 -0.000999998)
(-9.99293e-11 1.23595e-10 -0.000999998)
(-1.13888e-10 1.10364e-10 -0.000999999)
(-1.35439e-10 1.02302e-10 -0.000999999)
(-1.70317e-10 9.30502e-11 -0.000999999)
(-1.66407e-10 7.18834e-11 -0.000999999)
(-1.49385e-10 6.26968e-11 -0.000999999)
(-9.18328e-11 6.14402e-11 -0.000999999)
(-2.81033e-11 6.85374e-11 -0.000999999)
(7.34697e-12 1.49636e-10 -0.001)
(-4.42229e-11 1.28833e-10 -0.001)
(-1.44782e-10 1.44828e-10 -0.001)
(-1.81073e-10 1.54538e-10 -0.001)
(-2.79533e-10 1.44285e-10 -0.001)
(-4.40117e-10 1.65731e-10 -0.001)
(-4.43205e-10 1.83991e-10 -0.001)
(-3.07292e-10 2.03473e-10 -0.001)
(-1.6323e-10 2.20162e-10 -0.001)
(-5.05113e-11 2.29364e-10 -0.001)
(-1.36636e-11 3.43002e-10 -0.001)
(-4.95565e-11 3.23404e-10 -0.001)
(-1.1955e-10 3.76297e-10 -0.001)
(-1.82426e-10 4.22786e-10 -0.001)
(-2.69277e-10 4.37203e-10 -0.001)
(-4.01035e-10 4.96061e-10 -0.001)
(-4.05981e-10 5.58817e-10 -0.001)
(-2.71477e-10 6.21693e-10 -0.001)
(-1.37066e-10 6.6023e-10 -0.001)
(-4.09431e-11 6.73323e-10 -0.001)
(-1.26155e-11 4.61023e-10 -0.001)
(-1.16888e-11 4.83175e-10 -0.001)
(-4.59175e-11 5.72772e-10 -0.001)
(-1.20872e-10 6.64595e-10 -0.001)
(-2.07092e-10 7.25972e-10 -0.001)
(-3.19226e-10 8.03193e-10 -0.001)
(-3.18254e-10 8.84281e-10 -0.001)
(-2.06332e-10 9.89097e-10 -0.001)
(-1.105e-10 1.0366e-09 -0.001)
(-3.61725e-11 1.03892e-09 -0.001)
(7.76908e-12 5.76618e-10 -0.001)
(6.13169e-11 6.69135e-10 -0.001)
(6.16857e-11 7.87735e-10 -0.001)
(-2.93421e-11 8.9074e-10 -0.001)
(-1.30768e-10 8.08179e-10 -0.001)
(-2.42722e-10 1.17377e-09 -0.001)
(-2.20099e-10 1.12753e-09 -0.001)
(-1.19074e-10 1.23219e-09 -0.001)
(-8.51838e-11 1.27476e-09 -0.001)
(-3.66368e-11 1.26468e-09 -0.001)
(7.86528e-11 8.60793e-10 -0.001)
(1.98242e-10 9.23028e-10 -0.001)
(1.75472e-10 9.93939e-10 -0.001)
(-1.00459e-10 9.94749e-10 -0.001)
(7.60246e-11 1.15179e-09 -0.001)
(3.55114e-13 9.48028e-10 -0.001)
(-2.59766e-10 1.24216e-09 -0.001)
(-5.89504e-11 1.22997e-09 -0.001)
(-7.55179e-11 1.24758e-09 -0.001)
(-4.39012e-11 1.24058e-09 -0.001)
(6.80975e-11 1.29763e-09 -0.000999999)
(1.92614e-10 1.25152e-09 -0.000999999)
(1.33176e-10 1.1564e-09 -0.000999999)
(1.28531e-10 1.04431e-09 -0.001)
(-1.77219e-10 1.1777e-09 -0.001)
(-1.52264e-10 8.72861e-10 -0.001)
(6.16412e-11 1.08552e-09 -0.001)
(-1.13544e-10 1.01822e-09 -0.001)
(-7.2156e-11 9.83074e-10 -0.001)
(-4.13754e-11 9.67152e-10 -0.001)
(3.0243e-11 1.35349e-09 -0.000999999)
(5.44729e-11 1.28541e-09 -0.000999999)
(-3.19325e-11 1.13576e-09 -0.000999999)
(-7.89938e-11 1.04701e-09 -0.000999999)
(-9.52814e-11 8.6278e-10 -0.000999999)
(-9.21034e-11 1.05253e-09 -0.000999999)
(-1.14563e-10 8.26133e-10 -0.000999999)
(-1.61236e-10 7.98287e-10 -0.001)
(-1.24712e-10 7.37571e-10 -0.001)
(-5.80469e-11 7.20129e-10 -0.001)
(-2.1265e-12 1.03972e-09 -0.000999998)
(-2.75827e-11 9.86191e-10 -0.000999998)
(-1.05346e-10 9.06609e-10 -0.000999999)
(-1.44394e-10 8.60886e-10 -0.000999999)
(-1.71686e-10 7.92138e-10 -0.000999999)
(-1.88945e-10 7.27773e-10 -0.000999999)
(-1.9258e-10 6.27235e-10 -0.000999999)
(-2.01948e-10 5.89387e-10 -0.000999999)
(-1.4882e-10 5.52153e-10 -0.000999999)
(-5.73982e-11 5.58015e-10 -0.000999999)
(-2.49452e-11 6.56578e-10 -0.000999998)
(-8.0532e-11 6.26243e-10 -0.000999998)
(-1.57294e-10 5.83572e-10 -0.000999998)
(-1.93404e-10 5.45923e-10 -0.000999998)
(-2.28339e-10 5.0443e-10 -0.000999998)
(-2.56934e-10 4.60665e-10 -0.000999999)
(-2.52876e-10 3.9927e-10 -0.000999999)
(-2.36152e-10 3.68786e-10 -0.000999999)
(-1.54846e-10 3.58554e-10 -0.000999999)
(-5.10251e-11 3.78835e-10 -0.000999999)
(-3.34834e-11 2.24613e-10 -0.000999998)
(-1.0167e-10 2.16427e-10 -0.000999998)
(-1.85451e-10 2.0383e-10 -0.000999998)
(-2.22993e-10 1.8813e-10 -0.000999998)
(-2.56361e-10 1.73705e-10 -0.000999998)
(-2.93444e-10 1.5956e-10 -0.000999998)
(-2.83859e-10 1.36716e-10 -0.000999999)
(-2.42315e-10 1.28226e-10 -0.000999999)
(-1.37798e-10 1.30465e-10 -0.000999999)
(-3.63258e-11 1.44845e-10 -0.000999999)
(-3.36326e-11 2.4138e-10 -0.001)
(-1.67376e-10 2.24986e-10 -0.001)
(-3.45812e-10 2.31217e-10 -0.001)
(-4.68914e-10 2.34203e-10 -0.001)
(-5.30999e-10 2.37615e-10 -0.001)
(-5.61625e-10 2.55828e-10 -0.001)
(-5.11748e-10 2.82982e-10 -0.001)
(-3.52281e-10 3.10154e-10 -0.001)
(-1.82028e-10 3.29343e-10 -0.001)
(-5.3815e-11 3.36541e-10 -0.001)
(-5.04813e-11 6.24418e-10 -0.001)
(-1.7848e-10 6.18477e-10 -0.001)
(-3.37495e-10 6.57662e-10 -0.001)
(-4.63753e-10 6.94528e-10 -0.001)
(-5.1055e-10 7.33945e-10 -0.001)
(-5.16985e-10 7.8897e-10 -0.001)
(-4.58081e-10 8.60994e-10 -0.001)
(-3.06406e-10 9.27384e-10 -0.001)
(-1.55224e-10 9.63702e-10 -0.001)
(-4.60704e-11 9.68038e-10 -0.001)
(-4.04834e-11 9.27118e-10 -0.001)
(-1.35612e-10 9.62545e-10 -0.001)
(-2.707e-10 1.03653e-09 -0.001)
(-3.93763e-10 1.11459e-09 -0.001)
(-4.37691e-10 1.1908e-09 -0.001)
(-4.35501e-10 1.28641e-09 -0.001)
(-3.74201e-10 1.36772e-09 -0.001)
(-2.50151e-10 1.45095e-09 -0.001)
(-1.39773e-10 1.48633e-09 -0.001)
(-4.76985e-11 1.47452e-09 -0.001)
(-1.65438e-11 1.23629e-09 -0.001)
(-7.07958e-11 1.30255e-09 -0.001)
(-1.85704e-10 1.374e-09 -0.001)
(-3.09549e-10 1.43741e-09 -0.001)
(-3.388e-10 1.44521e-09 -0.001)
(-3.40214e-10 1.72764e-09 -0.001)
(-2.93624e-10 1.74228e-09 -0.001)
(-1.87679e-10 1.8053e-09 -0.001)
(-1.28779e-10 1.82555e-09 -0.001)
(-5.50912e-11 1.79737e-09 -0.001)
(2.3718e-11 1.53697e-09 -0.000999999)
(-1.41665e-13 1.58368e-09 -0.001)
(-1.36053e-10 1.625e-09 -0.001)
(-3.22513e-10 1.64324e-09 -0.001)
(-1.47487e-10 1.76247e-09 -0.001)
(-1.38614e-10 1.66871e-09 -0.001)
(-2.96543e-10 1.86073e-09 -0.001)
(-1.66665e-10 1.86422e-09 -0.001)
(-1.44244e-10 1.85348e-09 -0.001)
(-7.25902e-11 1.83288e-09 -0.001)
(2.72607e-11 1.81259e-09 -0.000999999)
(1.43015e-11 1.78014e-09 -0.000999999)
(-1.26331e-10 1.73839e-09 -0.000999999)
(-1.721e-10 1.71329e-09 -0.000999999)
(-3.13491e-10 1.81833e-09 -0.001)
(-2.4198e-10 1.59146e-09 -0.001)
(-9.80494e-11 1.69269e-09 -0.001)
(-1.94676e-10 1.63478e-09 -0.001)
(-1.5666e-10 1.58661e-09 -0.001)
(-7.25063e-11 1.57355e-09 -0.001)
(-1.20892e-11 1.78708e-09 -0.000999998)
(-7.78745e-11 1.72184e-09 -0.000999998)
(-2.03123e-10 1.6407e-09 -0.000999999)
(-2.42493e-10 1.60633e-09 -0.000999999)
(-2.69433e-10 1.51923e-09 -0.000999999)
(-2.64293e-10 1.59252e-09 -0.000999999)
(-2.53164e-10 1.40823e-09 -0.000999999)
(-2.72443e-10 1.33803e-09 -0.000999999)
(-2.02493e-10 1.27676e-09 -0.001)
(-8.29208e-11 1.26331e-09 -0.001)
(-4.09751e-11 1.40949e-09 -0.000999998)
(-1.35483e-10 1.36777e-09 -0.000999998)
(-2.42097e-10 1.32144e-09 -0.000999998)
(-2.93609e-10 1.29245e-09 -0.000999998)
(-3.27329e-10 1.22198e-09 -0.000999998)
(-3.52949e-10 1.17059e-09 -0.000999999)
(-3.52484e-10 1.06379e-09 -0.000999999)
(-3.25897e-10 1.0119e-09 -0.000999999)
(-2.2886e-10 9.73968e-10 -0.000999999)
(-8.35717e-11 9.78455e-10 -0.000999999)
(-5.62463e-11 9.02593e-10 -0.000999997)
(-1.68622e-10 8.84774e-10 -0.000999997)
(-2.78585e-10 8.57479e-10 -0.000999998)
(-3.4188e-10 8.22287e-10 -0.000999998)
(-3.91207e-10 7.72746e-10 -0.000999998)
(-4.224e-10 7.20197e-10 -0.000999998)
(-4.11749e-10 6.6878e-10 -0.000999998)
(-3.62016e-10 6.37235e-10 -0.000999998)
(-2.33864e-10 6.28487e-10 -0.000999999)
(-7.65112e-11 6.50503e-10 -0.000999999)
(-6.02473e-11 3.12422e-10 -0.000999997)
(-1.82022e-10 3.08884e-10 -0.000999997)
(-3.04193e-10 2.99415e-10 -0.000999997)
(-3.77584e-10 2.82934e-10 -0.000999997)
(-4.28617e-10 2.63058e-10 -0.000999998)
(-4.56041e-10 2.4485e-10 -0.000999998)
(-4.34644e-10 2.28709e-10 -0.000999998)
(-3.65567e-10 2.21358e-10 -0.000999998)
(-2.13969e-10 2.24775e-10 -0.000999998)
(-6.02781e-11 2.40516e-10 -0.000999998)
(-1.04968e-10 3.62201e-10 -0.001)
(-3.60739e-10 3.49698e-10 -0.001)
(-6.26451e-10 3.49988e-10 -0.001)
(-8.27339e-10 3.52805e-10 -0.001)
(-8.30347e-10 3.74759e-10 -0.001)
(-6.84431e-10 3.87478e-10 -0.001)
(-5.56022e-10 4.16943e-10 -0.001)
(-3.92769e-10 4.43575e-10 -0.001)
(-2.13343e-10 4.57723e-10 -0.001)
(-6.56724e-11 4.58146e-10 -0.001)
(-1.18231e-10 1.01202e-09 -0.001)
(-3.74395e-10 1.0151e-09 -0.001)
(-6.24629e-10 1.0414e-09 -0.001)
(-8.04107e-10 1.07642e-09 -0.001)
(-7.97092e-10 1.14627e-09 -0.001)
(-6.43312e-10 1.18871e-09 -0.001)
(-5.0082e-10 1.24804e-09 -0.001)
(-3.52637e-10 1.29681e-09 -0.001)
(-1.98293e-10 1.31565e-09 -0.001)
(-6.45434e-11 1.3062e-09 -0.001)
(-1.03601e-10 1.56778e-09 -0.001)
(-3.33882e-10 1.60431e-09 -0.001)
(-5.66537e-10 1.65917e-09 -0.001)
(-7.24059e-10 1.7318e-09 -0.001)
(-7.19603e-10 1.83494e-09 -0.001)
(-5.83927e-10 1.92183e-09 -0.001)
(-4.4903e-10 1.9663e-09 -0.001)
(-3.25869e-10 2.00548e-09 -0.001)
(-2.01881e-10 2.01089e-09 -0.001)
(-7.28327e-11 1.98579e-09 -0.001)
(-8.43456e-11 2.08265e-09 -0.001)
(-2.85959e-10 2.10501e-09 -0.001)
(-4.97482e-10 2.13999e-09 -0.001)
(-6.28454e-10 2.18825e-09 -0.001)
(-6.07199e-10 2.29901e-09 -0.001)
(-5.12084e-10 2.49748e-09 -0.001)
(-4.17281e-10 2.4969e-09 -0.001)
(-3.07886e-10 2.49825e-09 -0.001)
(-2.14187e-10 2.48179e-09 -0.001)
(-8.59987e-11 2.44298e-09 -0.001)
(-8.45315e-11 2.40912e-09 -0.000999999)
(-2.80231e-10 2.43e-09 -0.001)
(-4.83581e-10 2.45204e-09 -0.001)
(-5.65087e-10 2.4949e-09 -0.001)
(-4.10401e-10 2.60787e-09 -0.001)
(-3.86058e-10 2.59783e-09 -0.001)
(-4.48242e-10 2.66501e-09 -0.001)
(-3.40634e-10 2.64811e-09 -0.001)
(-2.52433e-10 2.60841e-09 -0.001)
(-1.07184e-10 2.57847e-09 -0.001)
(-6.77324e-11 2.4934e-09 -0.000999998)
(-2.47551e-10 2.50363e-09 -0.000999999)
(-4.32984e-10 2.52283e-09 -0.000999999)
(-4.7276e-10 2.56968e-09 -0.000999999)
(-5.04471e-10 2.6364e-09 -0.000999999)
(-4.54956e-10 2.48691e-09 -0.001)
(-3.66856e-10 2.4918e-09 -0.001)
(-3.64092e-10 2.4364e-09 -0.001)
(-2.78871e-10 2.3863e-09 -0.001)
(-1.11381e-10 2.3723e-09 -0.001)
(-7.89554e-11 2.34533e-09 -0.000999998)
(-2.55693e-10 2.32668e-09 -0.000999998)
(-4.17924e-10 2.32639e-09 -0.000999998)
(-4.51669e-10 2.33785e-09 -0.000999998)
(-4.93232e-10 2.30401e-09 -0.000999998)
(-5.30491e-10 2.28941e-09 -0.000999999)
(-4.98723e-10 2.15284e-09 -0.000999999)
(-4.45814e-10 2.06595e-09 -0.000999999)
(-3.12029e-10 2.01388e-09 -0.001)
(-1.17051e-10 1.99982e-09 -0.001)
(-9.04139e-11 1.89657e-09 -0.000999997)
(-2.70949e-10 1.884e-09 -0.000999997)
(-4.22165e-10 1.87247e-09 -0.000999997)
(-4.95179e-10 1.85604e-09 -0.000999997)
(-5.52772e-10 1.7735e-09 -0.000999998)
(-6.06029e-10 1.72512e-09 -0.000999998)
(-5.90343e-10 1.64191e-09 -0.000999998)
(-5.02707e-10 1.58679e-09 -0.000999999)
(-3.41085e-10 1.55031e-09 -0.000999999)
(-1.2175e-10 1.54727e-09 -0.000999999)
(-9.48267e-11 1.22803e-09 -0.000999996)
(-2.83336e-10 1.22475e-09 -0.000999997)
(-4.46045e-10 1.20966e-09 -0.000999997)
(-5.50517e-10 1.17798e-09 -0.000999997)
(-6.23989e-10 1.11281e-09 -0.000999997)
(-6.61939e-10 1.06069e-09 -0.000999997)
(-6.3692e-10 1.03055e-09 -0.000999998)
(-5.37055e-10 1.00216e-09 -0.000999998)
(-3.48346e-10 9.91782e-10 -0.000999998)
(-1.17123e-10 1.00947e-09 -0.000999998)
(-9.5622e-11 4.2789e-10 -0.000999996)
(-2.91085e-10 4.27673e-10 -0.000999996)
(-4.6825e-10 4.20482e-10 -0.000999996)
(-5.90833e-10 4.0479e-10 -0.000999997)
(-6.68804e-10 3.79113e-10 -0.000999997)
(-6.87105e-10 3.58891e-10 -0.000999997)
(-6.47766e-10 3.52996e-10 -0.000999997)
(-5.40486e-10 3.47195e-10 -0.000999998)
(-3.31271e-10 3.48847e-10 -0.000999998)
(-1.02108e-10 3.63071e-10 -0.000999998)
(-2.00128e-10 5.15245e-10 -0.001)
(-5.91614e-10 5.12003e-10 -0.001)
(-9.29883e-10 5.13344e-10 -0.001)
(-1.19148e-09 5.23243e-10 -0.001)
(-1.16022e-09 5.6105e-10 -0.001)
(-8.74853e-10 5.68764e-10 -0.001)
(-6.71417e-10 5.91081e-10 -0.001)
(-5.04957e-10 6.08081e-10 -0.001)
(-3.02055e-10 6.12401e-10 -0.001)
(-1.00792e-10 6.05563e-10 -0.001)
(-2.04558e-10 1.50694e-09 -0.001)
(-5.95557e-10 1.52247e-09 -0.001)
(-9.20317e-10 1.54507e-09 -0.001)
(-1.14574e-09 1.58777e-09 -0.001)
(-1.11653e-09 1.67942e-09 -0.001)
(-8.46253e-10 1.71055e-09 -0.001)
(-6.33244e-10 1.73689e-09 -0.001)
(-4.84423e-10 1.75456e-09 -0.001)
(-3.03995e-10 1.75034e-09 -0.001)
(-1.06737e-10 1.73102e-09 -0.001)
(-1.87454e-10 2.37618e-09 -0.001)
(-5.57376e-10 2.41165e-09 -0.001)
(-8.6655e-10 2.45732e-09 -0.001)
(-1.05933e-09 2.53283e-09 -0.001)
(-1.03952e-09 2.65207e-09 -0.001)
(-8.19031e-10 2.72141e-09 -0.001)
(-6.28759e-10 2.7072e-09 -0.001)
(-4.92292e-10 2.69838e-09 -0.001)
(-3.22878e-10 2.67663e-09 -0.001)
(-1.17158e-10 2.64969e-09 -0.001)
(-1.73289e-10 3.09102e-09 -0.001)
(-5.18989e-10 3.08992e-09 -0.001)
(-7.99636e-10 3.11786e-09 -0.001)
(-9.51168e-10 3.18617e-09 -0.001)
(-9.28123e-10 3.33238e-09 -0.001)
(-7.91302e-10 3.48839e-09 -0.001)
(-6.56432e-10 3.4195e-09 -0.001)
(-5.14755e-10 3.36689e-09 -0.001)
(-3.47657e-10 3.32756e-09 -0.001)
(-1.28922e-10 3.29612e-09 -0.001)
(-1.93586e-10 3.48595e-09 -0.000999999)
(-5.3613e-10 3.49532e-09 -0.000999999)
(-7.70765e-10 3.51996e-09 -0.001)
(-8.44845e-10 3.58996e-09 -0.001)
(-7.37262e-10 3.71403e-09 -0.001)
(-7.31816e-10 3.70487e-09 -0.001)
(-7.50254e-10 3.68337e-09 -0.001)
(-5.83771e-10 3.6384e-09 -0.001)
(-3.87428e-10 3.58698e-09 -0.001)
(-1.4281e-10 3.55756e-09 -0.001)
(-1.69964e-10 3.47535e-09 -0.000999998)
(-4.91534e-10 3.52423e-09 -0.000999998)
(-7.0552e-10 3.5766e-09 -0.000999999)
(-7.57168e-10 3.63701e-09 -0.000999999)
(-8.12911e-10 3.68602e-09 -0.000999999)
(-8.21907e-10 3.55961e-09 -0.001)
(-7.2307e-10 3.52655e-09 -0.001)
(-6.10633e-10 3.47478e-09 -0.001)
(-4.21714e-10 3.42577e-09 -0.001)
(-1.52083e-10 3.39969e-09 -0.001)
(-1.51072e-10 3.19404e-09 -0.000999997)
(-4.41582e-10 3.22398e-09 -0.000999997)
(-6.5853e-10 3.26288e-09 -0.000999997)
(-7.35359e-10 3.27567e-09 -0.000999998)
(-8.14671e-10 3.23498e-09 -0.000999998)
(-8.91464e-10 3.20523e-09 -0.000999998)
(-8.35083e-10 3.10112e-09 -0.000999999)
(-6.84047e-10 3.01932e-09 -0.000999999)
(-4.55986e-10 2.97139e-09 -0.000999999)
(-1.6282e-10 2.94578e-09 -0.000999999)
(-1.45591e-10 2.59528e-09 -0.000999996)
(-4.28696e-10 2.60716e-09 -0.000999996)
(-6.54289e-10 2.60792e-09 -0.000999996)
(-7.85109e-10 2.58618e-09 -0.000999997)
(-8.83449e-10 2.49633e-09 -0.000999997)
(-9.55702e-10 2.4491e-09 -0.000999997)
(-9.08955e-10 2.39186e-09 -0.000999998)
(-7.39928e-10 2.34032e-09 -0.000999998)
(-4.89496e-10 2.30246e-09 -0.000999998)
(-1.72251e-10 2.2899e-09 -0.000999999)
(-1.43671e-10 1.68079e-09 -0.000999995)
(-4.33754e-10 1.68311e-09 -0.000999995)
(-6.79739e-10 1.66908e-09 -0.000999996)
(-8.46803e-10 1.63681e-09 -0.000999996)
(-9.51539e-10 1.56951e-09 -0.000999996)
(-9.95737e-10 1.52525e-09 -0.000999997)
(-9.43686e-10 1.51214e-09 -0.000999997)
(-7.72946e-10 1.48797e-09 -0.000999997)
(-5.01781e-10 1.47276e-09 -0.000999998)
(-1.71118e-10 1.48584e-09 -0.000999998)
(-1.45864e-10 5.83634e-10 -0.000999995)
(-4.42692e-10 5.82186e-10 -0.000999995)
(-6.9951e-10 5.75025e-10 -0.000999995)
(-8.82965e-10 5.61316e-10 -0.000999996)
(-9.9318e-10 5.37337e-10 -0.000999996)
(-1.01137e-09 5.18134e-10 -0.000999996)
(-9.44647e-10 5.20301e-10 -0.000999997)
(-7.77757e-10 5.15835e-10 -0.000999997)
(-4.87934e-10 5.14239e-10 -0.000999997)
(-1.56354e-10 5.27861e-10 -0.000999997)
(-2.97784e-10 7.20951e-10 -0.001)
(-8.26612e-10 7.30281e-10 -0.001)
(-1.23637e-09 7.38381e-10 -0.001)
(-1.54681e-09 7.55735e-10 -0.001)
(-1.54287e-09 7.96527e-10 -0.001)
(-1.22393e-09 8.01105e-10 -0.00100001)
(-9.6291e-10 8.08304e-10 -0.00100001)
(-7.57606e-10 8.12326e-10 -0.00100001)
(-4.83205e-10 8.08687e-10 -0.00100001)
(-1.68289e-10 7.98981e-10 -0.00100001)
(-2.90161e-10 2.14395e-09 -0.001)
(-8.11916e-10 2.17319e-09 -0.001)
(-1.21308e-09 2.20016e-09 -0.001)
(-1.49121e-09 2.24761e-09 -0.001)
(-1.50003e-09 2.33329e-09 -0.001)
(-1.21422e-09 2.35722e-09 -0.001)
(-9.53282e-10 2.3482e-09 -0.00100001)
(-7.58362e-10 2.33936e-09 -0.00100001)
(-4.95936e-10 2.32246e-09 -0.00100001)
(-1.76899e-10 2.30333e-09 -0.00100001)
(-2.72789e-10 3.39047e-09 -0.001)
(-7.75934e-10 3.42447e-09 -0.001)
(-1.16457e-09 3.4671e-09 -0.001)
(-1.41659e-09 3.53794e-09 -0.001)
(-1.4361e-09 3.63959e-09 -0.001)
(-1.21132e-09 3.68894e-09 -0.001)
(-9.82602e-10 3.63635e-09 -0.001)
(-7.84465e-10 3.60362e-09 -0.001)
(-5.15817e-10 3.57674e-09 -0.001)
(-1.83652e-10 3.55965e-09 -0.00100001)
(-2.6217e-10 4.32287e-09 -0.001)
(-7.41813e-10 4.3257e-09 -0.001)
(-1.1003e-09 4.36364e-09 -0.001)
(-1.31898e-09 4.43975e-09 -0.001)
(-1.34929e-09 4.55527e-09 -0.001)
(-1.21774e-09 4.68836e-09 -0.001)
(-1.03881e-09 4.58293e-09 -0.001)
(-8.17656e-10 4.51268e-09 -0.001)
(-5.33319e-10 4.47923e-09 -0.001)
(-1.87822e-10 4.46302e-09 -0.001)
(-2.77162e-10 4.83577e-09 -0.000999999)
(-7.4309e-10 4.84914e-09 -0.000999999)
(-1.05116e-09 4.88585e-09 -0.001)
(-1.22499e-09 4.96582e-09 -0.001)
(-1.18755e-09 5.07389e-09 -0.001)
(-1.18366e-09 5.03654e-09 -0.001)
(-1.15822e-09 4.97608e-09 -0.001)
(-8.87535e-10 4.92638e-09 -0.001)
(-5.57049e-10 4.88813e-09 -0.001)
(-1.92083e-10 4.86512e-09 -0.001)
(-2.57065e-10 4.84659e-09 -0.000999998)
(-7.00787e-10 4.90855e-09 -0.000999998)
(-9.84318e-10 4.95512e-09 -0.000999998)
(-1.1308e-09 4.99648e-09 -0.000999998)
(-1.27857e-09 5.03366e-09 -0.000999999)
(-1.31555e-09 4.90483e-09 -0.000999999)
(-1.14894e-09 4.86323e-09 -0.001)
(-9.04895e-10 4.81572e-09 -0.001)
(-5.85312e-10 4.76283e-09 -0.001)
(-2.02246e-10 4.72088e-09 -0.001)
(-2.23872e-10 4.4228e-09 -0.000999996)
(-6.43773e-10 4.47498e-09 -0.000999996)
(-9.63907e-10 4.50146e-09 -0.000999996)
(-1.14653e-09 4.48662e-09 -0.000999997)
(-1.27912e-09 4.43525e-09 -0.000999997)
(-1.35401e-09 4.42035e-09 -0.000999998)
(-1.24734e-09 4.33753e-09 -0.000999998)
(-9.87235e-10 4.25737e-09 -0.000999999)
(-6.42808e-10 4.19519e-09 -0.000999999)
(-2.25537e-10 4.15239e-09 -0.000999999)
(-2.12667e-10 3.55829e-09 -0.000999995)
(-6.30414e-10 3.57517e-09 -0.000999995)
(-9.73283e-10 3.56656e-09 -0.000999995)
(-1.19699e-09 3.53577e-09 -0.000999996)
(-1.34483e-09 3.46238e-09 -0.000999996)
(-1.41342e-09 3.42061e-09 -0.000999997)
(-1.31191e-09 3.37435e-09 -0.000999997)
(-1.04659e-09 3.32267e-09 -0.000999998)
(-6.82202e-10 3.27694e-09 -0.000999998)
(-2.37454e-10 3.25793e-09 -0.000999998)
(-2.13141e-10 2.28997e-09 -0.000999994)
(-6.42093e-10 2.28574e-09 -0.000999994)
(-1.00363e-09 2.26927e-09 -0.000999994)
(-1.25051e-09 2.24198e-09 -0.000999995)
(-1.39409e-09 2.19605e-09 -0.000999995)
(-1.44181e-09 2.16759e-09 -0.000999996)
(-1.34502e-09 2.15462e-09 -0.000999996)
(-1.08395e-09 2.12899e-09 -0.000999997)
(-7.01154e-10 2.10701e-09 -0.000999997)
(-2.38696e-10 2.11762e-09 -0.000999997)
(-2.20394e-10 7.88206e-10 -0.000999993)
(-6.54126e-10 7.81914e-10 -0.000999993)
(-1.01546e-09 7.76483e-10 -0.000999994)
(-1.26782e-09 7.68421e-10 -0.000999994)
(-1.41668e-09 7.56982e-10 -0.000999995)
(-1.45235e-09 7.43657e-10 -0.000999995)
(-1.34811e-09 7.44338e-10 -0.000999996)
(-1.09188e-09 7.38443e-10 -0.000999996)
(-6.88337e-10 7.34446e-10 -0.000999996)
(-2.22874e-10 7.48648e-10 -0.000999997)
(-3.87828e-10 1.00711e-09 -0.001)
(-1.06793e-09 1.0258e-09 -0.001)
(-1.58812e-09 1.03974e-09 -0.001)
(-1.96466e-09 1.05745e-09 -0.00100001)
(-2.04927e-09 1.0835e-09 -0.00100001)
(-1.8068e-09 1.08744e-09 -0.00100001)
(-1.50317e-09 1.083e-09 -0.00100001)
(-1.19236e-09 1.07916e-09 -0.00100001)
(-7.7585e-10 1.07361e-09 -0.00100001)
(-2.7258e-10 1.0662e-09 -0.00100001)
(-3.71473e-10 2.98211e-09 -0.001)
(-1.03891e-09 3.01912e-09 -0.001)
(-1.55928e-09 3.04814e-09 -0.001)
(-1.92419e-09 3.08842e-09 -0.001)
(-2.02274e-09 3.14053e-09 -0.00100001)
(-1.81039e-09 3.15609e-09 -0.00100001)
(-1.51393e-09 3.13596e-09 -0.00100001)
(-1.20361e-09 3.11914e-09 -0.00100001)
(-7.88241e-10 3.10445e-09 -0.00100001)
(-2.78639e-10 3.09212e-09 -0.00100001)
(-3.56682e-10 4.68909e-09 -0.001)
(-1.00943e-09 4.71929e-09 -0.001)
(-1.52224e-09 4.75522e-09 -0.001)
(-1.87599e-09 4.81113e-09 -0.001)
(-1.98545e-09 4.87146e-09 -0.001)
(-1.81479e-09 4.89629e-09 -0.001)
(-1.54291e-09 4.85471e-09 -0.00100001)
(-1.22568e-09 4.82905e-09 -0.00100001)
(-7.9856e-10 4.81452e-09 -0.00100001)
(-2.8003e-10 4.80601e-09 -0.00100001)
(-3.49509e-10 5.91506e-09 -0.001)
(-9.81772e-10 5.93437e-09 -0.001)
(-1.46839e-09 5.98065e-09 -0.001)
(-1.8083e-09 6.0463e-09 -0.001)
(-1.93795e-09 6.09938e-09 -0.001)
(-1.82759e-09 6.19715e-09 -0.001)
(-1.58145e-09 6.11902e-09 -0.001)
(-1.24336e-09 6.07053e-09 -0.001)
(-8.02425e-10 6.05665e-09 -0.001)
(-2.78892e-10 6.04514e-09 -0.00100001)
(-3.47452e-10 6.59369e-09 -0.000999999)
(-9.54853e-10 6.61717e-09 -0.000999999)
(-1.4112e-09 6.65571e-09 -0.000999999)
(-1.75732e-09 6.71537e-09 -0.001)
(-1.83472e-09 6.77733e-09 -0.001)
(-1.79518e-09 6.76056e-09 -0.001)
(-1.6694e-09 6.68936e-09 -0.001)
(-1.28716e-09 6.65307e-09 -0.001)
(-8.12466e-10 6.63464e-09 -0.001)
(-2.80914e-10 6.61371e-09 -0.001)
(-3.37361e-10 6.6639e-09 -0.000999997)
(-9.32104e-10 6.7125e-09 -0.000999997)
(-1.37116e-09 6.72808e-09 -0.000999997)
(-1.68672e-09 6.73818e-09 -0.000999998)
(-1.89275e-09 6.77452e-09 -0.000999998)
(-1.91546e-09 6.6632e-09 -0.000999999)
(-1.68888e-09 6.61344e-09 -0.001)
(-1.29709e-09 6.562e-09 -0.001)
(-8.2917e-10 6.50595e-09 -0.001)
(-2.88131e-10 6.45976e-09 -0.001)
(-3.1058e-10 6.0692e-09 -0.000999995)
(-9.03244e-10 6.10861e-09 -0.000999995)
(-1.3865e-09 6.10124e-09 -0.000999995)
(-1.71094e-09 6.06753e-09 -0.000999996)
(-1.9097e-09 6.03524e-09 -0.000999996)
(-1.95623e-09 6.00689e-09 -0.000999997)
(-1.77055e-09 5.94343e-09 -0.000999998)
(-1.39368e-09 5.86062e-09 -0.000999998)
(-9.02379e-10 5.78402e-09 -0.000999999)
(-3.1564e-10 5.73678e-09 -0.000999999)
(-3.08574e-10 4.8299e-09 -0.000999993)
(-9.11432e-10 4.83244e-09 -0.000999993)
(-1.4131e-09 4.81219e-09 -0.000999993)
(-1.75274e-09 4.78502e-09 -0.000999994)
(-1.9534e-09 4.745e-09 -0.000999995)
(-2.00726e-09 4.71753e-09 -0.000999996)
(-1.8351e-09 4.66709e-09 -0.000999996)
(-1.45562e-09 4.61185e-09 -0.000999997)
(-9.41985e-10 4.5606e-09 -0.000999997)
(-3.25136e-10 4.54207e-09 -0.000999997)
(-3.16285e-10 3.0886e-09 -0.000999992)
(-9.29814e-10 3.07666e-09 -0.000999992)
(-1.43437e-09 3.06628e-09 -0.000999992)
(-1.77785e-09 3.0563e-09 -0.000999993)
(-1.97685e-09 3.04719e-09 -0.000999993)
(-2.03378e-09 3.03241e-09 -0.000999994)
(-1.87587e-09 3.00356e-09 -0.000999995)
(-1.49922e-09 2.97039e-09 -0.000999995)
(-9.63424e-10 2.94654e-09 -0.000999996)
(-3.26257e-10 2.95493e-09 -0.000999996)
(-3.25194e-10 1.05668e-09 -0.000999991)
(-9.37757e-10 1.04901e-09 -0.000999991)
(-1.43125e-09 1.04907e-09 -0.000999992)
(-1.76858e-09 1.04983e-09 -0.000999992)
(-1.97377e-09 1.05528e-09 -0.000999993)
(-2.04724e-09 1.04975e-09 -0.000999993)
(-1.89361e-09 1.03866e-09 -0.000999994)
(-1.50936e-09 1.02888e-09 -0.000999995)
(-9.50198e-10 1.02575e-09 -0.000999995)
(-3.11227e-10 1.03853e-09 -0.000999995)
(-4.8597e-10 1.39758e-09 -0.00100001)
(-1.36663e-09 1.41819e-09 -0.00100001)
(-2.07139e-09 1.43008e-09 -0.00100001)
(-2.5747e-09 1.44009e-09 -0.00100001)
(-2.78474e-09 1.44754e-09 -0.00100001)