/*--------------------------------*- C++ -*----------------------------------*\
| =========                 |                                                 |
| \\      /  F ield         | OpenFOAM: The Open Source CFD Toolbox           |
|  \\    /   O peration     | Version:  5.x                                   |
|   \\  /    A nd           | Web:      www.OpenFOAM.org                      |
|    \\/     M anipulation  |                                                 |
\*---------------------------------------------------------------------------*/
FoamFile
{
    version     2.0;
    format      ascii;
    class       volVectorField;
    location    "800";
    object      stored_U;
}
// * * * * * * * * * * * * * * * * * * * * * * * * * * * * * * * * * * * * * //

dimensions      [0 1 -1 0 0 0 0];

internalField   nonuniform List<vector> 
90
(
(3.22953e-09 -4.75971e-09 -0.00100003)
(5.38428e-09 -8.50604e-09 -0.00100003)
(8.21919e-09 -1.32277e-08 -0.00100004)
(1.15807e-08 -1.8704e-08 -0.00100004)
(1.56194e-08 -2.51666e-08 -0.00100005)
(2.05598e-08 -3.2946e-08 -0.00100006)
(2.66776e-08 -4.2442e-08 -0.00100008)
(3.43145e-08 -5.41432e-08 -0.00100009)
(4.39009e-08 -6.86551e-08 -0.00100011)
(5.59855e-08 -8.67367e-08 -0.00100014)
(7.12729e-08 -1.09347e-07 -0.00100018)
(9.06727e-08 -1.37707e-07 -0.00100022)
(1.15364e-07 -1.73371e-07 -0.00100027)
(1.46876e-07 -2.18324e-07 -0.00100034)
(1.87198e-07 -2.75089e-07 -0.00100043)
(2.38915e-07 -3.46899e-07 -0.00100054)
(3.05389e-07 -4.37988e-07 -0.00100068)
(3.91003e-07 -5.53775e-07 -0.00100086)
(5.01478e-07 -7.01238e-07 -0.00100108)
(6.44294e-07 -8.89387e-07 -0.00100137)
(8.29248e-07 -1.12988e-06 -0.00100174)
(1.06918e-06 -1.43782e-06 -0.00100221)
(1.38083e-06 -1.8328e-06 -0.00100281)
(1.78615e-06 -2.34029e-06 -0.00100358)
(2.31411e-06 -2.99345e-06 -0.00100457)
(3.00282e-06 -3.83546e-06 -0.00100584)
(3.90248e-06 -4.9227e-06 -0.00100748)
(5.07922e-06 -6.32889e-06 -0.0010096)
(6.62032e-06 -8.15055e-06 -0.00101234)
(8.64112e-06 -1.05143e-05 -0.00101588)
(1.12941e-05 -1.35864e-05 -0.00102045)
(1.47817e-05 -1.7585e-05 -0.00102647)
(1.93794e-05 -2.28066e-05 -0.00103477)
(2.5501e-05 -2.97042e-05 -0.00104568)
(3.3839e-05 -3.90358e-05 -0.00105414)
(4.20421e-05 -4.79706e-05 -0.0010506)
(4.94167e-05 -5.45504e-05 -0.00109371)
(4.7722e-05 -4.95256e-05 -0.00135147)
(3.41618e-05 -3.64771e-05 -0.000372728)
(-7.61114e-05 0.000113102 -0.00277028)
(1.38644e-06 -5.77567e-06 -0.00131133)
(6.31571e-05 -0.000108454 -0.00294151)
(5.14169e-05 -5.66255e-05 -0.00232317)
(6.35727e-06 -7.26359e-05 -0.00316403)
(-5.98559e-05 -6.92528e-05 -0.0021671)
(-7.59616e-05 -4.00083e-05 -0.00320875)
(-4.98281e-05 4.08895e-05 -0.00224683)
(-6.70559e-05 0.000159724 -0.00334791)
(-3.83638e-05 4.05639e-05 -0.00180138)
(-8.73698e-05 -1.13182e-05 -0.00331334)
(-6.62402e-05 -2.25184e-05 -0.00205408)
(-4.53595e-05 2.55953e-06 -0.00205246)
(-7.69979e-06 0.000135427 -0.00205004)
(3.90777e-05 9.0041e-05 -0.00146479)
(-1.299e-05 5.16434e-05 -0.000909939)
(-1.30625e-05 3.31248e-05 -0.00102001)
(-7.80353e-06 2.23131e-05 -0.00101694)
(-4.48354e-06 1.62482e-05 -0.00100938)
(-2.36125e-06 1.19538e-05 -0.00100502)
(-9.42317e-07 8.76707e-06 -0.00100256)
(-1.69754e-08 6.40122e-06 -0.00100097)
(5.59259e-07 4.65098e-06 -0.000999957)
(8.98715e-07 3.35754e-06 -0.000999336)
(1.07279e-06 2.40641e-06 -0.00099897)
(1.13513e-06 1.71021e-06 -0.000998785)
(1.12469e-06 1.20303e-06 -0.000998722)
(1.06911e-06 8.35553e-07 -0.000998739)
(9.87627e-07 5.70975e-07 -0.000998804)
(8.93473e-07 3.81875e-07 -0.000998897)
(7.95529e-07 2.47889e-07 -0.000999004)
(6.99551e-07 1.53954e-07 -0.000999114)
(6.09045e-07 8.90112e-08 -0.000999222)
(5.25881e-07 4.50958e-08 -0.000999324)
(4.50959e-07 1.62187e-08 -0.000999417)
(3.84504e-07 -2.08395e-09 -0.000999502)
(3.26366e-07 -1.32459e-08 -0.000999578)
(2.76001e-07 -1.95502e-08 -0.000999644)
(2.32707e-07 -2.25931e-08 -0.000999701)
(1.95736e-07 -2.34975e-08 -0.000999749)
(1.6434e-07 -2.30427e-08 -0.000999791)
(1.37816e-07 -2.17699e-08 -0.000999825)
(1.15525e-07 -2.00535e-08 -0.000999855)
(9.68951e-08 -1.81514e-08 -0.000999879)
(8.14306e-08 -1.62403e-08 -0.0009999)
(6.87038e-08 -1.44403e-08 -0.000999918)
(5.83464e-08 -1.28322e-08 -0.000999934)
(5.0026e-08 -1.1464e-08 -0.000999948)
(4.34238e-08 -1.03468e-08 -0.00099996)
(3.83807e-08 -9.44708e-09 -0.000999973)
(3.62336e-08 -8.99498e-09 -0.000999983)
)
;

boundaryField
{
    inlet
    {
        type            calculated;
        value           uniform (3.62336e-08 -8.99498e-09 -0.000999983);
    }
    outlet
    {
        type            calculated;
        value           uniform (3.22953e-09 -4.75971e-09 -0.00100003);
    }
    repeat_boundary
    {
        type            calculated;
        value           nonuniform List<vector> 
180
(
(3.22953e-09 0 -0.00100003)
(5.38428e-09 0 -0.00100003)
(8.21919e-09 0 -0.00100004)
(1.15807e-08 0 -0.00100004)
(1.56194e-08 0 -0.00100005)
(2.05598e-08 0 -0.00100006)
(2.66776e-08 0 -0.00100008)
(3.43145e-08 0 -0.00100009)
(4.39009e-08 0 -0.00100011)
(5.59855e-08 0 -0.00100014)
(7.12729e-08 0 -0.00100018)
(9.06727e-08 0 -0.00100022)
(1.15364e-07 0 -0.00100027)
(1.46876e-07 0 -0.00100034)
(1.87198e-07 0 -0.00100043)
(2.38915e-07 0 -0.00100054)
(3.05389e-07 0 -0.00100068)
(3.91003e-07 0 -0.00100086)
(5.01478e-07 0 -0.00100108)
(6.44294e-07 0 -0.00100137)
(8.29248e-07 0 -0.00100174)
(1.06918e-06 0 -0.00100221)
(1.38083e-06 0 -0.00100281)
(1.78615e-06 0 -0.00100358)
(2.31411e-06 0 -0.00100457)
(3.00282e-06 0 -0.00100584)
(3.90248e-06 0 -0.00100748)
(5.07922e-06 0 -0.0010096)
(6.62032e-06 0 -0.00101234)
(8.64112e-06 0 -0.00101588)
(1.12941e-05 0 -0.00102045)
(1.47817e-05 0 -0.00102647)
(1.93794e-05 0 -0.00103477)
(2.5501e-05 0 -0.00104568)
(3.3839e-05 0 -0.00105414)
(4.20421e-05 0 -0.0010506)
(4.94167e-05 0 -0.00109371)
(4.7722e-05 0 -0.00135147)
(3.41618e-05 0 -0.000372728)
(-7.61114e-05 0 -0.00277028)
(1.38644e-06 0 -0.00131133)
(6.31571e-05 0 -0.00294151)
(5.14169e-05 0 -0.00232317)
(6.35727e-06 0 -0.00316403)
(-5.98559e-05 0 -0.0021671)
(-7.59616e-05 0 -0.00320875)
(-4.98281e-05 0 -0.00224683)
(-6.70559e-05 0 -0.00334791)
(-3.83638e-05 0 -0.00180138)
(-8.73698e-05 0 -0.00331334)
(-6.62402e-05 0 -0.00205408)
(-4.53595e-05 0 -0.00205246)
(-7.69979e-06 0 -0.00205004)
(3.90777e-05 0 -0.00146479)
(-1.299e-05 0 -0.000909939)
(-1.30625e-05 0 -0.00102001)
(-7.80353e-06 0 -0.00101694)
(-4.48354e-06 0 -0.00100938)
(-2.36125e-06 0 -0.00100502)
(-9.42317e-07 0 -0.00100256)
(-1.69754e-08 0 -0.00100097)
(5.59259e-07 0 -0.000999957)
(8.98715e-07 0 -0.000999336)
(1.07279e-06 0 -0.00099897)
(1.13513e-06 0 -0.000998785)
(1.12469e-06 0 -0.000998722)
(1.06911e-06 0 -0.000998739)
(9.87627e-07 0 -0.000998804)
(8.93473e-07 0 -0.000998897)
(7.95529e-07 0 -0.000999004)
(6.99551e-07 0 -0.000999114)
(6.09045e-07 0 -0.000999222)
(5.25881e-07 0 -0.000999324)
(4.50959e-07 0 -0.000999417)
(3.84504e-07 0 -0.000999502)
(3.26366e-07 0 -0.000999578)
(2.76001e-07 0 -0.000999644)
(2.32707e-07 0 -0.000999701)
(1.95736e-07 0 -0.000999749)
(1.6434e-07 0 -0.000999791)
(1.37816e-07 0 -0.000999825)
(1.15525e-07 0 -0.000999855)
(9.68951e-08 0 -0.000999879)
(8.14306e-08 0 -0.0009999)
(6.87038e-08 0 -0.000999918)
(5.83464e-08 0 -0.000999934)
(5.0026e-08 0 -0.000999948)
(4.34238e-08 0 -0.00099996)
(3.83807e-08 0 -0.000999973)
(3.62336e-08 0 -0.000999983)
(0 -4.75971e-09 -0.00100003)
(0 -8.50604e-09 -0.00100003)
(0 -1.32277e-08 -0.00100004)
(0 -1.8704e-08 -0.00100004)
(0 -2.51666e-08 -0.00100005)
(0 -3.2946e-08 -0.00100006)
(0 -4.2442e-08 -0.00100008)
(0 -5.41432e-08 -0.00100009)
(0 -6.86551e-08 -0.00100011)
(0 -8.67367e-08 -0.00100014)
(0 -1.09347e-07 -0.00100018)
(0 -1.37707e-07 -0.00100022)
(0 -1.73371e-07 -0.00100027)
(0 -2.18324e-07 -0.00100034)
(0 -2.75089e-07 -0.00100043)
(0 -3.46899e-07 -0.00100054)
(0 -4.37988e-07 -0.00100068)
(0 -5.53775e-07 -0.00100086)
(0 -7.01238e-07 -0.00100108)
(0 -8.89387e-07 -0.00100137)
(0 -1.12988e-06 -0.00100174)
(0 -1.43782e-06 -0.00100221)
(0 -1.8328e-06 -0.00100281)
(0 -2.34029e-06 -0.00100358)
(0 -2.99345e-06 -0.00100457)
(0 -3.83546e-06 -0.00100584)
(0 -4.9227e-06 -0.00100748)
(0 -6.32889e-06 -0.0010096)
(0 -8.15055e-06 -0.00101234)
(0 -1.05143e-05 -0.00101588)
(0 -1.35864e-05 -0.00102045)
(0 -1.7585e-05 -0.00102647)
(0 -2.28066e-05 -0.00103477)
(0 -2.97042e-05 -0.00104568)
(0 -3.90358e-05 -0.00105414)
(0 -4.79706e-05 -0.0010506)
(0 -5.45504e-05 -0.00109371)
(0 -4.95256e-05 -0.00135147)
(0 -3.64771e-05 -0.000372728)
(0 0.000113102 -0.00277028)
(0 -5.77567e-06 -0.00131133)
(0 -0.000108454 -0.00294151)
(0 -5.66255e-05 -0.00232317)
(0 -7.26359e-05 -0.00316403)
(0 -6.92528e-05 -0.0021671)
(0 -4.00083e-05 -0.00320875)
(0 4.08895e-05 -0.00224683)
(0 0.000159724 -0.00334791)
(0 4.05639e-05 -0.00180138)
(0 -1.13182e-05 -0.00331334)
(0 -2.25184e-05 -0.00205408)
(0 2.55953e-06 -0.00205246)
(0 0.000135427 -0.00205004)
(0 9.0041e-05 -0.00146479)
(0 5.16434e-05 -0.000909939)
(0 3.31248e-05 -0.00102001)
(0 2.23131e-05 -0.00101694)
(0 1.62482e-05 -0.00100938)
(0 1.19538e-05 -0.00100502)
(0 8.76707e-06 -0.00100256)
(0 6.40122e-06 -0.00100097)
(0 4.65098e-06 -0.000999957)
(0 3.35754e-06 -0.000999336)
(0 2.40641e-06 -0.00099897)
(0 1.71021e-06 -0.000998785)
(0 1.20303e-06 -0.000998722)
(0 8.35553e-07 -0.000998739)
(0 5.70975e-07 -0.000998804)
(0 3.81875e-07 -0.000998897)
(0 2.47889e-07 -0.000999004)
(0 1.53954e-07 -0.000999114)
(0 8.90112e-08 -0.000999222)
(0 4.50958e-08 -0.000999324)
(0 1.62187e-08 -0.000999417)
(0 -2.08395e-09 -0.000999502)
(0 -1.32459e-08 -0.000999578)
(0 -1.95502e-08 -0.000999644)
(0 -2.25931e-08 -0.000999701)
(0 -2.34975e-08 -0.000999749)
(0 -2.30427e-08 -0.000999791)
(0 -2.17699e-08 -0.000999825)
(0 -2.00535e-08 -0.000999855)
(0 -1.81514e-08 -0.000999879)
(0 -1.62403e-08 -0.0009999)
(0 -1.44403e-08 -0.000999918)
(0 -1.28322e-08 -0.000999934)
(0 -1.1464e-08 -0.000999948)
(0 -1.03468e-08 -0.00099996)
(0 -9.44708e-09 -0.000999973)
(0 -8.99498e-09 -0.000999983)
)
;
    }
    procBoundary2to0
    {
        type            processor;
        value           nonuniform List<vector> 
90
(
(1.95572e-09 -4.75946e-09 -0.000999988)
(3.02475e-09 -8.50607e-09 -0.000999987)
(4.33553e-09 -1.32281e-08 -0.000999985)
(5.69223e-09 -1.87043e-08 -0.000999983)
(7.05366e-09 -2.51668e-08 -0.000999979)
(8.39935e-09 -3.29455e-08 -0.000999974)
(9.70048e-09 -4.24409e-08 -0.000999967)
(1.09088e-08 -5.41423e-08 -0.000999958)
(1.19458e-08 -6.8654e-08 -0.000999947)
(1.26871e-08 -8.6735e-08 -0.000999932)
(1.29409e-08 -1.09345e-07 -0.000999913)
(1.24184e-08 -1.37702e-07 -0.000999889)
(1.0697e-08 -1.73364e-07 -0.000999859)
(7.17804e-09 -2.18313e-07 -0.000999819)
(1.0484e-09 -2.75071e-07 -0.000999768)
(-8.83231e-09 -3.4687e-07 -0.000999702)
(-2.4226e-08 -4.37941e-07 -0.000999616)
(-4.75003e-08 -5.53698e-07 -0.000999504)
(-8.19032e-08 -7.01111e-07 -0.000999358)
(-1.31888e-07 -8.89178e-07 -0.000999168)
(-2.03551e-07 -1.12953e-06 -0.000998919)
(-3.05201e-07 -1.43723e-06 -0.000998595)
(-4.48054e-07 -1.83181e-06 -0.00099817)
(-6.47241e-07 -2.33863e-06 -0.000997613)
(-9.23407e-07 -2.99062e-06 -0.000996885)
(-1.3044e-06 -3.83065e-06 -0.000995931)
(-1.82772e-06 -4.9145e-06 -0.000994679)
(-2.54375e-06 -6.31483e-06 -0.000993037)
(-3.52007e-06 -8.12643e-06 -0.000990879)
(-4.84728e-06 -1.04731e-05 -0.000988039)
(-6.647e-06 -1.35171e-05 -0.000984297)
(-9.08382e-06 -1.7475e-05 -0.000979448)
(-1.23905e-05 -2.26511e-05 -0.000973321)
(-1.69194e-05 -2.94913e-05 -0.000964863)
(-2.30908e-05 -3.84401e-05 -0.000949479)
(-2.97168e-05 -4.76318e-05 -0.000926964)
(-3.47026e-05 -5.4153e-05 -0.000923785)
(-3.39136e-05 -5.16186e-05 -0.00105426)
(-2.9812e-05 -4.13984e-05 -0.000367165)
(9.72474e-05 0.000128907 -0.00194758)
(-6.30512e-06 -7.45669e-06 -0.00168928)
(-3.87275e-05 -6.61551e-05 -0.00154513)
(-3.55387e-05 -5.56358e-05 -0.00240498)
(-6.86398e-05 -5.55291e-05 -0.00214938)
(-8.68507e-05 -7.24957e-05 -0.00242838)
(-5.55959e-05 -3.025e-05 -0.00181624)
(-6.85028e-05 3.19448e-05 -0.00259943)
(-2.31005e-05 6.19887e-05 -0.00174704)
(1.00422e-05 9.21991e-05 -0.00234297)
(-5.91521e-05 -1.64626e-05 -0.00228082)
(-4.26091e-05 -2.87629e-05 -0.00165755)
(-2.02638e-05 -3.13145e-06 -0.00162383)
(1.35544e-05 6.50725e-05 -0.00181355)
(2.91393e-05 2.6956e-05 -0.00102771)
(5.96262e-05 3.48622e-05 -0.000875546)
(6.13511e-05 2.93465e-05 -0.000915013)
(4.96986e-05 2.22394e-05 -0.000942578)
(3.89557e-05 1.64139e-05 -0.000956377)
(3.04676e-05 1.20604e-05 -0.000966054)
(2.3859e-05 8.82498e-06 -0.000973651)
(1.87158e-05 6.43186e-06 -0.000979582)
(1.47067e-05 4.66713e-06 -0.000984164)
(1.15759e-05 3.36614e-06 -0.000987702)
(9.12653e-06 2.41101e-06 -0.000990437)
(7.20701e-06 1.71266e-06 -0.000992554)
(5.70015e-06 1.20434e-06 -0.000994194)
(4.51527e-06 8.36254e-07 -0.000995466)
(3.58203e-06 5.71348e-07 -0.000996454)
(2.84579e-06 3.82073e-07 -0.000997222)
(2.264e-06 2.47993e-07 -0.000997821)
(1.80356e-06 1.5401e-07 -0.000998289)
(1.4386e-06 8.90403e-08 -0.000998656)
(1.14902e-06 4.51111e-08 -0.000998944)
(9.18969e-07 1.62268e-08 -0.00099917)
(7.35977e-07 -2.07974e-09 -0.000999347)
(5.90145e-07 -1.32436e-08 -0.000999485)
(4.73791e-07 -1.9549e-08 -0.000999593)
(3.80874e-07 -2.25925e-08 -0.000999678)
(3.06632e-07 -2.34972e-08 -0.000999745)
(2.47303e-07 -2.30424e-08 -0.000999798)
(1.99906e-07 -2.17697e-08 -0.00099984)
(1.62078e-07 -2.00533e-08 -0.000999872)
(1.3194e-07 -1.81512e-08 -0.000999898)
(1.07999e-07 -1.62403e-08 -0.000999919)
(8.90704e-08 -1.44406e-08 -0.000999935)
(7.42076e-08 -1.28323e-08 -0.000999949)
(6.26302e-08 -1.14639e-08 -0.00099996)
(5.3652e-08 -1.03454e-08 -0.00099997)
(4.69419e-08 -9.44839e-09 -0.000999979)
(4.40904e-08 -8.9949e-09 -0.000999986)
)
;
    }
    procBoundary2to3
    {
        type            processor;
        value           nonuniform List<vector> 
90
(
(3.22925e-09 -3.48592e-09 -0.00100001)
(5.38428e-09 -6.14648e-09 -0.00100001)
(8.21961e-09 -9.34387e-09 -0.00100001)
(1.15809e-08 -1.28154e-08 -0.00100001)
(1.56196e-08 -1.66008e-08 -0.00100001)
(2.05597e-08 -2.07855e-08 -0.00100001)
(2.66771e-08 -2.54649e-08 -0.001)
(3.4314e-08 -3.07375e-08 -0.001)
(4.39003e-08 -3.66998e-08 -0.001)
(5.59845e-08 -4.34379e-08 -0.001)
(7.12713e-08 -5.10148e-08 -0.000999996)
(9.06701e-08 -5.94514e-08 -0.000999991)
(1.1536e-07 -6.87023e-08 -0.000999983)
(1.46869e-07 -7.8623e-08 -0.000999971)
(1.87187e-07 -8.89346e-08 -0.000999954)
(2.38897e-07 -9.91441e-08 -0.00099993)
(3.05359e-07 -1.08361e-07 -0.000999895)
(3.90952e-07 -1.15253e-07 -0.000999846)
(5.01393e-07 -1.17826e-07 -0.000999778)
(6.44153e-07 -1.13155e-07 -0.000999682)
(8.29011e-07 -9.69983e-08 -0.000999548)
(1.06878e-06 -6.3303e-08 -0.000999365)
(1.38016e-06 -3.6824e-09 -0.000999114)
(1.78499e-06 9.3471e-08 -0.000998771)
(2.3121e-06 2.44678e-07 -0.000998302)
(2.99934e-06 4.72772e-07 -0.000997665)
(3.89641e-06 8.09167e-07 -0.000996799)
(5.06862e-06 1.29683e-06 -0.000995628)
(6.60182e-06 1.99438e-06 -0.000994044)
(8.60901e-06 2.98156e-06 -0.000991901)
(1.12398e-05 4.36706e-06 -0.000989001)
(1.46957e-05 6.30027e-06 -0.000985172)
(1.92597e-05 8.99251e-06 -0.000980362)
(2.5333e-05 1.27542e-05 -0.000973781)
(3.33334e-05 1.7977e-05 -0.000960346)
(4.21285e-05 2.40969e-05 -0.000934589)
(4.88706e-05 2.9434e-05 -0.000927988)
(5.02156e-05 3.23208e-05 -0.00110759)
(4.07642e-05 2.83393e-05 -0.000302327)
(-7.80874e-05 -4.95745e-05 -0.00210645)
(3.01077e-06 1.58089e-06 -0.00157478)
(3.75916e-05 7.73552e-06 -0.00163193)
(6.04121e-05 3.68539e-05 -0.00287625)
(-3.87957e-06 1.64234e-06 -0.0015372)
(-6.67595e-05 -5.0516e-05 -0.00275934)
(-5.48254e-05 -1.56448e-05 -0.00201043)
(-5.43676e-05 7.9795e-05 -0.00252417)
(-4.83204e-05 6.13499e-05 -0.00200149)
(-4.50828e-05 2.43781e-05 -0.00268123)
(-5.51885e-05 -3.56351e-05 -0.00162874)
(-8.4934e-05 -4.89093e-05 -0.00276366)
(-3.61594e-05 -2.6341e-05 -0.00112799)
(-4.24732e-05 -3.68261e-05 -0.0020044)
(7.66197e-06 -4.30573e-05 -0.00107437)
(-1.94215e-05 -5.00591e-05 -0.000943669)
(-1.31867e-05 -4.44504e-05 -0.000950919)
(-7.98228e-06 -3.51837e-05 -0.000972945)
(-4.61916e-06 -2.70823e-05 -0.00098132)
(-2.43792e-06 -2.08062e-05 -0.000986427)
(-9.82458e-07 -1.59915e-05 -0.00099024)
(-3.76103e-08 -1.23046e-05 -0.000993098)
(5.48706e-07 -9.47927e-06 -0.000995164)
(8.9331e-07 -7.30849e-06 -0.000996651)
(1.06999e-06 -5.64011e-06 -0.000997732)
(1.13367e-06 -4.35697e-06 -0.000998507)
(1.12392e-06 -3.36937e-06 -0.000999057)
(1.06868e-06 -2.60864e-06 -0.000999442)
(9.87376e-07 -2.02217e-06 -0.000999706)
(8.93317e-07 -1.56964e-06 -0.000999885)
(7.95428e-07 -1.22008e-06 -0.001)
(6.99482e-07 -9.49731e-07 -0.00100007)
(6.08996e-07 -7.40344e-07 -0.00100012)
(5.25845e-07 -5.77917e-07 -0.00100014)
(4.50934e-07 -4.51713e-07 -0.00100014)
(3.84485e-07 -3.53508e-07 -0.00100014)
(3.26353e-07 -2.76995e-07 -0.00100014)
(2.75991e-07 -2.17322e-07 -0.00100012)
(2.327e-07 -1.70749e-07 -0.00100011)
(1.95731e-07 -1.34387e-07 -0.0010001)
(1.64336e-07 -1.06002e-07 -0.00100009)
(1.37814e-07 -8.38572e-08 -0.00100008)
(1.15523e-07 -6.66052e-08 -0.00100006)
(9.68941e-08 -5.31953e-08 -0.00100005)
(8.14298e-08 -4.28086e-08 -0.00100004)
(6.87029e-08 -3.48071e-08 -0.00100004)
(5.83451e-08 -2.86932e-08 -0.00100003)
(5.00219e-08 -2.40678e-08 -0.00100002)
(4.34124e-08 -2.05827e-08 -0.00100002)
(3.83944e-08 -1.80007e-08 -0.00100001)
(3.62369e-08 -1.68521e-08 -0.00100001)
)
;
    }
}


// ************************************************************************* //
