/*--------------------------------*- C++ -*----------------------------------*\
| =========                 |                                                 |
| \\      /  F ield         | OpenFOAM: The Open Source CFD Toolbox           |
|  \\    /   O peration     | Version:  5.x                                   |
|   \\  /    A nd           | Web:      www.OpenFOAM.org                      |
|    \\/     M anipulation  |                                                 |
\*---------------------------------------------------------------------------*/
FoamFile
{
    version     2.0;
    format      ascii;
    class       volVectorField;
    location    "600";
    object      stored_U;
}
// * * * * * * * * * * * * * * * * * * * * * * * * * * * * * * * * * * * * * //

dimensions      [0 1 -1 0 0 0 0];

internalField   nonuniform List<vector> 
90
(
(2.67276e-09 -3.53431e-09 -0.00100003)
(4.95908e-09 -6.92826e-09 -0.00100003)
(7.77006e-09 -1.10152e-08 -0.00100003)
(1.09702e-08 -1.5644e-08 -0.00100004)
(1.46888e-08 -2.10065e-08 -0.00100005)
(1.91177e-08 -2.73709e-08 -0.00100005)
(2.44987e-08 -3.50682e-08 -0.00100006)
(3.11369e-08 -4.45107e-08 -0.00100008)
(3.94203e-08 -5.62149e-08 -0.0010001)
(4.98438e-08 -7.08316e-08 -0.00100012)
(6.30414e-08 -8.91834e-08 -0.00100015)
(7.98265e-08 -1.12313e-07 -0.00100019)
(1.01244e-07 -1.41545e-07 -0.00100023)
(1.28642e-07 -1.78567e-07 -0.00100029)
(1.63757e-07 -2.2553e-07 -0.00100037)
(2.08838e-07 -2.85181e-07 -0.00100046)
(2.66802e-07 -3.61027e-07 -0.00100058)
(3.4144e-07 -4.57556e-07 -0.00100073)
(4.3769e-07 -5.80671e-07 -0.00100093)
(5.62007e-07 -7.37973e-07 -0.00100117)
(7.22838e-07 -9.39311e-07 -0.00100149)
(9.31274e-07 -1.19746e-06 -0.00100189)
(1.20186e-06 -1.52905e-06 -0.00100241)
(1.55361e-06 -1.95571e-06 -0.00100308)
(2.01156e-06 -2.50567e-06 -0.00100393)
(2.60875e-06 -3.21576e-06 -0.00100504)
(3.3887e-06 -4.13415e-06 -0.00100646)
(4.40876e-06 -5.32387e-06 -0.00100829)
(5.74467e-06 -6.86755e-06 -0.00101067)
(7.49647e-06 -8.87367e-06 -0.00101375)
(9.79651e-06 -1.14847e-05 -0.00101773)
(1.28204e-05 -1.48885e-05 -0.00102296)
(1.68038e-05 -1.93363e-05 -0.00103003)
(2.20691e-05 -2.51776e-05 -0.00103919)
(2.90305e-05 -3.28602e-05 -0.0010467)
(3.78177e-05 -4.23897e-05 -0.00104435)
(4.66759e-05 -5.09e-05 -0.00108199)
(4.99873e-05 -5.20297e-05 -0.00134129)
(4.64517e-05 -5.12817e-05 -0.000361152)
(-6.30689e-05 9.66574e-05 -0.00277116)
(1.23538e-06 -5.20754e-06 -0.00131462)
(6.20054e-05 -0.000107139 -0.00294668)
(4.86926e-05 -5.46108e-05 -0.00232962)
(7.34386e-06 -7.06661e-05 -0.00316679)
(-6.30329e-05 -6.46412e-05 -0.00217482)
(-8.23111e-05 -3.6301e-05 -0.00321164)
(-5.74567e-05 4.63002e-05 -0.00225073)
(-7.46616e-05 0.000164138 -0.00334924)
(-5.03349e-05 4.94113e-05 -0.00180071)
(-9.68632e-05 -5.54321e-06 -0.00330912)
(-7.80543e-05 -1.33381e-05 -0.00205253)
(-5.63029e-05 1.23014e-05 -0.00204035)
(-1.23822e-05 0.000116073 -0.00205089)
(3.28319e-05 7.13421e-05 -0.00144741)
(-1.42715e-05 4.86286e-05 -0.000916312)
(-1.16387e-05 3.45902e-05 -0.00101747)
(-6.18009e-06 2.44297e-05 -0.00101574)
(-3.07577e-06 1.78857e-05 -0.00100914)
(-1.16046e-06 1.3155e-05 -0.00100482)
(5.71864e-08 9.65289e-06 -0.00100229)
(8.01619e-07 7.05935e-06 -0.00100073)
(1.23099e-06 5.13859e-06 -0.00099975)
(1.444e-06 3.72102e-06 -0.000999143)
(1.50943e-06 2.68001e-06 -0.000998792)
(1.47943e-06 1.91882e-06 -0.000998628)
(1.39198e-06 1.3644e-06 -0.00099859)
(1.27347e-06 9.62178e-07 -0.000998633)
(1.14156e-06 6.71679e-07 -0.000998723)
(1.00769e-06 4.62943e-07 -0.000998838)
(8.78906e-07 3.13857e-07 -0.000998962)
(7.59292e-07 2.08122e-07 -0.000999086)
(6.50913e-07 1.33752e-07 -0.000999205)
(5.54508e-07 8.1961e-08 -0.000999314)
(4.69964e-07 4.63339e-08 -0.000999413)
(3.96652e-07 2.22011e-08 -0.000999501)
(3.33655e-07 6.17866e-09 -0.000999578)
(2.79876e-07 -4.07836e-09 -0.000999645)
(2.34247e-07 -1.03508e-08 -0.000999703)
(1.95707e-07 -1.38535e-08 -0.000999754)
(1.6327e-07 -1.5445e-08 -0.000999797)
(1.36053e-07 -1.57351e-08 -0.000999834)
(1.1329e-07 -1.51651e-08 -0.000999866)
(9.43262e-08 -1.40595e-08 -0.000999892)
(7.86199e-08 -1.26626e-08 -0.000999915)
(6.57268e-08 -1.11638e-08 -0.000999933)
(5.52879e-08 -9.71461e-09 -0.000999949)
(4.70051e-08 -8.43287e-09 -0.000999962)
(4.05983e-08 -7.39748e-09 -0.000999972)
(3.58221e-08 -6.59591e-09 -0.000999982)
(3.35784e-08 -6.16522e-09 -0.000999989)
)
;

boundaryField
{
    inlet
    {
        type            calculated;
        value           uniform (3.35784e-08 -6.16522e-09 -0.000999989);
    }
    outlet
    {
        type            calculated;
        value           uniform (2.67276e-09 -3.53431e-09 -0.00100003);
    }
    repeat_boundary
    {
        type            calculated;
        value           nonuniform List<vector> 
180
(
(2.67276e-09 0 -0.00100003)
(4.95908e-09 0 -0.00100003)
(7.77006e-09 0 -0.00100003)
(1.09702e-08 0 -0.00100004)
(1.46888e-08 0 -0.00100005)
(1.91177e-08 0 -0.00100005)
(2.44987e-08 0 -0.00100006)
(3.11369e-08 0 -0.00100008)
(3.94203e-08 0 -0.0010001)
(4.98438e-08 0 -0.00100012)
(6.30414e-08 0 -0.00100015)
(7.98265e-08 0 -0.00100019)
(1.01244e-07 0 -0.00100023)
(1.28642e-07 0 -0.00100029)
(1.63757e-07 0 -0.00100037)
(2.08838e-07 0 -0.00100046)
(2.66802e-07 0 -0.00100058)
(3.4144e-07 0 -0.00100073)
(4.3769e-07 0 -0.00100093)
(5.62007e-07 0 -0.00100117)
(7.22838e-07 0 -0.00100149)
(9.31274e-07 0 -0.00100189)
(1.20186e-06 0 -0.00100241)
(1.55361e-06 0 -0.00100308)
(2.01156e-06 0 -0.00100393)
(2.60875e-06 0 -0.00100504)
(3.3887e-06 0 -0.00100646)
(4.40876e-06 0 -0.00100829)
(5.74467e-06 0 -0.00101067)
(7.49647e-06 0 -0.00101375)
(9.79651e-06 0 -0.00101773)
(1.28204e-05 0 -0.00102296)
(1.68038e-05 0 -0.00103003)
(2.20691e-05 0 -0.00103919)
(2.90305e-05 0 -0.0010467)
(3.78177e-05 0 -0.00104435)
(4.66759e-05 0 -0.00108199)
(4.99873e-05 0 -0.00134129)
(4.64517e-05 0 -0.000361152)
(-6.30689e-05 0 -0.00277116)
(1.23538e-06 0 -0.00131462)
(6.20054e-05 0 -0.00294668)
(4.86926e-05 0 -0.00232962)
(7.34386e-06 0 -0.00316679)
(-6.30329e-05 0 -0.00217482)
(-8.23111e-05 0 -0.00321164)
(-5.74567e-05 0 -0.00225073)
(-7.46616e-05 0 -0.00334924)
(-5.03349e-05 0 -0.00180071)
(-9.68632e-05 0 -0.00330912)
(-7.80543e-05 0 -0.00205253)
(-5.63029e-05 0 -0.00204035)
(-1.23822e-05 0 -0.00205089)
(3.28319e-05 0 -0.00144741)
(-1.42715e-05 0 -0.000916312)
(-1.16387e-05 0 -0.00101747)
(-6.18009e-06 0 -0.00101574)
(-3.07577e-06 0 -0.00100914)
(-1.16046e-06 0 -0.00100482)
(5.71864e-08 0 -0.00100229)
(8.01619e-07 0 -0.00100073)
(1.23099e-06 0 -0.00099975)
(1.444e-06 0 -0.000999143)
(1.50943e-06 0 -0.000998792)
(1.47943e-06 0 -0.000998628)
(1.39198e-06 0 -0.00099859)
(1.27347e-06 0 -0.000998633)
(1.14156e-06 0 -0.000998723)
(1.00769e-06 0 -0.000998838)
(8.78906e-07 0 -0.000998962)
(7.59292e-07 0 -0.000999086)
(6.50913e-07 0 -0.000999205)
(5.54508e-07 0 -0.000999314)
(4.69964e-07 0 -0.000999413)
(3.96652e-07 0 -0.000999501)
(3.33655e-07 0 -0.000999578)
(2.79876e-07 0 -0.000999645)
(2.34247e-07 0 -0.000999703)
(1.95707e-07 0 -0.000999754)
(1.6327e-07 0 -0.000999797)
(1.36053e-07 0 -0.000999834)
(1.1329e-07 0 -0.000999866)
(9.43262e-08 0 -0.000999892)
(7.86199e-08 0 -0.000999915)
(6.57268e-08 0 -0.000999933)
(5.52879e-08 0 -0.000999949)
(4.70051e-08 0 -0.000999962)
(4.05983e-08 0 -0.000999972)
(3.58221e-08 0 -0.000999982)
(3.35784e-08 0 -0.000999989)
(0 -3.53431e-09 -0.00100003)
(0 -6.92826e-09 -0.00100003)
(0 -1.10152e-08 -0.00100003)
(0 -1.5644e-08 -0.00100004)
(0 -2.10065e-08 -0.00100005)
(0 -2.73709e-08 -0.00100005)
(0 -3.50682e-08 -0.00100006)
(0 -4.45107e-08 -0.00100008)
(0 -5.62149e-08 -0.0010001)
(0 -7.08316e-08 -0.00100012)
(0 -8.91834e-08 -0.00100015)
(0 -1.12313e-07 -0.00100019)
(0 -1.41545e-07 -0.00100023)
(0 -1.78567e-07 -0.00100029)
(0 -2.2553e-07 -0.00100037)
(0 -2.85181e-07 -0.00100046)
(0 -3.61027e-07 -0.00100058)
(0 -4.57556e-07 -0.00100073)
(0 -5.80671e-07 -0.00100093)
(0 -7.37973e-07 -0.00100117)
(0 -9.39311e-07 -0.00100149)
(0 -1.19746e-06 -0.00100189)
(0 -1.52905e-06 -0.00100241)
(0 -1.95571e-06 -0.00100308)
(0 -2.50567e-06 -0.00100393)
(0 -3.21576e-06 -0.00100504)
(0 -4.13415e-06 -0.00100646)
(0 -5.32387e-06 -0.00100829)
(0 -6.86755e-06 -0.00101067)
(0 -8.87367e-06 -0.00101375)
(0 -1.14847e-05 -0.00101773)
(0 -1.48885e-05 -0.00102296)
(0 -1.93363e-05 -0.00103003)
(0 -2.51776e-05 -0.00103919)
(0 -3.28602e-05 -0.0010467)
(0 -4.23897e-05 -0.00104435)
(0 -5.09e-05 -0.00108199)
(0 -5.20297e-05 -0.00134129)
(0 -5.12817e-05 -0.000361152)
(0 9.66574e-05 -0.00277116)
(0 -5.20754e-06 -0.00131462)
(0 -0.000107139 -0.00294668)
(0 -5.46108e-05 -0.00232962)
(0 -7.06661e-05 -0.00316679)
(0 -6.46412e-05 -0.00217482)
(0 -3.6301e-05 -0.00321164)
(0 4.63002e-05 -0.00225073)
(0 0.000164138 -0.00334924)
(0 4.94113e-05 -0.00180071)
(0 -5.54321e-06 -0.00330912)
(0 -1.33381e-05 -0.00205253)
(0 1.23014e-05 -0.00204035)
(0 0.000116073 -0.00205089)
(0 7.13421e-05 -0.00144741)
(0 4.86286e-05 -0.000916312)
(0 3.45902e-05 -0.00101747)
(0 2.44297e-05 -0.00101574)
(0 1.78857e-05 -0.00100914)
(0 1.3155e-05 -0.00100482)
(0 9.65289e-06 -0.00100229)
(0 7.05935e-06 -0.00100073)
(0 5.13859e-06 -0.00099975)
(0 3.72102e-06 -0.000999143)
(0 2.68001e-06 -0.000998792)
(0 1.91882e-06 -0.000998628)
(0 1.3644e-06 -0.00099859)
(0 9.62178e-07 -0.000998633)
(0 6.71679e-07 -0.000998723)
(0 4.62943e-07 -0.000998838)
(0 3.13857e-07 -0.000998962)
(0 2.08122e-07 -0.000999086)
(0 1.33752e-07 -0.000999205)
(0 8.1961e-08 -0.000999314)
(0 4.63339e-08 -0.000999413)
(0 2.22011e-08 -0.000999501)
(0 6.17866e-09 -0.000999578)
(0 -4.07836e-09 -0.000999645)
(0 -1.03508e-08 -0.000999703)
(0 -1.38535e-08 -0.000999754)
(0 -1.5445e-08 -0.000999797)
(0 -1.57351e-08 -0.000999834)
(0 -1.51651e-08 -0.000999866)
(0 -1.40595e-08 -0.000999892)
(0 -1.26626e-08 -0.000999915)
(0 -1.11638e-08 -0.000999933)
(0 -9.71461e-09 -0.000999949)
(0 -8.43287e-09 -0.000999962)
(0 -7.39748e-09 -0.000999972)
(0 -6.59591e-09 -0.000999982)
(0 -6.16522e-09 -0.000999989)
)
;
    }
    procBoundary2to0
    {
        type            processor;
        value           nonuniform List<vector> 
90
(
(1.6204e-09 -3.53398e-09 -0.000999992)
(2.58288e-09 -6.92819e-09 -0.000999991)
(3.82519e-09 -1.10158e-08 -0.00099999)
(5.19346e-09 -1.56445e-08 -0.000999988)
(6.68787e-09 -2.1007e-08 -0.000999986)
(8.32023e-09 -2.73707e-08 -0.000999982)
(1.00907e-08 -3.50671e-08 -0.000999978)
(1.19789e-08 -4.45101e-08 -0.000999971)
(1.39363e-08 -5.62143e-08 -0.000999963)
(1.58771e-08 -7.08307e-08 -0.000999952)
(1.76636e-08 -8.9182e-08 -0.000999938)
(1.90871e-08 -1.12311e-07 -0.000999919)
(1.98409e-08 -1.41542e-07 -0.000999895)
(1.94839e-08 -1.78562e-07 -0.000999863)
(1.73912e-08 -2.25521e-07 -0.000999822)
(1.26907e-08 -2.85167e-07 -0.000999769)
(4.19363e-09 -3.61004e-07 -0.000999701)
(-9.72271e-09 -4.57518e-07 -0.000999612)
(-3.15651e-08 -5.80607e-07 -0.000999496)
(-6.47507e-08 -7.37868e-07 -0.000999344)
(-1.13993e-07 -9.39135e-07 -0.000999145)
(-1.85796e-07 -1.19717e-06 -0.000998884)
(-2.8907e-07 -1.52855e-06 -0.000998543)
(-4.35896e-07 -1.95487e-06 -0.000998094)
(-6.428e-07 -2.50423e-06 -0.000997503)
(-9.32315e-07 -3.21331e-06 -0.000996726)
(-1.335e-06 -4.12995e-06 -0.000995703)
(-1.89216e-06 -5.31663e-06 -0.000994354)
(-2.65955e-06 -6.85506e-06 -0.000992575)
(-3.71228e-06 -8.85209e-06 -0.000990226)
(-5.15144e-06 -1.14477e-05 -0.000987122)
(-7.11412e-06 -1.48277e-05 -0.000983063)
(-9.79429e-06 -1.92528e-05 -0.00097786)
(-1.34961e-05 -2.51332e-05 -0.000970703)
(-1.86662e-05 -3.30221e-05 -0.000957718)
(-2.42513e-05 -4.1176e-05 -0.000940232)
(-3.07135e-05 -5.04887e-05 -0.000941475)
(-3.29445e-05 -5.30943e-05 -0.00106306)
(-3.83481e-05 -5.62301e-05 -0.000382112)
(8.29385e-05 0.000107405 -0.00195031)
(-6.73199e-06 -7.59524e-06 -0.00168881)
(-4.10665e-05 -6.46742e-05 -0.00155148)
(-3.40099e-05 -5.34922e-05 -0.00240085)
(-7.26567e-05 -5.2514e-05 -0.00215889)
(-9.53963e-05 -6.8023e-05 -0.00242393)
(-6.24725e-05 -2.37016e-05 -0.0018225)
(-7.59487e-05 3.75294e-05 -0.00259837)
(-3.30094e-05 7.00686e-05 -0.00174849)
(1.92149e-06 9.83763e-05 -0.0023426)
(-6.77383e-05 -7.55858e-06 -0.00228026)
(-5.40928e-05 -1.4077e-05 -0.00165826)
(-3.16971e-05 1.08678e-05 -0.00162037)
(-2.38612e-05 3.16895e-05 -0.00181813)
(1.24613e-05 4.06196e-06 -0.000987114)
(6.9507e-05 3.57459e-05 -0.000873866)
(6.72572e-05 3.24272e-05 -0.000907467)
(5.32422e-05 2.44795e-05 -0.000936265)
(4.14656e-05 1.80229e-05 -0.000951533)
(3.23101e-05 1.32362e-05 -0.000962443)
(2.52143e-05 9.69638e-06 -0.000970946)
(1.97095e-05 7.08228e-06 -0.000977542)
(1.54322e-05 5.15068e-06 -0.000982624)
(1.21027e-05 3.72742e-06 -0.000986538)
(9.50665e-06 2.68341e-06 -0.000989557)
(7.47894e-06 1.92063e-06 -0.000991887)
(5.89256e-06 1.36537e-06 -0.000993688)
(4.64949e-06 9.62699e-07 -0.000995083)
(3.67389e-06 6.71959e-07 -0.000996164)
(2.90704e-06 4.63093e-07 -0.000997003)
(2.30335e-06 3.13938e-07 -0.000997654)
(1.82737e-06 2.08166e-07 -0.000998161)
(1.45152e-06 1.33775e-07 -0.000998556)
(1.15429e-06 8.19736e-08 -0.000998864)
(9.18898e-07 4.63407e-08 -0.000999105)
(7.32219e-07 2.22048e-08 -0.000999293)
(5.83994e-07 6.18071e-09 -0.000999442)
(4.66231e-07 -4.07722e-09 -0.000999559)
(3.72603e-07 -1.03502e-08 -0.000999652)
(2.98172e-07 -1.38531e-08 -0.000999727)
(2.39044e-07 -1.54448e-08 -0.000999786)
(1.92147e-07 -1.57349e-08 -0.000999835)
(1.55042e-07 -1.51649e-08 -0.000999873)
(1.25791e-07 -1.40592e-08 -0.000999904)
(1.02847e-07 -1.26624e-08 -0.000999929)
(8.49775e-08 -1.11642e-08 -0.000999948)
(7.11969e-08 -9.71476e-09 -0.000999962)
(6.07081e-08 -8.43297e-09 -0.000999973)
(5.28233e-08 -7.39744e-09 -0.000999981)
(4.69949e-08 -6.59579e-09 -0.000999988)
(4.42477e-08 -6.16507e-09 -0.000999991)
)
;
    }
    procBoundary2to3
    {
        type            processor;
        value           nonuniform List<vector> 
90
(
(2.67238e-09 -2.48199e-09 -0.001)
(4.95897e-09 -4.55206e-09 -0.001)
(7.77064e-09 -7.07022e-09 -0.001)
(1.09705e-08 -9.86705e-09 -0.001)
(1.4689e-08 -1.30054e-08 -0.001)
(1.91177e-08 -1.65735e-08 -0.001)
(2.44981e-08 -2.06604e-08 -0.001)
(3.11366e-08 -2.53526e-08 -0.001)
(3.94199e-08 -3.07309e-08 -0.001)
(4.98432e-08 -3.68647e-08 -0.000999999)
(6.30405e-08 -4.38053e-08 -0.000999996)
(7.9825e-08 -5.15733e-08 -0.00099999)
(1.01242e-07 -6.01413e-08 -0.000999983)
(1.28638e-07 -6.94084e-08 -0.000999971)
(1.6375e-07 -7.9163e-08 -0.000999955)
(2.08827e-07 -8.90314e-08 -0.000999933)
(2.66785e-07 -9.84147e-08 -0.000999902)
(3.41411e-07 -1.06386e-07 -0.000999858)
(4.37643e-07 -1.11403e-07 -0.000999798)
(5.61928e-07 -1.11196e-07 -0.000999715)
(7.22706e-07 -1.02446e-07 -0.000999601)
(9.31052e-07 -8.03375e-08 -0.000999444)
(1.20149e-06 -3.8024e-08 -0.00099923)
(1.55297e-06 3.39476e-08 -0.000998938)
(2.01047e-06 1.48948e-07 -0.00099854)
(2.60685e-06 3.25726e-07 -0.000997997)
(3.38539e-06 5.9024e-07 -0.00099726)
(4.40299e-06 9.78207e-07 -0.000996261)
(5.73457e-06 1.5386e-06 -0.000994909)
(7.47881e-06 2.33829e-06 -0.000993079)
(9.766e-06 3.46858e-06 -0.000990605)
(1.27707e-05 5.05506e-06 -0.00098731)
(1.67385e-05 7.27597e-06 -0.000983085)
(2.20415e-05 1.03994e-05 -0.000977249)
(2.91396e-05 1.47961e-05 -0.000965638)
(3.70921e-05 2.00409e-05 -0.000945153)
(4.6027e-05 2.63239e-05 -0.000941672)
(5.12096e-05 3.09988e-05 -0.00111249)
(5.17334e-05 3.34795e-05 -0.000313441)
(-6.41238e-05 -4.17127e-05 -0.00210881)
(2.51365e-06 1.94593e-06 -0.00157068)
(3.62604e-05 1.00764e-05 -0.00164778)
(5.71697e-05 3.28864e-05 -0.00283494)
(-6.81845e-06 8.41813e-06 -0.00161942)
(-6.80187e-05 -3.93856e-05 -0.00269189)
(-6.29702e-05 -1.20037e-05 -0.00204984)
(-6.1353e-05 8.42801e-05 -0.00251182)
(-5.79902e-05 6.80234e-05 -0.00200566)
(-5.46788e-05 3.14231e-05 -0.00268218)
(-6.76708e-05 -2.58851e-05 -0.00163085)
(-9.48236e-05 -4.23048e-05 -0.00276756)
(-5.13673e-05 -1.73451e-05 -0.00112797)
(-6.52663e-05 -2.06808e-05 -0.00200094)
(4.17111e-06 -3.38939e-05 -0.00105482)
(-1.75295e-05 -4.89306e-05 -0.000951422)
(-1.12006e-05 -4.46838e-05 -0.00095502)
(-6.28397e-06 -3.48275e-05 -0.000975636)
(-3.17769e-06 -2.65692e-05 -0.000983589)
(-1.21714e-06 -2.02653e-05 -0.000988471)
(2.78979e-08 -1.54733e-05 -0.000992026)
(7.86684e-07 -1.18293e-05 -0.000994577)
(1.22342e-06 -9.05049e-06 -0.000996373)
(1.44016e-06 -6.93001e-06 -0.000997657)
(1.50744e-06 -5.31231e-06 -0.000998568)
(1.47842e-06 -4.07751e-06 -0.000999196)
(1.39145e-06 -3.13414e-06 -0.000999618)
(1.27318e-06 -2.41253e-06 -0.000999893)
(1.1414e-06 -1.85982e-06 -0.00100007)
(1.00759e-06 -1.43588e-06 -0.00100017)
(8.78842e-07 -1.11026e-06 -0.00100022)
(7.59248e-07 -8.59754e-07 -0.00100024)
(6.50883e-07 -6.66732e-07 -0.00100024)
(5.54487e-07 -5.17746e-07 -0.00100023)
(4.69949e-07 -4.02551e-07 -0.00100021)
(3.96641e-07 -3.13336e-07 -0.00100019)
(3.33647e-07 -2.44142e-07 -0.00100017)
(2.7987e-07 -1.90422e-07 -0.00100015)
(2.34244e-07 -1.487e-07 -0.00100013)
(1.95705e-07 -1.16314e-07 -0.00100011)
(1.63268e-07 -9.12163e-08 -0.0010001)
(1.36052e-07 -7.1827e-08 -0.00100009)
(1.13289e-07 -5.69166e-08 -0.00100008)
(9.43258e-08 -4.55234e-08 -0.00100007)
(7.86196e-08 -3.68896e-08 -0.00100006)
(6.57262e-08 -3.0415e-08 -0.00100005)
(5.52873e-08 -2.56237e-08 -0.00100004)
(4.7003e-08 -2.21353e-08 -0.00100004)
(4.05904e-08 -1.96194e-08 -0.00100003)
(3.58309e-08 -1.77718e-08 -0.00100002)
(3.358e-08 -1.68348e-08 -0.00100001)
)
;
    }
}


// ************************************************************************* //
