/*--------------------------------*- C++ -*----------------------------------*\
| =========                 |                                                 |
| \\      /  F ield         | OpenFOAM: The Open Source CFD Toolbox           |
|  \\    /   O peration     | Version:  5.x                                   |
|   \\  /    A nd           | Web:      www.OpenFOAM.org                      |
|    \\/     M anipulation  |                                                 |
\*---------------------------------------------------------------------------*/
FoamFile
{
    version     2.0;
    format      ascii;
    class       volScalarField;
    location    "300";
    object      p;
}
// * * * * * * * * * * * * * * * * * * * * * * * * * * * * * * * * * * * * * //

dimensions      [0 2 -2 0 0 0 0];

internalField   nonuniform List<scalar> 
90
(
0.0133514
0.074125
0.162476
0.190104
0.201399
0.253522
0.297632
0.318196
0.394544
0.445567
0.461284
0.556873
0.69382
0.716684
0.715526
0.790149
0.919265
1.03487
1.14789
1.25315
1.35493
1.45492
1.55706
1.66135
1.76652
1.87185
1.97689
2.0812
2.18447
2.28652
2.38731
2.4869
2.58542
2.68294
2.77956
2.87544
2.97072
3.06545
3.15951
3.25257
3.344
3.43287
3.51797
3.59781
3.67044
3.73313
3.78308
3.81816
3.83645
3.83603
3.81517
3.77248
3.707
3.61825
3.50628
3.37142
3.21408
3.03466
2.83398
2.61339
2.37442
2.11875
1.84797
1.56338
1.2664
0.959198
0.644401
0.324928
0.00315977
-0.319141
-0.64042
-0.960136
-1.27775
-1.59318
-1.90588
-2.21601
-2.5225
-2.82468
-3.12181
-3.41198
-3.69422
-3.96543
-4.22391
-4.46721
-4.69396
-4.89393
-5.04958
-5.17794
-5.38603
-5.72022
)
;

boundaryField
{
    inlet
    {
        type            zeroGradient;
    }
    outlet
    {
        type            fixedValue;
        value           uniform 0;
    }
    repeat_boundary
    {
        type            zeroGradient;
    }
    procBoundary2to0
    {
        type            processor;
        value           nonuniform List<scalar> 
90
(
0.00854417
0.0556929
0.139097
0.181119
0.164702
0.157403
0.199434
0.287466
0.378814
0.4207
0.488884
0.592645
0.663444
0.741831
0.8452
0.94739
1.0506
1.15658
1.26259
1.36868
1.47399
1.57834
1.68282
1.78672
1.88995
1.99227
2.09321
2.1922
2.28858
2.38163
2.47061
2.55472
2.63321
2.70537
2.77052
2.8279
2.87671
2.91619
2.94569
2.9647
2.97287
2.97005
2.95635
2.93216
2.89782
2.85343
2.79898
2.73445
2.66007
2.57628
2.48357
2.38243
2.27343
2.15704
2.03345
1.90227
1.76282
1.6145
1.45713
1.29132
1.11845
0.940466
0.759278
0.576013
0.390371
0.200269
0.0023031
-0.207205
-0.431328
-0.672257
-0.931438
-1.20982
-1.50799
-1.82568
-2.1618
-2.51446
-2.88126
-3.25956
-3.64602
-4.03763
-4.43145
-4.82525
-5.21633
-5.60143
-5.97794
-6.34802
-6.71752
-7.07957
-7.38342
-7.50511
)
;
    }
    procBoundary2to3
    {
        type            processor;
        value           nonuniform List<scalar> 
90
(
0.00666042
0.0279954
0.049199
0.0785714
0.139863
0.201262
0.259432
0.343406
0.433951
0.528035
0.625153
0.730312
0.841942
0.930133
0.969821
1.03215
1.10756
1.18603
1.23466
1.2476
1.2998
1.34821
1.41713
1.55615
1.71335
1.86416
2.01269
2.15792
2.30093
2.44234
2.58246
2.72113
2.85791
2.99193
3.12201
3.24666
3.36416
3.47269
3.57051
3.65609
3.72833
3.78673
3.83138
3.863
3.88308
3.89394
3.89777
3.89567
3.8878
3.87332
3.85009
3.81466
3.76242
3.68788
3.58542
3.45039
3.27963
3.07166
2.82629
2.5445
2.22866
1.88242
1.51067
1.11943
0.7151
0.303748
-0.108866
-0.517332
-0.917297
-1.30632
-1.68366
-2.04837
-2.39764
-2.72922
-3.04335
-3.34089
-3.62176
-3.88548
-4.13104
-4.35695
-4.5619
-4.74466
-4.9044
-5.0411
-5.15636
-5.25476
-5.33972
-5.39511
-5.37558
-5.25615
)
;
    }
}


// ************************************************************************* //
