FoamFile
{version 2.0; format ascii;class Cloud<passiveParticle>; location 0;object  positions;}
356
(
( -0.00268221 -0.00397701 0.000498312 ) 0 
( -0.00293297 -0.00299383 0.000499076 ) 0 
( -0.00296301 -0.00103306 0.000498371 ) 0 
( -0.00161966 -0.00420573 0.000497754 ) 0 
( -0.00437891 -0.00438553 0.000498221 ) 0 
( -0.000995847 -0.00306764 0.000498098 ) 0 
( -0.000343668 -0.00231222 0.000498489 ) 0 
( -0.00392632 -0.000760468 0.000497127 ) 0 
( -0.00485007 -0.00242946 0.000497701 ) 0 
( -0.00273154 -0.00200803 0.000499159 ) 0 
( -0.000495127 -0.00499151 0.000498252 ) 0 
( -0.00342172 -0.00467337 0.000498042 ) 0 
( -0.00369139 -0.00173219 0.000499781 ) 0 
( -0.00286899 -0.00148956 0.00138072 ) 0 
( -0.00364164 -0.00369833 0.000497533 ) 0 
( -0.00424497 -0.00214515 0.00123915 ) 0 
( -0.00244289 -0.00494689 0.000498607 ) 0 
( -0.0020019 -0.00130955 0.000496952 ) 0 
( -0.00389157 -0.00271275 0.000497888 ) 0 
( -0.00464963 -0.00145061 0.000498646 ) 0 
( -0.0019736 -0.00327152 0.000498787 ) 0 
( -0.00319422 -6.1348e-05 0.000497776 ) 0 
( -0.00177437 -0.00229202 0.000497725 ) 0 
( -0.00308358 -0.00356874 0.00131661 ) 0 
( -0.00125563 -0.000623579 0.000499204 ) 0 
( -0.00460552 -0.00341232 0.000497257 ) 0 
( -0.00223412 -0.000338189 0.000497863 ) 0 
( -0.00328166 -0.00240921 0.00123088 ) 0 
( -0.00375653 -0.000205148 0.00130993 ) 0 
( -0.00232952 -0.00271152 0.00124497 ) 0 
( -0.00403983 -0.00327557 0.00130877 ) 0 
( -0.00192234 -0.00180647 0.00135713 ) 0 
( -0.000641142 -0.00400202 0.000498914 ) 0 
( -0.00477298 -0.00396199 0.00131308 ) 0 
( -0.00279042 -0.000483203 0.00131485 ) 0 
( -0.00455034 -0.00493499 0.00131447 ) 0 
( -0.00288343 -0.00463249 0.00133821 ) 0 
( -0.00104585 -0.00160127 0.000498813 ) 0 
( -0.00121653 -0.0046523 0.00129349 ) 0 
( -0.00483681 -0.000845859 0.00127086 ) 0 
( -0.00106068 -0.00233864 0.00119349 ) 0 
( -0.000312111 -0.00296845 0.00139474 ) 0 
( -0.00311246 -0.00292022 0.00207546 ) 0 
( -0.00381554 -0.00424928 0.00131166 ) 0 
( -0.000376366 -0.000708208 0.00111858 ) 0 
( -0.00385254 -0.0012357 0.00136982 ) 0 
( -0.00203862 -0.00483788 0.00183096 ) 0 
( -0.00499602 -0.00298807 0.00131228 ) 0 
( -0.00102595 -0.00138016 0.00147249 ) 0 
( -0.00139942 -0.00399195 0.00201831 ) 0 
( -0.000551447 -0.00393386 0.00149132 ) 0 
( -0.00253031 -0.00210894 0.00208907 ) 0 
( -0.00212668 -0.00397946 0.00132782 ) 0 
( -0.00160423 -0.00247733 0.00202278 ) 0 
( -0.00448295 -0.00161056 0.00204795 ) 0 
( -0.00110867 -6.36907e-05 0.00132711 ) 0 
( -0.00145636 -0.00323912 0.00136598 ) 0 
( -0.00218497 -0.00328913 0.00204642 ) 0 
( -0.00415313 -0.00460993 0.00217806 ) 0 
( -0.00407317 -0.00264916 0.00208422 ) 0 
( -0.00278926 -0.00407484 0.00216091 ) 0 
( -0.000205219 -0.00115378 0.00199672 ) 0 
( -0.00180788 -0.000776007 0.0013178 ) 0 
( -0.00349199 -0.0018372 0.00207883 ) 0 
( -0.00371914 -0.00371099 0.00214715 ) 0 
( -0.00468076 -0.00343784 0.00215743 ) 0 
( -0.000580362 -0.00207978 0.00202954 ) 0 
( -0.00328569 -0.000854487 0.00209881 ) 0 
( -0.00110381 -0.000650196 0.00214892 ) 0 
( -0.000264132 -0.000151308 0.00193994 ) 0 
( -0.00249291 -0.00277948 0.0028469 ) 0 
( -0.00425897 -0.000635529 0.00205725 ) 0 
( -0.000791541 -0.00137463 0.00277476 ) 0 
( -0.00383395 -0.00027516 0.00297277 ) 0 
( -0.00390269 -0.00125215 0.00277685 ) 0 
( -0.00330999 -0.00222104 0.00298069 ) 0 
( -0.00275484 -0.000179661 0.00287487 ) 0 
( -0.00186307 -0.00375521 0.00286953 ) 0 
( -0.00018759 -0.000583328 0.00283622 ) 0 
( -0.00229758 -0.000740276 0.00218645 ) 0 
( -0.000606058 -0.00475463 0.00207549 ) 0 
( -0.000887787 -0.003151 0.00219043 ) 0 
( -0.00101456 -2.53534e-05 0.00292339 ) 0 
( -0.00277566 -0.00140752 0.00275552 ) 0 
( -0.00147368 -0.00469478 0.00272295 ) 0 
( -0.00163863 -0.00148755 0.00225898 ) 0 
( -0.000690261 -0.00399881 0.00272203 ) 0 
( -0.00491958 -0.00404279 0.00291455 ) 0 
( -0.00108341 -0.0023249 0.00286032 ) 0 
( -0.00435993 -0.00213547 0.00288933 ) 0 
( -0.00462474 -0.00499486 0.0029694 ) 0 
( -0.000212569 -0.00362765 0.0035228 ) 0 
( -0.00364316 -0.00316081 0.00297569 ) 0 
( -0.00475081 -0.000713627 0.00292119 ) 0 
( -0.00280802 -0.00366794 0.00317863 ) 0 
( -0.00326899 -0.000926542 0.00347715 ) 0 
( -0.00347527 -0.00435652 0.0028696 ) 0 
( -0.00199502 -0.00194373 0.00307274 ) 0 
( -0.0010906 -0.00324616 0.00324297 ) 0 
( -0.00199874 -0.00312969 0.00364092 ) 0 
( -0.00166898 -0.000778812 0.00296271 ) 0 
( -0.000231609 -0.00286055 0.00288457 ) 0 
( -0.00302401 -0.0044535 0.00375574 ) 0 
( -0.00292418 -0.00276178 0.00374762 ) 0 
( -0.00083848 -0.000765167 0.00357065 ) 0 
( -0.000179449 -0.00461251 0.00336264 ) 0 
( -0.00384777 -0.00172079 0.00365704 ) 0 
( -0.00484251 -0.00164568 0.00361141 ) 0 
( -0.00120343 -0.00169303 0.0036275 ) 0 
( -0.00278749 -0.00177319 0.00370222 ) 0 
( -0.000631707 -0.00250582 0.00373256 ) 0 
( -0.00111142 -0.00431292 0.00356997 ) 0 
( -0.0025854 -0.000301343 0.0038516 ) 0 
( -0.00411118 -0.00388349 0.00348007 ) 0 
( -0.00463208 -0.00309839 0.00309503 ) 0 
( -0.000215945 -0.00154094 0.00365958 ) 0 
( -0.00202922 -0.00113549 0.0038229 ) 0 
( -0.00243722 -0.00456818 0.00295335 ) 0 
( -0.0010812 -0.00210488 0.00452924 ) 0 
( -0.00339318 -0.00218457 0.00441484 ) 0 
( -0.0010258 -0.00354105 0.00419522 ) 0 
( -0.00453235 -0.00213561 0.00442487 ) 0 
( -0.000510326 -0.000126761 0.00426564 ) 0 
( -0.00402039 -0.00269752 0.00377622 ) 0 
( -0.00453567 -0.00461617 0.00400791 ) 0 
( -0.001954 -0.00221242 0.00403419 ) 0 
( -0.00392671 -0.00135747 0.00458456 ) 0 
( -0.00421844 -0.000799482 0.0037618 ) 0 
( -0.000160623 -0.00308615 0.00439487 ) 0 
( -0.00341626 -0.000524062 0.00437801 ) 0 
( -0.00287649 -0.0013352 0.00459407 ) 0 
( -0.00141362 -0.00462386 0.00446837 ) 0 
( -0.000404233 -0.00485462 0.00462894 ) 0 
( -0.00338005 -0.00358156 0.00409052 ) 0 
( -0.00430997 -0.00340459 0.0044201 ) 0 
( -3.50861e-05 -0.00209784 0.00446858 ) 0 
( -0.0020727 -0.00412679 0.00377303 ) 0 
( -0.00245337 -0.00348975 0.00445342 ) 0 
( -0.00449364 -0.000182493 0.00449722 ) 0 
( -0.00488196 -0.00110165 0.00444512 ) 0 
( -0.00159428 -0.000247937 0.00396782 ) 0 
( -0.00368661 -0.00443831 0.00450263 ) 0 
( -0.00250004 -0.00447643 0.0046059 ) 0 
( -0.0016446 -0.00291813 0.00466979 ) 0 
( -0.000377209 -0.00125584 0.00489111 ) 0 
( -0.00188647 -0.00477554 0.00533539 ) 0 
( -0.00396337 -0.00214404 0.00524552 ) 0 
( -0.00128355 -1.64812e-05 0.00488795 ) 0 
( -0.00252395 -0.00246852 0.00481504 ) 0 
( -0.00484113 -0.00420681 0.00486752 ) 0 
( -0.00144833 -0.00381829 0.00505615 ) 0 
( -0.00215985 -0.000645378 0.00468718 ) 0 
( -0.00195546 -0.00162811 0.00484455 ) 0 
( -0.00399229 -0.0038537 0.00525372 ) 0 
( -0.000456399 -0.00386178 0.00495134 ) 0 
( -0.00341663 -0.000945561 0.00533823 ) 0 
( -0.000777989 -0.00294035 0.00516612 ) 0 
( -0.00417978 -0.00483427 0.00527548 ) 0 
( -0.00352513 -0.00303751 0.00491708 ) 0 
( -0.00124381 -0.0010587 0.00443534 ) 0 
( -0.00244558 -0.00105588 0.00555051 ) 0 
( -0.00187632 -0.00255511 0.00557134 ) 0 
( -0.00360813 -0.00435754 0.00602572 ) 0 
( -0.00487214 -0.00255757 0.00526392 ) 0 
( -0.00317517 -0.00483478 0.0052633 ) 0 
( -0.00290471 -0.00282125 0.00566884 ) 0 
( -0.00299624 -0.00385333 0.00520842 ) 0 
( -0.000911958 -0.00459107 0.00545923 ) 0 
( -0.00486943 -0.00350508 0.00557892 ) 0 
( -0.00120728 -0.00181864 0.00547741 ) 0 
( -0.00217773 -0.00350419 0.00565865 ) 0 
( -0.00440364 -0.000808705 0.0052708 ) 0 
( -0.00147907 -0.000860774 0.00538631 ) 0 
( -0.00175386 -0.00138431 0.00619196 ) 0 
( -0.00289251 -0.000173283 0.00569182 ) 0 
( -0.00379169 -0.00317773 0.00596088 ) 0 
( -0.000568218 -0.00059275 0.00569782 ) 0 
( -0.00302456 -0.0018601 0.00542983 ) 0 
( -0.000264585 -0.00214933 0.00549652 ) 0 
( -0.00460715 -0.0043519 0.00603993 ) 0 
( -0.00258507 -0.00440652 0.00594665 ) 0 
( -0.000856108 -0.00366852 0.005847 ) 0 
( -9.73093e-05 -0.00486912 0.00596816 ) 0 
( -0.00407825 -0.0014537 0.00596023 ) 0 
( -0.00352249 -0.00224705 0.00620476 ) 0 
( -0.00216088 -0.000466931 0.00630576 ) 0 
( -0.00313343 -0.00128419 0.00623807 ) 0 
( -0.00391493 -0.00375939 0.00676419 ) 0 
( -0.000692052 -0.00151947 0.00627838 ) 0 
( -0.00168641 -0.003886 0.00643808 ) 0 
( -0.00459406 -0.00170344 0.0067789 ) 0 
( -0.0021301 -0.00299238 0.00651393 ) 0 
( -0.00449074 -0.00249979 0.00618477 ) 0 
( -0.00101284 -0.00259628 0.0060735 ) 0 
( -0.00294893 -0.00356186 0.0063372 ) 0 
( -0.00177716 -0.0048749 0.00632348 ) 0 
( -4.43909e-05 -0.00275295 0.00626238 ) 0 
( -0.00482338 -0.00339019 0.00657063 ) 0 
( -0.000873662 -0.00446694 0.00644949 ) 0 
( -0.00247376 -0.00209767 0.00622864 ) 0 
( -0.0044259 -0.000442525 0.00620008 ) 0 
( -0.000136553 -0.00379707 0.0065285 ) 0 
( -0.00303335 -0.00442112 0.0068396 ) 0 
( -0.00110311 -0.0014241 0.00718432 ) 0 
( -0.0012006 -0.000643505 0.00657021 ) 0 
( -0.00159966 -0.00218496 0.00676912 ) 0 
( -0.00388597 -0.000999398 0.00682963 ) 0 
( -0.00022825 -0.000775416 0.00675641 ) 0 
( -0.00217084 -0.00473418 0.00723122 ) 0 
( -0.00340434 -0.00291042 0.00694243 ) 0 
( -0.00485684 -0.000784623 0.00707157 ) 0 
( -8.27505e-05 -0.00306852 0.00720959 ) 0 
( -0.00370532 -0.0019735 0.00714823 ) 0 
( -0.00393478 -9.47508e-06 0.00695501 ) 0 
( -0.000960403 -0.00329439 0.00678584 ) 0 
( -0.0048419 -0.00428788 0.00700956 ) 0 
( -0.00248739 -0.00235417 0.00719404 ) 0 
( -0.00242374 -0.0013907 0.00693306 ) 0 
( -0.00437698 -0.00271276 0.00715404 ) 0 
( -0.00237919 -0.00372962 0.00714133 ) 0 
( -0.00169897 -0.00305054 0.00741299 ) 0 
( -0.00068361 -0.000387225 0.00755604 ) 0 
( -0.00299277 -0.00470387 0.00779853 ) 0 
( -0.00132056 -0.00421618 0.00730585 ) 0 
( -0.0019169 -0.000595807 0.00726585 ) 0 
( -0.00442765 -0.00360208 0.00760679 ) 0 
( -0.000154649 -0.0014459 0.00749499 ) 0 
( -0.000617637 -0.00227145 0.00693246 ) 0 
( -0.00317126 -0.00124958 0.00758168 ) 0 
( -0.00296572 -0.000551653 0.00689663 ) 0 
( -0.000326823 -0.00430331 0.00736878 ) 0 
( -0.00428252 -0.00132441 0.00768638 ) 0 
( -0.00397171 -0.00475925 0.00686645 ) 0 
( -0.00226704 -0.00152117 0.0079107 ) 0 
( -0.000808851 -0.00348562 0.00775464 ) 0 
( -0.000935469 -0.0045322 0.00817052 ) 0 
( -0.00363719 -0.000789332 0.00833704 ) 0 
( -0.00336461 -8.08618e-06 0.00777581 ) 0 
( -0.00263424 -0.00308429 0.00786075 ) 0 
( -0.00435127 -0.000334556 0.00780574 ) 0 
( -0.0032946 -0.00376602 0.00754782 ) 0 
( -0.00149465 -0.00213764 0.00776229 ) 0 
( -0.00396135 -0.00445953 0.00781946 ) 0 
( -0.00142123 -0.00100237 0.00803194 ) 0 
( -0.00476262 -0.0021734 0.00790228 ) 0 
( -0.000564929 -0.00252673 0.00789751 ) 0 
( -0.000621586 -0.00065138 0.00851732 ) 0 
( -0.00257597 -0.000576305 0.00801718 ) 0 
( -0.0015585 -0.00326637 0.00837771 ) 0 
( -0.00387501 -0.003719 0.00848457 ) 0 
( -0.00201668 -0.00407349 0.00800718 ) 0 
( -0.000695654 -0.00162833 0.0083156 ) 0 
( -0.00394417 -0.00191602 0.00841637 ) 0 
( -0.00289501 -0.0039092 0.00845342 ) 0 
( -0.0022055 -0.00237761 0.00842236 ) 0 
( -0.00308915 -0.00217281 0.00796916 ) 0 
( -0.00373293 -0.00293241 0.00788538 ) 0 
( -0.00015157 -0.00324283 0.008466 ) 0 
( -0.00458369 -0.00301916 0.00840227 ) 0 
( -0.00240682 -0.00477172 0.00860548 ) 0 
( -0.00325495 -0.00277586 0.00874871 ) 0 
( -0.00463515 -0.000487873 0.00876474 ) 0 
( -9.08499e-05 -0.00427353 0.00863598 ) 0 
( -0.00179022 -0.00154082 0.00878871 ) 0 
( -0.00191348 -0.000533642 0.00876396 ) 0 
( -0.00294665 -0.00144581 0.00863923 ) 0 
( -0.00237746 -0.00321105 0.00894703 ) 0 
( -0.00026113 -0.00233643 0.0088717 ) 0 
( -0.00032786 -0.00025065 0.00938431 ) 0 
( -0.00287562 -0.000532775 0.00903799 ) 0 
( -0.000162563 -0.00131846 0.00910235 ) 0 
( -0.00464313 -0.00225556 0.00904369 ) 0 
( -0.00381816 -0.000376131 0.00933099 ) 0 
( -0.00124497 -0.00237399 0.00870039 ) 0 
( -0.00347329 -0.00197419 0.00930379 ) 0 
( -0.00321121 -0.00457892 0.00916672 ) 0 
( -0.0041851 -0.00128905 0.00915574 ) 0 
( -0.00483839 -0.003979 0.00851995 ) 0 
( -0.00117392 -0.000938733 0.00929919 ) 0 
( -0.0025111 -0.00227363 0.00936803 ) 0 
( -0.00146088 -0.00309609 0.00935748 ) 0 
( -0.00181055 -0.00160285 0.00978577 ) 0 
( -0.00119064 -0.000119339 0.00987182 ) 0 
( -0.000464214 -0.00315263 0.00941155 ) 0 
( -0.000894123 -0.00187775 0.00949384 ) 0 
( -0.00446845 -0.00345127 0.00929545 ) 0 
( -0.00290184 -0.000120945 0.00994802 ) 0 
( -0.00333045 -0.00359722 0.00931297 ) 0 
( -0.000958917 -0.00386174 0.00891089 ) 0 
( -0.00381545 -0.00281975 0.00971186 ) 0 
( -0.00206924 -0.000635265 0.00974561 ) 0 
( -0.00479164 -0.00273212 0.00990949 ) 0 
( -0.00276667 -0.00134006 0.00961685 ) 0 
( -0.00468004 -0.00173885 0.00989793 ) 0 
( -0.000471451 -0.00102093 0.0100052 ) 0 
( -0.00147028 -0.00473411 0.00898986 ) 0 
( -0.00421668 -0.00441021 0.00917343 ) 0 
( -0.00284609 -0.0009343 0.0105267 ) 0 
( -0.00194124 -0.00397 0.00942956 ) 0 
( -0.00224598 -0.00498171 0.00956932 ) 0 
( -0.0026809 -0.00310666 0.00989331 ) 0 
( -0.00105194 -0.00426447 0.00982038 ) 0 
( -0.00481559 -0.000173833 0.00969645 ) 0 
( -0.00313577 -0.00226954 0.0101965 ) 0 
( -0.0036738 -0.00111099 0.00999546 ) 0 
( -0.000124482 -0.00235812 0.00991353 ) 0 
( -0.00498358 -0.00395785 0.00998573 ) 0 
( -0.00187178 -0.0025532 0.0100893 ) 0 
( -0.00468012 -0.00491033 0.0100057 ) 0 
( -0.00277145 -0.004099 0.00997127 ) 0 
( -0.00138434 -0.000943698 0.0104045 ) 0 
( -0.00396263 -0.00393035 0.0100123 ) 0 
( -0.00400838 -0.000186021 0.0102937 ) 0 
( -0.00206886 -0.00051113 0.0109906 ) 0 
( -0.00140109 -0.00345333 0.0102891 ) 0 
( -0.000162828 -0.00170285 0.0106673 ) 0 
( -0.00234996 -0.00180396 0.0106028 ) 0 
( -0.000659163 -0.000320684 0.0106956 ) 0 
( -0.00253715 -0.00276796 0.0108225 ) 0 
( -0.00188399 -0.00432509 0.0103704 ) 0 
( -0.00339671 -0.00165766 0.0109427 ) 0 
( -0.00332921 -0.00341493 0.0105886 ) 0 
( -0.000975687 -0.00223579 0.010423 ) 0 
( -0.00051204 -0.00404232 0.0106317 ) 0 
( -0.004089 -0.00227212 0.0105021 ) 0 
( -0.000216223 -0.00479838 0.0100487 ) 0 
( -0.00321975 -4.00578e-05 0.0108921 ) 0 
( -0.00117097 -0.00472547 0.0109449 ) 0 
( -0.00478627 -0.00437665 0.0108715 ) 0 
( -0.00119818 -0.000773084 0.0114059 ) 0 
( -0.00299002 -0.00436859 0.0109087 ) 0 
( -0.00255608 -0.00127003 0.0114225 ) 0 
( -0.00485001 -0.000132459 0.0108308 ) 0 
( -0.00432269 -0.00323562 0.0106345 ) 0 
( -0.00147989 -0.00167502 0.0110791 ) 0 
( -0.00155875 -0.00277777 0.0110269 ) 0 
( -0.00208431 -0.00362732 0.011057 ) 0 
( -0.0034558 -0.00262604 0.0111897 ) 0 
( -0.00402471 -0.000517303 0.0112431 ) 0 
( -0.00388109 -0.0047191 0.010621 ) 0 
( -0.00218916 -0.00218981 0.0115599 ) 0 
( -0.00431557 -0.00132525 0.0107315 ) 0 
( -0.0044351 -0.00258519 0.0113862 ) 0 
( -0.00200753 -0.000646301 0.0119792 ) 0 
( -0.00295057 -0.00342579 0.0115138 ) 0 
( -0.000253019 -0.00109482 0.0114554 ) 0 
( -0.000528983 -0.00289634 0.0110257 ) 0 
( -0.00112001 -0.00364721 0.0113198 ) 0 
( -0.00101453 -0.00229371 0.0117117 ) 0 
( -0.0039057 -0.00392443 0.0112271 ) 0 
( -0.00316441 -0.000548105 0.0117514 ) 0 
( -0.00194033 -0.00309896 0.0118934 ) 0 
( -0.004889 -0.00165659 0.0114805 ) 0 
( -3.67024e-05 -0.00218844 0.011532 ) 0 
( -0.00490894 -0.000677341 0.0116813 ) 0 
( -0.00204835 -0.00456644 0.0113971 ) 0 
)
