FoamFile
{version 2.0; format ascii;class vectorField; location 0;object  v;}
356
(
( -1.62021e-07 7.48965e-07 -3.89823e-06 )  
( -5.07728e-07 1.71065e-06 -3.06803e-06 )  
( -1.06598e-06 3.80127e-06 -3.71091e-06 )  
( -3.25707e-07 1.56825e-06 -4.65174e-06 )  
( -4.63899e-07 1.88498e-06 -4.37809e-06 )  
( -2.32619e-07 3.07485e-06 -4.073e-06 )  
( -1.1885e-06 3.05309e-06 -4.29709e-06 )  
( -2.0016e-06 2.42028e-06 -5.0841e-06 )  
( -1.09342e-06 1.71661e-06 -6.0027e-06 )  
( -7.27851e-07 1.23385e-06 -2.59104e-06 )  
( 9.65283e-07 1.67807e-06 -4.90056e-06 )  
( 3.67174e-07 2.33985e-06 -3.77283e-06 )  
( -8.18275e-07 3.06701e-06 -1.16448e-06 )  
( -2.51703e-06 5.24066e-06 -8.71373e-06 )  
( -5.40202e-07 1.4243e-06 -4.32406e-06 )  
( -2.59492e-06 3.10167e-06 -1.04164e-05 )  
( 1.02939e-06 2.29324e-06 -3.38871e-06 )  
( -1.44224e-06 1.17145e-06 -4.87511e-06 )  
( -1.14145e-06 1.27014e-06 -4.52245e-06 )  
( -2.05482e-06 1.90628e-06 -3.70058e-06 )  
( -6.20232e-07 2.33658e-06 -3.33457e-06 )  
( -2.29352e-06 2.16864e-06 -4.99035e-06 )  
( -1.76164e-06 1.74419e-06 -4.41771e-06 )  
( -2.05389e-06 4.94495e-06 -8.26274e-06 )  
( -1.84621e-06 5.25134e-07 -3.4526e-06 )  
( -5.49762e-07 1.44973e-06 -5.42921e-06 )  
( -2.14913e-06 1.91398e-06 -3.23794e-06 )  
( -3.00728e-06 2.61196e-06 -6.48269e-06 )  
( -4.57201e-06 3.42222e-06 -9.12507e-06 )  
( -2.35628e-06 4.67139e-06 -8.33029e-06 )  
( -2.49038e-06 3.31802e-06 -7.48627e-06 )  
( -4.22556e-06 4.23565e-06 -1.0027e-05 )  
( 2.79418e-07 1.82829e-06 -4.81486e-06 )  
( -7.75967e-07 3.8954e-06 -7.94165e-06 )  
( -6.71755e-06 4.91685e-06 -7.98687e-06 )  
( 9.22779e-07 3.07373e-06 -8.8687e-06 )  
( -1.68922e-07 6.68512e-06 -7.8697e-06 )  
( -1.16135e-06 1.32391e-06 -4.68847e-06 )  
( 6.47097e-07 5.09611e-06 -1.04022e-05 )  
( -4.23236e-06 4.49491e-06 -9.17655e-06 )  
( -3.0769e-06 5.1e-06 -8.27922e-06 )  
( -1.97453e-06 8.69107e-06 -1.2582e-05 )  
( -2.83547e-06 7.04879e-06 -1.38721e-05 )  
( -1.24752e-06 4.58828e-06 -6.46409e-06 )  
( -4.35174e-06 5.04069e-06 -9.57082e-06 )  
( -4.18447e-06 4.79348e-06 -1.11532e-05 )  
( -9.50246e-08 6.58542e-06 -1.04279e-05 )  
( -1.4291e-06 4.1946e-06 -9.34473e-06 )  
( -4.32677e-06 5.01829e-06 -1.059e-05 )  
( -6.48028e-07 6.2714e-06 -1.56984e-05 )  
( 1.11122e-07 6.24283e-06 -1.25342e-05 )  
( -3.72997e-06 5.92182e-06 -1.28384e-05 )  
( -6.68757e-07 5.73739e-06 -8.23192e-06 )  
( -2.8122e-06 6.36887e-06 -1.53644e-05 )  
( -4.33773e-06 5.09751e-06 -1.56047e-05 )  
( -4.93431e-06 4.04899e-06 -9.41196e-06 )  
( -1.67185e-06 5.74293e-06 -1.04291e-05 )  
( -2.05748e-06 7.00738e-06 -1.38129e-05 )  
( -1.40868e-06 5.05835e-06 -1.24418e-05 )  
( -2.6076e-06 5.94726e-06 -1.23258e-05 )  
( -1.3188e-06 8.57911e-06 -1.36469e-05 )  
( -5.73985e-06 6.33217e-06 -1.26201e-05 )  
( -5.08782e-06 4.47525e-06 -9.35315e-06 )  
( -4.63722e-06 4.57307e-06 -1.47933e-05 )  
( -5.65387e-07 5.5911e-06 -1.12756e-05 )  
( -1.3673e-06 4.8872e-06 -1.22214e-05 )  
( -2.05001e-06 5.52685e-06 -1.36661e-05 )  
( -7.50976e-06 4.9582e-06 -1.39725e-05 )  
( -6.53971e-06 6.76063e-06 -1.61936e-05 )  
( -5.15342e-06 5.57842e-06 -1.26516e-05 )  
( -4.70827e-06 5.80613e-06 -1.681e-05 )  
( -6.20927e-06 6.09839e-06 -1.35469e-05 )  
( -6.48493e-06 6.00751e-06 -1.69372e-05 )  
( -7.55138e-06 4.08509e-06 -1.83546e-05 )  
( -6.74122e-06 4.39169e-06 -1.71229e-05 )  
( -6.66063e-06 4.10962e-06 -1.79294e-05 )  
( -8.46288e-06 3.68042e-06 -1.79261e-05 )  
( -1.09767e-06 5.94259e-06 -1.75576e-05 )  
( -6.82585e-06 5.21395e-06 -1.83905e-05 )  
( -7.742e-06 6.85189e-06 -1.585e-05 )  
( -2.74115e-07 7.64091e-06 -1.46928e-05 )  
( -3.1703e-06 7.32988e-06 -1.82698e-05 )  
( -9.76019e-06 5.56651e-06 -1.8399e-05 )  
( -7.0424e-06 5.46333e-06 -1.69427e-05 )  
( 3.00863e-07 7.24544e-06 -1.91203e-05 )  
( -6.76933e-06 6.58325e-06 -1.54553e-05 )  
( -3.81843e-07 8.3897e-06 -1.7427e-05 )  
( 2.82718e-06 2.45099e-06 -1.48239e-05 )  
( -4.40571e-06 5.76637e-06 -1.82059e-05 )  
( -4.22941e-06 7.6907e-06 -1.68019e-05 )  
( 2.3809e-06 2.9183e-06 -1.78052e-05 )  
( -3.8928e-06 6.98105e-06 -2.01641e-05 )  
( -1.86816e-06 4.17043e-06 -1.5219e-05 )  
( -8.06573e-06 7.30335e-06 -2.01575e-05 )  
( 5.8579e-07 7.76779e-06 -1.58657e-05 )  
( -8.25583e-06 3.1147e-06 -1.91343e-05 )  
( 3.66819e-06 1.0141e-05 -1.32999e-05 )  
( -6.29461e-06 6.26001e-06 -1.67842e-05 )  
( -3.90743e-06 6.13963e-06 -1.83551e-05 )  
( -4.49493e-06 5.33594e-06 -1.83885e-05 )  
( -8.89444e-06 6.63987e-06 -1.87598e-05 )  
( -3.65458e-06 6.91769e-06 -1.97413e-05 )  
( 5.14247e-06 6.21247e-06 -1.71922e-05 )  
( -1.79401e-06 3.9124e-06 -1.62534e-05 )  
( -7.6744e-06 5.17081e-06 -2.04195e-05 )  
( -2.9884e-06 7.03637e-06 -1.75672e-05 )  
( -7.18289e-06 2.92e-06 -1.95504e-05 )  
( -6.73015e-06 5.93994e-06 -2.16968e-05 )  
( -5.68155e-06 4.96899e-06 -1.78815e-05 )  
( -6.42123e-06 2.90964e-06 -2.07014e-05 )  
( -5.76938e-06 5.18533e-06 -1.89378e-05 )  
( 6.14258e-08 4.7306e-06 -2.02261e-05 )  
( -9.2411e-06 2.80206e-06 -1.94866e-05 )  
( 7.38583e-06 -9.41064e-07 -1.90298e-05 )  
( -2.78764e-06 5.245e-06 -1.65469e-05 )  
( -5.99106e-06 4.55614e-06 -2.12372e-05 )  
( -7.67976e-06 3.09713e-06 -2.12536e-05 )  
( 1.23544e-06 7.02659e-06 -1.81621e-05 )  
( -5.49016e-06 5.43143e-07 -1.7877e-05 )  
( -4.3962e-06 2.21388e-06 -1.6635e-05 )  
( -3.39279e-06 1.94684e-06 -1.9583e-05 )  
( -6.02804e-06 4.77927e-06 -2.11201e-05 )  
( -7.42864e-06 3.36761e-06 -2.42059e-05 )  
( -3.70651e-06 4.47289e-06 -1.75507e-05 )  
( 7.39261e-06 -4.13226e-07 -2.14421e-05 )  
( -5.49329e-06 2.33123e-06 -1.96501e-05 )  
( -8.8587e-06 9.2466e-07 -2.13889e-05 )  
( -8.64163e-06 3.27582e-06 -2.0479e-05 )  
( -3.19092e-06 7.85041e-07 -2.24892e-05 )  
( -7.83155e-06 8.54357e-08 -2.12986e-05 )  
( -7.15597e-06 -1.69269e-06 -2.06703e-05 )  
( 3.94341e-06 -2.15289e-07 -2.07403e-05 )  
( 1.18424e-06 2.53418e-06 -2.56921e-05 )  
( 2.77691e-06 2.25296e-06 -1.34577e-05 )  
( 2.49951e-06 1.47607e-06 -1.55061e-05 )  
( -4.59272e-06 3.57618e-07 -2.24653e-05 )  
( 2.72241e-06 4.09613e-06 -1.81663e-05 )  
( 1.87677e-06 3.87071e-06 -1.50781e-05 )  
( -7.02908e-06 1.96897e-06 -2.13489e-05 )  
( -8.58039e-06 2.44781e-06 -2.34664e-05 )  
( -1.09088e-05 3.28468e-06 -2.04288e-05 )  
( 6.45397e-06 -1.58805e-06 -1.79607e-05 )  
( 7.24649e-06 7.46278e-07 -1.74985e-05 )  
( -3.99357e-06 -1.32382e-06 -1.8974e-05 )  
( -6.47188e-06 -1.82393e-07 -2.30595e-05 )  
( 8.36944e-06 -4.07364e-06 -1.82393e-05 )  
( -3.03757e-06 -2.57209e-06 -2.23735e-05 )  
( -7.45374e-06 -1.2027e-06 -2.41396e-05 )  
( -2.8271e-06 -2.3235e-07 -1.51596e-05 )  
( 6.09416e-06 -4.98108e-07 -2.11201e-05 )  
( 1.6034e-07 -2.64749e-06 -1.92604e-05 )  
( -9.25945e-06 -1.9904e-06 -2.03716e-05 )  
( -6.95473e-06 -1.3817e-06 -2.07861e-05 )  
( 5.8831e-06 -5.34409e-06 -1.83199e-05 )  
( -8.86204e-07 -6.28274e-07 -2.11189e-05 )  
( -8.39687e-06 -4.77033e-06 -2.14244e-05 )  
( -1.92522e-06 -1.61176e-06 -2.01808e-05 )  
( 7.05923e-06 -3.83541e-06 -2.00689e-05 )  
( 2.95595e-06 -3.10349e-06 -1.60969e-05 )  
( -7.10608e-06 3.22064e-07 -2.22021e-05 )  
( -8.54907e-06 -6.09605e-06 -1.99747e-05 )  
( -3.45729e-06 -7.21058e-06 -1.48087e-05 )  
( 8.24991e-06 -7.79394e-06 -1.66069e-05 )  
( 3.60062e-08 -2.25474e-07 -2.18126e-05 )  
( 8.72828e-06 -3.95103e-06 -1.73399e-05 )  
( 7.52138e-07 -5.525e-06 -1.34778e-05 )  
( 4.79203e-06 -3.61712e-06 -1.63901e-05 )  
( 5.62872e-06 -5.00489e-06 -1.99656e-05 )  
( 6.44451e-06 -1.76064e-06 -2.01609e-05 )  
( -6.84605e-06 -5.21952e-06 -1.79832e-05 )  
( 2.29736e-06 -7.84828e-06 -1.43908e-05 )  
( -8.85944e-06 -1.37613e-06 -2.27793e-05 )  
( -7.31189e-06 -5.5003e-06 -2.2292e-05 )  
( -8.0194e-06 -1.05154e-05 -1.869e-05 )  
( -7.75405e-06 -6.42142e-06 -2.08302e-05 )  
( 2.46079e-06 -9.74989e-06 -1.64944e-05 )  
( -6.02547e-06 -7.56552e-06 -2.83048e-05 )  
( -4.99386e-06 -6.26917e-06 -1.85004e-05 )  
( -3.9555e-06 -3.25164e-06 -2.02968e-05 )  
( 8.00091e-06 -5.77453e-06 -1.88831e-05 )  
( 1.0563e-05 -5.634e-06 -1.38593e-05 )  
( 1.00718e-06 -8.08948e-06 -1.89926e-05 )  
( 6.85801e-06 -1.01733e-05 -2.05006e-05 )  
( -1.13523e-05 -7.39302e-06 -2.15361e-05 )  
( -7.23686e-06 -8.75516e-06 -1.85309e-05 )  
( -5.21826e-06 -9.9544e-06 -2.28349e-05 )  
( -1.07623e-05 -8.24176e-06 -1.92371e-05 )  
( 5.11665e-06 -7.86585e-06 -1.30526e-05 )  
( -4.17259e-06 -1.09836e-05 -2.04209e-05 )  
( 4.5082e-06 -1.22878e-05 -1.43248e-05 )  
( -7.22282e-06 -1.30799e-05 -1.7329e-05 )  
( 2.39216e-06 -1.38921e-05 -1.07789e-05 )  
( -1.20586e-07 -9.05922e-06 -1.74543e-05 )  
( -1.6769e-06 -8.92419e-06 -1.80489e-05 )  
( 4.07828e-06 -7.5703e-06 -9.63626e-06 )  
( 9.24688e-06 -1.21003e-05 -1.67502e-05 )  
( 1.9479e-06 -7.28829e-06 -2.11107e-05 )  
( 2.92152e-06 -7.61263e-06 -1.79383e-05 )  
( 7.39257e-06 -1.08918e-05 -1.69763e-05 )  
( -1.03943e-05 -1.21939e-05 -1.12468e-05 )  
( -7.78132e-06 -3.08581e-06 -2.25108e-05 )  
( 4.44516e-06 -1.0803e-05 -1.93247e-05 )  
( 7.75553e-06 -1.30286e-05 -1.35912e-05 )  
( -5.08036e-06 -1.23254e-05 -1.73793e-05 )  
( -4.87758e-06 -1.22794e-05 -2.12315e-05 )  
( -3.93623e-06 -1.28553e-05 -1.57762e-05 )  
( -1.24775e-05 -7.62998e-06 -2.14838e-05 )  
( -1.85613e-06 -1.20167e-05 -2.67783e-05 )  
( 1.04101e-05 -1.22716e-05 -8.89759e-06 )  
( -3.88277e-06 -5.82199e-06 -1.15914e-05 )  
( -4.14895e-06 -5.25094e-06 -2.26212e-05 )  
( 4.23835e-06 -1.11033e-05 -1.88884e-05 )  
( -6.2423e-06 -8.61061e-06 -2.11273e-05 )  
( -8.36526e-06 -6.47007e-06 -2.08918e-05 )  
( 3.34727e-06 -1.17895e-05 -1.69899e-05 )  
( 6.65608e-06 -9.38432e-06 -2.14711e-05 )  
( -1.00324e-06 -2.47083e-05 -5.25073e-06 )  
( -1.02176e-05 -1.03281e-05 -1.67332e-05 )  
( -5.63642e-06 -1.02307e-05 -1.29315e-05 )  
( 8.00397e-06 -1.58145e-05 -9.61497e-06 )  
( 8.5684e-06 -1.47838e-05 -1.09188e-05 )  
( -3.87164e-06 -1.78854e-05 -2.84297e-05 )  
( 8.16292e-06 -1.04061e-05 -6.6744e-06 )  
( 8.82879e-06 -1.40876e-05 -1.29379e-05 )  
( -9.17541e-06 -1.4632e-05 -2.13136e-05 )  
( -1.99149e-06 -1.0021e-05 -1.23805e-05 )  
( -9.06307e-07 -1.28797e-05 -2.17998e-05 )  
( 3.62478e-07 -1.20231e-05 -1.95588e-05 )  
( -1.00365e-05 -9.66108e-06 -2.02023e-05 )  
( -8.03221e-06 -7.77415e-06 -1.94917e-05 )  
( 9.59895e-06 -1.29529e-05 -1.53473e-05 )  
( -1.47903e-05 -8.94648e-06 -2.36355e-05 )  
( 9.58122e-06 -1.20616e-05 -1.78213e-05 )  
( -9.5117e-06 -1.04974e-05 -1.64627e-05 )  
( 8.05952e-06 -1.23374e-05 -1.30624e-05 )  
( 1.14998e-05 -1.40495e-05 -1.31402e-05 )  
( -2.11871e-05 -1.8545e-05 -2.01482e-05 )  
( -1.11104e-05 -8.87115e-06 -1.53796e-05 )  
( 1.21795e-05 -2.27122e-05 -5.40875e-06 )  
( -8.17836e-06 -2.5651e-06 -2.04845e-05 )  
( 8.68297e-06 -1.52627e-05 -9.89557e-06 )  
( -4.77976e-06 -7.04395e-06 -1.0177e-05 )  
( 4.48841e-06 -1.10911e-05 -1.75602e-05 )  
( -9.39517e-06 -1.07066e-05 -1.6462e-05 )  
( -7.04514e-06 -7.45144e-06 -1.57985e-05 )  
( 6.46335e-07 -1.0529e-05 -1.70347e-05 )  
( -6.12451e-06 -8.95531e-06 -2.57808e-05 )  
( -1.05754e-05 -1.06258e-05 -2.2264e-05 )  
( 4.19177e-06 -9.97748e-06 -1.37096e-05 )  
( -5.84896e-06 -1.97737e-05 -6.94758e-06 )  
( 3.63176e-06 -1.511e-05 -9.58844e-06 )  
( -2.88083e-06 -9.10937e-06 -1.70172e-05 )  
( -6.66112e-06 1.03216e-05 -1.26596e-05 )  
( -2.27772e-07 -1.13286e-05 -6.99783e-06 )  
( -6.54207e-06 -4.22924e-06 -1.17958e-05 )  
( -1.62227e-06 -1.65501e-05 -1.93597e-06 )  
( -4.99221e-06 -9.6152e-06 -8.05063e-06 )  
( 8.7024e-06 -1.80887e-06 -1.66215e-05 )  
( 2.97185e-06 -4.34903e-06 -6.10358e-06 )  
( -7.5084e-07 -7.98868e-06 2.027e-06 )  
( -1.58077e-05 -1.54046e-05 -4.10114e-06 )  
( -1.45599e-05 9.56344e-06 -1.11817e-05 )  
( 1.44586e-05 -4.45305e-06 -1.64837e-05 )  
( -3.27679e-05 -1.12318e-05 -5.0844e-06 )  
( -1.26991e-05 -7.27183e-06 -2.14149e-05 )  
( -2.04178e-05 -1.54723e-05 -1.53645e-05 )  
( -4.34286e-06 -3.45672e-06 -2.21599e-05 )  
( 2.38583e-06 -3.07147e-06 -1.55557e-05 )  
( -2.70682e-06 -1.5993e-05 -2.74426e-05 )  
( -2.37127e-05 -4.66033e-06 -2.48976e-05 )  
( -4.62674e-06 -8.93407e-06 -2.04838e-05 )  
( 7.93324e-06 -1.66567e-06 6.06299e-08 )  
( -9.64278e-06 1.50288e-05 -3.98556e-06 )  
( -5.17332e-06 -6.09943e-06 3.85763e-08 )  
( -3.6754e-05 -3.48917e-06 -1.17054e-05 )  
( -2.1806e-05 -2.31965e-05 6.34077e-06 )  
( -1.34116e-05 1.38606e-05 -8.7716e-06 )  
( -7.24661e-06 -8.48519e-06 -4.57785e-06 )  
( -5.5066e-06 -2.67396e-06 -3.32307e-05 )  
( -2.69066e-05 -2.84442e-06 -2.10706e-05 )  
( -1.29333e-06 -1.93128e-05 -1.95529e-05 )  
( -1.69194e-05 -3.80983e-05 6.23271e-06 )  
( -1.1193e-05 -8.82485e-06 -3.10028e-05 )  
( 1.10208e-05 6.13819e-06 -1.46379e-05 )  
( 2.01682e-05 2.44618e-05 -1.64494e-05 )  
( -5.71773e-06 -5.83551e-06 -1.82081e-06 )  
( -1.55782e-05 5.87155e-06 -2.3733e-05 )  
( -2.10847e-05 -1.053e-05 7.00314e-06 )  
( 2.32346e-05 -6.6975e-06 -1.26563e-05 )  
( -2.6717e-05 7.41163e-07 5.00121e-06 )  
( -2.9143e-05 -2.43134e-05 -1.8419e-05 )  
( -8.98399e-06 -1.90213e-06 4.89985e-06 )  
( -3.83608e-05 -1.52831e-06 -1.79236e-05 )  
( -2.6411e-06 2.07155e-06 -6.49332e-06 )  
( -1.54496e-05 -8.11075e-06 -2.89102e-05 )  
( 3.27004e-06 -1.7224e-05 -1.05105e-05 )  
( -1.95028e-06 -3.84323e-06 -9.49652e-06 )  
( -3.81318e-05 1.79568e-05 -2.33671e-05 )  
( -2.24832e-05 -1.9032e-05 -3.9258e-05 )  
( 5.0719e-07 -1.52533e-05 1.99957e-06 )  
( -2.70071e-05 -4.55785e-06 -2.36151e-05 )  
( 4.70435e-05 -2.75234e-06 -1.29842e-05 )  
( -2.23286e-05 1.81536e-05 -1.22063e-05 )  
( -3.85418e-05 1.13887e-05 -1.63208e-05 )  
( -1.80782e-05 2.89019e-06 -1.35115e-05 )  
( 1.8641e-05 1.97287e-05 -1.656e-05 )  
( 6.5113e-07 1.38038e-05 1.0362e-05 )  
( -1.41544e-05 -3.12042e-05 -1.57975e-05 )  
( -7.92507e-06 -1.66669e-05 1.31752e-05 )  
( 1.85655e-06 -7.34532e-06 -1.28377e-05 )  
( -1.77778e-05 -2.14631e-05 -2.6936e-05 )  
( -2.82729e-05 9.52247e-06 2.59206e-06 )  
( 3.86012e-06 1.83786e-05 -5.32887e-06 )  
( -2.83541e-05 -1.49618e-05 -3.06214e-05 )  
( 1.69764e-06 -3.68034e-06 -3.14986e-05 )  
( -1.24343e-05 9.36333e-06 -2.34694e-05 )  
( -4.61299e-05 -2.10079e-05 4.67673e-06 )  
( -2.52625e-05 -1.45458e-05 -3.35409e-05 )  
( -1.81966e-05 5.85829e-06 -5.29186e-05 )  
( 3.14675e-05 -1.64735e-06 -5.75088e-05 )  
( -1.72265e-05 1.67909e-05 -3.30936e-06 )  
( -3.37385e-05 2.48349e-05 -2.67914e-06 )  
( 9.68682e-06 1.18326e-05 -2.78589e-05 )  
( 4.58484e-05 -7.15475e-07 -6.42141e-06 )  
( 4.42168e-07 2.98896e-05 1.31603e-05 )  
( 3.90944e-05 -2.67143e-06 -1.97947e-05 )  
( -2.06962e-05 2.41367e-05 -2.39427e-05 )  
( 1.90958e-05 1.3606e-05 -2.20521e-05 )  
( -9.68644e-06 2.58052e-05 1.27375e-05 )  
( -4.07086e-05 4.6705e-06 -2.13663e-05 )  
( 1.5551e-05 3.71918e-06 3.07916e-06 )  
( -7.07131e-05 9.8924e-06 -2.38037e-05 )  
( -1.04578e-05 3.7108e-06 -3.35259e-05 )  
( -2.24637e-05 1.03613e-05 1.52131e-06 )  
( -3.42624e-05 -4.17197e-06 -6.36732e-08 )  
( -1.42346e-05 -1.59913e-05 -0.000108708 )  
( -5.61975e-06 2.38671e-06 -7.8204e-05 )  
( 1.152e-05 3.0246e-05 1.39913e-06 )  
( -1.98459e-05 2.97506e-05 -9.00564e-06 )  
( -2.99876e-06 2.85114e-05 4.92497e-08 )  
( -5.13024e-05 -1.4904e-06 -5.40828e-05 )  
( -1.01199e-05 1.48001e-05 -8.3757e-06 )  
( 2.59722e-06 1.78888e-05 1.47438e-05 )  
( -7.89321e-05 5.19096e-05 -3.58844e-05 )  
( 2.38363e-05 2.23571e-05 -2.74181e-05 )  
( -5.74214e-05 -1.07982e-05 -1.24318e-05 )  
( 7.22461e-06 -3.26262e-06 -3.54347e-05 )  
( -4.18932e-06 2.5416e-06 -4.64238e-05 )  
( -2.34713e-05 -0.000118897 -7.873e-05 )  
( -1.98899e-05 2.84824e-05 7.15286e-06 )  
( -2.46832e-05 4.78174e-05 -1.3901e-05 )  
( 9.15962e-06 2.75614e-06 -9.1415e-05 )  
( 7.33126e-06 1.49772e-05 1.9133e-06 )  
( -3.88634e-05 1.70076e-05 -3.54413e-05 )  
( -1.87697e-05 1.93104e-05 -1.86336e-05 )  
( 1.40683e-05 2.70188e-05 -4.99727e-05 )  
)
