FoamFile
{version 2.0; format ascii;class vectorField; location 0;object  v;}
350
(
( 1.19999e-06 7.40199e-06 1.38831e-06 )  
( 1.07009e-06 7.4255e-06 -1.45943e-07 )  
( 1.07539e-05 4.66118e-06 3.65759e-07 )  
( 2.24577e-06 8.33415e-06 -2.26653e-07 )  
( 4.1757e-06 1.14622e-05 -2.84992e-07 )  
( 5.13125e-06 4.12348e-06 9.60599e-07 )  
( 8.79045e-07 8.06067e-06 1.67904e-06 )  
( 1.87637e-07 7.08113e-06 -9.97905e-07 )  
( 6.61268e-06 -9.96485e-06 4.88586e-13 )  
( 5.20236e-07 8.03421e-06 -1.42474e-07 )  
( 7.3737e-07 6.44478e-06 -9.38209e-07 )  
( 1.0008e-06 6.36389e-06 1.35869e-06 )  
( 1.67842e-06 6.53098e-06 -4.81877e-08 )  
( 2.43901e-06 8.28992e-06 6.56439e-07 )  
( 1.96655e-06 8.81407e-06 -6.97383e-07 )  
( 2.33412e-06 7.22437e-06 6.305e-07 )  
( 2.91058e-06 5.25526e-06 -2.4422e-07 )  
( 1.40316e-06 5.42034e-06 -1.82689e-06 )  
( 3.48837e-06 1.58612e-05 1.32603e-06 )  
( 7.49879e-06 9.00388e-06 4.03154e-07 )  
( 1.84237e-06 9.97691e-06 -2.78853e-08 )  
( 1.28733e-06 9.13134e-06 5.69511e-07 )  
( 1.82619e-06 7.61728e-06 -1.60398e-06 )  
( -1.89618e-06 6.86232e-06 -1.94524e-06 )  
( 3.49755e-06 6.45003e-06 -1.89241e-07 )  
( 1.83913e-06 6.30662e-06 9.55895e-07 )  
( -3.77056e-07 1.14428e-05 -1.19458e-07 )  
( 9.48353e-07 6.75796e-06 -2.94112e-06 )  
( 2.8946e-06 1.51126e-05 -3.45014e-06 )  
( 2.93993e-06 1.65708e-05 3.53691e-06 )  
( 7.40247e-06 1.19023e-05 1.94699e-06 )  
( 7.08786e-07 1.15569e-05 1.93575e-06 )  
( 2.2053e-07 9.79899e-06 -9.84614e-07 )  
( 3.22713e-07 1.15356e-05 -4.47389e-07 )  
( 1.6686e-06 1.32987e-05 3.59399e-07 )  
( 3.78434e-06 1.52999e-05 3.21452e-07 )  
( 4.98664e-06 1.26228e-05 -3.26609e-07 )  
( 2.56955e-06 1.51898e-05 -2.0726e-06 )  
( -1.81045e-06 1.36601e-05 -6.99716e-07 )  
( 5.48461e-07 1.25077e-05 -2.25073e-06 )  
( 1.1895e-06 1.36806e-05 -1.8884e-07 )  
( 1.09243e-06 1.25809e-05 -2.00793e-06 )  
( 6.06268e-06 1.41492e-05 -7.8862e-07 )  
( 7.20486e-06 1.64278e-05 2.75119e-07 )  
( 3.39853e-06 1.56067e-05 2.89436e-06 )  
( 3.6605e-06 1.8747e-05 1.72998e-06 )  
( 4.13325e-06 1.41833e-05 -2.15079e-06 )  
( 6.22137e-06 2.03543e-05 3.97048e-07 )  
( 6.06503e-06 1.60797e-05 -4.93977e-07 )  
( 3.89904e-06 1.51984e-05 -2.64946e-06 )  
( 4.78338e-06 2.18398e-05 -1.59555e-06 )  
( 3.48657e-06 1.54207e-05 -5.54545e-07 )  
( 4.92471e-06 1.51031e-05 -2.45183e-07 )  
( 4.22369e-06 1.77332e-05 1.6174e-06 )  
( 3.74664e-06 1.59181e-05 -4.44336e-07 )  
( 1.47574e-06 1.3951e-05 1.26659e-06 )  
( -1.17023e-06 1.35115e-05 -2.49018e-06 )  
( 4.14406e-06 1.95866e-05 -1.03525e-06 )  
( 3.04291e-06 1.24436e-05 -3.5905e-07 )  
( 6.58202e-06 1.99547e-05 -8.00907e-07 )  
( 2.9483e-06 1.58136e-05 -4.4293e-07 )  
( 5.61473e-06 1.69878e-05 2.22386e-07 )  
( 3.2794e-06 1.99095e-05 3.4038e-06 )  
( 6.04638e-06 1.82987e-05 4.55067e-07 )  
( 3.66143e-06 1.967e-05 -1.05503e-06 )  
( 5.96982e-06 2.04527e-05 -5.35337e-07 )  
( 5.55391e-06 2.01722e-05 1.73302e-06 )  
( 3.87737e-06 2.09113e-05 -7.85497e-07 )  
( 6.75206e-06 2.15796e-05 -1.01293e-06 )  
( 6.58539e-06 2.08613e-05 -2.36376e-06 )  
( -2.08241e-06 1.84663e-05 -2.61218e-06 )  
( 5.58044e-06 1.99026e-05 -9.54546e-07 )  
( 4.7953e-06 1.85883e-05 1.14515e-06 )  
( 4.59393e-06 2.2101e-05 -1.00819e-07 )  
( 5.6619e-06 2.44406e-05 -9.65528e-07 )  
( 8.21933e-06 2.33311e-05 -1.7648e-06 )  
( 6.48481e-06 2.59199e-05 3.02411e-07 )  
( 7.00897e-06 2.24356e-05 1.39214e-07 )  
( 4.69594e-06 2.34995e-05 3.08896e-06 )  
( 7.91357e-06 2.3035e-05 -2.64571e-07 )  
( 5.93476e-06 1.95707e-05 -1.07677e-07 )  
( 3.0017e-06 1.99128e-05 1.09505e-06 )  
( 6.53449e-06 2.23794e-05 -1.67467e-06 )  
( 4.66594e-06 2.66205e-05 1.07143e-06 )  
( 5.97352e-06 2.59731e-05 -1.05461e-06 )  
( 4.59543e-06 2.20154e-05 -2.99621e-06 )  
( 6.63022e-06 2.47054e-05 6.93494e-07 )  
( 9.99336e-06 1.44286e-05 -3.96272e-06 )  
( 5.78662e-06 2.54487e-05 4.17525e-07 )  
( 6.98808e-06 2.92979e-05 -1.6032e-06 )  
( 7.05307e-06 2.55553e-05 -4.30789e-07 )  
( 6.18031e-06 2.3694e-05 -2.14461e-06 )  
( 5.54119e-06 2.28952e-05 -5.51459e-07 )  
( 6.62309e-06 2.35661e-05 -7.51968e-07 )  
( 5.3225e-06 2.37151e-05 -2.45536e-06 )  
( 7.80184e-06 2.54887e-05 -9.76696e-07 )  
( 6.61816e-06 3.14553e-05 -3.77713e-07 )  
( 7.87526e-06 2.76984e-05 -1.16411e-06 )  
( 6.71672e-06 2.35557e-05 3.61236e-06 )  
( 8.96569e-06 2.85526e-05 5.64071e-07 )  
( 7.38365e-06 2.6236e-05 1.68519e-07 )  
( 7.0747e-06 2.75071e-05 -1.29719e-07 )  
( 8.14633e-06 2.75264e-05 -6.09778e-07 )  
( 5.99269e-06 2.69101e-05 1.77193e-06 )  
( 6.56421e-06 3.06611e-05 -2.85188e-06 )  
( 8.10099e-06 2.50524e-05 6.20946e-07 )  
( 6.89651e-06 2.94463e-05 -2.95526e-06 )  
( 8.91317e-06 3.16519e-05 -4.23149e-07 )  
( 6.03965e-06 3.05822e-05 9.63952e-07 )  
( 7.76443e-06 2.87845e-05 -2.20827e-06 )  
( 7.4687e-06 2.7363e-05 -2.08261e-06 )  
( 9.01249e-06 3.28183e-05 -8.5696e-07 )  
( 6.15825e-06 2.97981e-05 -8.3283e-07 )  
( 7.66705e-06 2.95607e-05 -1.82593e-06 )  
( 7.45006e-06 3.29538e-05 -1.48523e-06 )  
( 8.14707e-06 2.9074e-05 1.95318e-06 )  
( 7.33392e-06 2.79539e-05 -2.27269e-07 )  
( 9.2168e-06 3.40047e-05 -3.53446e-07 )  
( 1.00516e-05 2.64034e-05 -1.24645e-06 )  
( 8.14172e-06 3.08441e-05 -1.92992e-06 )  
( 8.34218e-06 3.13484e-05 -2.32019e-06 )  
( 1.11351e-05 3.19276e-05 5.16691e-07 )  
( 5.4761e-06 3.0868e-05 -3.88575e-07 )  
( 1.72503e-05 4.17227e-05 -6.02941e-06 )  
( 7.57174e-06 3.20966e-05 7.59373e-07 )  
( 9.75657e-06 3.54813e-05 4.48254e-07 )  
( 8.83554e-06 3.46446e-05 -9.05366e-07 )  
( 8.73604e-06 3.05308e-05 -2.79725e-06 )  
( 9.207e-06 3.80645e-05 1.20827e-06 )  
( 1.0936e-05 3.6141e-05 -1.53607e-06 )  
( 9.60697e-06 3.5006e-05 -1.66728e-06 )  
( 9.39597e-06 3.23722e-05 -2.4424e-06 )  
( 7.84142e-06 3.35689e-05 2.39127e-06 )  
( 8.67154e-06 3.63893e-05 -6.25196e-07 )  
( 9.98193e-06 3.55144e-05 5.6014e-07 )  
( 1.21995e-05 3.43544e-05 -2.05469e-06 )  
( 9.94224e-06 3.15291e-05 3.06865e-06 )  
( 1.0076e-05 3.60447e-05 -5.2397e-07 )  
( 9.91433e-06 3.95684e-05 -8.9074e-07 )  
( 8.88968e-06 3.97557e-05 -4.11699e-07 )  
( 1.11423e-05 3.75183e-05 -8.11852e-07 )  
( 1.11929e-05 3.70555e-05 9.44468e-07 )  
( 1.01666e-05 4.15392e-05 -1.86892e-06 )  
( 8.99387e-06 3.60057e-05 1.25509e-06 )  
( 1.28859e-05 3.98526e-05 -1.03168e-06 )  
( 1.01714e-05 3.8757e-05 -5.2251e-07 )  
( 9.15865e-06 3.50352e-05 -1.4638e-06 )  
( 1.19486e-05 4.0662e-05 -2.76494e-06 )  
( 9.94366e-06 3.69702e-05 -5.86541e-06 )  
( 9.40298e-06 3.75375e-05 -6.56813e-07 )  
( 1.1523e-05 4.37271e-05 -6.50396e-07 )  
( 1.00193e-05 3.59506e-05 -5.15341e-07 )  
( 1.15538e-05 3.82263e-05 9.18016e-07 )  
( 1.14965e-05 3.99789e-05 6.94034e-07 )  
( 1.08779e-05 3.6296e-05 -1.24277e-06 )  
( 1.10445e-05 3.92481e-05 -8.98214e-07 )  
( 1.34937e-05 4.12653e-05 1.7578e-06 )  
( 1.19531e-05 4.24958e-05 -1.97175e-07 )  
( 1.11992e-05 4.25354e-05 -1.49779e-06 )  
( 1.0645e-05 3.83792e-05 -1.01684e-06 )  
( 1.13647e-05 3.99693e-05 5.55013e-07 )  
( 1.12503e-05 3.88568e-05 1.40593e-06 )  
( 1.07357e-05 4.03522e-05 3.94607e-07 )  
( 1.16649e-05 3.98002e-05 -8.0827e-07 )  
( 1.02596e-05 3.87652e-05 -2.07854e-06 )  
( 1.06439e-05 4.10199e-05 2.05019e-07 )  
( 1.00647e-05 3.99949e-05 1.23721e-06 )  
( 1.61227e-05 4.65949e-05 -3.03971e-06 )  
( 1.29401e-05 4.59408e-05 1.11986e-06 )  
( 1.24548e-05 3.95915e-05 1.52915e-07 )  
( 1.4076e-05 4.0601e-05 7.60501e-08 )  
( 1.3881e-05 4.6044e-05 -6.90773e-07 )  
( 1.43244e-05 4.19248e-05 -2.48267e-06 )  
( 1.10207e-05 4.22181e-05 -6.88289e-07 )  
( 1.34573e-05 4.20942e-05 -7.50062e-07 )  
( 1.32104e-05 4.48379e-05 1.39174e-06 )  
( 8.17506e-06 4.40202e-05 -2.40264e-06 )  
( 1.24907e-05 4.17604e-05 -8.93644e-07 )  
( 1.52098e-05 4.21269e-05 -3.48567e-06 )  
( 1.5907e-05 3.93414e-05 1.49951e-06 )  
( 1.36777e-05 4.64364e-05 -1.51339e-06 )  
( 1.46041e-05 5.23916e-05 1.34146e-06 )  
( 1.45441e-05 4.40233e-05 -8.5009e-07 )  
( 1.40482e-05 4.77788e-05 -4.8253e-07 )  
( 1.41885e-05 4.26436e-05 -5.42643e-07 )  
( 1.43513e-05 5.0115e-05 -1.92472e-06 )  
( 1.42731e-05 4.65321e-05 2.04329e-06 )  
( 1.95798e-05 4.78908e-05 -3.06433e-06 )  
( 9.5404e-06 4.75012e-05 -3.53403e-06 )  
( 1.10933e-05 4.29859e-05 -1.61647e-06 )  
( 1.2238e-05 4.16588e-05 1.30486e-07 )  
( 1.40825e-05 4.75912e-05 -8.30643e-07 )  
( 1.31656e-05 5.01779e-05 -1.20205e-06 )  
( 1.19151e-05 4.76601e-05 -1.97309e-06 )  
( 1.12664e-05 4.075e-05 -1.24285e-06 )  
( 1.48946e-05 5.33318e-05 1.01062e-06 )  
( 1.58843e-05 5.32425e-05 -4.3792e-07 )  
( 1.89683e-05 5.03078e-05 -1.24564e-06 )  
( 1.68966e-05 4.99724e-05 -6.13977e-07 )  
( 1.32557e-05 4.84469e-05 -7.28963e-07 )  
( 1.43034e-05 4.98232e-05 2.09203e-06 )  
( 1.48204e-05 4.7397e-05 -1.59554e-06 )  
( 1.47878e-05 5.12662e-05 7.24677e-07 )  
( 1.6294e-05 4.73609e-05 -1.53453e-06 )  
( 1.04305e-05 4.62245e-05 -4.06117e-06 )  
( 1.40619e-05 5.04158e-05 -1.66583e-06 )  
( 1.61419e-05 5.51416e-05 -1.52528e-06 )  
( 1.43742e-05 4.33858e-05 -1.05568e-06 )  
( 1.64768e-05 5.52694e-05 -2.01752e-06 )  
( 1.17207e-05 5.65557e-05 -1.96115e-07 )  
( 1.48406e-05 4.87253e-05 -1.27383e-06 )  
( 1.36113e-05 5.45614e-05 -1.87487e-06 )  
( 1.38787e-05 5.2488e-05 2.15138e-06 )  
( 1.66789e-05 4.91511e-05 -9.8435e-07 )  
( 1.66709e-05 5.5642e-05 -3.16671e-06 )  
( 1.46298e-05 5.16799e-05 -1.50524e-07 )  
( 1.84081e-05 5.60478e-05 -1.26445e-07 )  
( 1.57121e-05 5.32835e-05 -2.35667e-06 )  
( 1.60044e-05 5.48278e-05 1.89989e-07 )  
( 1.6046e-05 5.72712e-05 -8.67954e-07 )  
( 1.58614e-05 5.56737e-05 -2.733e-06 )  
( 1.48691e-05 5.50349e-05 -1.22433e-06 )  
( 1.55857e-05 6.04259e-05 -9.79635e-07 )  
( 1.60054e-05 5.33881e-05 -1.34071e-06 )  
( 1.5724e-05 6.15732e-05 -2.12366e-06 )  
( 1.52505e-05 5.41581e-05 -1.73656e-08 )  
( 1.66061e-05 5.63823e-05 8.41304e-07 )  
( 1.39148e-05 5.69909e-05 -9.86956e-07 )  
( 1.73317e-05 5.73523e-05 -1.78212e-06 )  
( 1.55872e-05 5.72916e-05 -5.0521e-07 )  
( 1.83021e-05 5.58449e-05 -3.08762e-06 )  
( 1.667e-05 6.0645e-05 -4.84562e-07 )  
( 1.47428e-05 5.45974e-05 -5.64022e-06 )  
( 1.41827e-05 5.64114e-05 -2.3273e-06 )  
( 1.66189e-05 5.65416e-05 1.04273e-06 )  
( 1.61449e-05 5.46131e-05 2.86473e-06 )  
( 1.63211e-05 5.80432e-05 -1.35946e-06 )  
( 1.71189e-05 5.96374e-05 -1.17569e-06 )  
( 1.85046e-05 5.96333e-05 7.79333e-08 )  
( 1.8104e-05 5.89998e-05 -9.42604e-07 )  
( 1.74625e-05 5.93044e-05 2.54036e-06 )  
( 1.57287e-05 5.78689e-05 -2.87399e-07 )  
( 1.68018e-05 6.30632e-05 -1.8321e-06 )  
( 1.49761e-05 6.31204e-05 -3.79698e-07 )  
( 1.7109e-05 6.40205e-05 -8.10084e-07 )  
( 1.68357e-05 6.05074e-05 -1.29163e-06 )  
( 1.80901e-05 5.7287e-05 -3.90629e-06 )  
( 1.71649e-05 5.80624e-05 -1.44842e-06 )  
( 1.64113e-05 5.79823e-05 1.04077e-06 )  
( 1.51954e-05 5.879e-05 -3.4282e-06 )  
( 1.49882e-05 6.28997e-05 -3.18519e-06 )  
( 1.64004e-05 5.73538e-05 -6.8596e-07 )  
( 1.57543e-05 5.42106e-05 8.67268e-07 )  
( 1.5624e-05 6.42938e-05 -5.08162e-07 )  
( 1.95032e-05 6.29606e-05 -2.03352e-06 )  
( 1.52116e-05 6.33628e-05 -7.39076e-07 )  
( 1.67126e-05 6.03253e-05 -7.98961e-07 )  
( 2.02746e-05 6.44512e-05 -4.0055e-06 )  
( 1.66258e-05 5.89816e-05 7.80259e-07 )  
( 1.75751e-05 6.09856e-05 -2.12859e-08 )  
( 1.86139e-05 6.61894e-05 -3.30698e-06 )  
( 1.63891e-05 6.24853e-05 -2.14533e-06 )  
( 1.9384e-05 5.8476e-05 -2.80647e-06 )  
( 1.53855e-05 6.18518e-05 -3.30462e-06 )  
( 1.65588e-05 5.88144e-05 -1.73303e-07 )  
( 1.85956e-05 6.20828e-05 -2.24208e-06 )  
( 1.71745e-05 6.4813e-05 -4.21949e-07 )  
( 1.75678e-05 6.22207e-05 -1.77168e-06 )  
( 1.84277e-05 6.64506e-05 -1.58066e-06 )  
( 1.59795e-05 6.13665e-05 -7.56126e-07 )  
( 1.91368e-05 6.79989e-05 -3.59431e-06 )  
( 2.0018e-05 6.97819e-05 -2.1695e-06 )  
( 1.63551e-05 6.24382e-05 1.83082e-07 )  
( 1.76775e-05 6.57358e-05 -1.72431e-06 )  
( 1.67353e-05 6.17998e-05 -8.7329e-07 )  
( 1.67757e-05 6.35342e-05 8.06112e-07 )  
( 1.86605e-05 6.65994e-05 -8.93507e-07 )  
( 1.95183e-05 6.21522e-05 -7.37454e-07 )  
( 2.13101e-05 7.07414e-05 -5.32724e-06 )  
( 1.94889e-05 6.67263e-05 -3.00977e-06 )  
( 1.6981e-05 6.70064e-05 -2.47887e-06 )  
( 1.7473e-05 6.39387e-05 1.88545e-06 )  
( 1.86548e-05 6.82589e-05 6.45947e-08 )  
( 2.12243e-05 6.41815e-05 1.36437e-07 )  
( 1.88296e-05 6.70151e-05 1.5126e-06 )  
( 1.72033e-05 6.89475e-05 2.23368e-06 )  
( 2.03922e-05 7.05042e-05 -1.99827e-06 )  
( 1.75032e-05 7.02605e-05 -6.10429e-08 )  
( 2.08631e-05 6.66315e-05 -5.24348e-07 )  
( 1.69148e-05 7.46011e-05 -8.73964e-06 )  
( 2.35331e-05 7.08722e-05 -1.76366e-07 )  
( 1.91523e-05 6.57849e-05 3.544e-07 )  
( 1.85046e-05 7.24213e-05 -1.7681e-06 )  
( 1.73493e-05 6.40269e-05 8.28183e-08 )  
( 1.99448e-05 6.39862e-05 -4.23534e-06 )  
( 1.69044e-05 6.77105e-05 -1.90036e-06 )  
( 1.85449e-05 6.12656e-05 -5.08172e-07 )  
( 2.02817e-05 7.36236e-05 1.01182e-06 )  
( 1.86845e-05 6.84777e-05 -1.19725e-06 )  
( 2.08747e-05 7.32969e-05 -1.30373e-06 )  
( 1.9049e-05 7.90993e-05 -1.45608e-06 )  
( 1.58698e-05 6.67492e-05 -2.56561e-06 )  
( 1.97569e-05 6.60996e-05 -2.55019e-06 )  
( 1.79623e-05 6.93797e-05 -9.88321e-07 )  
( 1.83107e-05 7.24977e-05 6.34812e-07 )  
( 2.10204e-05 6.92701e-05 -4.81628e-06 )  
( 1.91731e-05 6.29529e-05 1.06069e-06 )  
( 2.03972e-05 7.18509e-05 6.13007e-07 )  
( 2.24426e-05 7.01099e-05 -2.49345e-06 )  
( 2.06351e-05 7.06408e-05 -6.55451e-06 )  
( 1.82406e-05 7.24304e-05 -3.84089e-06 )  
( 2.03398e-05 7.21463e-05 -5.61528e-06 )  
( 2.21307e-05 6.96722e-05 -3.98567e-06 )  
( 1.94682e-05 7.35761e-05 -5.63419e-06 )  
( 1.88879e-05 7.41273e-05 -1.58659e-06 )  
( 2.26846e-05 7.41979e-05 -2.71344e-06 )  
( 2.06719e-05 7.09057e-05 3.32865e-06 )  
( 2.00111e-05 6.89852e-05 -4.1873e-06 )  
( 2.03252e-05 7.06214e-05 -7.00391e-06 )  
( 2.36911e-05 7.32057e-05 1.26035e-06 )  
( 2.42554e-05 7.39905e-05 -3.57836e-06 )  
( 2.26133e-05 6.87806e-05 -2.10733e-07 )  
( 2.04614e-05 7.44284e-05 -4.74499e-06 )  
( 1.97168e-05 7.38208e-05 -7.10037e-07 )  
( 1.82998e-05 7.00734e-05 -2.25443e-06 )  
( 1.79979e-05 7.64201e-05 -9.10775e-08 )  
( 2.86424e-05 7.16484e-05 3.90245e-07 )  
( 1.99887e-05 7.21499e-05 -4.42492e-06 )  
( 1.76949e-05 7.60142e-05 -3.83733e-07 )  
( 2.23378e-05 7.27253e-05 -3.13236e-06 )  
( 2.25211e-05 7.74954e-05 -1.56383e-06 )  
( 2.2184e-05 7.75702e-05 -6.43325e-06 )  
( 1.97164e-05 7.29207e-05 -4.78882e-06 )  
( 2.08428e-05 7.50067e-05 -3.79633e-06 )  
( 1.85864e-05 6.98299e-05 -2.35451e-06 )  
( -2.26425e-05 6.81591e-05 -1.9528e-05 )  
( 1.84897e-05 7.94588e-05 -1.71035e-06 )  
( -0.00146364 -0.000983315 -0.00127272 )  
( 1.33574e-05 8.16127e-05 -4.2601e-06 )  
( 1.77254e-05 7.41622e-05 -7.56926e-06 )  
( 2.23817e-05 7.12212e-05 -9.20274e-07 )  
( 0.000561767 0.000400741 -0.000260577 )  
( 4.0882e-05 0.000312672 -1.51247e-05 )  
( 2.47495e-05 7.78399e-05 -2.03585e-06 )  
( 1.5676e-05 8.49407e-05 -4.1814e-06 )  
( -0.000275767 0.000199081 -1.03702e-05 )  
( 2.16064e-05 7.45167e-05 -1.07492e-06 )  
( 1.9384e-05 7.70753e-05 -3.7801e-06 )  
( 2.1895e-05 7.69034e-05 -4.63936e-06 )  
( 1.99263e-05 7.65463e-05 -3.862e-06 )  
)
