/*--------------------------------*- C++ -*----------------------------------*\
| =========                 |                                                 |
| \\      /  F ield         | OpenFOAM: The Open Source CFD Toolbox           |
|  \\    /   O peration     | Version:  5.x                                   |
|   \\  /    A nd           | Web:      www.OpenFOAM.org                      |
|    \\/     M anipulation  |                                                 |
\*---------------------------------------------------------------------------*/
FoamFile
{
    version     2.0;
    format      ascii;
    class       volScalarField;
    location    "60000";
    object      p;
}
// * * * * * * * * * * * * * * * * * * * * * * * * * * * * * * * * * * * * * //

dimensions      [0 2 -2 0 0 0 0];

internalField   nonuniform List<scalar> 
2250
(
-3.33589e-10
-3.3825e-10
-3.50169e-10
-3.70462e-10
-4.26724e-10
-3.14725e-10
-3.16521e-10
-3.30949e-10
-3.61027e-10
-4.13038e-10
-2.69098e-10
-2.63499e-10
-2.87145e-10
-3.28523e-10
-3.79731e-10
-2.09311e-10
-2.12483e-10
-2.5492e-10
-3.04733e-10
-3.4468e-10
-1.47706e-10
-1.85837e-10
-2.56436e-10
-3.00891e-10
-2.88282e-10
-9.8057e-10
-9.90562e-10
-1.01527e-09
-1.06156e-09
-1.16519e-09
-9.21157e-10
-9.23611e-10
-9.62646e-10
-1.03503e-09
-1.12961e-09
-7.87901e-10
-7.8585e-10
-8.58534e-10
-9.64845e-10
-1.07752e-09
-6.34582e-10
-6.67321e-10
-7.83958e-10
-9.03963e-10
-9.90782e-10
-4.98316e-10
-6.14489e-10
-7.70681e-10
-8.54638e-10
-7.90608e-10
-1.5897e-09
-1.61023e-09
-1.63475e-09
-1.67598e-09
-1.7402e-09
-1.50048e-09
-1.51541e-09
-1.56761e-09
-1.64594e-09
-1.72788e-09
-1.302e-09
-1.33019e-09
-1.43445e-09
-1.56493e-09
-1.6969e-09
-1.0984e-09
-1.17346e-09
-1.31584e-09
-1.45485e-09
-1.56832e-09
-9.53377e-10
-1.08975e-09
-1.22657e-09
-1.30696e-09
-1.26394e-09
-2.18727e-09
-2.23101e-09
-2.24155e-09
-2.24608e-09
-2.24731e-09
-2.10398e-09
-2.1423e-09
-2.18127e-09
-2.2213e-09
-2.25394e-09
-1.8797e-09
-1.93675e-09
-2.02189e-09
-2.10835e-09
-2.18461e-09
-1.64851e-09
-1.72879e-09
-1.81911e-09
-1.89631e-09
-1.9558e-09
-1.49234e-09
-1.56042e-09
-1.58815e-09
-1.60094e-09
-1.57981e-09
-2.79713e-09
-2.86321e-09
-2.84304e-09
-2.78944e-09
-2.71748e-09
-2.73993e-09
-2.78782e-09
-2.78216e-09
-2.74834e-09
-2.69014e-09
-2.5043e-09
-2.55813e-09
-2.58193e-09
-2.58079e-09
-2.54152e-09
-2.23392e-09
-2.27854e-09
-2.29116e-09
-2.27694e-09
-2.21626e-09
-2.02593e-09
-2.0114e-09
-1.95367e-09
-1.86961e-09
-1.7498e-09
-3.38233e-09
-3.43844e-09
-3.37075e-09
-3.25205e-09
-3.10109e-09
-3.32934e-09
-3.34968e-09
-3.28326e-09
-3.17318e-09
-3.03297e-09
-3.07279e-09
-3.08668e-09
-3.04488e-09
-2.9697e-09
-2.85004e-09
-2.75497e-09
-2.75423e-09
-2.72158e-09
-2.6584e-09
-2.51727e-09
-2.4838e-09
-2.44881e-09
-2.39295e-09
-2.25999e-09
-1.95592e-09
-3.8639e-09
-3.8704e-09
-3.76373e-09
-3.61348e-09
-3.44321e-09
-3.77775e-09
-3.74796e-09
-3.64528e-09
-3.50774e-09
-3.3601e-09
-3.50616e-09
-3.47428e-09
-3.40101e-09
-3.30046e-09
-3.17953e-09
-3.17505e-09
-3.14881e-09
-3.10646e-09
-3.03536e-09
-2.90717e-09
-2.88778e-09
-2.87654e-09
-2.84963e-09
-2.74335e-09
-2.39817e-09
-4.21193e-09
-4.16599e-09
-4.05938e-09
-3.93128e-09
-3.80308e-09
-4.09115e-09
-4.03098e-09
-3.93865e-09
-3.82256e-09
-3.6976e-09
-3.84658e-09
-3.79651e-09
-3.72757e-09
-3.62771e-09
-3.51152e-09
-3.56583e-09
-3.53347e-09
-3.48452e-09
-3.40305e-09
-3.31063e-09
-3.31744e-09
-3.30427e-09
-3.26207e-09
-3.18934e-09
-3.03649e-09
-4.50559e-09
-4.44774e-09
-4.37105e-09
-4.27462e-09
-4.15617e-09
-4.39909e-09
-4.34992e-09
-4.28598e-09
-4.18446e-09
-4.03989e-09
-4.23289e-09
-4.1947e-09
-4.13405e-09
-4.02316e-09
-3.87296e-09
-4.04544e-09
-4.01107e-09
-3.945e-09
-3.8402e-09
-3.73419e-09
-3.84592e-09
-3.80071e-09
-3.72741e-09
-3.66723e-09
-3.64372e-09
-4.87427e-09
-4.84759e-09
-4.78629e-09
-4.67921e-09
-4.52367e-09
-4.84351e-09
-4.82725e-09
-4.76362e-09
-4.63716e-09
-4.46098e-09
-4.77922e-09
-4.75952e-09
-4.68005e-09
-4.5369e-09
-4.35884e-09
-4.68667e-09
-4.64685e-09
-4.55301e-09
-4.41827e-09
-4.27281e-09
-4.53594e-09
-4.4733e-09
-4.38521e-09
-4.30484e-09
-4.25344e-09
-5.36695e-09
-5.37329e-09
-5.27375e-09
-5.10003e-09
-4.90758e-09
-5.43794e-09
-5.43461e-09
-5.31517e-09
-5.12093e-09
-4.91877e-09
-5.46305e-09
-5.43653e-09
-5.29297e-09
-5.08591e-09
-4.88341e-09
-5.44888e-09
-5.3886e-09
-5.2397e-09
-5.05133e-09
-4.87691e-09
-5.38198e-09
-5.30629e-09
-5.18437e-09
-5.06766e-09
-5.04038e-09
-5.88156e-09
-5.86943e-09
-5.6602e-09
-5.35318e-09
-5.06202e-09
-6.02698e-09
-5.97788e-09
-5.73746e-09
-5.41211e-09
-5.10037e-09
-6.11174e-09
-6.0281e-09
-5.77088e-09
-5.44189e-09
-5.13477e-09
-6.16887e-09
-6.05569e-09
-5.81223e-09
-5.52197e-09
-5.28656e-09
-6.22471e-09
-6.10014e-09
-5.90111e-09
-5.73328e-09
-5.7911e-09
-6.23296e-09
-6.12401e-09
-5.74558e-09
-5.23702e-09
-4.71444e-09
-6.39638e-09
-6.23708e-09
-5.8322e-09
-5.31293e-09
-4.77448e-09
-6.52737e-09
-6.3439e-09
-5.94782e-09
-5.44721e-09
-4.93911e-09
-6.67667e-09
-6.48639e-09
-6.13182e-09
-5.7011e-09
-5.32267e-09
-6.87591e-09
-6.6852e-09
-6.39897e-09
-6.13193e-09
-6.12872e-09
-6.31285e-09
-6.05536e-09
-5.49962e-09
-4.77598e-09
-3.98132e-09
-6.46019e-09
-6.1693e-09
-5.61014e-09
-4.89478e-09
-4.1209e-09
-6.66807e-09
-6.38247e-09
-5.8615e-09
-5.19308e-09
-4.48165e-09
-6.96379e-09
-6.70186e-09
-6.24844e-09
-5.67683e-09
-5.1191e-09
-7.33856e-09
-7.10323e-09
-6.74388e-09
-6.33182e-09
-6.11649e-09
-6.20394e-09
-5.8064e-09
-5.11404e-09
-4.21978e-09
-3.22672e-09
-6.35603e-09
-5.96219e-09
-5.28806e-09
-4.41905e-09
-3.48217e-09
-6.70248e-09
-6.33805e-09
-5.71159e-09
-4.90192e-09
-4.03619e-09
-7.20818e-09
-6.88584e-09
-6.33145e-09
-5.61768e-09
-4.88096e-09
-7.80622e-09
-7.535e-09
-7.07586e-09
-6.48231e-09
-6.01824e-09
-6.13965e-09
-5.64098e-09
-4.83429e-09
-3.78353e-09
-2.62208e-09
-6.35073e-09
-5.88223e-09
-5.09474e-09
-4.07047e-09
-2.97266e-09
-6.88576e-09
-6.44866e-09
-5.69247e-09
-4.7103e-09
-3.64971e-09
-7.64717e-09
-7.24996e-09
-6.53664e-09
-5.60721e-09
-4.61063e-09
-8.52328e-09
-8.17504e-09
-7.51389e-09
-6.65044e-09
-5.88513e-09
-6.35359e-09
-5.76437e-09
-4.79236e-09
-3.50642e-09
-2.07742e-09
-6.66926e-09
-6.11206e-09
-5.14552e-09
-3.8745e-09
-2.47874e-09
-7.41542e-09
-6.87715e-09
-5.91274e-09
-4.64367e-09
-3.22444e-09
-8.46152e-09
-7.94476e-09
-6.97384e-09
-5.69552e-09
-4.28838e-09
-9.67069e-09
-9.16533e-09
-8.19249e-09
-6.95099e-09
-5.82769e-09
-6.97499e-09
-6.25666e-09
-5.00745e-09
-3.3362e-09
-1.44472e-09
-7.42185e-09
-6.72336e-09
-5.46746e-09
-3.79498e-09
-1.87893e-09
-8.39367e-09
-7.69918e-09
-6.42116e-09
-4.71369e-09
-2.73684e-09
-9.74541e-09
-9.04815e-09
-7.73275e-09
-5.97919e-09
-4.00839e-09
-1.13051e-08
-1.05854e-08
-9.26031e-09
-7.54302e-09
-5.91108e-09
-8.0458e-09
-7.12652e-09
-5.46209e-09
-3.21793e-09
-6.11611e-10
-8.64581e-09
-7.73267e-09
-6.05748e-09
-3.79848e-09
-1.12984e-09
-9.87293e-09
-8.95268e-09
-7.24777e-09
-4.94325e-09
-2.22556e-09
-1.1565e-08
-1.06289e-08
-8.8919e-09
-6.53703e-09
-3.8108e-09
-1.34969e-08
-1.25497e-08
-1.08189e-08
-8.46389e-09
-5.94322e-09
-9.58968e-09
-8.37599e-09
-6.13856e-09
-3.09663e-09
5.03888e-10
-1.03735e-08
-9.15833e-09
-6.9127e-09
-3.85592e-09
-2.16431e-10
-1.19256e-08
-1.07019e-08
-8.43441e-09
-5.34945e-09
-1.69359e-09
-1.40613e-08
-1.28281e-08
-1.05442e-08
-7.41776e-09
-3.7066e-09
-1.65159e-08
-1.5293e-08
-1.29998e-08
-9.80177e-09
-6.07185e-09
-1.16603e-08
-1.00371e-08
-7.03145e-09
-2.91885e-09
1.96637e-09
-1.26838e-08
-1.10633e-08
-8.05899e-09
-3.94805e-09
9.34075e-10
-1.46963e-08
-1.30781e-08
-1.00633e-08
-5.939e-09
-1.04383e-09
-1.74819e-08
-1.58685e-08
-1.28305e-08
-8.66217e-09
-3.6772e-09
-2.07447e-08
-1.91361e-08
-1.60479e-08
-1.17518e-08
-6.65934e-09
-1.43737e-08
-1.22022e-08
-8.17055e-09
-2.63048e-09
3.93978e-09
-1.57388e-08
-1.35872e-08
-9.56897e-09
-4.02798e-09
2.56393e-09
-1.84179e-08
-1.62801e-08
-1.22375e-08
-6.6469e-09
7.76897e-12
-2.21343e-08
-1.99962e-08
-1.58804e-08
-1.0206e-08
-3.45075e-09
-2.65223e-08
-2.4358e-08
-2.01332e-08
-1.43008e-08
-7.49806e-09
-1.79341e-08
-1.50396e-08
-9.61128e-09
-2.10421e-09
6.81166e-09
-1.97979e-08
-1.69368e-08
-1.15057e-08
-3.94225e-09
5.06792e-09
-2.33995e-08
-2.05301e-08
-1.50144e-08
-7.32474e-09
1.81629e-09
-2.83581e-08
-2.54412e-08
-1.97829e-08
-1.19553e-08
-2.7036e-09
-3.41799e-08
-3.11898e-08
-2.53694e-08
-1.74023e-08
-8.17743e-09
-2.26306e-08
-1.87541e-08
-1.13668e-08
-1.10301e-09
1.10601e-08
-2.51854e-08
-2.13136e-08
-1.38663e-08
-3.48715e-09
8.80151e-09
-3.00031e-08
-2.60606e-08
-1.84673e-08
-7.91083e-09
4.55648e-09
-3.65956e-08
-3.25528e-08
-2.47781e-08
-1.40336e-08
-1.38275e-09
-4.43136e-08
-4.01792e-08
-3.22026e-08
-2.12995e-08
-8.56698e-09
-2.88066e-08
-2.35374e-08
-1.34164e-08
5.95663e-10
1.70807e-08
-3.22614e-08
-2.69335e-08
-1.67092e-08
-2.57313e-09
1.40344e-08
-3.87082e-08
-3.32714e-08
-2.28763e-08
-8.52911e-09
8.31273e-09
-4.75758e-08
-4.20175e-08
-3.13952e-08
-1.67441e-08
4.71605e-10
-5.80399e-08
-5.2354e-08
-4.13949e-08
-2.63915e-08
-8.77804e-09
-3.6885e-08
-2.96663e-08
-1.58575e-08
3.12535e-09
2.5365e-08
-4.1536e-08
-3.42322e-08
-2.03113e-08
-1.19655e-09
2.11958e-08
-5.02912e-08
-4.28767e-08
-2.87428e-08
-9.32909e-09
1.34078e-08
-6.24083e-08
-5.48244e-08
-4.03415e-08
-2.04216e-08
2.9218e-09
-7.67884e-08
-6.89351e-08
-5.39018e-08
-3.3356e-08
-9.27798e-09
-4.74999e-08
-3.76806e-08
-1.89441e-08
6.67051e-09
3.67714e-08
-5.38515e-08
-4.39514e-08
-2.50768e-08
7.29252e-10
3.10381e-08
-6.58901e-08
-5.58353e-08
-3.66595e-08
-1.04051e-08
2.03791e-08
-8.25267e-08
-7.21952e-08
-5.25108e-08
-2.55288e-08
6.06244e-09
-1.02272e-07
-9.15181e-08
-7.11289e-08
-4.32527e-08
-1.06202e-08
-6.15712e-08
-4.83509e-08
-2.28948e-08
1.15356e-08
5.24461e-08
-7.03492e-08
-5.70034e-08
-3.13879e-08
3.34112e-09
4.4447e-08
-8.69281e-08
-7.33439e-08
-4.73471e-08
-1.19829e-08
2.9706e-08
-1.09785e-07
-9.5806e-08
-6.91278e-08
-3.27561e-08
1.00049e-08
-1.37051e-07
-1.22526e-07
-9.49524e-08
-5.7222e-08
-1.30183e-08
-8.01786e-08
-6.25908e-08
-2.76376e-08
1.8025e-08
7.41581e-08
-9.23402e-08
-7.45177e-08
-3.9493e-08
6.73324e-09
6.28775e-08
-1.15184e-07
-9.70464e-08
-6.16514e-08
-1.44648e-08
4.23023e-08
-1.46604e-07
-1.27927e-07
-9.16171e-08
-4.29263e-08
1.52054e-08
-1.84779e-07
-1.65311e-07
-1.27699e-07
-7.66354e-08
-1.64036e-08
-1.04373e-07
-8.18774e-08
-3.20523e-08
2.58494e-08
1.06726e-07
-1.21337e-07
-9.82228e-08
-4.89007e-08
1.06556e-08
9.02621e-08
-1.5293e-07
-1.29365e-07
-8.01844e-08
-1.87477e-08
6.03849e-08
-1.95689e-07
-1.71375e-07
-1.21043e-07
-5.72163e-08
2.26981e-08
-2.50354e-07
-2.24518e-07
-1.72536e-07
-1.0406e-07
-2.1589e-08
-1.34589e-07
-1.09993e-07
-3.085e-08
3.03784e-08
1.62777e-07
-1.587e-07
-1.31645e-07
-5.59458e-08
1.16972e-08
1.36405e-07
-2.02941e-07
-1.74929e-07
-1.02278e-07
-2.9045e-08
8.90304e-08
-2.58593e-07
-2.29785e-07
-1.55809e-07
-7.84586e-08
3.59087e-08
-3.4089e-07
-3.07852e-07
-2.33984e-07
-1.44657e-07
-3.04389e-08
-1.69941e-07
-1.56098e-07
-1.06543e-08
1.78466e-08
2.64866e-07
-2.04808e-07
-1.82236e-07
-4.95649e-08
-5.56203e-11
2.2055e-07
-2.70413e-07
-2.45063e-07
-1.26359e-07
-5.8609e-08
1.38551e-07
-3.30725e-07
-3.06581e-07
-1.83764e-07
-1.12002e-07
6.68283e-08
-4.69955e-07
-4.318e-07
-3.20969e-07
-2.10539e-07
-4.55717e-08
-2.09682e-07
-2.3319e-07
4.44635e-08
-2.73448e-08
4.40343e-07
-2.58247e-07
-2.55437e-07
-1.3392e-08
-2.6549e-08
3.66419e-07
-3.70185e-07
-3.609e-07
-1.62687e-07
-1.29076e-07
2.11296e-07
-3.94245e-07
-3.95554e-07
-1.75523e-07
-1.53214e-07
1.39897e-07
-6.66829e-07
-6.28208e-07
-4.58188e-07
-3.27207e-07
-7.76188e-08
-2.55346e-07
-3.60055e-07
1.51917e-07
-1.19786e-07
7.27939e-07
-3.12923e-07
-3.44023e-07
7.06351e-08
-5.34039e-08
6.02189e-07
-5.27853e-07
-5.45745e-07
-2.30626e-07
-2.65482e-07
2.94733e-07
-4.26254e-07
-4.82293e-07
-1.02129e-07
-1.78076e-07
2.81532e-07
-9.69446e-07
-9.36058e-07
-6.81532e-07
-5.29489e-07
-1.5071e-07
-3.32303e-07
-5.67663e-07
3.27628e-07
-2.76946e-07
1.17324e-06
-3.93589e-07
-4.73323e-07
2.0635e-07
-7.2804e-08
9.52345e-07
-7.6305e-07
-8.09673e-07
-3.44078e-07
-4.79359e-07
3.89114e-07
-4.27193e-07
-5.77129e-07
6.37923e-08
-1.90967e-07
5.00801e-07
-1.42313e-06
-1.40413e-06
-1.02194e-06
-8.5035e-07
-2.77333e-07
-5.34648e-07
-8.68876e-07
6.96298e-07
-4.57531e-07
1.92274e-06
-5.62858e-07
-6.97306e-07
4.45669e-07
6.36159e-09
1.51699e-06
-1.06054e-06
-1.14848e-06
-4.59118e-07
-6.96635e-07
5.76098e-07
-3.79125e-07
-6.86276e-07
5.70712e-07
-2.5249e-07
9.2603e-07
-2.05705e-06
-2.05427e-06
-1.4474e-06
-1.30403e-06
-4.11659e-07
2.97834e-06
1.7042e-06
3.69074e-06
1.11921e-06
6.80523e-06
2.26343e-06
2.06565e-06
3.11996e-06
2.23111e-06
4.24474e-06
2.20768e-06
2.44223e-06
1.66335e-06
1.09282e-06
2.27299e-06
3.40408e-06
2.33663e-06
3.79989e-06
1.49298e-06
3.02607e-06
2.72161e-07
1.34483e-07
-4.13191e-07
-6.49673e-07
-1.59668e-07
-8.73564e-06
-9.32316e-06
-5.46718e-06
-7.68452e-06
-2.95497e-06
-8.34637e-06
-8.53854e-06
-6.05067e-06
-6.97637e-06
-4.07543e-06
-9.38277e-06
-9.57202e-06
-7.55841e-06
-8.39986e-06
-5.69482e-06
-8.31871e-06
-9.26336e-06
-5.62977e-06
-8.22126e-06
-4.21021e-06
-1.09563e-05
-1.14992e-05
-8.93902e-06
-9.27286e-06
-4.18221e-06
1.38435e-05
9.57827e-06
1.71791e-05
6.30238e-06
3.64723e-05
8.88338e-06
1.07228e-05
1.32428e-05
1.39194e-05
1.29683e-05
1.32762e-05
1.86463e-05
8.81149e-06
1.06431e-05
9.85983e-06
1.97209e-05
1.52487e-05
2.12394e-05
8.97423e-06
1.83654e-05
6.09709e-06
6.96586e-06
1.61165e-06
1.66635e-06
3.28263e-06
-2.698e-05
-2.40979e-05
-1.4201e-05
-1.88625e-05
-2.58535e-05
-2.16279e-05
-2.0273e-05
-1.66423e-05
-2.07455e-05
-1.18013e-05
-2.3583e-05
-2.84541e-05
-1.70821e-05
-2.29383e-05
-2.10154e-05
-2.53713e-05
-2.48707e-05
-2.02419e-05
-1.95945e-05
-2.14881e-05
-2.57079e-05
-2.79268e-05
-2.11621e-05
-2.23138e-05
-1.13811e-07
2.9316e-05
2.8105e-06
2.43363e-05
-2.50664e-05
0.000182593
6.88676e-07
1.78822e-05
1.54515e-05
3.81844e-05
-4.72275e-05
1.47956e-05
7.59902e-05
-2.59982e-07
2.09935e-05
-2.53621e-05
6.21158e-05
3.95451e-05
7.21227e-05
1.52029e-07
8.28037e-05
-1.5044e-05
6.98671e-06
-3.46147e-05
-1.11406e-05
-6.632e-06
0.00107206
0.00115735
0.00068486
0.000942831
0.000804215
0.00126995
0.00104287
0.0011816
0.000790371
0.000889319
0.00103333
0.000896299
0.000834117
0.000626826
0.000846997
0.000887661
0.000784123
0.00066304
0.000784897
0.000485868
0.000950296
0.000812079
0.000819499
0.000566847
0.000637924
0.00142473
0.00192216
0.00177378
0.00154562
0.00126948
0.00183286
0.00167142
0.00192116
0.00154587
0.00155215
0.00174464
0.00169003
0.00182395
0.00131219
0.00178658
0.00188908
0.00129608
0.00125439
0.00141085
0.0012274
0.00164655
0.0013334
0.00150611
0.00174668
0.00185026
0.00234541
0.00229401
0.00243568
0.00241522
0.00248994
0.00217998
0.00229434
0.00263645
0.00209705
0.00220508
0.00239408
0.00243073
0.00252988
0.00285107
0.00212932
0.00246389
0.00249235
0.00221165
0.00240708
0.00255146
0.00288041
0.00260764
0.00241385
0.00299258
0.00224649
0.00284647
0.00260494
0.00306548
0.00375703
0.0039524
0.00295131
0.00349938
0.00310475
0.00363126
0.0038849
0.00280463
0.00276944
0.00313675
0.00382038
0.00333662
0.00277716
0.00306667
0.0033244
0.00345009
0.00331748
0.00295968
0.0030423
0.00380019
0.00346049
0.00330076
0.00415437
0.00460928
0.00387699
0.0043112
0.00432651
0.00416292
0.00458003
0.00382109
0.0042552
0.00445144
0.00359573
0.00394834
0.00391929
0.00417868
0.00426335
0.0034205
0.00384512
0.00392655
0.00439974
0.00418045
0.00379561
0.0039822
0.00403713
0.00369408
0.00488821
0.00509795
0.00503306
0.00440307
0.00472851
0.00451114
0.00467105
0.00494915
0.00463474
0.00474836
0.00473636
0.00482293
0.00491253
0.00446813
0.00465794
0.0045272
0.00450616
0.00469117
0.00459846
0.00483117
0.00503446
0.00457548
0.00499284
0.0043698
0.00491932
0.00489495
0.00546858
0.00560443
0.00534477
0.00529129
0.00515667
0.00530987
0.00539755
0.00497684
0.00525994
0.00525757
0.00548007
0.00549128
0.00578305
0.00532265
0.00513947
0.00523416
0.0053096
0.00530245
0.00525372
0.00525455
0.00454221
0.00505505
0.00534487
0.00551193
0.00524845
0.00624149
0.0059161
0.00641775
0.00618058
0.00580196
0.00616497
0.00571795
0.00553489
0.00580862
0.00570908
0.00636246
0.00598946
0.00597111
0.00592386
0.00596417
0.00672945
0.006042
0.00605771
0.00589116
0.00569499
0.00610215
0.00588315
0.00584467
0.00583414
0.00620268
0.00627762
0.00613199
0.00627758
0.00620207
0.00622865
0.00640808
0.00610565
0.00671467
0.00634327
0.00600565
0.00634445
0.00633597
0.00613134
0.00649766
0.0062812
0.0063875
0.00636656
0.00640828
0.00647454
0.00647274
0.00629637
0.00642781
0.00623492
0.00665133
0.00680474
0.00646512
0.00710167
0.00704361
0.00701096
0.00680442
0.00702968
0.00702534
0.00714813
0.00707082
0.00704689
0.00650671
0.00689336
0.00678176
0.00708769
0.0068391
0.00668578
0.00692211
0.00669788
0.00694819
0.00691692
0.00729142
0.00690667
0.0067082
0.00686484
0.00690363
0.00714946
0.00717075
0.00713674
0.00717908
0.00714784
0.00714147
0.0071358
0.00714431
0.00716746
0.00714947
0.00715382
0.00715243
0.00715857
0.00715627
0.00711728
0.00714004
0.00713861
0.00712753
0.00715143
0.00712976
0.00715799
0.00715278
0.00709752
0.00708972
0.00712065
0.00709393
0.0070817
0.00708584
0.00706063
0.00709294
0.00707337
0.00708576
0.0070907
0.00708114
0.00708681
0.00707657
0.00707061
0.00708204
0.00706361
0.00707724
0.0070796
0.00708239
0.00709934
0.00708421
0.007096
0.00710309
0.0071028
0.00710422
0.00709234
0.00710497
0.00710265
0.00710347
0.00710497
0.00710145
0.00709958
0.00710104
0.0070993
0.00710168
0.00709971
0.00709818
0.00710444
0.00710174
0.00709915
0.00709505
0.00709688
0.00710004
0.00709973
0.00709776
0.00709277
0.00709516
0.00710594
0.00710235
0.00709644
0.00708753
0.00709195
0.00709229
0.0070904
0.00709394
0.00708679
0.00709573
0.00709105
0.00709155
0.00709385
0.00708966
0.00709476
0.00709344
0.0070916
0.00709541
0.00708913
0.00709561
0.0070935
0.00709262
0.0070963
0.00709271
0.00709672
0.00709911
0.0070983
0.00709913
0.00709574
0.00709821
0.0070961
0.00709495
0.00709655
0.00709322
0.00709561
0.0070954
0.00709456
0.00709572
0.00709339
0.00709536
0.00709696
0.00709559
0.00709666
0.00709315
0.00709595
0.00709569
0.00709506
0.00709643
0.00709407
0.00709629
0.00709857
0.00709767
0.00709828
0.00709561
0.00709715
0.00709594
0.00709524
0.00709608
0.00709396
0.00709548
0.00709565
0.00709516
0.0070958
0.00709427
0.00709546
0.00709664
0.0070959
0.00709659
0.0070945
0.00709589
0.00709617
0.00709567
0.00709646
0.00709501
0.00709626
0.00709793
0.00709737
0.00709787
0.00709626
0.00709709
0.00709603
0.00709565
0.00709597
0.00709484
0.00709548
0.00709593
0.00709564
0.00709591
0.00709502
0.00709555
0.00709655
0.00709615
0.00709646
0.00709532
0.00709588
0.00709633
0.00709606
0.00709651
0.00709566
0.00709623
0.00709769
0.00709732
0.0070975
0.00709657
0.0070969
0.00709614
0.00709595
0.007096
0.00709545
0.00709559
0.00709613
0.00709596
0.00709602
0.00709557
0.00709569
0.00709652
0.00709638
0.0070964
0.00709583
0.00709594
0.00709654
0.00709637
0.00709654
0.0070961
0.00709625
0.00709743
0.00709722
0.00709722
0.00709671
0.00709675
0.00709626
0.00709617
0.0070961
0.00709584
0.00709577
0.00709627
0.0070962
0.00709616
0.00709593
0.00709586
0.00709659
0.00709649
0.00709641
0.00709613
0.00709605
0.00709662
0.00709655
0.00709658
0.00709637
0.00709632
0.00709719
0.00709709
0.00709702
0.00709676
0.00709668
0.00709637
0.00709631
0.00709624
0.00709609
0.00709598
0.0070964
0.00709636
0.00709629
0.00709616
0.00709605
0.0070966
0.00709654
0.00709646
0.00709631
0.0070962
0.00709669
0.00709666
0.00709663
0.0070965
0.0070964
0.00709703
0.00709698
0.00709691
0.00709678
0.00709667
0.00709645
0.00709642
0.00709635
0.00709626
0.00709616
0.00709649
0.00709646
0.00709641
0.00709632
0.00709622
0.00709662
0.00709658
0.00709652
0.00709643
0.00709633
0.00709673
0.00709671
0.00709666
0.00709658
0.00709649
0.00709694
0.00709691
0.00709685
0.00709677
0.00709668
0.00709652
0.00709649
0.00709645
0.00709638
0.00709631
0.00709656
0.00709653
0.00709649
0.00709642
0.00709635
0.00709664
0.00709661
0.00709657
0.00709651
0.00709643
0.00709674
0.00709672
0.00709668
0.00709662
0.00709655
0.00709688
0.00709686
0.00709682
0.00709676
0.0070967
0.00709657
0.00709655
0.00709652
0.00709647
0.00709642
0.0070966
0.00709658
0.00709655
0.0070965
0.00709645
0.00709666
0.00709664
0.00709661
0.00709657
0.00709651
0.00709674
0.00709673
0.0070967
0.00709665
0.0070966
0.00709684
0.00709683
0.0070968
0.00709676
0.0070967
0.00709661
0.0070966
0.00709657
0.00709654
0.0070965
0.00709663
0.00709662
0.0070966
0.00709656
0.00709652
0.00709668
0.00709667
0.00709664
0.00709661
0.00709657
0.00709674
0.00709673
0.0070967
0.00709667
0.00709663
0.00709681
0.0070968
0.00709678
0.00709675
0.00709671
0.00709664
0.00709663
0.00709661
0.00709659
0.00709656
0.00709666
0.00709665
0.00709663
0.00709661
0.00709658
0.00709669
0.00709668
0.00709666
0.00709664
0.00709661
0.00709674
0.00709673
0.00709671
0.00709669
0.00709666
0.00709679
0.00709678
0.00709677
0.00709674
0.00709672
0.00709666
0.00709665
0.00709664
0.00709662
0.0070966
0.00709667
0.00709667
0.00709665
0.00709664
0.00709661
0.0070967
0.00709669
0.00709668
0.00709666
0.00709664
0.00709673
0.00709673
0.00709671
0.0070967
0.00709668
0.00709677
0.00709677
0.00709676
0.00709674
0.00709672
0.00709668
0.00709667
0.00709666
0.00709665
0.00709663
0.00709669
0.00709668
0.00709667
0.00709666
0.00709664
0.00709671
0.0070967
0.00709669
0.00709668
0.00709666
0.00709673
0.00709673
0.00709672
0.0070967
0.00709669
0.00709676
0.00709676
0.00709675
0.00709673
0.00709672
0.00709669
0.00709668
0.00709668
0.00709667
0.00709666
0.00709669
0.00709669
0.00709668
0.00709667
0.00709666
0.00709671
0.0070967
0.0070967
0.00709669
0.00709668
0.00709673
0.00709672
0.00709672
0.00709671
0.0070967
0.00709675
0.00709675
0.00709674
0.00709673
0.00709672
0.0070967
0.00709669
0.00709669
0.00709668
0.00709667
0.0070967
0.0070967
0.00709669
0.00709669
0.00709668
0.00709671
0.00709671
0.0070967
0.0070967
0.00709669
0.00709672
0.00709672
0.00709672
0.00709671
0.0070967
0.00709674
0.00709674
0.00709673
0.00709673
0.00709672
0.0070967
0.0070967
0.00709669
0.00709669
0.00709668
0.0070967
0.0070967
0.0070967
0.00709669
0.00709669
0.00709671
0.00709671
0.0070967
0.0070967
0.00709669
0.00709672
0.00709672
0.00709671
0.00709671
0.0070967
0.00709673
0.00709673
0.00709673
0.00709672
0.00709672
0.0070967
0.0070967
0.0070967
0.00709669
0.00709669
0.00709671
0.0070967
0.0070967
0.0070967
0.00709669
0.00709671
0.00709671
0.00709671
0.0070967
0.0070967
0.00709672
0.00709672
0.00709671
0.00709671
0.00709671
0.00709673
0.00709672
0.00709672
0.00709672
0.00709671
0.0070967
0.0070967
0.0070967
0.0070967
0.00709669
0.00709671
0.0070967
0.0070967
0.0070967
0.0070967
0.00709671
0.00709671
0.00709671
0.0070967
0.0070967
0.00709671
0.00709671
0.00709671
0.00709671
0.00709671
0.00709672
0.00709672
0.00709672
0.00709672
0.00709671
0.0070967
0.0070967
0.0070967
0.0070967
0.0070967
0.00709671
0.0070967
0.0070967
0.0070967
0.0070967
0.00709671
0.00709671
0.00709671
0.0070967
0.0070967
0.00709671
0.00709671
0.00709671
0.00709671
0.00709671
0.00709672
0.00709672
0.00709671
0.00709671
0.00709671
0.0070967
0.0070967
0.0070967
0.0070967
0.0070967
0.0070967
0.0070967
0.0070967
0.0070967
0.0070967
0.00709671
0.00709671
0.0070967
0.0070967
0.0070967
0.00709671
0.00709671
0.00709671
0.00709671
0.0070967
0.00709671
0.00709671
0.00709671
0.00709671
0.00709671
0.0070967
0.0070967
0.0070967
0.0070967
0.0070967
0.0070967
0.0070967
0.0070967
0.0070967
0.0070967
0.0070967
0.0070967
0.0070967
0.0070967
0.0070967
0.00709671
0.00709671
0.00709671
0.00709671
0.0070967
0.00709671
0.00709671
0.00709671
0.00709671
0.00709671
0.0070967
0.0070967
0.0070967
0.0070967
0.0070967
0.0070967
0.0070967
0.0070967
0.0070967
0.0070967
0.0070967
0.0070967
0.0070967
0.0070967
0.0070967
0.0070967
0.0070967
0.0070967
0.0070967
0.0070967
0.00709671
0.00709671
0.00709671
0.00709671
0.0070967
0.0070967
0.0070967
0.0070967
0.0070967
0.0070967
0.0070967
0.0070967
0.0070967
0.0070967
0.0070967
0.0070967
0.0070967
0.0070967
0.0070967
0.0070967
0.0070967
0.0070967
0.0070967
0.0070967
0.0070967
0.0070967
0.0070967
0.0070967
0.0070967
0.0070967
0.0070967
0.0070967
0.0070967
0.0070967
0.0070967
0.0070967
0.0070967
0.0070967
0.0070967
0.0070967
0.0070967
0.0070967
0.0070967
0.0070967
0.0070967
0.0070967
0.0070967
0.0070967
0.0070967
0.0070967
0.0070967
0.0070967
0.0070967
0.0070967
0.0070967
0.0070967
0.0070967
0.0070967
0.0070967
0.0070967
0.0070967
0.0070967
0.0070967
0.0070967
0.0070967
0.0070967
0.0070967
0.0070967
0.0070967
0.0070967
0.0070967
0.0070967
0.0070967
0.0070967
0.0070967
0.0070967
0.0070967
0.0070967
0.0070967
0.0070967
0.0070967
0.0070967
0.0070967
0.0070967
0.0070967
0.0070967
0.0070967
0.0070967
0.0070967
0.0070967
0.0070967
0.0070967
0.0070967
0.0070967
0.0070967
0.0070967
0.0070967
0.0070967
0.0070967
0.0070967
0.0070967
0.0070967
0.0070967
0.0070967
0.0070967
0.0070967
0.0070967
0.0070967
0.0070967
0.0070967
0.0070967
0.0070967
0.0070967
0.0070967
0.0070967
0.0070967
0.0070967
0.0070967
0.0070967
0.0070967
0.0070967
0.0070967
0.0070967
0.0070967
0.0070967
0.0070967
0.0070967
0.0070967
0.0070967
0.0070967
0.0070967
0.0070967
0.0070967
0.0070967
0.00709669
0.0070967
0.0070967
0.0070967
0.0070967
0.00709669
0.0070967
0.0070967
0.0070967
0.0070967
0.0070967
0.0070967
0.0070967
0.0070967
0.0070967
0.0070967
0.0070967
0.0070967
0.0070967
0.0070967
0.0070967
0.00709669
0.00709669
0.00709669
0.00709669
0.00709669
0.00709669
0.00709669
0.00709669
0.00709669
0.00709669
0.00709669
0.00709669
0.00709669
0.00709669
0.00709669
0.0070967
0.0070967
0.00709669
0.00709669
0.00709669
0.0070967
0.0070967
0.0070967
0.00709669
0.00709669
0.00709669
0.00709669
0.00709669
0.00709669
0.00709669
0.00709669
0.00709669
0.00709669
0.00709669
0.00709669
0.00709669
0.00709669
0.00709669
0.00709669
0.00709669
0.00709669
0.00709669
0.00709669
0.00709669
0.00709669
0.00709669
0.00709669
0.00709669
0.00709669
0.00709669
0.00709669
0.00709669
0.00709669
0.00709669
0.00709669
0.00709669
0.00709669
0.00709669
0.00709669
0.00709669
0.00709669
0.00709669
0.00709669
0.00709669
0.00709669
0.00709669
0.00709669
0.00709669
0.00709669
0.00709669
0.00709669
0.00709669
0.00709669
0.00709669
0.00709669
0.00709669
0.00709669
0.00709669
0.00709669
0.00709669
0.00709669
0.00709669
0.00709669
0.00709669
0.00709669
0.00709669
0.00709669
0.00709669
0.00709669
0.00709669
0.00709669
0.00709669
0.00709669
0.00709669
0.00709669
0.00709669
0.00709669
0.00709669
0.00709669
0.00709669
0.00709669
0.00709669
0.00709669
0.00709669
0.00709669
0.00709669
0.00709669
0.00709669
0.00709669
0.00709669
0.00709669
0.00709669
0.00709669
0.00709669
0.00709669
0.00709669
0.00709669
0.00709669
0.00709669
0.00709669
0.00709669
0.00709669
0.00709669
0.00709669
0.00709669
0.00709669
0.00709669
0.00709669
0.00709669
0.00709669
0.00709669
0.00709669
0.00709669
0.00709669
0.00709669
0.00709669
0.00709669
0.00709669
0.00709669
0.00709669
0.00709669
0.00709669
0.00709669
0.00709669
0.00709669
0.00709669
0.00709669
0.00709669
0.00709669
0.00709669
0.00709669
0.00709669
0.00709669
0.00709669
0.00709669
0.00709669
0.00709669
0.00709669
0.00709669
0.00709669
0.00709669
0.00709669
0.00709669
0.00709669
0.00709669
0.00709669
0.00709669
0.00709669
0.00709669
0.00709669
0.00709669
0.00709669
0.00709669
0.00709669
0.00709669
)
;

boundaryField
{
    inlet
    {
        type            zeroGradient;
    }
    outlet
    {
        type            fixedValue;
        value           uniform 0;
    }
    repeat_boundary
    {
        type            zeroGradient;
    }
    procBoundary0to1
    {
        type            processor;
        value           nonuniform List<scalar> 
450
(
-4.01194e-10
-3.94395e-10
-3.73574e-10
-3.77358e-10
-4.34657e-10
-1.09672e-09
-1.06885e-09
-1.03451e-09
-1.02393e-09
-1.09618e-09
-1.64154e-09
-1.6297e-09
-1.60318e-09
-1.50078e-09
-1.35861e-09
-2.12759e-09
-2.15022e-09
-2.12257e-09
-1.95047e-09
-1.65491e-09
-2.5715e-09
-2.57715e-09
-2.5197e-09
-2.37872e-09
-2.23287e-09
-2.94089e-09
-2.90027e-09
-2.79415e-09
-2.67455e-09
-2.72477e-09
-3.30009e-09
-3.2328e-09
-3.06865e-09
-2.87245e-09
-2.85255e-09
-3.68516e-09
-3.59802e-09
-3.39774e-09
-3.14937e-09
-2.98166e-09
-4.02473e-09
-3.92977e-09
-3.7536e-09
-3.55748e-09
-3.35133e-09
-4.32149e-09
-4.26836e-09
-4.15206e-09
-4.01428e-09
-3.78145e-09
-4.59922e-09
-4.60639e-09
-4.54154e-09
-4.43841e-09
-4.20265e-09
-4.64284e-09
-4.67519e-09
-4.68819e-09
-4.71004e-09
-4.62265e-09
-4.19015e-09
-4.24482e-09
-4.41726e-09
-4.69005e-09
-4.87989e-09
-3.34065e-09
-3.46636e-09
-3.84601e-09
-4.38238e-09
-4.8707e-09
-2.42484e-09
-2.65475e-09
-3.19802e-09
-3.87502e-09
-4.50368e-09
-1.57542e-09
-1.90439e-09
-2.52574e-09
-3.22383e-09
-3.7902e-09
-6.59281e-10
-1.06599e-09
-1.74144e-09
-2.5481e-09
-3.21796e-09
5.16805e-10
5.17826e-11
-7.60765e-10
-1.92385e-09
-3.11734e-09
2.10586e-09
1.56909e-09
4.96244e-10
-1.14739e-09
-2.98399e-09
4.24274e-09
3.55298e-09
2.12656e-09
4.15793e-11
-2.32481e-09
7.09231e-09
6.13016e-09
4.27407e-09
1.73331e-09
-1.18324e-09
1.09625e-08
9.65342e-09
7.26726e-09
4.09207e-09
4.24826e-10
1.63776e-08
1.46892e-08
1.1611e-08
7.47274e-09
2.70152e-09
2.39642e-08
2.1794e-08
1.77514e-08
1.22316e-08
5.95722e-09
3.44175e-08
3.1525e-08
2.61063e-08
1.8727e-08
1.04026e-08
4.87059e-08
4.47664e-08
3.74259e-08
2.75428e-08
1.62909e-08
6.81596e-08
6.27768e-08
5.27368e-08
3.93494e-08
2.40843e-08
9.43299e-08
8.68699e-08
7.301e-08
5.47402e-08
3.39441e-08
1.29019e-07
1.18694e-07
9.96428e-08
7.4921e-08
4.65203e-08
1.73735e-07
1.60093e-07
1.34118e-07
1.01352e-07
6.29926e-08
2.25137e-07
2.08708e-07
1.74221e-07
1.3388e-07
8.29038e-08
2.74004e-07
2.57005e-07
2.10724e-07
1.70106e-07
1.02026e-07
3.16854e-07
3.09073e-07
2.33915e-07
2.1606e-07
1.06965e-07
3.53089e-07
3.84019e-07
2.28859e-07
2.99932e-07
7.84126e-08
3.82423e-07
4.89412e-07
1.90986e-07
4.17777e-07
1.36134e-08
4.57983e-07
6.66788e-07
2.37985e-07
3.41365e-07
-4.20566e-08
3.07137e-06
3.78071e-06
2.06714e-06
9.09863e-07
6.25418e-07
-6.57289e-06
-6.26721e-06
-5.84976e-06
-4.93266e-06
-6.15958e-06
9.91456e-06
1.71041e-05
1.42343e-05
-1.26333e-06
4.57622e-06
-1.23217e-05
-2.16894e-05
-1.87874e-05
-3.27417e-06
-2.1444e-05
-9.06338e-06
6.02224e-05
0.000123628
-7.29815e-05