/*--------------------------------*- C++ -*----------------------------------*\
| =========                 |                                                 |
| \\      /  F ield         | OpenFOAM: The Open Source CFD Toolbox           |
|  \\    /   O peration     | Version:  5.x                                   |
|   \\  /    A nd           | Web:      www.OpenFOAM.org                      |
|    \\/     M anipulation  |                                                 |
\*---------------------------------------------------------------------------*/
FoamFile
{
    version     2.0;
    format      ascii;
    class       volScalarField;
    location    "7000";
    object      p;
}
// * * * * * * * * * * * * * * * * * * * * * * * * * * * * * * * * * * * * * //

dimensions      [0 2 -2 0 0 0 0];

internalField   nonuniform List<scalar> 
180
(
-3.01052e-09
-9.15159e-09
-1.52727e-08
-2.11934e-08
-2.68962e-08
-3.22929e-08
-3.73301e-08
-4.19613e-08
-4.61499e-08
-4.98704e-08
-5.31077e-08
-5.58578e-08
-5.81269e-08
-5.99314e-08
-6.12961e-08
-6.22534e-08
-6.28419e-08
-6.31045e-08
-6.30865e-08
-6.28343e-08
-6.23932e-08
-6.18058e-08
-6.11108e-08
-6.03415e-08
-5.9525e-08
-5.86816e-08
-5.78248e-08
-5.69613e-08
-5.60918e-08
-5.52118e-08
-5.4313e-08
-5.33847e-08
-5.24151e-08
-5.1393e-08
-5.03093e-08
-4.91572e-08
-4.7933e-08
-4.66355e-08
-4.52646e-08
-4.38182e-08
-4.22889e-08
-4.06577e-08
-3.88874e-08
-3.69127e-08
-3.46295e-08
-3.18812e-08
-2.84425e-08
-2.4001e-08
-1.81345e-08
-1.02855e-08
2.69905e-10
1.44584e-08
3.34538e-08
5.87301e-08
9.21264e-08
1.35928e-07
1.92964e-07
2.66731e-07
3.61546e-07
4.82732e-07
6.36856e-07
8.32013e-07
1.07818e-06
1.38767e-06
1.77562e-06
2.26071e-06
2.8659e-06
3.61945e-06
4.55604e-06
5.71823e-06
7.15827e-06
8.94072e-06
1.11453e-05
1.38656e-05
1.71993e-05
2.12547e-05
2.62852e-05
3.3016e-05
4.20736e-05
5.11665e-05
3.15984e-05
0.000582471
0.00105099
0.00131889
0.0028586
0.00461935
0.00659837
0.00749514
0.00802916
0.00865952
0.0106172
0.0129408
0.0150359
0.0154476
0.0163753
0.0168779
0.0173536
0.0185397
0.0188738
0.0201746
0.0228043
0.0234149
0.0236112
0.0236288
0.0236383
0.0236471
0.023652
0.0236563
0.0236602
0.0236636
0.0236666
0.0236691
0.0236713
0.0236732
0.0236749
0.0236763
0.0236775
0.0236785
0.0236795
0.0236802
0.0236809
0.0236815
0.023682
0.0236825
0.0236829
0.0236832
0.0236835
0.0236837
0.0236839
0.0236841
0.0236843
0.0236844
0.0236845
0.0236846
0.0236847
0.0236848
0.0236849
0.0236849
0.023685
0.023685
0.0236851
0.0236851
0.0236851
0.0236852
0.0236852
0.0236852
0.0236852
0.0236852
0.0236852
0.0236853
0.0236853
0.0236853
0.0236853
0.0236853
0.0236853
0.0236853
0.0236853
0.0236853
0.0236853
0.0236853
0.0236853
0.0236853
0.0236853
0.0236854
0.0236854
0.0236854
0.0236854
0.0236854
0.0236854
0.0236854
0.0236854
0.0236854
0.0236854
0.0236854
0.0236854
0.0236853
0.0236853
0.0236853
0.0236853
0.0236853
)
;

boundaryField
{
    inlet
    {
        type            zeroGradient;
    }
    outlet
    {
        type            fixedValue;
        value           uniform 0;
    }
    repeat_boundary
    {
        type            zeroGradient;
    }
    procBoundary2to0
    {
        type            processor;
        value           nonuniform List<scalar> 
180
(
-2.91832e-09
-8.84268e-09
-1.47938e-08
-2.05539e-08
-2.60557e-08
-3.12069e-08
-3.59319e-08
-4.01636e-08
-4.38427e-08
-4.69173e-08
-4.93439e-08
-5.10878e-08
-5.21227e-08
-5.24269e-08
-5.19878e-08
-5.08008e-08
-4.88675e-08
-4.6194e-08
-4.27891e-08
-3.86622e-08
-3.38204e-08
-2.82666e-08
-2.19965e-08
-1.49954e-08
-7.23589e-09
1.32573e-09
1.0752e-08
2.11271e-08
3.25598e-08
4.51857e-08
5.91696e-08
7.47074e-08
9.20286e-08
1.11398e-07
1.33117e-07
1.57526e-07
1.85009e-07
2.15994e-07
2.50958e-07
2.9043e-07
3.35e-07
3.85324e-07
4.42135e-07
5.0625e-07
5.78584e-07
6.60164e-07
7.52143e-07
8.55817e-07
9.72643e-07
1.10426e-06
1.25249e-06
1.41939e-06
1.60724e-06
1.81856e-06
2.05615e-06
2.32304e-06
2.62256e-06
2.95829e-06
3.33405e-06
3.75386e-06
4.22192e-06
4.74252e-06
5.31991e-06
5.9582e-06
6.66114e-06
7.43186e-06
8.27251e-06
9.18382e-06
1.01645e-05
1.12102e-05
1.23132e-05
1.34614e-05
1.46379e-05
1.58137e-05
1.69215e-05
1.78532e-05
1.86827e-05
2.02821e-05
2.3424e-05
2.24932e-05
-5.63594e-05
0.00075771
0.00124222
0.00140208
0.00188619
0.0026601
0.00411604
0.00485125
0.00869161
0.0109917
0.0121105
0.0124402
0.0127369
0.0140897
0.0148262
0.0164175
0.0175566
0.0184335
0.0195681
0.0203302
0.0214807
0.0229109
0.0232573
0.0235498
0.0236756
0.0236563
0.0236565
0.0236606
0.0236641
0.0236668
0.0236691
0.0236711
0.0236728
0.0236744
0.0236758
0.023677
0.023678
0.0236789
0.0236797
0.0236804
0.023681
0.0236816
0.023682
0.0236824
0.0236828
0.0236831
0.0236834
0.0236836
0.0236838
0.023684
0.0236842
0.0236843
0.0236844
0.0236846
0.0236847
0.0236847
0.0236848
0.0236849
0.0236849
0.023685
0.023685
0.0236851
0.0236851
0.0236851
0.0236852
0.0236852
0.0236852
0.0236852
0.0236852
0.0236853
0.0236853
0.0236853
0.0236853
0.0236853
0.0236853
0.0236853
0.0236853
0.0236853
0.0236853
0.0236853
0.0236853
0.0236853
0.0236853
0.0236853
0.0236853
0.0236854
0.0236854
0.0236854
0.0236854
0.0236854
0.0236854
0.0236854
0.0236854
0.0236854
0.0236854
0.0236854
0.0236854
0.0236854
0.0236854
0.0236854
)
;
    }
    procBoundary2to3
    {
        type            processor;
        value           nonuniform List<scalar> 
180
(
-3.27748e-09
-9.99072e-09
-1.67748e-08
-2.33943e-08
-2.97959e-08
-3.59068e-08
-4.16691e-08
-4.70324e-08
-5.19552e-08
-5.64065e-08
-6.03664e-08
-6.38264e-08
-6.67906e-08
-6.92751e-08
-7.1309e-08
-7.29334e-08
-7.42019e-08
-7.51796e-08
-7.59425e-08
-7.6577e-08
-7.71788e-08
-7.7852e-08
-7.87086e-08
-7.98674e-08
-8.14542e-08
-8.36013e-08
-8.64483e-08
-9.0143e-08
-9.48434e-08
-1.0072e-07
-1.07962e-07
-1.16776e-07
-1.27399e-07
-1.40101e-07
-1.55196e-07
-1.7305e-07
-1.94093e-07
-2.18831e-07
-2.47864e-07
-2.81897e-07
-3.21762e-07
-3.68438e-07
-4.23073e-07
-4.87014e-07
-5.61831e-07
-6.49359e-07
-7.51736e-07
-8.7145e-07
-1.0114e-06
-1.17495e-06
-1.36604e-06
-1.58925e-06
-1.84991e-06
-2.15427e-06
-2.50963e-06
-2.92456e-06
-3.40912e-06
-3.9751e-06
-4.6364e-06
-5.40939e-06
-6.31334e-06
-7.37102e-06
-8.6093e-06
-1.00599e-05
-1.17604e-05
-1.37552e-05
-1.60969e-05
-1.88478e-05
-2.20817e-05
-2.58861e-05
-3.03647e-05
-3.56395e-05
-4.18554e-05
-4.91922e-05
-5.789e-05
-6.82255e-05
-8.03017e-05
-9.38379e-05
-0.000110213
-0.000139161
-0.000124249
0.000717798
0.00114125
0.00149486
0.00388767
0.00472037
0.00739731
0.0094154
0.00988215
0.0109484
0.0114296
0.011473
0.0132567
0.0162674
0.0163165
0.0171701
0.0176219
0.0184114
0.0204398
0.0209649
0.0213303
0.022513
0.0237334
0.0237205
0.0237244
0.0237212
0.0237154
0.0237109
0.0237075
0.0237046
0.023702
0.0236998
0.0236979
0.0236962
0.0236947
0.0236935
0.0236924
0.0236915
0.0236906
0.0236899
0.0236893
0.0236888
0.0236883
0.0236879
0.0236876
0.0236873
0.023687
0.0236868
0.0236866
0.0236864
0.0236863
0.0236862
0.023686
0.0236859
0.0236859
0.0236858
0.0236857
0.0236857
0.0236856
0.0236856
0.0236855
0.0236855
0.0236855
0.0236855
0.0236854
0.0236854
0.0236854
0.0236854
0.0236854
0.0236854
0.0236854
0.0236854
0.0236854
0.0236854
0.0236854
0.0236854
0.0236854
0.0236854
0.0236854
0.0236854
0.0236854
0.0236854
0.0236854
0.0236854
0.0236854
0.0236854
0.0236854
0.0236854
0.0236854
0.0236854
0.0236854
0.0236854
0.0236854
0.0236854
0.0236854
0.0236854
0.0236854
0.0236854
0.0236854
0.0236854
)
;
    }
}


// ************************************************************************* //
