/*--------------------------------*- C++ -*----------------------------------*\
| =========                 |                                                 |
| \\      /  F ield         | OpenFOAM: The Open Source CFD Toolbox           |
|  \\    /   O peration     | Version:  5.x                                   |
|   \\  /    A nd           | Web:      www.OpenFOAM.org                      |
|    \\/     M anipulation  |                                                 |
\*---------------------------------------------------------------------------*/
FoamFile
{
    version     2.0;
    format      ascii;
    class       volVectorField;
    location    "7000";
    object      stored_U;
}
// * * * * * * * * * * * * * * * * * * * * * * * * * * * * * * * * * * * * * //

dimensions      [0 1 -1 0 0 0 0];

internalField   nonuniform List<vector> 
180
(
(-1.13863e-09 1.59906e-08 -0.000999905)
(-1.57141e-09 2.01698e-08 -0.000999903)
(-2.21021e-09 2.72539e-08 -0.0009999)
(-2.97243e-09 3.61443e-08 -0.000999897)
(-3.82716e-09 4.61487e-08 -0.000999892)
(-4.76533e-09 5.69465e-08 -0.000999886)
(-5.78957e-09 6.84559e-08 -0.000999878)
(-6.90992e-09 8.07194e-08 -0.000999869)
(-8.14184e-09 9.38385e-08 -0.000999859)
(-9.50448e-09 1.07943e-07 -0.000999847)
(-1.102e-08 1.23178e-07 -0.000999833)
(-1.27135e-08 1.39706e-07 -0.000999818)
(-1.46134e-08 1.577e-07 -0.0009998)
(-1.67517e-08 1.77351e-07 -0.000999781)
(-1.91645e-08 1.98867e-07 -0.000999759)
(-2.18932e-08 2.22479e-07 -0.000999734)
(-2.49843e-08 2.48438e-07 -0.000999707)
(-2.84913e-08 2.77023e-07 -0.000999676)
(-3.24748e-08 3.08541e-07 -0.000999642)
(-3.70041e-08 3.43332e-07 -0.000999605)
(-4.21584e-08 3.81771e-07 -0.000999563)
(-4.80283e-08 4.24277e-07 -0.000999516)
(-5.4717e-08 4.71311e-07 -0.000999464)
(-6.23431e-08 5.23387e-07 -0.000999406)
(-7.10419e-08 5.81075e-07 -0.000999342)
(-8.09684e-08 6.45008e-07 -0.00099927)
(-9.23001e-08 7.15892e-07 -0.000999191)
(-1.0524e-07 7.94512e-07 -0.000999102)
(-1.20022e-07 8.81739e-07 -0.000999004)
(-1.36912e-07 9.78547e-07 -0.000998894)
(-1.56215e-07 1.08602e-06 -0.000998772)
(-1.78283e-07 1.20536e-06 -0.000998636)
(-2.03516e-07 1.33792e-06 -0.000998485)
(-2.32377e-07 1.48521e-06 -0.000998317)
(-2.65391e-07 1.64888e-06 -0.000998129)
(-3.03166e-07 1.83083e-06 -0.00099792)
(-3.46397e-07 2.03313e-06 -0.000997687)
(-3.95879e-07 2.25813e-06 -0.000997427)
(-4.52529e-07 2.50843e-06 -0.000997137)
(-5.17395e-07 2.78694e-06 -0.000996814)
(-5.91682e-07 3.09694e-06 -0.000996453)
(-6.76773e-07 3.44208e-06 -0.00099605)
(-7.74255e-07 3.82644e-06 -0.0009956)
(-8.85949e-07 4.2546e-06 -0.000995098)
(-1.01395e-06 4.73168e-06 -0.000994537)
(-1.16066e-06 5.26345e-06 -0.000993909)
(-1.32884e-06 5.85633e-06 -0.000993208)
(-1.52165e-06 6.51756e-06 -0.000992424)
(-1.74275e-06 7.25526e-06 -0.000991546)
(-1.99631e-06 8.07852e-06 -0.000990564)
(-2.28715e-06 8.99759e-06 -0.000989463)
(-2.62078e-06 1.00239e-05 -0.000988231)
(-3.00357e-06 1.11705e-05 -0.00098685)
(-3.4428e-06 1.24518e-05 -0.000985301)
(-3.94687e-06 1.38843e-05 -0.000983564)
(-4.52543e-06 1.54862e-05 -0.000981615)
(-5.18958e-06 1.72784e-05 -0.000979428)
(-5.95207e-06 1.92841e-05 -0.000976971)
(-6.82758e-06 2.15299e-05 -0.00097421)
(-7.833e-06 2.40452e-05 -0.000971107)
(-8.98774e-06 2.68637e-05 -0.000967617)
(-1.03141e-05 3.00232e-05 -0.000963691)
(-1.18379e-05 3.35664e-05 -0.000959272)
(-1.35886e-05 3.75416e-05 -0.000954296)
(-1.56002e-05 4.20034e-05 -0.000948689)
(-1.79119e-05 4.70134e-05 -0.000942369)
(-2.05687e-05 5.26416e-05 -0.000935242)
(-2.36221e-05 5.89669e-05 -0.000927201)
(-2.71317e-05 6.60784e-05 -0.000918123)
(-3.11648e-05 7.40756e-05 -0.000907872)
(-3.57966e-05 8.30664e-05 -0.000896293)
(-4.11051e-05 9.31551e-05 -0.000883203)
(-4.71519e-05 0.000104402 -0.00086836)
(-5.39294e-05 0.000116706 -0.000851493)
(-6.1238e-05 0.000129528 -0.000832695)
(-6.845e-05 0.000141368 -0.000813181)
(-7.41168e-05 0.000149047 -0.000793928)
(-7.53393e-05 0.000147084 -0.000764806)
(-6.7203e-05 0.000127475 -0.000701258)
(-4.44128e-05 8.2091e-05 -0.000524697)
(-1.44621e-05 -2.80318e-06 -0.00199767)
(2.16791e-05 -9.75652e-06 -0.000143008)
(0.000132531 6.0741e-05 -0.00275973)
(1.79902e-05 -6.74828e-06 -0.000182048)
(-7.8898e-05 -7.29804e-05 -0.00325471)
(1.20902e-05 1.2528e-05 -0.000250215)
(-0.000120665 -0.000230772 -0.00307428)
(-0.000189565 -0.00019233 -0.00134934)
(-0.000391987 0.000172217 -0.00239041)
(-1.86341e-05 -4.12967e-05 -0.000217583)
(-0.000126632 0.000124569 -0.00454937)
(3.33946e-06 -5.32316e-05 -0.00100903)
(7.19696e-05 -0.000201323 -0.00227983)
(-0.000270283 -0.000190807 -0.00292266)
(6.47388e-05 -1.65462e-06 -3.65199e-05)
(-0.000146514 -0.000231677 -0.00344055)
(-1.99831e-05 3.9958e-06 -0.000668239)
(-3.2768e-05 -7.18791e-05 -0.0020014)
(-0.000183181 2.01076e-05 -0.00252388)
(2.69533e-05 1.82788e-05 -0.000179422)
(0.000125419 -0.000137985 -0.00286972)
(0.000116669 -7.4626e-05 -0.00102577)
(4.97924e-05 -0.000253766 -0.00118458)
(0.000102151 -0.000260243 -0.000873467)
(0.000111976 -0.000120767 -0.000771163)
(0.00013591 -0.000105363 -0.000821315)
(0.000140059 -9.27821e-05 -0.00082038)
(0.000132412 -7.96486e-05 -0.000838207)
(0.000119833 -6.7825e-05 -0.000859531)
(0.000106351 -5.78195e-05 -0.000878316)
(9.36718e-05 -4.93225e-05 -0.000894229)
(8.22986e-05 -4.20357e-05 -0.000907989)
(7.22627e-05 -3.57742e-05 -0.000919992)
(6.34533e-05 -3.04016e-05 -0.000930449)
(5.57317e-05 -2.57983e-05 -0.000939541)
(4.89653e-05 -2.1858e-05 -0.000947444)
(4.30349e-05 -1.84877e-05 -0.000954313)
(3.78357e-05 -1.56074e-05 -0.000960284)
(3.32763e-05 -1.31482e-05 -0.000965474)
(2.92766e-05 -1.10505e-05 -0.000969985)
(2.5767e-05 -9.26319e-06 -0.000973906)
(2.26863e-05 -7.74206e-06 -0.000977314)
(1.99812e-05 -6.44916e-06 -0.000980276)
(1.76052e-05 -5.35186e-06 -0.000982851)
(1.55175e-05 -4.42214e-06 -0.000985088)
(1.36824e-05 -3.636e-06 -0.000987032)
(1.20688e-05 -2.97296e-06 -0.000988722)
(1.06494e-05 -2.4153e-06 -0.000990191)
(9.40038e-06 -1.94735e-06 -0.000991468)
(8.30088e-06 -1.5557e-06 -0.000992578)
(7.33263e-06 -1.22889e-06 -0.000993543)
(6.47965e-06 -9.57123e-07 -0.000994383)
(5.72796e-06 -7.32034e-07 -0.000995113)
(5.06529e-06 -5.46513e-07 -0.000995749)
(4.48092e-06 -3.94499e-07 -0.000996302)
(3.96544e-06 -2.70642e-07 -0.000996784)
(3.51057e-06 -1.70298e-07 -0.000997203)
(3.1091e-06 -8.97086e-08 -0.000997569)
(2.75471e-06 -2.5686e-08 -0.000997887)
(2.44168e-06 2.47339e-08 -0.000998162)
(2.16505e-06 6.39677e-08 -0.000998401)
(1.92047e-06 9.3974e-08 -0.000998608)
(1.70417e-06 1.16327e-07 -0.000998788)
(1.51282e-06 1.32381e-07 -0.000998945)
(1.34348e-06 1.43288e-07 -0.000999082)
(1.19356e-06 1.5002e-07 -0.000999201)
(1.06079e-06 1.53394e-07 -0.000999304)
(9.43166e-07 1.54095e-07 -0.000999394)
(8.38916e-07 1.52693e-07 -0.000999472)
(7.46487e-07 1.4966e-07 -0.000999539)
(6.64509e-07 1.4539e-07 -0.000999598)
(5.91776e-07 1.40206e-07 -0.00099965)
(5.27222e-07 1.34374e-07 -0.000999695)
(4.69911e-07 1.2811e-07 -0.000999734)
(4.19012e-07 1.2159e-07 -0.000999768)
(3.73796e-07 1.14955e-07 -0.000999797)
(3.33618e-07 1.08319e-07 -0.000999823)
(2.97908e-07 1.0177e-07 -0.000999845)
(2.66164e-07 9.53776e-08 -0.000999865)
(2.3794e-07 8.91934e-08 -0.000999882)
(2.12844e-07 8.32565e-08 -0.000999897)
(1.90528e-07 7.75947e-08 -0.000999911)
(1.70687e-07 7.22266e-08 -0.000999922)
(1.53047e-07 6.71637e-08 -0.000999932)
(1.37371e-07 6.24117e-08 -0.000999941)
(1.23444e-07 5.79719e-08 -0.000999949)
(1.11081e-07 5.38419e-08 -0.000999955)
(1.00115e-07 5.00167e-08 -0.000999961)
(9.04003e-08 4.64896e-08 -0.000999967)
(8.18075e-08 4.32523e-08 -0.000999971)
(7.42233e-08 4.02959e-08 -0.000999975)
(6.75476e-08 3.76106e-08 -0.000999979)
(6.1693e-08 3.51867e-08 -0.000999982)
(5.65831e-08 3.30143e-08 -0.000999984)
(5.21519e-08 3.10838e-08 -0.000999987)
(4.83426e-08 2.93869e-08 -0.000999989)
(4.51092e-08 2.79219e-08 -0.000999991)
(4.2445e-08 2.66962e-08 -0.000999993)
(4.03921e-08 2.57976e-08 -0.000999994)
(3.93549e-08 2.52028e-08 -0.000999996)
)
;

boundaryField
{
    inlet
    {
        type            calculated;
        value           uniform (3.93549e-08 2.52028e-08 -0.000999996);
    }
    outlet
    {
        type            calculated;
        value           uniform (-1.13863e-09 1.59906e-08 -0.000999905);
    }
    repeat_boundary
    {
        type            calculated;
        value           nonuniform List<vector> 
360
(
(-1.13863e-09 0 -0.000999905)
(-1.57141e-09 0 -0.000999903)
(-2.21021e-09 0 -0.0009999)
(-2.97243e-09 0 -0.000999897)
(-3.82716e-09 0 -0.000999892)
(-4.76533e-09 0 -0.000999886)
(-5.78957e-09 0 -0.000999878)
(-6.90992e-09 0 -0.000999869)
(-8.14184e-09 0 -0.000999859)
(-9.50448e-09 0 -0.000999847)
(-1.102e-08 0 -0.000999833)
(-1.27135e-08 0 -0.000999818)
(-1.46134e-08 0 -0.0009998)
(-1.67517e-08 0 -0.000999781)
(-1.91645e-08 0 -0.000999759)
(-2.18932e-08 0 -0.000999734)
(-2.49843e-08 0 -0.000999707)
(-2.84913e-08 0 -0.000999676)
(-3.24748e-08 0 -0.000999642)
(-3.70041e-08 0 -0.000999605)
(-4.21584e-08 0 -0.000999563)
(-4.80283e-08 0 -0.000999516)
(-5.4717e-08 0 -0.000999464)
(-6.23431e-08 0 -0.000999406)
(-7.10419e-08 0 -0.000999342)
(-8.09684e-08 0 -0.00099927)
(-9.23001e-08 0 -0.000999191)
(-1.0524e-07 0 -0.000999102)
(-1.20022e-07 0 -0.000999004)
(-1.36912e-07 0 -0.000998894)
(-1.56215e-07 0 -0.000998772)
(-1.78283e-07 0 -0.000998636)
(-2.03516e-07 0 -0.000998485)
(-2.32377e-07 0 -0.000998317)
(-2.65391e-07 0 -0.000998129)
(-3.03166e-07 0 -0.00099792)
(-3.46397e-07 0 -0.000997687)
(-3.95879e-07 0 -0.000997427)
(-4.52529e-07 0 -0.000997137)
(-5.17395e-07 0 -0.000996814)
(-5.91682e-07 0 -0.000996453)
(-6.76773e-07 0 -0.00099605)
(-7.74255e-07 0 -0.0009956)
(-8.85949e-07 0 -0.000995098)
(-1.01395e-06 0 -0.000994537)
(-1.16066e-06 0 -0.000993909)
(-1.32884e-06 0 -0.000993208)
(-1.52165e-06 0 -0.000992424)
(-1.74275e-06 0 -0.000991546)
(-1.99631e-06 0 -0.000990564)
(-2.28715e-06 0 -0.000989463)
(-2.62078e-06 0 -0.000988231)
(-3.00357e-06 0 -0.00098685)
(-3.4428e-06 0 -0.000985301)
(-3.94687e-06 0 -0.000983564)
(-4.52543e-06 0 -0.000981615)
(-5.18958e-06 0 -0.000979428)
(-5.95207e-06 0 -0.000976971)
(-6.82758e-06 0 -0.00097421)
(-7.833e-06 0 -0.000971107)
(-8.98774e-06 0 -0.000967617)
(-1.03141e-05 0 -0.000963691)
(-1.18379e-05 0 -0.000959272)
(-1.35886e-05 0 -0.000954296)
(-1.56002e-05 0 -0.000948689)
(-1.79119e-05 0 -0.000942369)
(-2.05687e-05 0 -0.000935242)
(-2.36221e-05 0 -0.000927201)
(-2.71317e-05 0 -0.000918123)
(-3.11648e-05 0 -0.000907872)
(-3.57966e-05 0 -0.000896293)
(-4.11051e-05 0 -0.000883203)
(-4.71519e-05 0 -0.00086836)
(-5.39294e-05 0 -0.000851493)
(-6.1238e-05 0 -0.000832695)
(-6.845e-05 0 -0.000813181)
(-7.41168e-05 0 -0.000793928)
(-7.53393e-05 0 -0.000764806)
(-6.7203e-05 0 -0.000701258)
(-4.44128e-05 0 -0.000524697)
(-1.44621e-05 0 -0.00199767)
(2.16791e-05 0 -0.000143008)
(0.000132531 0 -0.00275973)
(1.79902e-05 0 -0.000182048)
(-7.8898e-05 0 -0.00325471)
(1.20902e-05 0 -0.000250215)
(-0.000120665 0 -0.00307428)
(-0.000189565 0 -0.00134934)
(-0.000391987 0 -0.00239041)
(-1.86341e-05 0 -0.000217583)
(-0.000126632 0 -0.00454937)
(3.33946e-06 0 -0.00100903)
(7.19696e-05 0 -0.00227983)
(-0.000270283 0 -0.00292266)
(6.47388e-05 0 -3.65199e-05)
(-0.000146514 0 -0.00344055)
(-1.99831e-05 0 -0.000668239)
(-3.2768e-05 0 -0.0020014)
(-0.000183181 0 -0.00252388)
(2.69533e-05 0 -0.000179422)
(0.000125419 0 -0.00286972)
(0.000116669 0 -0.00102577)
(4.97924e-05 0 -0.00118458)
(0.000102151 0 -0.000873467)
(0.000111976 0 -0.000771163)
(0.00013591 0 -0.000821315)
(0.000140059 0 -0.00082038)
(0.000132412 0 -0.000838207)
(0.000119833 0 -0.000859531)
(0.000106351 0 -0.000878316)
(9.36718e-05 0 -0.000894229)
(8.22986e-05 0 -0.000907989)
(7.22627e-05 0 -0.000919992)
(6.34533e-05 0 -0.000930449)
(5.57317e-05 0 -0.000939541)
(4.89653e-05 0 -0.000947444)
(4.30349e-05 0 -0.000954313)
(3.78357e-05 0 -0.000960284)
(3.32763e-05 0 -0.000965474)
(2.92766e-05 0 -0.000969985)
(2.5767e-05 0 -0.000973906)
(2.26863e-05 0 -0.000977314)
(1.99812e-05 0 -0.000980276)
(1.76052e-05 0 -0.000982851)
(1.55175e-05 0 -0.000985088)
(1.36824e-05 0 -0.000987032)
(1.20688e-05 0 -0.000988722)
(1.06494e-05 0 -0.000990191)
(9.40038e-06 0 -0.000991468)
(8.30088e-06 0 -0.000992578)
(7.33263e-06 0 -0.000993543)
(6.47965e-06 0 -0.000994383)
(5.72796e-06 0 -0.000995113)
(5.06529e-06 0 -0.000995749)
(4.48092e-06 0 -0.000996302)
(3.96544e-06 0 -0.000996784)
(3.51057e-06 0 -0.000997203)
(3.1091e-06 0 -0.000997569)
(2.75471e-06 0 -0.000997887)
(2.44168e-06 0 -0.000998162)
(2.16505e-06 0 -0.000998401)
(1.92047e-06 0 -0.000998608)
(1.70417e-06 0 -0.000998788)
(1.51282e-06 0 -0.000998945)
(1.34348e-06 0 -0.000999082)
(1.19356e-06 0 -0.000999201)
(1.06079e-06 0 -0.000999304)
(9.43166e-07 0 -0.000999394)
(8.38916e-07 0 -0.000999472)
(7.46487e-07 0 -0.000999539)
(6.64509e-07 0 -0.000999598)
(5.91776e-07 0 -0.00099965)
(5.27222e-07 0 -0.000999695)
(4.69911e-07 0 -0.000999734)
(4.19012e-07 0 -0.000999768)
(3.73796e-07 0 -0.000999797)
(3.33618e-07 0 -0.000999823)
(2.97908e-07 0 -0.000999845)
(2.66164e-07 0 -0.000999865)
(2.3794e-07 0 -0.000999882)
(2.12844e-07 0 -0.000999897)
(1.90528e-07 0 -0.000999911)
(1.70687e-07 0 -0.000999922)
(1.53047e-07 0 -0.000999932)
(1.37371e-07 0 -0.000999941)
(1.23444e-07 0 -0.000999949)
(1.11081e-07 0 -0.000999955)
(1.00115e-07 0 -0.000999961)
(9.04003e-08 0 -0.000999967)
(8.18075e-08 0 -0.000999971)
(7.42233e-08 0 -0.000999975)
(6.75476e-08 0 -0.000999979)
(6.1693e-08 0 -0.000999982)
(5.65831e-08 0 -0.000999984)
(5.21519e-08 0 -0.000999987)
(4.83426e-08 0 -0.000999989)
(4.51092e-08 0 -0.000999991)
(4.2445e-08 0 -0.000999993)
(4.03921e-08 0 -0.000999994)
(3.93549e-08 0 -0.000999996)
(0 1.59906e-08 -0.000999905)
(0 2.01698e-08 -0.000999903)
(0 2.72539e-08 -0.0009999)
(0 3.61443e-08 -0.000999897)
(0 4.61487e-08 -0.000999892)
(0 5.69465e-08 -0.000999886)
(0 6.84559e-08 -0.000999878)
(0 8.07194e-08 -0.000999869)
(0 9.38385e-08 -0.000999859)
(0 1.07943e-07 -0.000999847)
(0 1.23178e-07 -0.000999833)
(0 1.39706e-07 -0.000999818)
(0 1.577e-07 -0.0009998)
(0 1.77351e-07 -0.000999781)
(0 1.98867e-07 -0.000999759)
(0 2.22479e-07 -0.000999734)
(0 2.48438e-07 -0.000999707)
(0 2.77023e-07 -0.000999676)
(0 3.08541e-07 -0.000999642)
(0 3.43332e-07 -0.000999605)
(0 3.81771e-07 -0.000999563)
(0 4.24277e-07 -0.000999516)
(0 4.71311e-07 -0.000999464)
(0 5.23387e-07 -0.000999406)
(0 5.81075e-07 -0.000999342)
(0 6.45008e-07 -0.00099927)
(0 7.15892e-07 -0.000999191)
(0 7.94512e-07 -0.000999102)
(0 8.81739e-07 -0.000999004)
(0 9.78547e-07 -0.000998894)
(0 1.08602e-06 -0.000998772)
(0 1.20536e-06 -0.000998636)
(0 1.33792e-06 -0.000998485)
(0 1.48521e-06 -0.000998317)
(0 1.64888e-06 -0.000998129)
(0 1.83083e-06 -0.00099792)
(0 2.03313e-06 -0.000997687)
(0 2.25813e-06 -0.000997427)
(0 2.50843e-06 -0.000997137)
(0 2.78694e-06 -0.000996814)
(0 3.09694e-06 -0.000996453)
(0 3.44208e-06 -0.00099605)
(0 3.82644e-06 -0.0009956)
(0 4.2546e-06 -0.000995098)
(0 4.73168e-06 -0.000994537)
(0 5.26345e-06 -0.000993909)
(0 5.85633e-06 -0.000993208)
(0 6.51756e-06 -0.000992424)
(0 7.25526e-06 -0.000991546)
(0 8.07852e-06 -0.000990564)
(0 8.99759e-06 -0.000989463)
(0 1.00239e-05 -0.000988231)
(0 1.11705e-05 -0.00098685)
(0 1.24518e-05 -0.000985301)
(0 1.38843e-05 -0.000983564)
(0 1.54862e-05 -0.000981615)
(0 1.72784e-05 -0.000979428)
(0 1.92841e-05 -0.000976971)
(0 2.15299e-05 -0.00097421)
(0 2.40452e-05 -0.000971107)
(0 2.68637e-05 -0.000967617)
(0 3.00232e-05 -0.000963691)
(0 3.35664e-05 -0.000959272)
(0 3.75416e-05 -0.000954296)
(0 4.20034e-05 -0.000948689)
(0 4.70134e-05 -0.000942369)
(0 5.26416e-05 -0.000935242)
(0 5.89669e-05 -0.000927201)
(0 6.60784e-05 -0.000918123)
(0 7.40756e-05 -0.000907872)
(0 8.30664e-05 -0.000896293)
(0 9.31551e-05 -0.000883203)
(0 0.000104402 -0.00086836)
(0 0.000116706 -0.000851493)
(0 0.000129528 -0.000832695)
(0 0.000141368 -0.000813181)
(0 0.000149047 -0.000793928)
(0 0.000147084 -0.000764806)
(0 0.000127475 -0.000701258)
(0 8.2091e-05 -0.000524697)
(0 -2.80318e-06 -0.00199767)
(0 -9.75652e-06 -0.000143008)
(0 6.0741e-05 -0.00275973)
(0 -6.74828e-06 -0.000182048)
(0 -7.29804e-05 -0.00325471)
(0 1.2528e-05 -0.000250215)
(0 -0.000230772 -0.00307428)
(0 -0.00019233 -0.00134934)
(0 0.000172217 -0.00239041)
(0 -4.12967e-05 -0.000217583)
(0 0.000124569 -0.00454937)
(0 -5.32316e-05 -0.00100903)
(0 -0.000201323 -0.00227983)
(0 -0.000190807 -0.00292266)
(0 -1.65462e-06 -3.65199e-05)
(0 -0.000231677 -0.00344055)
(0 3.9958e-06 -0.000668239)
(0 -7.18791e-05 -0.0020014)
(0 2.01076e-05 -0.00252388)
(0 1.82788e-05 -0.000179422)
(0 -0.000137985 -0.00286972)
(0 -7.4626e-05 -0.00102577)
(0 -0.000253766 -0.00118458)
(0 -0.000260243 -0.000873467)
(0 -0.000120767 -0.000771163)
(0 -0.000105363 -0.000821315)
(0 -9.27821e-05 -0.00082038)
(0 -7.96486e-05 -0.000838207)
(0 -6.7825e-05 -0.000859531)
(0 -5.78195e-05 -0.000878316)
(0 -4.93225e-05 -0.000894229)
(0 -4.20357e-05 -0.000907989)
(0 -3.57742e-05 -0.000919992)
(0 -3.04016e-05 -0.000930449)
(0 -2.57983e-05 -0.000939541)
(0 -2.1858e-05 -0.000947444)
(0 -1.84877e-05 -0.000954313)
(0 -1.56074e-05 -0.000960284)
(0 -1.31482e-05 -0.000965474)
(0 -1.10505e-05 -0.000969985)
(0 -9.26319e-06 -0.000973906)
(0 -7.74206e-06 -0.000977314)
(0 -6.44916e-06 -0.000980276)
(0 -5.35186e-06 -0.000982851)
(0 -4.42214e-06 -0.000985088)
(0 -3.636e-06 -0.000987032)
(0 -2.97296e-06 -0.000988722)
(0 -2.4153e-06 -0.000990191)
(0 -1.94735e-06 -0.000991468)
(0 -1.5557e-06 -0.000992578)
(0 -1.22889e-06 -0.000993543)
(0 -9.57123e-07 -0.000994383)
(0 -7.32034e-07 -0.000995113)
(0 -5.46513e-07 -0.000995749)
(0 -3.94499e-07 -0.000996302)
(0 -2.70642e-07 -0.000996784)
(0 -1.70298e-07 -0.000997203)
(0 -8.97086e-08 -0.000997569)
(0 -2.5686e-08 -0.000997887)
(0 2.47339e-08 -0.000998162)
(0 6.39677e-08 -0.000998401)
(0 9.3974e-08 -0.000998608)
(0 1.16327e-07 -0.000998788)
(0 1.32381e-07 -0.000998945)
(0 1.43288e-07 -0.000999082)
(0 1.5002e-07 -0.000999201)
(0 1.53394e-07 -0.000999304)
(0 1.54095e-07 -0.000999394)
(0 1.52693e-07 -0.000999472)
(0 1.4966e-07 -0.000999539)
(0 1.4539e-07 -0.000999598)
(0 1.40206e-07 -0.00099965)
(0 1.34374e-07 -0.000999695)
(0 1.2811e-07 -0.000999734)
(0 1.2159e-07 -0.000999768)
(0 1.14955e-07 -0.000999797)
(0 1.08319e-07 -0.000999823)
(0 1.0177e-07 -0.000999845)
(0 9.53776e-08 -0.000999865)
(0 8.91934e-08 -0.000999882)
(0 8.32565e-08 -0.000999897)
(0 7.75947e-08 -0.000999911)
(0 7.22266e-08 -0.000999922)
(0 6.71637e-08 -0.000999932)
(0 6.24117e-08 -0.000999941)
(0 5.79719e-08 -0.000999949)
(0 5.38419e-08 -0.000999955)
(0 5.00167e-08 -0.000999961)
(0 4.64896e-08 -0.000999967)
(0 4.32523e-08 -0.000999971)
(0 4.02959e-08 -0.000999975)
(0 3.76106e-08 -0.000999979)
(0 3.51867e-08 -0.000999982)
(0 3.30143e-08 -0.000999984)
(0 3.10838e-08 -0.000999987)
(0 2.93869e-08 -0.000999989)
(0 2.79219e-08 -0.000999991)
(0 2.66962e-08 -0.000999993)
(0 2.57976e-08 -0.000999994)
(0 2.52028e-08 -0.000999996)
)
;
    }
    procBoundary2to0
    {
        type            processor;
        value           nonuniform List<vector> 
180
(
(-2.154e-11 1.59907e-08 -0.0010001)
(-6.07093e-11 2.01699e-08 -0.0010001)
(-7.28478e-11 2.72541e-08 -0.00100011)
(-5.87782e-11 3.61444e-08 -0.00100011)
(-2.95242e-11 4.61489e-08 -0.00100011)
(1.36691e-11 5.69468e-08 -0.00100012)
(7.63593e-11 6.84561e-08 -0.00100012)
(1.65963e-10 8.07197e-08 -0.00100013)
(2.90515e-10 9.38389e-08 -0.00100014)
(4.58544e-10 1.07943e-07 -0.00100015)
(6.79432e-10 1.23179e-07 -0.00100016)
(9.6387e-10 1.39706e-07 -0.00100017)
(1.32407e-09 1.577e-07 -0.00100019)
(1.77291e-09 1.77351e-07 -0.0010002)
(2.32639e-09 1.98868e-07 -0.00100022)
(3.00364e-09 2.2248e-07 -0.00100024)
(3.82725e-09 2.4844e-07 -0.00100027)
(4.82374e-09 2.77025e-07 -0.00100029)
(6.02417e-09 3.08543e-07 -0.00100032)
(7.4649e-09 3.43334e-07 -0.00100036)
(9.18842e-09 3.81775e-07 -0.0010004)
(1.12444e-08 4.24281e-07 -0.00100044)
(1.36906e-08 4.71316e-07 -0.00100048)
(1.65948e-08 5.23393e-07 -0.00100054)
(2.00358e-08 5.81082e-07 -0.00100059)
(2.41053e-08 6.45017e-07 -0.00100066)
(2.89103e-08 7.15904e-07 -0.00100073)
(3.45754e-08 7.94526e-07 -0.00100081)
(4.12455e-08 8.81756e-07 -0.0010009)
(4.90891e-08 9.78568e-07 -0.001001)
(5.83024e-08 1.08605e-06 -0.00100111)
(6.91132e-08 1.2054e-06 -0.00100123)
(8.17863e-08 1.33796e-06 -0.00100137)
(9.66294e-08 1.48526e-06 -0.00100152)
(1.14e-07 1.64895e-06 -0.00100169)
(1.34312e-07 1.83091e-06 -0.00100188)
(1.58047e-07 2.03323e-06 -0.00100209)
(1.85764e-07 2.25825e-06 -0.00100232)
(2.1811e-07 2.50857e-06 -0.00100258)
(2.55836e-07 2.78713e-06 -0.00100288)
(2.99813e-07 3.09717e-06 -0.0010032)
(3.5105e-07 3.44237e-06 -0.00100357)
(4.10715e-07 3.82679e-06 -0.00100397)
(4.80165e-07 4.25504e-06 -0.00100443)
(5.60967e-07 4.73224e-06 -0.00100493)
(6.5494e-07 5.26414e-06 -0.0010055)
(7.64187e-07 5.8572e-06 -0.00100613)
(8.91146e-07 6.51865e-06 -0.00100684)
(1.03864e-06 7.25662e-06 -0.00100764)
(1.20992e-06 8.08022e-06 -0.00100852)
(1.40879e-06 8.99972e-06 -0.00100952)
(1.6396e-06 1.00266e-05 -0.00101063)
(1.90742e-06 1.11739e-05 -0.00101188)
(2.21811e-06 1.24561e-05 -0.00101329)
(2.57843e-06 1.38896e-05 -0.00101486)
(2.99624e-06 1.54929e-05 -0.00101662)
(3.4806e-06 1.72868e-05 -0.0010186)
(4.04201e-06 1.92947e-05 -0.00102083)
(4.6926e-06 2.15432e-05 -0.00102333)
(5.44641e-06 2.40621e-05 -0.00102614)
(6.31971e-06 2.68851e-05 -0.00102931)
(7.33127e-06 3.00502e-05 -0.00103287)
(8.50284e-06 3.36006e-05 -0.00103688)
(9.85956e-06 3.7585e-05 -0.0010414)
(1.14305e-05 4.20584e-05 -0.00104649)
(1.32492e-05 4.70834e-05 -0.00105224)
(1.53546e-05 5.27305e-05 -0.00105872)
(1.77916e-05 5.908e-05 -0.00106604)
(2.0612e-05 6.62225e-05 -0.00107431)
(2.38754e-05 7.42597e-05 -0.00108365)
(2.76493e-05 8.33022e-05 -0.00109423)
(3.20069e-05 9.3459e-05 -0.00110619)
(3.70159e-05 0.000104796 -0.00111965)
(4.26994e-05 0.000117221 -0.00113467)
(4.89295e-05 0.000130196 -0.00115182)
(5.5201e-05 0.000142195 -0.0011734)
(6.0272e-05 0.000149931 -0.00120103)
(6.18271e-05 0.000147836 -0.00121493)
(5.64051e-05 0.000127744 -0.00116407)
(3.98981e-05 8.21132e-05 -0.000912039)
(3.94915e-06 -1.70191e-06 -0.0035152)
(5.72466e-06 -3.8788e-06 -0.0001482)
(-0.000363471 0.000102858 -0.00409706)
(-2.77677e-05 -8.95472e-06 -0.000460493)
(-0.000433718 -0.000208513 -0.00406645)
(-1.43606e-05 -1.7626e-05 -0.000275572)
(-0.000727343 -0.000434583 -0.00429647)
(-0.000358902 -0.00023048 -0.00433678)
(-1.48884e-05 3.8888e-05 -0.000986397)
(0.000194065 0.000373554 -0.00486642)
(0.000205984 0.000110918 -0.00135813)
(0.000778171 -0.000365921 -0.00382763)
(2.19744e-05 1.63583e-05 -0.000146132)
(0.000458878 -0.000224943 -0.00472573)
(9.02343e-05 -0.000193969 -0.00275876)
(4.87423e-05 -9.97876e-05 -0.00245331)
(0.000243725 -8.70043e-05 -0.00369347)
(0.000192796 -8.91287e-05 -0.00266083)
(9.65217e-06 4.92353e-06 -0.00243975)
(-0.000231737 -7.10073e-05 -0.00389565)
(-0.000102645 -8.02949e-05 -0.00180378)
(-9.0101e-05 -0.000108297 -0.00345446)
(-0.000116978 -0.000148788 -0.00275431)
(-1.36292e-05 -2.35545e-05 -0.00112856)
(5.93493e-06 -7.66758e-06 -0.00183691)
(-3.55254e-05 -4.30671e-05 -0.00105423)
(-5.73878e-05 -6.23082e-05 -0.00106873)
(-6.19103e-05 -6.60871e-05 -0.00108838)
(-5.82763e-05 -6.22786e-05 -0.00108228)
(-5.17547e-05 -5.56733e-05 -0.00106826)
(-4.47532e-05 -4.84995e-05 -0.0010564)
(-3.82192e-05 -4.16972e-05 -0.00104714)
(-3.24465e-05 -3.56111e-05 -0.00103944)
(-2.74572e-05 -3.03071e-05 -0.00103287)
(-2.31797e-05 -2.57359e-05 -0.00102727)
(-1.95234e-05 -2.1814e-05 -0.00102252)
(-1.64028e-05 -1.84559e-05 -0.00101852)
(-1.37429e-05 -1.55843e-05 -0.00101514)
(-1.14783e-05 -1.31314e-05 -0.00101229)
(-9.5529e-06 -1.10383e-05 -0.0010099)
(-7.91828e-06 -9.25433e-06 -0.0010079)
(-6.53271e-06 -7.73563e-06 -0.00100623)
(-5.36038e-06 -6.44451e-06 -0.00100484)
(-4.37055e-06 -5.34851e-06 -0.00100368)
(-3.53691e-06 -4.41973e-06 -0.00100272)
(-2.83707e-06 -3.63427e-06 -0.00100193)
(-2.25211e-06 -2.97172e-06 -0.00100127)
(-1.76549e-06 -2.41441e-06 -0.00100074)
(-1.36217e-06 -1.94672e-06 -0.00100031)
(-1.02927e-06 -1.55526e-06 -0.000999966)
(-7.55863e-07 -1.22858e-06 -0.000999699)
(-5.32613e-07 -9.56905e-07 -0.000999493)
(-3.51603e-07 -7.31883e-07 -0.000999337)
(-2.06135e-07 -5.46408e-07 -0.000999222)
(-9.05089e-08 -3.94427e-07 -0.000999142)
(4.62756e-10 -2.70592e-07 -0.000999092)
(7.12593e-08 -1.70264e-07 -0.000999067)
(1.25472e-07 -8.9686e-08 -0.000999059)
(1.66081e-07 -2.56708e-08 -0.000999067)
(1.95709e-07 2.47443e-08 -0.000999087)
(2.16448e-07 6.39749e-08 -0.000999115)
(2.29986e-07 9.39789e-08 -0.000999149)
(2.37698e-07 1.1633e-07 -0.000999186)
(2.40745e-07 1.32383e-07 -0.000999225)
(2.4009e-07 1.4329e-07 -0.000999266)
(2.36542e-07 1.50021e-07 -0.000999307)
(2.3077e-07 1.53395e-07 -0.000999348)
(2.23326e-07 1.54096e-07 -0.000999389)
(2.14666e-07 1.52693e-07 -0.000999428)
(2.0516e-07 1.4966e-07 -0.000999466)
(1.95114e-07 1.4539e-07 -0.000999503)
(1.84772e-07 1.40206e-07 -0.000999538)
(1.74331e-07 1.34374e-07 -0.000999572)
(1.63948e-07 1.2811e-07 -0.000999604)
(1.53745e-07 1.2159e-07 -0.000999634)
(1.43817e-07 1.14955e-07 -0.000999662)
(1.34235e-07 1.08319e-07 -0.000999689)
(1.25051e-07 1.0177e-07 -0.000999714)
(1.16301e-07 9.53777e-08 -0.000999737)
(1.08009e-07 8.91935e-08 -0.000999759)
(1.00188e-07 8.32566e-08 -0.000999779)
(9.28426e-08 7.75947e-08 -0.000999798)
(8.5971e-08 7.22266e-08 -0.000999816)
(7.95665e-08 6.71637e-08 -0.000999832)
(7.36185e-08 6.24118e-08 -0.000999847)
(6.81139e-08 5.79719e-08 -0.000999861)
(6.30375e-08 5.38419e-08 -0.000999874)
(5.8373e-08 5.00167e-08 -0.000999886)
(5.41035e-08 4.64896e-08 -0.000999898)
(5.02121e-08 4.32523e-08 -0.000999908)
(4.66818e-08 4.02959e-08 -0.000999918)
(4.34963e-08 3.76106e-08 -0.000999927)
(4.06399e-08 3.51868e-08 -0.000999935)
(3.80975e-08 3.30144e-08 -0.000999943)
(3.58553e-08 3.10838e-08 -0.00099995)
(3.39014e-08 2.93869e-08 -0.000999957)
(3.22299e-08 2.7922e-08 -0.000999963)
(3.08427e-08 2.66962e-08 -0.000999969)
(2.98238e-08 2.57976e-08 -0.000999976)
(2.91587e-08 2.52028e-08 -0.000999981)
)
;
    }
    procBoundary2to3
    {
        type            processor;
        value           nonuniform List<vector> 
180
(
(-1.13863e-09 1.48735e-08 -0.000999921)
(-1.57141e-09 1.86591e-08 -0.00099992)
(-2.21021e-09 2.51166e-08 -0.000999917)
(-2.97243e-09 3.32306e-08 -0.000999914)
(-3.82716e-09 4.23511e-08 -0.000999911)
(-4.76534e-09 5.21676e-08 -0.000999906)
(-5.78957e-09 6.259e-08 -0.0009999)
(-6.90992e-09 7.36436e-08 -0.000999893)
(-8.14184e-09 8.54062e-08 -0.000999885)
(-9.50449e-09 9.79797e-08 -0.000999876)
(-1.102e-08 1.11479e-07 -0.000999866)
(-1.27136e-08 1.26028e-07 -0.000999855)
(-1.46134e-08 1.41762e-07 -0.000999842)
(-1.67517e-08 1.58826e-07 -0.000999827)
(-1.91646e-08 1.77377e-07 -0.000999812)
(-2.18932e-08 1.97582e-07 -0.000999794)
(-2.49844e-08 2.19627e-07 -0.000999775)
(-2.84913e-08 2.43708e-07 -0.000999753)
(-3.24748e-08 2.70042e-07 -0.00099973)
(-3.70042e-08 2.98863e-07 -0.000999704)
(-4.21585e-08 3.30425e-07 -0.000999676)
(-4.80284e-08 3.65005e-07 -0.000999644)
(-5.47171e-08 4.02904e-07 -0.00099961)
(-6.23432e-08 4.44449e-07 -0.000999573)
(-7.10421e-08 4.89998e-07 -0.000999533)
(-8.09686e-08 5.39935e-07 -0.000999488)
(-9.23005e-08 5.94683e-07 -0.000999439)
(-1.05241e-07 6.54698e-07 -0.000999386)
(-1.20023e-07 7.20474e-07 -0.000999328)
(-1.36912e-07 7.92549e-07 -0.000999265)
(-1.56216e-07 8.71505e-07 -0.000999196)
(-1.78284e-07 9.57971e-07 -0.000999121)
(-2.03518e-07 1.05263e-06 -0.000999039)
(-2.32379e-07 1.15621e-06 -0.000998951)
(-2.65394e-07 1.2695e-06 -0.000998855)
(-3.03171e-07 1.39336e-06 -0.00099875)
(-3.46402e-07 1.5287e-06 -0.000998637)
(-3.95887e-07 1.6765e-06 -0.000998515)
(-4.52539e-07 1.83781e-06 -0.000998383)
(-5.17408e-07 2.01374e-06 -0.00099824)
(-5.91699e-07 2.20549e-06 -0.000998087)
(-6.76795e-07 2.41431e-06 -0.000997922)
(-7.74284e-07 2.64153e-06 -0.000997746)
(-8.85989e-07 2.88857e-06 -0.000997556)
(-1.014e-06 3.15687e-06 -0.000997355)
(-1.16073e-06 3.44798e-06 -0.00099714)
(-1.32893e-06 3.76348e-06 -0.000996912)
(-1.52178e-06 4.10499e-06 -0.000996671)
(-1.74291e-06 4.47416e-06 -0.000996417)
(-1.99653e-06 4.87265e-06 -0.00099615)
(-2.28744e-06 5.30212e-06 -0.000995872)
(-2.62116e-06 5.76416e-06 -0.000995584)
(-3.00407e-06 6.2603e-06 -0.000995288)
(-3.44347e-06 6.79192e-06 -0.000994985)
(-3.94776e-06 7.36021e-06 -0.00099468)
(-4.52662e-06 7.96613e-06 -0.000994376)
(-5.19115e-06 8.61024e-06 -0.000994079)
(-5.95416e-06 9.29269e-06 -0.000993794)
(-6.83036e-06 1.0013e-05 -0.000993531)
(-7.83669e-06 1.07701e-05 -0.000993299)
(-8.99264e-06 1.15618e-05 -0.00099311)
(-1.03206e-05 1.23848e-05 -0.00099298)
(-1.18465e-05 1.32346e-05 -0.000992926)
(-1.36001e-05 1.41049e-05 -0.00099297)
(-1.56155e-05 1.49873e-05 -0.000993138)
(-1.79322e-05 1.5871e-05 -0.000993461)
(-2.05956e-05 1.67423e-05 -0.000993975)
(-2.36579e-05 1.75837e-05 -0.000994724)
(-2.71792e-05 1.83739e-05 -0.000995759)
(-3.12279e-05 1.90861e-05 -0.000997142)
(-3.58802e-05 1.96871e-05 -0.000998946)
(-4.12154e-05 2.01343e-05 -0.00100124)
(-4.72952e-05 2.03683e-05 -0.00100406)
(-5.4108e-05 2.02929e-05 -0.00100749)
(-6.14392e-05 1.97309e-05 -0.00101223)
(-6.86258e-05 1.83551e-05 -0.00102022)
(-7.40449e-05 1.57017e-05 -0.0010303)
(-7.50214e-05 1.12811e-05 -0.00102265)
(-6.66294e-05 5.32853e-06 -0.00096438)
(-4.36535e-05 -1.29695e-06 -0.000937383)
(-1.06967e-05 -2.31446e-05 -0.00218123)
(3.44822e-05 2.53142e-07 -8.68232e-05)
(0.000162166 0.000573037 -0.00283705)
(4.51629e-05 9.90121e-06 -0.00017042)
(-5.81804e-05 1.6353e-05 -0.00354498)
(-9.36067e-07 0.000122022 -0.00385116)
(2.28145e-05 1.45555e-05 -0.00044166)
(-0.000301098 -0.0001405 -0.003541)
(-0.000358016 -0.000106684 -0.00350952)
(-5.45603e-06 -5.4482e-06 -0.000253045)
(-0.000301649 -0.0006661 -0.00278906)
(0.000151426 -0.000346779 -0.00381301)
(-3.1193e-05 -4.00282e-05 -0.000388162)
(-0.000251122 -0.00075673 -0.00468097)
(-0.000169568 -0.000872428 -0.00350845)
(-2.92927e-05 -3.38885e-05 -0.00015872)
(-0.000247426 -0.00104013 -0.00524105)
(-5.09628e-05 -7.96356e-06 -0.000109163)
(-0.000315303 -0.000310009 -0.00482749)
(-7.30439e-05 4.63725e-05 -0.00154325)