/*--------------------------------*- C++ -*----------------------------------*\
| =========                 |                                                 |
| \\      /  F ield         | OpenFOAM: The Open Source CFD Toolbox           |
|  \\    /   O peration     | Version:  5.x                                   |
|   \\  /    A nd           | Web:      www.OpenFOAM.org                      |
|    \\/     M anipulation  |                                                 |
\*---------------------------------------------------------------------------*/
FoamFile
{
    version     2.0;
    format      ascii;
    class       volScalarField;
    location    "0.03";
    object      p;
}
// * * * * * * * * * * * * * * * * * * * * * * * * * * * * * * * * * * * * * //

dimensions      [0 2 -2 0 0 0 0];

internalField   nonuniform List<scalar> 
2250
(
-3.68154e-10
-3.45171e-10
-3.55662e-10
-3.75157e-10
-3.88169e-10
-3.57882e-10
-3.43121e-10
-3.61338e-10
-3.85565e-10
-3.98499e-10
-3.00667e-10
-3.15386e-10
-3.45081e-10
-3.74845e-10
-3.9117e-10
-1.92481e-10
-2.6822e-10
-3.2081e-10
-3.64621e-10
-3.93459e-10
4.09975e-12
-1.93931e-10
-3.01076e-10
-3.78205e-10
-4.32415e-10
-9.53788e-10
-9.35792e-10
-1.00502e-09
-1.07822e-09
-1.11623e-09
-9.1799e-10
-9.32668e-10
-1.02333e-09
-1.10331e-09
-1.1355e-09
-8.32856e-10
-8.86272e-10
-9.93992e-10
-1.08075e-09
-1.12129e-09
-6.69594e-10
-8.04668e-10
-9.53908e-10
-1.0734e-09
-1.14748e-09
-3.42612e-10
-6.56843e-10
-9.09035e-10
-1.1218e-09
-1.26453e-09
-1.29538e-09
-1.38181e-09
-1.5377e-09
-1.66183e-09
-1.7111e-09
-1.29487e-09
-1.40536e-09
-1.57468e-09
-1.69535e-09
-1.72987e-09
-1.32023e-09
-1.39282e-09
-1.55502e-09
-1.67652e-09
-1.7254e-09
-1.35931e-09
-1.3703e-09
-1.54013e-09
-1.70145e-09
-1.79679e-09
-1.38795e-09
-1.34709e-09
-1.54304e-09
-1.80629e-09
-1.9742e-09
-1.54792e-09
-1.72421e-09
-1.91067e-09
-2.042e-09
-2.08167e-09
-1.62066e-09
-1.78279e-09
-1.96095e-09
-2.07984e-09
-2.10356e-09
-1.73948e-09
-1.81086e-09
-1.96651e-09
-2.0886e-09
-2.1326e-09
-1.95857e-09
-1.86261e-09
-2.00491e-09
-2.16871e-09
-2.25332e-09
-2.42656e-09
-2.06479e-09
-2.13954e-09
-2.34769e-09
-2.45378e-09
-1.84482e-09
-1.94994e-09
-2.06635e-09
-2.15966e-09
-2.18396e-09
-1.92938e-09
-2.00863e-09
-2.11633e-09
-2.20634e-09
-2.22537e-09
-2.01006e-09
-2.05846e-09
-2.16664e-09
-2.26977e-09
-2.3049e-09
-2.18116e-09
-2.15713e-09
-2.2801e-09
-2.41072e-09
-2.45545e-09
-2.65749e-09
-2.49181e-09
-2.54775e-09
-2.63906e-09
-2.63536e-09
-2.0092e-09
-1.94133e-09
-1.9514e-09
-2.00674e-09
-2.03373e-09
-2.03595e-09
-1.97943e-09
-2.01005e-09
-2.08232e-09
-2.11205e-09
-2.06652e-09
-2.07792e-09
-2.13605e-09
-2.21374e-09
-2.23441e-09
-2.15349e-09
-2.24764e-09
-2.33445e-09
-2.39406e-09
-2.38167e-09
-2.385e-09
-2.56904e-09
-2.63324e-09
-2.60468e-09
-2.52096e-09
-1.83569e-09
-1.65828e-09
-1.60274e-09
-1.6423e-09
-1.68016e-09
-1.84066e-09
-1.71134e-09
-1.69948e-09
-1.75992e-09
-1.78718e-09
-1.96575e-09
-1.91111e-09
-1.90947e-09
-1.93982e-09
-1.92405e-09
-2.16332e-09
-2.19167e-09
-2.16891e-09
-2.12815e-09
-2.05962e-09
-2.32062e-09
-2.45006e-09
-2.40681e-09
-2.29226e-09
-2.19445e-09
-1.45305e-09
-1.24213e-09
-1.13218e-09
-1.12876e-09
-1.13815e-09
-1.53082e-09
-1.35543e-09
-1.27439e-09
-1.26734e-09
-1.23922e-09
-1.83183e-09
-1.65598e-09
-1.53842e-09
-1.46773e-09
-1.38699e-09
-2.23445e-09
-2.03242e-09
-1.83489e-09
-1.68017e-09
-1.56832e-09
-2.52908e-09
-2.31231e-09
-2.06663e-09
-1.88305e-09
-1.7934e-09
-1.17024e-09
-8.46915e-10
-5.9943e-10
-4.62209e-10
-3.77604e-10
-1.34363e-09
-1.01637e-09
-7.59628e-10
-5.88459e-10
-4.61509e-10
-1.73998e-09
-1.3779e-09
-1.06466e-09
-8.35081e-10
-6.84858e-10
-2.25385e-09
-1.8378e-09
-1.44789e-09
-1.16987e-09
-1.02378e-09
-2.74924e-09
-2.28249e-09
-1.85006e-09
-1.56715e-09
-1.44558e-09
-1.02179e-09
-4.40681e-10
4.33599e-11
3.90112e-10
5.92409e-10
-1.23888e-09
-6.38914e-10
-1.22795e-10
2.60713e-10
4.69405e-10
-1.66625e-09
-1.07224e-09
-5.26393e-10
-1.26157e-10
6.81039e-11
-2.24644e-09
-1.67578e-09
-1.10936e-09
-7.03916e-10
-5.19687e-10
-2.90851e-09
-2.35594e-09
-1.80328e-09
-1.39072e-09
-1.19392e-09
-7.21603e-10
1.27925e-10
8.56437e-10
1.40016e-09
1.67893e-09
-9.79467e-10
-1.17441e-10
6.35981e-10
1.18957e-09
1.43106e-09
-1.52963e-09
-6.97513e-10
4.54064e-11
5.77829e-10
7.99532e-10
-2.28698e-09
-1.52208e-09
-8.07679e-10
-2.85148e-10
-4.84311e-11
-3.08167e-09
-2.42015e-09
-1.77504e-09
-1.24349e-09
-9.70379e-10
-7.00285e-11
9.37624e-10
1.84309e-09
2.51553e-09
2.82802e-09
-4.48456e-10
5.81427e-10
1.4938e-09
2.15426e-09
2.42491e-09
-1.24729e-09
-2.02725e-10
6.84271e-10
1.32023e-09
1.5944e-09
-2.29932e-09
-1.26926e-09
-4.15052e-10
2.18736e-10
5.24972e-10
-3.33224e-09
-2.41225e-09
-1.60759e-09
-9.66377e-10
-6.35049e-10
8.84972e-10
2.0108e-09
3.05498e-09
3.82995e-09
4.197e-09
3.35944e-10
1.50439e-09
2.55132e-09
3.32404e-09
3.67972e-09
-7.11201e-10
5.23337e-10
1.5604e-09
2.32613e-09
2.69649e-09
-2.07723e-09
-7.759e-10
2.59912e-10
1.0256e-09
1.41332e-09
-3.59528e-09
-2.26792e-09
-1.19128e-09
-4.14694e-10
-2.07088e-11
2.14872e-09
3.4949e-09
4.72813e-09
5.66134e-09
6.14418e-09
1.46868e-09
2.85657e-09
4.10579e-09
5.05952e-09
5.54805e-09
2.50956e-10
1.70112e-09
2.95864e-09
3.90646e-09
4.38908e-09
-1.39834e-09
1.47206e-10
1.42391e-09
2.35359e-09
2.82963e-09
-3.4896e-09
-1.75738e-09
-3.89479e-10
5.55984e-10
1.04756e-09
3.97809e-09
5.69833e-09
7.23387e-09
8.41039e-09
9.03894e-09
3.20788e-09
4.95083e-09
6.51434e-09
7.70849e-09
8.32076e-09
1.80949e-09
3.57381e-09
5.13896e-09
6.30294e-09
6.88652e-09
-1.54771e-10
1.6671e-09
3.22915e-09
4.3586e-09
4.93943e-09
-2.68657e-09
-6.94428e-10
9.18843e-10
2.07708e-09
2.70191e-09
6.70373e-09
8.94128e-09
1.09073e-08
1.23825e-08
1.31407e-08
5.78484e-09
8.03661e-09
1.00215e-08
1.14801e-08
1.21953e-08
4.03933e-09
6.28226e-09
8.24474e-09
9.66195e-09
1.03659e-08
1.57923e-09
3.82657e-09
5.75672e-09
7.15834e-09
7.88545e-09
-1.45833e-09
8.45457e-10
2.782e-09
4.22629e-09
4.99494e-09
1.05528e-08
1.34786e-08
1.60036e-08
1.78214e-08
1.87208e-08
9.34383e-09
1.22873e-08
1.48009e-08
1.65809e-08
1.74618e-08
7.01055e-09
9.934e-09
1.242e-08
1.42e-08
1.5116e-08
3.78233e-09
6.682e-09
9.14474e-09
1.09478e-08
1.18874e-08
-7.45718e-11
2.82958e-09
5.28447e-09
7.10604e-09
8.04925e-09
1.57666e-08
1.96176e-08
2.28616e-08
2.51473e-08
2.63073e-08
1.41205e-08
1.79756e-08
2.11897e-08
2.3476e-08
2.46808e-08
1.09522e-08
1.47882e-08
1.8015e-08
2.0366e-08
2.16129e-08
6.63542e-09
1.04545e-08
1.36935e-08
1.60746e-08
1.73086e-08
1.61065e-09
5.39749e-09
8.6167e-09
1.09717e-08
1.21859e-08
2.27931e-08
2.78706e-08
3.21057e-08
3.51356e-08
3.6749e-08
2.05446e-08
2.56086e-08
2.98477e-08
3.29424e-08
3.461e-08
1.6212e-08
2.13012e-08
2.56134e-08
2.87824e-08
3.04429e-08
1.02869e-08
1.54397e-08
1.98001e-08
2.29757e-08
2.45984e-08
3.39102e-09
8.57702e-09
1.29675e-08
1.61181e-08
1.77194e-08
3.22696e-08
3.90114e-08
4.46965e-08
4.88429e-08
5.10586e-08
2.91755e-08
3.59328e-08
4.16766e-08
4.58842e-08
4.809e-08
2.32194e-08
3.00766e-08
3.59056e-08
4.0138e-08
4.23126e-08
1.49826e-08
2.20176e-08
2.79153e-08
3.21537e-08
3.43104e-08
5.22334e-09
1.24915e-08
1.85206e-08
2.27808e-08
2.49283e-08
4.5002e-08
5.41073e-08
6.18635e-08
6.75067e-08
7.04529e-08
4.07534e-08
4.99208e-08
5.77286e-08
6.33695e-08
6.62827e-08
3.26198e-08
4.18903e-08
4.97378e-08
5.53903e-08
5.8317e-08
2.13429e-08
3.07867e-08
3.87016e-08
4.4405e-08
4.73612e-08
7.93975e-09
1.7627e-08
2.57106e-08
3.15056e-08
3.45033e-08
6.21806e-08
7.46169e-08
8.51867e-08
9.28073e-08
9.67699e-08
5.63961e-08
6.88804e-08
7.94513e-08
8.70656e-08
9.10539e-08
4.53286e-08
5.7837e-08
6.84376e-08
7.61205e-08
8.01693e-08
2.99751e-08
4.2583e-08
5.32804e-08
6.10821e-08
6.52037e-08
1.17597e-08
2.45482e-08
3.54454e-08
4.34334e-08
4.76554e-08
8.56258e-08
1.02583e-07
1.16934e-07
1.27296e-07
1.32745e-07
7.77616e-08
9.47094e-08
1.09076e-07
1.19498e-07
1.25e-07
6.26191e-08
7.95771e-08
9.40444e-08
1.04585e-07
1.10156e-07
4.15673e-08
5.86951e-08
7.33487e-08
8.40669e-08
8.97454e-08
1.65922e-08
3.40977e-08
4.90454e-08
6.00146e-08
6.58025e-08
1.1784e-07
1.40833e-07
1.60327e-07
1.74475e-07
1.81921e-07
1.07079e-07
1.30086e-07
1.49678e-07
1.63912e-07
1.71379e-07
8.63258e-08
1.09478e-07
1.29251e-07
1.43631e-07
1.51202e-07
5.75988e-08
8.10705e-08
1.01121e-07
1.15734e-07
1.23449e-07
2.37841e-08
4.76963e-08
6.80948e-08
8.29457e-08
9.07568e-08
1.62026e-07
1.93159e-07
2.19614e-07
2.388e-07
2.48844e-07
1.47275e-07
1.78567e-07
2.0517e-07
2.2445e-07
2.34541e-07
1.19006e-07
1.50635e-07
1.77512e-07
1.97028e-07
2.07306e-07
8.00948e-08
1.12146e-07
1.39429e-07
1.59264e-07
1.69706e-07
3.44559e-08
6.68664e-08
9.45726e-08
1.14648e-07
1.25226e-07
2.22522e-07
2.64653e-07
3.00387e-07
3.26252e-07
3.39804e-07
2.02477e-07
2.44904e-07
2.80843e-07
3.06894e-07
3.20583e-07
1.64209e-07
2.07184e-07
2.43591e-07
2.70033e-07
2.83947e-07
1.11483e-07
1.55097e-07
1.92149e-07
2.19022e-07
2.33144e-07
4.91984e-08
9.35155e-08
1.31237e-07
1.58506e-07
1.72868e-07
3.05425e-07
3.62238e-07
4.10322e-07
4.4515e-07
4.63463e-07
2.78395e-07
3.35636e-07
3.84082e-07
4.1923e-07
4.3772e-07
2.26768e-07
2.84853e-07
3.34047e-07
3.69733e-07
3.88474e-07
1.55321e-07
2.14444e-07
2.64583e-07
3.00902e-07
3.2e-07
7.0346e-08
1.30732e-07
1.81936e-07
2.1898e-07
2.38493e-07
4.18895e-07
4.95288e-07
5.59852e-07
6.0663e-07
6.31246e-07
3.82573e-07
4.59625e-07
5.24774e-07
5.71986e-07
5.96799e-07
3.13053e-07
3.91366e-07
4.5761e-07
5.05593e-07
5.30787e-07
2.1634e-07
2.96279e-07
3.63934e-07
4.1297e-07
4.38782e-07
1.00852e-07
1.82703e-07
2.52018e-07
3.02287e-07
3.28848e-07
5.73811e-07
6.76311e-07
7.62698e-07
8.25226e-07
8.5812e-07
5.25123e-07
6.28622e-07
7.1589e-07
7.79042e-07
8.12222e-07
4.31634e-07
5.37085e-07
6.26037e-07
6.90405e-07
7.24198e-07
3.00831e-07
4.08957e-07
5.00193e-07
5.66294e-07
6.01058e-07
1.44002e-07
2.55209e-07
3.49091e-07
4.1724e-07
4.53261e-07
7.84827e-07
9.21838e-07
1.03681e-06
1.11999e-06
1.16375e-06
7.19773e-07
8.58318e-07
9.74647e-07
1.05879e-06
1.10301e-06
5.94598e-07
7.36285e-07
8.55298e-07
9.41326e-07
9.86449e-07
4.18291e-07
5.64344e-07
6.87057e-07
7.75889e-07
8.2247e-07
2.0575e-07
3.56773e-07
4.83905e-07
5.76174e-07
6.24711e-07
1.0716e-06
1.25387e-06
1.40569e-06
1.51576e-06
1.57368e-06
9.85135e-07
1.16976e-06
1.32365e-06
1.43523e-06
1.49388e-06
8.19045e-07
1.00866e-06
1.1668e-06
1.28123e-06
1.34103e-06
5.8253e-07
7.78938e-07
9.4307e-07
1.06208e-06
1.12413e-06
2.95739e-07
5.00225e-07
6.72077e-07
7.96961e-07
8.61944e-07
1.46006e-06
1.70178e-06
1.89962e-06
2.04442e-06
2.12047e-06
1.34548e-06
1.59067e-06
1.79145e-06
1.9388e-06
2.01606e-06
1.12861e-06
1.38153e-06
1.58935e-06
1.7408e-06
1.81885e-06
8.12234e-07
1.07552e-06
1.2928e-06
1.45183e-06
1.53349e-06
4.29096e-07
7.05754e-07
9.37342e-07
1.10643e-06
1.19189e-06
1.98212e-06
2.30587e-06
2.55693e-06
2.74671e-06
2.84483e-06
1.82905e-06
2.15687e-06
2.41096e-06
2.60598e-06
2.70731e-06
1.55677e-06
1.89531e-06
2.16286e-06
2.36274e-06
2.46077e-06
1.13154e-06
1.48487e-06
1.76538e-06
1.97831e-06
2.08376e-06
6.31181e-07
1.0065e-06
1.31676e-06
1.54749e-06
1.65354e-06
2.66899e-06
3.12888e-06
3.42681e-06
3.67732e-06
3.79764e-06
2.45268e-06
2.91386e-06
3.20641e-06
3.47227e-06
3.60713e-06
2.1543e-06
2.61975e-06
2.95109e-06
3.21764e-06
3.3256e-06
1.56087e-06
2.04566e-06
2.37998e-06
2.67199e-06
2.80637e-06
9.49199e-07
1.46446e-06
1.87387e-06
2.20204e-06
2.30168e-06
3.53575e-06
4.29674e-06
4.56723e-06
4.91618e-06
5.04059e-06
3.16391e-06
3.93236e-06
4.14243e-06
4.54852e-06
4.74051e-06
3.0185e-06
3.70861e-06
4.07992e-06
4.4557e-06
4.51216e-06
2.05168e-06
2.80845e-06
3.08854e-06
3.5298e-06
3.70559e-06
1.47279e-06
2.22374e-06
2.73374e-06
3.25417e-06
3.20566e-06
4.56873e-06
6.06513e-06
6.00055e-06
6.57448e-06
6.62383e-06
3.80625e-06
5.37958e-06
5.05555e-06
5.81601e-06
6.1137e-06
4.36278e-06
5.43825e-06
5.71435e-06
6.33181e-06
6.12499e-06
2.40879e-06
3.90668e-06
3.76501e-06
4.54562e-06
4.76583e-06
2.36327e-06
3.65328e-06
4.14485e-06
5.03882e-06
4.45421e-06
5.68235e-06
8.67122e-06
7.69017e-06
8.7044e-06
8.38999e-06
4.22466e-06
7.32116e-06
5.67871e-06
7.1694e-06
7.70744e-06
6.47074e-06
7.96828e-06
7.93682e-06
9.04533e-06
8.06344e-06
2.38184e-06
5.4008e-06
4.26191e-06
5.65143e-06
5.87877e-06
3.70475e-06
6.29432e-06
6.55517e-06
7.93713e-06
6.14626e-06
6.02624e-06
7.78377e-06
5.12777e-06
5.33514e-06
5.03728e-06
3.12858e-06
6.54835e-06
4.24519e-06
5.37081e-06
5.82366e-06
4.41951e-06
6.43914e-06
5.86353e-06
7.66058e-06
5.75667e-06
-6.31172e-08
2.87366e-06
1.09376e-06
2.92191e-06
4.03121e-06
-1.20985e-07
3.26681e-06
5.36058e-07
8.44239e-06
2.82372e-06
1.78295e-05
3.48526e-05
2.82763e-05
3.55839e-05
3.15149e-05
1.38207e-05
2.54486e-05
1.47888e-05
2.43295e-05
3.1209e-05
3.26705e-05
3.16864e-05
3.33344e-05
3.83226e-05
3.21087e-05
9.85476e-06
2.17642e-05
1.45252e-05
2.31027e-05
2.22603e-05
2.5023e-05
3.94411e-05
4.01075e-05
3.79754e-05
2.72329e-05
1.70642e-05
-6.59578e-07
-9.48841e-06
-2.26131e-05
-2.66608e-05
9.41129e-06
1.75737e-06
3.28122e-06
-8.9957e-06
-1.69958e-05
-1.23094e-05
-4.23004e-06
-9.58568e-06
-6.18519e-06
-1.76365e-05
-5.35456e-06
8.80954e-07
1.4186e-07
6.15118e-06
-1.83196e-06
-2.53863e-05
-1.98948e-05
-1.83624e-05
1.78427e-05
-6.70753e-06
6.72162e-06
5.42015e-05
5.0873e-05
7.3867e-05
4.36268e-05
3.59268e-05
2.94695e-05
1.28607e-06
1.81522e-05
8.56701e-05
6.32919e-05
1.14591e-05
4.64398e-05
7.03931e-05
5.44641e-05
-6.57483e-05
2.8949e-06
-4.56385e-05
5.20762e-05
-1.25022e-05
8.11291e-06
0.000125704
0.00010963
2.10238e-05
1.15922e-05
0.000477098
0.00102655
0.000727347
0.000690098
0.000490818
0.000769766
0.000853161
0.00104525
0.000543397
0.000393456
0.0007281
0.00095759
0.000987743
0.000732411
0.000557654
0.000760366
0.00106828
0.000714958
0.000592723
0.000491029
0.000777809
0.000659668
0.00101238
0.000546412
0.00136393
0.00256027
0.00209852
0.00152112
0.00111621
0.00120164
0.00220515
0.00173903
0.00174202
0.00150188
0.000684267
0.0015207
0.00173737
0.00172459
0.00140682
0.00141906
0.00208517
0.00197459
0.00173873
0.00155727
0.00206031
0.00118183
0.00117516
0.00169368
0.00125848
0.00188222
0.00294262
0.00271051
0.00256251
0.00237501
0.00286638
0.00287972
0.00256883
0.00213794
0.00215902
0.00225545
0.00300062
0.00225454
0.0024486
0.00231563
0.00246952
0.00284512
0.00230484
0.00266216
0.00259532
0.00277979
0.00181485
0.0024113
0.00200915
0.00202528
0.00237548
0.0033828
0.00346309
0.0035415
0.00408838
0.00403136
0.00306679
0.00349767
0.00301099
0.00326205
0.003782
0.00317089
0.00286798
0.00315452
0.00304454
0.00343161
0.00311371
0.00279466
0.00299645
0.00313058
0.00294937
0.00306638
0.00261116
0.00256753
0.00302882
0.00285123
0.00390934
0.00393572
0.00398695
0.00407651
0.00407656
0.0039555
0.00402062
0.00420917
0.0040977
0.00415621
0.00399935
0.00372384
0.0039362
0.00372999
0.00408773
0.00346956
0.00355996
0.00414817
0.00353967
0.00379925
0.00363304
0.00298834
0.00387889
0.00393108
0.00355168
0.00456277
0.00443864
0.00481412
0.00434661
0.00440169
0.00497284
0.00438783
0.00466752
0.00450254
0.0043424
0.00467402
0.00428731
0.00456621
0.00476876
0.00428143
0.00517199
0.00402969
0.00444126
0.00415208
0.00431699
0.00376605
0.00423812
0.00425232
0.00429485
0.00425374
0.0054757
0.00540577
0.00523358
0.00492079
0.0048565
0.00527864
0.00504717
0.00506616
0.00502939
0.0049481
0.00487907
0.00548965
0.00504857
0.00516009
0.00540602
0.00511206
0.00499802
0.00497077
0.00496442
0.00473917
0.00497652
0.00499876
0.00457079
0.00460006
0.00443942
0.00568297
0.00574914
0.00570218
0.00486617
0.00482931
0.00548409
0.00580867
0.00567441
0.00573589
0.00587329
0.0056571
0.00556838
0.00564879
0.00570611
0.00574341
0.00523139
0.00558019
0.00536357
0.00561898
0.00577702
0.00562405
0.00552093
0.00551656
0.00568877
0.00555748
0.00609737
0.00605252
0.006487
0.00680242
0.00621863
0.00594129
0.00587497
0.00590796
0.00622802
0.00611503
0.00618733
0.00599393
0.00601335
0.00615241
0.00580585
0.00624072
0.00601748
0.0058494
0.00621943
0.00628583
0.00598041
0.00593664
0.00597654
0.00614209
0.00597413
0.00670693
0.0068162
0.0068618
0.00664404
0.00695338
0.00682856
0.00662255
0.00694642
0.00687689
0.00685251
0.00685929
0.00677827
0.00655676
0.00669772
0.00644634
0.00684105
0.00679548
0.00671756
0.00685243
0.00690764
0.00639989
0.00653993
0.00687641
0.00695189
0.00697643
0.00700218
0.00699047
0.0070018
0.00700673
0.0070406
0.00703768
0.00701917
0.00703315
0.00705736
0.00704909
0.00704202
0.00702785
0.00704992
0.00702679
0.00703885
0.00702245
0.0070401
0.00696628
0.00702691
0.00701228
0.00697917
0.0069664
0.00702349
0.00701621
0.00702098
0.007
0.00701391
0.00699282
0.00700838
0.00699601
0.00699801
0.00699615
0.00700237
0.00700305
0.00699461
0.00697931
0.00700962
0.00697722
0.007001
0.0070066
0.00696978
0.00699249
0.00698747
0.00698744
0.00699563
0.00698262
0.00698612
0.00698108
0.00698317
0.00699334
0.00698888
0.0069944
0.00699394
0.00700225
0.00700365
0.00699239
0.0070005
0.00700035
0.0070047
0.00700281
0.00698653
0.00699852
0.0069963
0.00699975
0.00700194
0.00698425
0.00699509
0.00699248
0.00699711
0.00699895
0.00698652
0.00699312
0.00699911
0.00699776
0.00700165
0.00699149
0.00699568
0.00699487
0.0069998
0.00699938
0.00699334
0.00699673
0.0069969
0.00699965
0.00699875
0.00698988
0.00699667
0.00699457
0.00699799
0.00699887
0.00698884
0.00699439
0.00699381
0.00699586
0.00699712
0.0069906
0.00699387
0.00699522
0.00699566
0.00699793
0.00699226
0.00699473
0.00699476
0.00699742
0.00699733
0.00699297
0.0069952
0.00699535
0.00699726
0.00699702
0.00699165
0.00699506
0.00699448
0.00699651
0.00699689
0.00699122
0.00699417
0.00699415
0.00699546
0.00699611
0.006992
0.00699393
0.00699468
0.00699525
0.00699625
0.00699285
0.00699436
0.0069945
0.00699599
0.006996
0.00699307
0.0069945
0.00699467
0.00699587
0.00699587
0.00699262
0.00699442
0.00699438
0.00699551
0.00699574
0.0069925
0.00699406
0.00699423
0.00699504
0.00699539
0.00699285
0.00699388
0.00699436
0.00699483
0.00699531
0.00699322
0.00699408
0.00699431
0.00699514
0.00699518
0.00699329
0.00699413
0.00699433
0.00699507
0.00699513
0.00699319
0.00699408
0.00699425
0.00699489
0.00699503
0.00699316
0.00699395
0.00699419
0.00699467
0.00699488
0.00699332
0.00699387
0.00699421
0.00699454
0.00699479
0.00699344
0.00699393
0.00699414
0.00699462
0.00699468
0.00699347
0.00699395
0.00699416
0.00699457
0.00699466
0.00699346
0.00699393
0.00699414
0.00699449
0.0069946
0.00699348
0.00699389
0.00699412
0.00699439
0.00699453
0.00699356
0.00699387
0.00699412
0.00699434
0.00699448
0.00699356
0.00699385
0.00699404
0.00699429
0.00699436
0.00699358
0.00699386
0.00699405
0.00699427
0.00699435
0.00699359
0.00699386
0.00699404
0.00699424
0.00699433
0.00699362
0.00699385
0.00699404
0.00699421
0.0069943
0.00699367
0.00699387
0.00699405
0.00699419
0.00699428
0.00699364
0.00699381
0.00699396
0.0069941
0.00699416
0.00699365
0.00699382
0.00699396
0.0069941
0.00699416
0.00699366
0.00699383
0.00699396
0.00699408
0.00699415
0.00699369
0.00699384
0.00699397
0.00699408
0.00699414
0.00699373
0.00699386
0.00699398
0.00699408
0.00699414
0.00699368
0.00699379
0.0069939
0.00699399
0.00699403
0.00699369
0.0069938
0.0069939
0.00699398
0.00699403
0.0069937
0.00699381
0.00699391
0.00699398
0.00699403
0.00699372
0.00699382
0.00699392
0.00699399
0.00699403
0.00699375
0.00699385
0.00699393
0.006994
0.00699403
0.0069937
0.00699378
0.00699386
0.00699391
0.00699394
0.00699371
0.00699379
0.00699386
0.00699391
0.00699394
0.00699372
0.0069938
0.00699387
0.00699392
0.00699395
0.00699374
0.00699381
0.00699388
0.00699392
0.00699395
0.00699376
0.00699383
0.00699389
0.00699393
0.00699396
0.00699372
0.00699378
0.00699383
0.00699387
0.00699389
0.00699373
0.00699378
0.00699383
0.00699387
0.00699389
0.00699374
0.00699379
0.00699384
0.00699387
0.00699389
0.00699375
0.0069938
0.00699385
0.00699388
0.0069939
0.00699377
0.00699382
0.00699386
0.00699389
0.00699391
0.00699373
0.00699377
0.00699381
0.00699383
0.00699385
0.00699374
0.00699378
0.00699381
0.00699384
0.00699385
0.00699375
0.00699378
0.00699382
0.00699384
0.00699385
0.00699376
0.00699379
0.00699382
0.00699385
0.00699386
0.00699377
0.0069938
0.00699383
0.00699386
0.00699387
0.00699374
0.00699377
0.0069938
0.00699381
0.00699382
0.00699375
0.00699377
0.0069938
0.00699382
0.00699383
0.00699375
0.00699378
0.0069938
0.00699382
0.00699383
0.00699376
0.00699379
0.00699381
0.00699383
0.00699383
0.00699377
0.0069938
0.00699382
0.00699383
0.00699384
0.00699375
0.00699377
0.00699379
0.0069938
0.00699381
0.00699375
0.00699377
0.00699379
0.0069938
0.00699381
0.00699376
0.00699378
0.00699379
0.0069938
0.00699381
0.00699376
0.00699378
0.0069938
0.00699381
0.00699382
0.00699377
0.00699379
0.0069938
0.00699382
0.00699382
0.00699376
0.00699377
0.00699378
0.00699379
0.0069938
0.00699376
0.00699377
0.00699378
0.00699379
0.0069938
0.00699376
0.00699377
0.00699379
0.00699379
0.0069938
0.00699376
0.00699378
0.00699379
0.0069938
0.0069938
0.00699377
0.00699378
0.00699379
0.0069938
0.00699381
0.00699376
0.00699377
0.00699378
0.00699378
0.00699379
0.00699376
0.00699377
0.00699378
0.00699379
0.00699379
0.00699376
0.00699377
0.00699378
0.00699379
0.00699379
0.00699377
0.00699378
0.00699378
0.00699379
0.00699379
0.00699377
0.00699378
0.00699379
0.00699379
0.0069938
0.00699376
0.00699377
0.00699378
0.00699378
0.00699378
0.00699376
0.00699377
0.00699378
0.00699378
0.00699378
0.00699376
0.00699377
0.00699378
0.00699378
0.00699378
0.00699377
0.00699377
0.00699378
0.00699378
0.00699379
0.00699377
0.00699378
0.00699378
0.00699379
0.00699379
0.00699376
0.00699377
0.00699377
0.00699378
0.00699378
0.00699376
0.00699377
0.00699377
0.00699378
0.00699378
0.00699377
0.00699377
0.00699378
0.00699378
0.00699378
0.00699377
0.00699377
0.00699378
0.00699378
0.00699378
0.00699377
0.00699377
0.00699378
0.00699378
0.00699378
0.00699377
0.00699377
0.00699377
0.00699378
0.00699378
0.00699377
0.00699377
0.00699377
0.00699378
0.00699378
0.00699377
0.00699377
0.00699377
0.00699378
0.00699378
0.00699377
0.00699377
0.00699378
0.00699378
0.00699378
0.00699377
0.00699377
0.00699378
0.00699378
0.00699378
0.00699377
0.00699377
0.00699377
0.00699377
0.00699378
0.00699377
0.00699377
0.00699377
0.00699378
0.00699378
0.00699377
0.00699377
0.00699377
0.00699378
0.00699378
0.00699377
0.00699377
0.00699377
0.00699378
0.00699378
0.00699377
0.00699377
0.00699378
0.00699378
0.00699378
0.00699377
0.00699377
0.00699377
0.00699377
0.00699377
0.00699377
0.00699377
0.00699377
0.00699377
0.00699377
0.00699377
0.00699377
0.00699377
0.00699377
0.00699378
0.00699377
0.00699377
0.00699377
0.00699378
0.00699378
0.00699377
0.00699377
0.00699378
0.00699378
0.00699378
0.00699377
0.00699377
0.00699377
0.00699377
0.00699377
0.00699377
0.00699377
0.00699377
0.00699377
0.00699377
0.00699377
0.00699377
0.00699377
0.00699377
0.00699377
0.00699377
0.00699377
0.00699377
0.00699377
0.00699377
0.00699377
0.00699377
0.00699377
0.00699378
0.00699378
0.00699377
0.00699377
0.00699377
0.00699377
0.00699377
0.00699377
0.00699377
0.00699377
0.00699377
0.00699377
0.00699377
0.00699377
0.00699377
0.00699377
0.00699377
0.00699377
0.00699377
0.00699377
0.00699377
0.00699377
0.00699377
0.00699377
0.00699377
0.00699377
0.00699377
0.00699377
0.00699377
0.00699377
0.00699377
0.00699377
0.00699377
0.00699377
0.00699377
0.00699377
0.00699377
0.00699377
0.00699377
0.00699377
0.00699377
0.00699377
0.00699377
0.00699377
0.00699377
0.00699377
0.00699377
0.00699377
0.00699377
0.00699377
0.00699377
0.00699377
0.00699377
0.00699377
0.00699377
0.00699377
0.00699377
0.00699377
0.00699377
0.00699377
0.00699377
0.00699377
0.00699377
0.00699377
0.00699377
0.00699377
0.00699377
0.00699377
0.00699377
0.00699377
0.00699377
0.00699377
0.00699377
0.00699377
0.00699377
0.00699377
0.00699377
0.00699377
0.00699377
0.00699377
0.00699377
0.00699377
0.00699377
0.00699377
0.00699377
0.00699377
0.00699377
0.00699377
0.00699377
0.00699377
0.00699377
0.00699377
0.00699377
0.00699377
0.00699377
0.00699377
0.00699377
0.00699377
0.00699377
0.00699377
0.00699377
0.00699377
0.00699377
0.00699377
0.00699377
0.00699377
0.00699377
0.00699377
0.00699377
0.00699377
0.00699377
0.00699377
0.00699377
0.00699377
0.00699377
0.00699377
0.00699377
0.00699377
0.00699377
0.00699377
0.00699377
0.00699377
0.00699377
0.00699377
0.00699377
0.00699377
0.00699377
0.00699377
0.00699377
0.00699377
0.00699377
0.00699377
0.00699377
0.00699377
0.00699377
0.00699377
0.00699377
0.00699377
0.00699377
0.00699377
0.00699377
0.00699377
0.00699377
0.00699377
0.00699377
0.00699377
0.00699377
0.00699377
0.00699377
0.00699377
0.00699377
0.00699377
0.00699377
0.00699377
0.00699377
0.00699377
0.00699377
0.00699377
0.00699377
0.00699377
0.00699377
0.00699377
0.00699377
0.00699377
0.00699377
0.00699377
0.00699377
0.00699377
0.00699377
0.00699377
0.00699377
0.00699377
0.00699377
0.00699377
0.00699377
0.00699377
0.00699377
0.00699377
0.00699377
0.00699377
0.00699377
0.00699377
0.00699377
0.00699377
0.00699377
0.00699377
0.00699377
0.00699377
0.00699377
0.00699377
0.00699377
0.00699377
0.00699377
0.00699377
0.00699377
0.00699377
0.00699377
0.00699377
0.00699377
0.00699377
0.00699377
0.00699377
0.00699377
0.00699377
0.00699377
0.00699377
0.00699377
0.00699377
0.00699377
0.00699377
0.00699377
0.00699377
0.00699377
0.00699377
0.00699377
0.00699377
0.00699377
0.00699377
0.00699377
0.00699377
0.00699377
0.00699377
0.00699377
0.00699377
0.00699377
0.00699377
0.00699377
0.00699377
0.00699377
0.00699377
0.00699377
0.00699377
0.00699377
0.00699377
0.00699377
0.00699377
0.00699377
0.00699377
0.00699377
0.00699377
0.00699377
0.00699377
0.00699377
0.00699377
0.00699377
0.00699377
0.00699377
0.00699377
0.00699377
0.00699377
0.00699377
0.00699377
0.00699377
0.00699377
0.00699377
0.00699377
0.00699377
0.00699377
0.00699377
0.00699377
0.00699377
0.00699377
0.00699377
0.00699377
0.00699377
0.00699377
0.00699377
0.00699377
0.00699377
0.00699377
0.00699377
0.00699377
0.00699377
0.00699377
0.00699377
0.00699377
0.00699377
0.00699377
0.00699377
0.00699377
0.00699377
0.00699377
0.00699377
0.00699377
0.00699377
0.00699377
0.00699377
0.00699377
0.00699377
0.00699377
0.00699377
0.00699377
0.00699377
0.00699377
0.00699377
0.00699377
0.00699377
0.00699377
0.00699377
0.00699377
0.00699377
0.00699377
0.00699377
0.00699377
0.00699377
0.00699377
0.00699377
0.00699377
0.00699377
0.00699377
0.00699377
0.00699377
0.00699377
0.00699377
0.00699377
0.00699377
0.00699377
0.00699377
0.00699377
0.00699377
0.00699377
0.00699377
0.00699377
0.00699377
0.00699377
0.00699377
0.00699377
0.00699377
0.00699377
0.00699377
0.00699377
0.00699377
0.00699377
0.00699377
0.00699377
0.00699377
0.00699377
0.00699377
0.00699377
0.00699377
0.00699377
0.00699377
0.00699377
0.00699377
0.00699377
0.00699377
0.00699377
0.00699377
0.00699377
0.00699377
0.00699377
0.00699377
0.00699377
0.00699377
0.00699377
0.00699377
0.00699377
0.00699377
0.00699377
0.00699377
0.00699377
0.00699377
0.00699377
0.00699377
0.00699377
0.00699377
0.00699377
0.00699377
0.00699377
0.00699377
0.00699377
0.00699377
0.00699377
0.00699377
0.00699377
0.00699377
0.00699377
)
;

boundaryField
{
    inlet
    {
        type            zeroGradient;
    }
    outlet
    {
        type            fixedValue;
        value           uniform 0;
    }
    repeat_boundary
    {
        type            zeroGradient;
    }
    procBoundary1to0
    {
        type            processor;
        value           nonuniform List<scalar> 
450
(
-3.6118e-10
-3.4931e-10
-3.04733e-10
-2.53073e-10
-2.16119e-10
-9.23387e-10
-8.74536e-10
-7.99065e-10
-7.25609e-10
-7.3683e-10
-1.25119e-09
-1.22179e-09
-1.20301e-09
-1.16435e-09
-1.18825e-09
-1.53315e-09
-1.59047e-09
-1.66167e-09
-1.67169e-09
-1.54093e-09
-1.88666e-09
-1.98668e-09
-2.08524e-09
-2.14752e-09
-1.93968e-09
-2.11893e-09
-2.17664e-09
-2.27506e-09
-2.45992e-09
-2.54233e-09
-2.03691e-09
-2.06401e-09
-2.22759e-09
-2.57703e-09
-3.05749e-09
-1.78895e-09
-1.87839e-09
-2.15829e-09
-2.5973e-09
-3.18833e-09
-1.67133e-09
-1.85989e-09
-2.22655e-09
-2.70852e-09
-3.2921e-09
-1.67927e-09
-1.9147e-09
-2.34059e-09
-2.9485e-09
-3.76052e-09
-1.51062e-09
-1.77482e-09
-2.31149e-09
-3.10758e-09
-4.19712e-09
-9.96028e-10
-1.36595e-09
-2.09229e-09
-3.03418e-09
-4.13614e-09
-2.27029e-10
-7.67029e-10
-1.70856e-09
-2.80984e-09
-3.91169e-09
7.7559e-10
9.74882e-11
-1.04349e-09
-2.44707e-09
-3.89598e-09
2.24427e-09
1.47371e-09
1.01581e-10
-1.75874e-09
-3.81842e-09
4.46146e-09
3.53548e-09
1.78209e-09
-6.82677e-10
-3.49383e-09
7.58916e-09
6.35306e-09
3.99094e-09
7.16217e-10
-3.05293e-09
1.18021e-08
1.01175e-08
6.91586e-09
2.54704e-09
-2.48786e-09
1.74627e-08
1.51911e-08
1.08449e-08
4.92478e-09
-1.94521e-09
2.50726e-08
2.19673e-08
1.60026e-08
7.84725e-09
-1.65091e-09
3.52527e-08
3.09708e-08
2.27854e-08
1.15466e-08
-1.48377e-09
4.89665e-08
4.31116e-08
3.1938e-08
1.64687e-08
-1.56955e-09
6.77276e-08
5.97558e-08
4.44553e-08
2.31461e-08
-1.92939e-09
9.35977e-08
8.26793e-08
6.16812e-08
3.2571e-08
-1.67432e-09
1.2917e-07
1.14211e-07
8.56079e-08
4.61944e-08
-2.75815e-10
1.77991e-07
1.57685e-07
1.19004e-07
6.56306e-08
2.29429e-09
2.45167e-07
2.17769e-07
1.65519e-07
9.30547e-08
6.84712e-09
3.37589e-07
3.00688e-07
2.30076e-07
1.3166e-07
1.43102e-08
4.64455e-07
4.14811e-07
3.19433e-07
1.85985e-07
2.61101e-08
6.38345e-07
5.71633e-07
4.43251e-07
2.62844e-07
4.55573e-08
8.76666e-07
7.87319e-07
6.15655e-07
3.7227e-07
7.7273e-08
1.204e-06
1.08467e-06
8.57383e-07
5.2932e-07
1.29349e-07
1.65687e-06
1.49661e-06
1.20071e-06
7.58074e-07
2.18569e-07
2.2998e-06
2.07816e-06
1.7023e-06
1.09894e-06
3.74146e-07
3.26326e-06
2.9371e-06
2.47293e-06
1.64056e-06
6.43794e-07
4.80016e-06
4.25575e-06
3.67662e-06
2.57838e-06
1.07511e-06
7.33211e-06
6.12741e-06
5.29238e-06
4.18676e-06
1.5159e-06
4.60409e-06
6.66074e-06
1.89381e-06
5.45292e-06
5.50468e-07
3.56278e-05
1.82065e-05
2.24036e-05
1.83917e-05
1.12102e-05
-9.20068e-06
1.41178e-05
-1.60477e-05
1.55607e-05
3.08196e-06
9.44668e-05
-9.37144e-05
-7.41721e-06
-6.94753e-05
-3.87749e-05
0.000940897
0.000497315
0.000732792
0.000269299
0.000147527
0.00112407
0.0012549
0.00148397
0.00116754
0.00169826
0.00225864
0.00189291
0.00227141
0.00208816
0.00241097
0.00312097
0.00383156
0.00273643
0.00299472
0.00321803
0.00401254
0.00375273
0.00364424
0.00339595
0.00352714
0.00467622
0.00407206
0.00464287
0.00412603
0.00392698
0.0049691