/*--------------------------------*- C++ -*----------------------------------*\
| =========                 |                                                 |
| \\      /  F ield         | OpenFOAM: The Open Source CFD Toolbox           |
|  \\    /   O peration     | Version:  5.x                                   |
|   \\  /    A nd           | Web:      www.OpenFOAM.org                      |
|    \\/     M anipulation  |                                                 |
\*---------------------------------------------------------------------------*/
FoamFile
{
    version     2.0;
    format      ascii;
    class       volScalarField;
    location    "50000";
    object      p;
}
// * * * * * * * * * * * * * * * * * * * * * * * * * * * * * * * * * * * * * //

dimensions      [0 2 -2 0 0 0 0];

internalField   nonuniform List<scalar> 
2250
(
-3.80927e-10
-2.69175e-10
-2.58182e-10
-2.88009e-10
-3.11476e-10
-2.08579e-10
-1.91267e-10
-2.24284e-10
-2.62998e-10
-2.80187e-10
-8.667e-11
-1.26351e-10
-1.84353e-10
-2.30951e-10
-2.50208e-10
-3.06458e-12
-6.82306e-11
-1.38669e-10
-1.9018e-10
-2.13067e-10
4.39125e-11
-3.39791e-11
-1.09109e-10
-1.62395e-10
-1.87661e-10
-9.25849e-10
-7.6772e-10
-7.44756e-10
-8.02755e-10
-8.39147e-10
-5.8874e-10
-5.6163e-10
-6.3829e-10
-7.26047e-10
-7.57961e-10
-2.77111e-10
-3.77247e-10
-5.24779e-10
-6.39944e-10
-6.81182e-10
-4.78824e-11
-2.20579e-10
-4.05991e-10
-5.37823e-10
-5.90382e-10
7.27703e-11
-1.36878e-10
-3.34075e-10
-4.69472e-10
-5.27269e-10
-9.311e-10
-1.01093e-09
-1.08859e-09
-1.18455e-09
-1.22633e-09
-7.41724e-10
-8.12981e-10
-9.53705e-10
-1.07944e-09
-1.12013e-09
-4.12147e-10
-5.82307e-10
-7.97533e-10
-9.55266e-10
-1.00291e-09
-1.30688e-10
-3.80418e-10
-6.40919e-10
-8.17166e-10
-8.76772e-10
1.09373e-11
-2.79278e-10
-5.47618e-10
-7.23012e-10
-7.87398e-10
-6.43935e-10
-9.91159e-10
-1.22907e-09
-1.39005e-09
-1.4592e-09
-6.8259e-10
-8.98214e-10
-1.11705e-09
-1.27649e-09
-1.3256e-09
-4.7735e-10
-7.15613e-10
-9.67583e-10
-1.13667e-09
-1.18065e-09
-2.62007e-10
-5.44909e-10
-8.19863e-10
-9.9453e-10
-1.04648e-09
-1.66327e-10
-4.62083e-10
-7.29285e-10
-8.98026e-10
-9.55278e-10
-5.18907e-10
-8.86243e-10
-1.17626e-09
-1.37605e-09
-1.46496e-09
-6.04776e-10
-8.623e-10
-1.10664e-09
-1.27556e-09
-1.32908e-09
-5.32068e-10
-7.76788e-10
-1.01044e-09
-1.15996e-09
-1.20121e-09
-4.48394e-10
-6.92507e-10
-9.16208e-10
-1.05642e-09
-1.10196e-09
-4.29558e-10
-6.50498e-10
-8.5643e-10
-9.90917e-10
-1.04076e-09
-5.62681e-10
-7.47174e-10
-9.57932e-10
-1.14524e-09
-1.23928e-09
-5.90779e-10
-7.59221e-10
-9.57065e-10
-1.11174e-09
-1.17721e-09
-6.16367e-10
-7.84589e-10
-9.5464e-10
-1.0755e-09
-1.12635e-09
-6.54666e-10
-8.04076e-10
-9.48214e-10
-1.05146e-09
-1.09871e-09
-6.85183e-10
-8.11837e-10
-9.43542e-10
-1.04079e-09
-1.08523e-09
-2.60012e-10
-4.69214e-10
-6.55394e-10
-8.46943e-10
-9.61313e-10
-4.75346e-10
-6.00073e-10
-7.64041e-10
-9.17941e-10
-1.0081e-09
-6.52693e-10
-7.52801e-10
-8.76786e-10
-9.89714e-10
-1.05918e-09
-7.92496e-10
-8.74587e-10
-9.6977e-10
-1.05772e-09
-1.11187e-09
-8.50636e-10
-9.37463e-10
-1.02508e-09
-1.10146e-09
-1.14578e-09
5.01297e-10
-4.34046e-11
-3.9216e-10
-6.6186e-10
-8.15669e-10
-1.24209e-10
-3.93313e-10
-6.2474e-10
-8.22858e-10
-9.41867e-10
-5.39763e-10
-6.91148e-10
-8.48014e-10
-9.9397e-10
-1.08704e-09
-8.01121e-10
-9.12591e-10
-1.02941e-09
-1.14151e-09
-1.21283e-09
-9.12262e-10
-1.02715e-09
-1.13085e-09
-1.22677e-09
-1.28619e-09
1.25447e-09
3.49464e-10
-2.4679e-10
-6.35482e-10
-8.30133e-10
3.387e-10
-1.96997e-10
-5.91845e-10
-8.8166e-10
-1.03642e-09
-2.86029e-10
-6.25592e-10
-9.13554e-10
-1.1441e-09
-1.27306e-09
-6.7765e-10
-9.34732e-10
-1.16677e-09
-1.35839e-09
-1.46544e-09
-8.58043e-10
-1.08794e-09
-1.30035e-09
-1.47437e-09
-1.56664e-09
1.49829e-09
4.86083e-10
-2.72427e-10
-7.69154e-10
-1.00598e-09
6.40209e-10
-1.37267e-10
-7.25872e-10
-1.13532e-09
-1.33561e-09
-3.67244e-11
-6.4651e-10
-1.13745e-09
-1.49198e-09
-1.66802e-09
-5.01053e-10
-1.01522e-09
-1.44859e-09
-1.76548e-09
-1.9221e-09
-7.24887e-10
-1.19715e-09
-1.60667e-09
-1.90357e-09
-2.04331e-09
1.20013e-09
2.80666e-10
-5.45383e-10
-1.12256e-09
-1.3929e-09
5.95483e-10
-3.45563e-10
-1.10719e-09
-1.63115e-09
-1.87592e-09
-1.30864e-11
-8.94319e-10
-1.59969e-09
-2.08532e-09
-2.31598e-09
-4.79973e-10
-1.29657e-09
-1.96025e-09
-2.41996e-09
-2.64134e-09
-7.21918e-10
-1.50162e-09
-2.13908e-09
-2.58281e-09
-2.79787e-09
7.64696e-10
-1.50621e-10
-1.05529e-09
-1.69861e-09
-2.00077e-09
2.59654e-10
-8.2617e-10
-1.74681e-09
-2.38609e-09
-2.69706e-09
-3.23522e-10
-1.43331e-09
-2.34192e-09
-2.97607e-09
-3.29502e-09
-7.91669e-10
-1.87889e-09
-2.77365e-09
-3.4071e-09
-3.73374e-09
-1.05308e-09
-2.10916e-09
-2.98898e-09
-3.62471e-09
-3.96234e-09
5.40892e-10
-6.15399e-10
-1.71065e-09
-2.5031e-09
-2.92407e-09
-1.45118e-10
-1.47275e-09
-2.63245e-09
-3.47493e-09
-3.92637e-09
-8.41996e-10
-2.231e-09
-3.41819e-09
-4.29033e-09
-4.76166e-09
-1.38956e-09
-2.78757e-09
-3.99067e-09
-4.88602e-09
-5.3745e-09
-1.69726e-09
-3.07781e-09
-4.28906e-09
-5.20345e-09
-5.70565e-09
5.11282e-10
-1.12221e-09
-2.62836e-09
-3.77769e-09
-4.43709e-09
-5.13704e-10
-2.31361e-09
-3.91643e-09
-5.11991e-09
-5.78033e-09
-1.46869e-09
-3.35591e-09
-5.0076e-09
-6.25062e-09
-6.92865e-09
-2.21954e-09
-4.12835e-09
-5.8093e-09
-7.08225e-09
-7.77576e-09
-2.63079e-09
-4.54566e-09
-6.24591e-09
-7.53532e-09
-8.22717e-09
4.38853e-10
-1.96032e-09
-4.16772e-09
-5.83686e-09
-6.7391e-09
-1.04996e-09
-3.6262e-09
-5.90407e-09
-7.59179e-09
-8.49273e-09
-2.42799e-09
-5.08063e-09
-7.39689e-09
-9.12353e-09
-1.0048e-08
-3.50428e-09
-6.16987e-09
-8.50956e-09
-1.02634e-08
-1.11965e-08
-4.08869e-09
-6.77621e-09
-9.12734e-09
-1.08812e-08
-1.17857e-08
9.67113e-11
-3.46063e-09
-6.59703e-09
-8.83919e-09
-9.98574e-09
-2.10414e-09
-5.74666e-09
-8.89004e-09
-1.1165e-08
-1.23701e-08
-4.08703e-09
-7.74023e-09
-1.09059e-08
-1.32319e-08
-1.44611e-08
-5.58521e-09
-9.24228e-09
-1.24236e-08
-1.47695e-08
-1.59848e-08
-6.40242e-09
-1.00794e-08
-1.32596e-08
-1.55799e-08
-1.67341e-08
-8.22663e-10
-5.84107e-09
-1.00703e-08
-1.30467e-08
-1.46117e-08
-3.94662e-09
-8.93898e-09
-1.31779e-08
-1.62307e-08
-1.78528e-08
-6.68455e-09
-1.16491e-08
-1.59175e-08
-1.90187e-08
-2.06332e-08
-8.70861e-09
-1.36874e-08
-1.7967e-08
-2.10595e-08
-2.26229e-08
-9.81237e-09
-1.47983e-08
-1.9062e-08
-2.2097e-08
-2.36081e-08
-2.58185e-09
-9.26268e-09
-1.48822e-08
-1.89516e-08
-2.11416e-08
-6.75024e-09
-1.34821e-08
-1.91905e-08
-2.33187e-08
-2.54899e-08
-1.04385e-08
-1.71888e-08
-2.29406e-08
-2.70769e-08
-2.92021e-08
-1.315e-08
-1.99388e-08
-2.56912e-08
-2.97758e-08
-3.18512e-08
-1.46093e-08
-2.13944e-08
-2.71108e-08
-3.11461e-08
-3.32582e-08
-5.03576e-09
-1.39178e-08
-2.15258e-08
-2.71356e-08
-3.01148e-08
-1.06549e-08
-1.97606e-08
-2.75131e-08
-3.31309e-08
-3.60644e-08
-1.56794e-08
-2.4864e-08
-3.26498e-08
-3.82267e-08
-4.11125e-08
-1.93363e-08
-2.85748e-08
-3.63434e-08
-4.1867e-08
-4.47784e-08
-2.12792e-08
-3.04948e-08
-3.82298e-08
-4.3788e-08
-4.68126e-08
-8.00666e-09
-2.02084e-08
-3.07389e-08
-3.84825e-08
-4.25488e-08
-1.58503e-08
-2.83137e-08
-3.89625e-08
-4.66861e-08
-5.07272e-08
-2.27546e-08
-3.53073e-08
-4.59509e-08
-5.36165e-08
-5.76606e-08
-2.77386e-08
-4.0325e-08
-5.09459e-08
-5.86273e-08
-6.27627e-08
-3.03646e-08
-4.29027e-08
-5.35378e-08
-6.13258e-08
-6.55207e-08
-1.17997e-08
-2.88127e-08
-4.3494e-08
-5.42092e-08
-5.9797e-08
-2.26788e-08
-3.99015e-08
-5.46308e-08
-6.53158e-08
-7.09203e-08
-3.20937e-08
-4.9397e-08
-6.40811e-08
-7.47422e-08
-8.04104e-08
-3.89219e-08
-5.62003e-08
-7.08811e-08
-8.16204e-08
-8.73387e-08
-4.24775e-08
-5.97217e-08
-7.4458e-08
-8.52617e-08
-9.09393e-08
-1.6929e-08
-4.05689e-08
-6.09134e-08
-7.56773e-08
-8.33443e-08
-3.18191e-08
-5.56432e-08
-7.59764e-08
-9.07271e-08
-9.84807e-08
-4.46273e-08
-6.85006e-08
-8.87693e-08
-1.03545e-07
-1.11355e-07
-5.39572e-08
-7.77477e-08
-9.8031e-08
-1.12861e-07
-1.20646e-07
-5.87582e-08
-8.2581e-08
-1.02909e-07
-1.17724e-07
-1.25471e-07
-2.40048e-08
-5.66487e-08
-8.46255e-08
-1.0487e-07
-1.15451e-07
-4.4427e-08
-7.71793e-08
-1.05084e-07
-1.25349e-07
-1.3602e-07
-6.19037e-08
-9.46068e-08
-1.22446e-07
-1.4275e-07
-1.53426e-07
-7.45591e-08
-1.07201e-07
-1.35058e-07
-1.55365e-07
-1.66025e-07
-8.10896e-08
-1.13836e-07
-1.4172e-07
-1.62008e-07
-1.72685e-07
-3.38126e-08
-7.87013e-08
-1.16988e-07
-1.44691e-07
-1.59304e-07
-6.18453e-08
-1.06649e-07
-1.4482e-07
-1.72585e-07
-1.87208e-07
-8.56569e-08
-1.30339e-07
-1.68477e-07
-1.96276e-07
-2.10901e-07
-1.02847e-07
-1.47575e-07
-1.85735e-07
-2.13531e-07
-2.28173e-07
-1.11889e-07
-1.56706e-07
-1.94894e-07
-2.22682e-07
-2.37332e-07
-4.72905e-08
-1.08738e-07
-1.60951e-07
-1.98886e-07
-2.18967e-07
-8.55595e-08
-1.46835e-07
-1.99052e-07
-2.37077e-07
-2.57093e-07
-1.17992e-07
-1.79232e-07
-2.31483e-07
-2.69533e-07
-2.89555e-07
-1.41541e-07
-2.02875e-07
-2.55152e-07
-2.93181e-07
-3.13193e-07
-1.54065e-07
-2.15385e-07
-2.67658e-07
-3.05655e-07
-3.25639e-07
-6.59108e-08
-1.49628e-07
-2.20868e-07
-2.72874e-07
-3.00337e-07
-1.17939e-07
-2.01792e-07
-2.73259e-07
-3.25286e-07
-3.52634e-07
-1.62193e-07
-2.46177e-07
-3.17721e-07
-3.69723e-07
-3.97033e-07
-1.94403e-07
-2.78448e-07
-3.49999e-07
-4.01946e-07
-4.29224e-07
-2.11435e-07
-2.95432e-07
-3.66937e-07
-4.18858e-07
-4.46101e-07
-9.15741e-08
-2.05886e-07
-3.03416e-07
-3.74504e-07
-4.11844e-07
-1.62522e-07
-2.77273e-07
-3.75034e-07
-4.46062e-07
-4.83338e-07
-2.22835e-07
-3.37781e-07
-4.35595e-07
-5.0656e-07
-5.43787e-07
-2.66611e-07
-3.81596e-07
-4.79391e-07
-5.50333e-07
-5.87544e-07
-2.89667e-07
-4.0462e-07
-5.02369e-07
-5.73301e-07
-6.10476e-07
-1.26917e-07
-2.83668e-07
-4.17172e-07
-5.1402e-07
-5.64744e-07
-2.2379e-07
-3.80835e-07
-5.14449e-07
-6.11385e-07
-6.6223e-07
-3.05794e-07
-4.6295e-07
-5.96571e-07
-6.93469e-07
-7.44276e-07
-3.65318e-07
-5.22431e-07
-6.56017e-07
-7.52929e-07
-8.03718e-07
-3.96708e-07
-5.53756e-07
-6.8728e-07
-7.84125e-07
-8.34893e-07
-1.75872e-07
-3.90563e-07
-5.72971e-07
-7.05169e-07
-7.74462e-07
-3.0744e-07
-5.22523e-07
-7.05201e-07
-8.37826e-07
-9.07327e-07
-4.18913e-07
-6.33893e-07
-8.16456e-07
-9.4891e-07
-1.01821e-06
-5.00003e-07
-7.14754e-07
-8.97226e-07
-1.02965e-06
-1.09894e-06
-5.42771e-07
-7.57382e-07
-9.39662e-07
-1.07197e-06
-1.14122e-06
-2.42664e-07
-5.36855e-07
-7.86273e-07
-9.67207e-07
-1.06192e-06
-4.21038e-07
-7.16601e-07
-9.66553e-07
-1.14859e-06
-1.24355e-06
-5.72563e-07
-8.67524e-07
-1.1168e-06
-1.29791e-06
-1.39202e-06
-6.82814e-07
-9.77358e-07
-1.22649e-06
-1.40765e-06
-1.50186e-06
-7.41007e-07
-1.0352e-06
-1.28395e-06
-1.46488e-06
-1.55883e-06
-3.32778e-07
-7.38098e-07
-1.07866e-06
-1.32575e-06
-1.45398e-06
-5.7393e-07
-9.84431e-07
-1.32533e-06
-1.57703e-06
-1.7065e-06
-7.79339e-07
-1.18788e-06
-1.52636e-06
-1.77403e-06
-1.90007e-06
-9.28516e-07
-1.33672e-06
-1.67559e-06
-1.9244e-06
-2.05137e-06
-1.0074e-06
-1.41518e-06
-1.75308e-06
-2.00101e-06
-2.1271e-06
-4.50835e-07
-1.01636e-06
-1.47587e-06
-1.81106e-06
-1.98139e-06
-7.71907e-07
-1.36143e-06
-1.81741e-06
-2.17665e-06
-2.35181e-06
-1.04949e-06
-1.63197e-06
-2.08101e-06
-2.42041e-06
-2.58307e-06
-1.2493e-06
-1.83381e-06
-2.28607e-06
-2.63319e-06
-2.80134e-06
-1.35508e-06
-1.94062e-06
-2.38907e-06
-2.73321e-06
-2.89827e-06
-5.90691e-07
-1.39899e-06
-2.00185e-06
-2.45512e-06
-2.67601e-06
-1.00637e-06
-1.91453e-06
-2.48667e-06
-3.04229e-06
-3.26428e-06
-1.38272e-06
-2.26164e-06
-2.81674e-06
-3.29179e-06
-3.48746e-06
-1.64193e-06
-2.53993e-06
-3.10394e-06
-3.61684e-06
-3.82878e-06
-1.78067e-06
-2.68784e-06
-3.23577e-06
-3.73771e-06
-3.93725e-06
-7.42344e-07
-1.91687e-06
-2.68966e-06
-3.31262e-06
-3.5962e-06
-1.25465e-06
-2.75136e-06
-3.39702e-06
-4.3044e-06
-4.5457e-06
-1.79159e-06
-3.15757e-06
-3.77295e-06
-4.47657e-06
-4.68148e-06
-2.10374e-06
-3.55865e-06
-4.17103e-06
-5.00725e-06
-5.22837e-06
-2.28507e-06
-3.77154e-06
-4.32389e-06
-5.12841e-06
-5.3228e-06
-9.29583e-07
-2.62487e-06
-3.62587e-06
-4.4898e-06
-4.8488e-06
-1.46779e-06
-4.00297e-06
-4.66717e-06
-6.08667e-06
-6.31942e-06
-2.34978e-06
-4.41742e-06
-5.04268e-06
-6.11226e-06
-6.25685e-06
-2.64534e-06
-4.97912e-06
-5.58054e-06
-6.95271e-06
-7.08967e-06
-2.90358e-06
-5.30995e-06
-5.72028e-06
-7.06649e-06
-7.15668e-06
-1.20095e-06
-3.56523e-06
-4.96165e-06
-6.11507e-06
-6.59135e-06
-1.45797e-06
-5.70234e-06
-6.34277e-06
-8.59131e-06
-8.77431e-06
-3.17841e-06
-6.15121e-06
-6.76986e-06
-8.38025e-06
-8.30114e-06
-3.19895e-06
-6.79011e-06
-7.48387e-06
-9.58499e-06
-9.46671e-06
-3.64119e-06
-7.42241e-06
-7.54276e-06
-9.74705e-06
-9.55459e-06
1.76926e-07
-4.27338e-06
-6.82431e-06
-8.24733e-06
-8.98709e-06
2.62146e-06
-7.83182e-06
-7.51092e-06
-1.15919e-05
-1.1398e-05
-3.08164e-06
-8.33588e-06
-9.04881e-06
-1.14821e-05
-1.06888e-05
-2.42592e-06
-8.60786e-06
-9.80184e-06
-1.29499e-05
-1.17616e-05
-3.37285e-06
-1.02957e-05
-9.82325e-06
-1.34128e-05
-1.26443e-05
-1.04817e-05
-1.26199e-05
-1.41809e-05
-1.61578e-05
-1.59878e-05
-8.50276e-06
-1.65836e-05
-1.95811e-05
-2.26571e-05
-2.33282e-05
-1.42215e-05
-1.64772e-05
-1.79365e-05
-1.96364e-05
-1.8434e-05
-1.29756e-05
-1.67859e-05
-2.00491e-05
-2.15267e-05
-2.17699e-05
-1.28492e-05
-1.63493e-05
-1.76618e-05
-1.89074e-05
-1.73909e-05
1.28398e-05
3.09397e-06
-1.16033e-05
-6.77707e-06
-1.23787e-05
4.4545e-05
-1.51457e-05
-1.04328e-06
-1.86611e-05
-1.49045e-05
-7.00093e-07
-1.18728e-05
-1.37355e-05
-1.69819e-05
-9.21642e-06
9.1575e-06
-3.20369e-06
-1.07927e-05
-1.79889e-05
-6.37967e-06
5.65529e-06
-1.78736e-05
-1.01719e-05
-2.35954e-05
-2.05699e-05
-3.89434e-05
-3.88822e-05
-3.18963e-05
-4.5993e-05
-3.37205e-05
-6.78511e-05
-4.20076e-05
-5.92991e-05
-4.96184e-05
-5.26803e-05
-4.37031e-05
-4.08327e-05
-4.2635e-05
-4.48097e-05
-4.2898e-05
-4.00788e-05
-4.5572e-05
-4.69307e-05
-4.17858e-05
-5.04725e-05
-3.03109e-05
-3.21648e-05
-3.6801e-05
-2.86211e-05
-1.55339e-05
8.55959e-06
5.02278e-05
-0.000111333
-2.04257e-05
-6.93529e-05
0.000320513
-9.66775e-05
-2.54977e-06
-6.05555e-05
-5.17439e-05
-6.02499e-05
-4.26433e-05
-6.023e-05
-5.24251e-05
-2.41363e-06
2.79432e-06
4.14376e-05
-5.36363e-05
-4.65746e-05
4.44251e-05
5.90958e-07
-7.76091e-05
2.42498e-06
-3.68777e-05
-7.19866e-05
0.00103543
0.000844379
0.000375196
0.00075981
0.000485845
0.00107135
0.000560969
0.00057473
0.000563127
0.000912001
0.000932036
0.000594355
0.000358764
0.000583156
0.000685672
0.000535629
0.000490517
0.000587126
0.000783454
0.000948937
0.000736602
0.000524456
0.000556204
0.000768342
0.000899544
0.00107743
0.00132817
0.00129622
0.00146424
0.00127162
0.00108844
0.00134912
0.00113973
0.00132837
0.00145458
0.00133139
0.00151182
0.00151902
0.00166983
0.00142204
0.00120702
0.00131304
0.00173366
0.00168617
0.00147679
0.00183311
0.00173451
0.00149944
0.00159291
0.001636
0.00179769
0.00202122
0.00217409
0.00194875
0.00179603
0.00194562
0.00198694
0.00183384
0.0021379
0.00189266
0.00288816
0.00206812
0.00214714
0.0022147
0.00201069
0.00257458
0.00212735
0.00238369
0.00221711
0.00211482
0.00265468
0.00222736
0.00227671
0.00207076
0.0022072
0.00331646
0.00287424
0.00275365
0.00224852
0.00267706
0.00266109
0.00323983
0.00262853
0.00278855
0.00249816
0.00315397
0.00262925
0.0024156
0.00256562
0.00240556
0.00287837
0.00267316
0.00260164
0.00276205
0.00254072
0.00321266
0.00275599
0.00247825
0.00259536
0.00262211
0.00370662
0.00363135
0.00373225
0.00286346
0.00345547
0.00341543
0.00403046
0.00383014
0.00384509
0.0037319
0.00385714
0.00347532
0.0036659
0.00337931
0.00342353
0.00354345
0.00333061
0.00302764
0.00332978
0.00250436
0.00390504
0.00344287
0.00314246
0.00332282
0.00240362
0.00445417
0.00427415
0.00431431
0.00421568
0.00482971
0.00460449
0.00428751
0.00438565
0.00448297
0.00481246
0.00447061
0.00412619
0.00438295
0.0043874
0.00458228
0.00423291
0.00400204
0.0040652
0.00422925
0.00488453
0.00401669
0.00401876
0.00407108
0.00411004
0.00401005
0.0052654
0.00497893
0.00495392
0.00524062
0.0049927
0.00484845
0.00477344
0.00499788
0.00484688
0.00480064
0.00441659
0.00473897
0.00529753
0.00480249
0.00490734
0.00486156
0.00493665
0.00485094
0.00516188
0.00482918
0.00394812
0.00497645
0.00490644
0.00436948
0.00462652
0.00537274
0.00551061
0.00537669
0.00539234
0.00507536
0.00514398
0.00560865
0.00550934
0.0054679
0.00486088
0.00490326
0.00578316
0.0054992
0.00573029
0.00508857
0.00556085
0.00555881
0.00539111
0.00541632
0.00510335
0.00525515
0.00590512
0.00554929
0.00568611
0.0045109
0.00563476
0.00620692
0.0062469
0.00554148
0.00672995
0.0061193
0.00608897
0.00603939
0.00590632
0.00610045
0.00630859
0.00624045
0.0057967
0.00581386
0.00585625
0.00618915
0.00625937
0.00585795
0.00564428
0.00600771
0.00601769
0.00653884
0.00569933
0.00575314
0.00548311
0.00660569
0.00663132
0.00669098
0.00671477
0.00669976
0.00665272
0.00673744
0.00664771
0.00656347
0.00674255
0.00665404
0.00681315
0.0067765
0.00666167
0.00666762
0.00673311
0.00677915
0.00660703
0.00615802
0.00674715
0.00673999
0.00681697
0.0067669
0.00635607
0.0067852
0.00683529
0.00685171
0.00673242
0.00678944
0.00673802
0.0068412
0.00687796
0.00683
0.0068073
0.00683246
0.00683114
0.00685624
0.00682111
0.00688759
0.00682152
0.00683388
0.00684418
0.00681429
0.00681075
0.00681865
0.00684748
0.00682091
0.00681883
0.00684501
0.0068488
0.00679321
0.00679869
0.0067801
0.00676598
0.00677038
0.00681589
0.00680295
0.00679059
0.00677687
0.0067754
0.00680268
0.00679972
0.00680528
0.00676386
0.00678894
0.00680834
0.00680727
0.00680064
0.0067985
0.00679761
0.0068076
0.00680081
0.00679691
0.006775
0.00679516
0.00679298
0.00679463
0.00678732
0.0067825
0.00676844
0.00679816
0.00680289
0.0067936
0.00678814
0.00678572
0.00679904
0.00680251
0.00679856
0.006801
0.00679131
0.0068047
0.00680281
0.00680007
0.00679708
0.00679593
0.00680963
0.00680175
0.00680242
0.00680368
0.00680184
0.00679403
0.00679462
0.00679066
0.00678847
0.00678637
0.00679935
0.00679833
0.00679403
0.00679134
0.00678955
0.00680085
0.0067989
0.00679687
0.00679151
0.00679287
0.00680299
0.00680071
0.00679894
0.00679637
0.00679554
0.00680519
0.00680064
0.00680021
0.00679571
0.00679698
0.00679493
0.00679539
0.00679236
0.00679121
0.00678912
0.00679801
0.00679746
0.00679474
0.0067933
0.00679202
0.00679966
0.00679804
0.00679662
0.00679432
0.00679395
0.00680133
0.00679943
0.00679812
0.0067964
0.00679574
0.00680253
0.00679971
0.00679908
0.00679688
0.00679679
0.00679599
0.00679592
0.00679372
0.00679305
0.00679204
0.00679784
0.00679716
0.00679532
0.00679445
0.00679363
0.00679903
0.00679775
0.00679666
0.0067953
0.00679493
0.00680013
0.00679864
0.00679771
0.00679648
0.00679606
0.00680081
0.00679895
0.00679832
0.00679687
0.00679671
0.00679666
0.00679616
0.00679488
0.00679425
0.00679374
0.00679777
0.00679699
0.00679591
0.00679519
0.00679474
0.00679859
0.0067976
0.00679679
0.00679591
0.00679563
0.00679928
0.00679817
0.00679749
0.00679662
0.00679634
0.00679968
0.00679842
0.00679789
0.00679692
0.00679676
0.00679703
0.0067964
0.00679564
0.00679512
0.00679481
0.0067977
0.006797
0.0067963
0.00679577
0.00679549
0.00679825
0.0067975
0.0067969
0.00679632
0.0067961
0.00679869
0.00679789
0.00679737
0.00679677
0.00679657
0.00679894
0.00679809
0.00679763
0.006797
0.00679684
0.00679718
0.00679664
0.00679612
0.00679574
0.00679553
0.00679762
0.00679707
0.00679658
0.0067962
0.00679601
0.00679799
0.00679744
0.00679699
0.0067966
0.00679643
0.00679828
0.00679772
0.0067973
0.00679691
0.00679675
0.00679844
0.00679787
0.00679748
0.00679707
0.00679693
0.00679724
0.00679683
0.00679646
0.00679618
0.00679604
0.00679755
0.00679714
0.00679678
0.00679651
0.00679637
0.00679781
0.00679741
0.00679707
0.0067968
0.00679667
0.00679801
0.00679761
0.00679728
0.00679701
0.00679689
0.00679812
0.00679772
0.0067974
0.00679713
0.00679701
0.00679728
0.00679697
0.0067967
0.0067965
0.00679639
0.00679749
0.00679719
0.00679693
0.00679674
0.00679663
0.00679768
0.00679738
0.00679713
0.00679694
0.00679684
0.00679782
0.00679753
0.00679728
0.00679709
0.006797
0.0067979
0.00679761
0.00679736
0.00679718
0.00679708
0.0067973
0.00679707
0.00679687
0.00679673
0.00679665
0.00679745
0.00679723
0.00679704
0.0067969
0.00679682
0.00679759
0.00679737
0.00679718
0.00679705
0.00679697
0.00679769
0.00679747
0.00679729
0.00679715
0.00679708
0.00679774
0.00679753
0.00679735
0.00679721
0.00679714
0.00679731
0.00679714
0.006797
0.00679689
0.00679684
0.00679742
0.00679726
0.00679712
0.00679702
0.00679696
0.00679752
0.00679736
0.00679722
0.00679712
0.00679707
0.00679759
0.00679743
0.0067973
0.0067972
0.00679715
0.00679763
0.00679747
0.00679734
0.00679724
0.00679719
0.00679732
0.0067972
0.00679709
0.00679701
0.00679697
0.0067974
0.00679728
0.00679718
0.0067971
0.00679706
0.00679747
0.00679735
0.00679725
0.00679718
0.00679714
0.00679752
0.00679741
0.00679731
0.00679724
0.0067972
0.00679755
0.00679744
0.00679734
0.00679726
0.00679723
0.00679733
0.00679724
0.00679716
0.0067971
0.00679707
0.00679739
0.0067973
0.00679722
0.00679717
0.00679714
0.00679744
0.00679735
0.00679728
0.00679722
0.00679719
0.00679747
0.00679739
0.00679732
0.00679726
0.00679723
0.00679749
0.00679741
0.00679734
0.00679728
0.00679726
0.00679733
0.00679727
0.00679721
0.00679717
0.00679715
0.00679737
0.00679731
0.00679725
0.00679721
0.00679719
0.00679741
0.00679735
0.00679729
0.00679725
0.00679723
0.00679744
0.00679738
0.00679732
0.00679728
0.00679726
0.00679745
0.00679739
0.00679734
0.0067973
0.00679728
0.00679733
0.00679729
0.00679725
0.00679722
0.0067972
0.00679737
0.00679732
0.00679728
0.00679725
0.00679723
0.00679739
0.00679735
0.00679731
0.00679728
0.00679726
0.00679741
0.00679737
0.00679733
0.0067973
0.00679728
0.00679742
0.00679738
0.00679734
0.00679731
0.00679729
0.00679734
0.0067973
0.00679727
0.00679725
0.00679724
0.00679736
0.00679733
0.0067973
0.00679727
0.00679726
0.00679738
0.00679735
0.00679732
0.0067973
0.00679728
0.0067974
0.00679736
0.00679733
0.00679731
0.0067973
0.0067974
0.00679737
0.00679734
0.00679732
0.00679731
0.00679734
0.00679731
0.00679729
0.00679728
0.00679727
0.00679736
0.00679733
0.00679731
0.00679729
0.00679729
0.00679737
0.00679735
0.00679732
0.00679731
0.0067973
0.00679738
0.00679736
0.00679734
0.00679732
0.00679731
0.00679739
0.00679736
0.00679734
0.00679733
0.00679732
0.00679734
0.00679732
0.00679731
0.00679729
0.00679729
0.00679735
0.00679734
0.00679732
0.00679731
0.0067973
0.00679737
0.00679735
0.00679733
0.00679732
0.00679731
0.00679737
0.00679735
0.00679734
0.00679733
0.00679732
0.00679738
0.00679736
0.00679734
0.00679733
0.00679732
0.00679734
0.00679733
0.00679732
0.00679731
0.0067973
0.00679735
0.00679734
0.00679733
0.00679732
0.00679731
0.00679736
0.00679735
0.00679733
0.00679733
0.00679732
0.00679737
0.00679735
0.00679734
0.00679733
0.00679733
0.00679737
0.00679736
0.00679734
0.00679733
0.00679733
0.00679734
0.00679733
0.00679732
0.00679732
0.00679731
0.00679735
0.00679734
0.00679733
0.00679732
0.00679732
0.00679736
0.00679735
0.00679734
0.00679733
0.00679733
0.00679736
0.00679735
0.00679734
0.00679734
0.00679733
0.00679736
0.00679735
0.00679734
0.00679734
0.00679733
0.00679734
0.00679734
0.00679733
0.00679732
0.00679732
0.00679735
0.00679734
0.00679734
0.00679733
0.00679733
0.00679735
0.00679735
0.00679734
0.00679733
0.00679733
0.00679736
0.00679735
0.00679734
0.00679734
0.00679734
0.00679736
0.00679735
0.00679734
0.00679734
0.00679734
0.00679735
0.00679734
0.00679733
0.00679733
0.00679733
0.00679735
0.00679734
0.00679734
0.00679733
0.00679733
0.00679735
0.00679735
0.00679734
0.00679734
0.00679734
0.00679735
0.00679735
0.00679734
0.00679734
0.00679734
0.00679735
0.00679735
0.00679734
0.00679734
0.00679734
0.00679735
0.00679734
0.00679734
0.00679733
0.00679733
0.00679735
0.00679734
0.00679734
0.00679734
0.00679734
0.00679735
0.00679735
0.00679734
0.00679734
0.00679734
0.00679735
0.00679735
0.00679734
0.00679734
0.00679734
0.00679735
0.00679735
0.00679734
0.00679734
0.00679734
0.00679735
0.00679734
0.00679734
0.00679734
0.00679734
0.00679735
0.00679734
0.00679734
0.00679734
0.00679734
0.00679735
0.00679735
0.00679734
0.00679734
0.00679734
0.00679735
0.00679735
0.00679734
0.00679734
0.00679734
0.00679735
0.00679735
0.00679734
0.00679734
0.00679734
0.00679735
0.00679734
0.00679734
0.00679734
0.00679734
0.00679735
0.00679734
0.00679734
0.00679734
0.00679734
0.00679735
0.00679735
0.00679734
0.00679734
0.00679734
0.00679735
0.00679735
0.00679734
0.00679734
0.00679734
0.00679735
0.00679735
0.00679735
0.00679734
0.00679734
0.00679734
0.00679734
0.00679734
0.00679734
0.00679734
0.00679735
0.00679734
0.00679734
0.00679734
0.00679734
0.00679735
0.00679735
0.00679734
0.00679734
0.00679734
0.00679735
0.00679735
0.00679734
0.00679734
0.00679734
0.00679735
0.00679735
0.00679734
0.00679734
0.00679734
0.00679734
0.00679734
0.00679734
0.00679734
0.00679734
0.00679735
0.00679734
0.00679734
0.00679734
0.00679734
0.00679735
0.00679734
0.00679734
0.00679734
0.00679734
0.00679735
0.00679735
0.00679734
0.00679734
0.00679734
0.00679735
0.00679735
0.00679734
0.00679734
0.00679734
0.00679734
0.00679734
0.00679734
0.00679734
0.00679734
0.00679734
0.00679734
0.00679734
0.00679734
0.00679734
0.00679735
0.00679734
0.00679734
0.00679734
0.00679734
0.00679735
0.00679734
0.00679734
0.00679734
0.00679734
0.00679735
0.00679735
0.00679734
0.00679734
0.00679734
0.00679734
0.00679734
0.00679734
0.00679734
0.00679734
0.00679734
0.00679734
0.00679734
0.00679734
0.00679734
0.00679734
0.00679734
0.00679734
0.00679734
0.00679734
0.00679735
0.00679734
0.00679734
0.00679734
0.00679734
0.00679735
0.00679734
0.00679734
0.00679734
0.00679734
0.00679734
0.00679734
0.00679734
0.00679734
0.00679734
0.00679734
0.00679734
0.00679734
0.00679734
0.00679734
0.00679734
0.00679734
0.00679734
0.00679734
0.00679734
0.00679734
0.00679734
0.00679734
0.00679734
0.00679734
0.00679734
0.00679734
0.00679734
0.00679734
0.00679734
0.00679734
0.00679734
0.00679734
0.00679734
0.00679734
0.00679734
0.00679734
0.00679734
0.00679734
0.00679734
0.00679734
0.00679734
0.00679734
0.00679734
0.00679734
0.00679734
0.00679734
0.00679734
0.00679734
0.00679734
0.00679734
0.00679734
0.00679734
0.00679734
0.00679734
0.00679734
0.00679734
0.00679734
0.00679734
0.00679734
0.00679734
0.00679734
0.00679734
0.00679734
0.00679734
0.00679734
0.00679734
0.00679734
0.00679734
0.00679734
0.00679734
0.00679734
0.00679734
0.00679734
0.00679734
0.00679734
0.00679734
0.00679734
0.00679734
0.00679734
0.00679734
0.00679734
0.00679734
0.00679734
0.00679734
0.00679734
0.00679734
0.00679734
0.00679734
0.00679734
0.00679734
0.00679734
0.00679734
0.00679734
0.00679734
0.00679734
0.00679734
0.00679734
0.00679734
0.00679734
0.00679734
0.00679734
0.00679734
0.00679734
0.00679734
0.00679734
0.00679734
0.00679734
0.00679734
0.00679734
0.00679734
0.00679734
0.00679734
0.00679734
0.00679734
0.00679734
0.00679734
0.00679734
0.00679734
0.00679734
0.00679734
0.00679734
0.00679734
0.00679734
0.00679734
0.00679734
0.00679734
0.00679734
0.00679734
0.00679734
0.00679734
0.00679734
0.00679734
0.00679734
0.00679734
0.00679734
0.00679734
0.00679734
0.00679734
0.00679734
0.00679734
0.00679734
0.00679734
0.00679734
0.00679734
0.00679734
0.00679734
0.00679734
0.00679734
0.00679734
0.00679734
0.00679734
0.00679734
0.00679734
0.00679734
0.00679734
0.00679734
0.00679734
0.00679734
0.00679734
0.00679734
0.00679734
0.00679734
0.00679734
0.00679734
0.00679734
0.00679734
0.00679734
0.00679734
0.00679734
0.00679734
0.00679734
0.00679734
0.00679734
0.00679734
0.00679734
0.00679734
0.00679734
0.00679734
0.00679734
0.00679734
0.00679734
0.00679734
0.00679734
0.00679734
0.00679734
0.00679734
0.00679734
0.00679734
0.00679734
0.00679734
0.00679734
0.00679734
0.00679734
0.00679734
0.00679734
0.00679734
0.00679734
0.00679734
0.00679734
0.00679734
0.00679734
0.00679734
0.00679734
0.00679734
)
;

boundaryField
{
    inlet
    {
        type            zeroGradient;
    }
    outlet
    {
        type            fixedValue;
        value           uniform 0;
    }
    repeat_boundary
    {
        type            zeroGradient;
    }
    procBoundary3to1
    {
        type            processor;
        value           nonuniform List<scalar> 
450
(
-2.10072e-10
-2.66112e-10
-2.73403e-10
-2.89998e-10
-3.01875e-10
-5.96736e-10
-6.60208e-10
-7.19406e-10
-7.80209e-10
-8.01315e-10
-1.1165e-09
-9.70919e-10
-1.0308e-09
-1.12162e-09
-1.15308e-09
-1.44799e-09
-1.18456e-09
-1.22383e-09
-1.32726e-09
-1.37777e-09
-1.31563e-09
-1.15941e-09
-1.22689e-09
-1.34532e-09
-1.40626e-09
-8.05243e-10
-8.18668e-10
-9.65304e-10
-1.12256e-09
-1.20031e-09
-2.36109e-10
-3.1569e-10
-5.49895e-10
-7.79168e-10
-9.01583e-10
1.94379e-10
1.03686e-10
-2.09416e-10
-5.17615e-10
-6.8629e-10
6.74654e-10
3.97929e-10
-2.99376e-11
-4.02122e-10
-5.9413e-10
1.3148e-09
6.28662e-10
3.26477e-11
-4.12723e-10
-6.30275e-10
1.82032e-09
7.44351e-10
-3.96522e-11
-5.83744e-10
-8.4009e-10
1.98367e-09
6.77718e-10
-2.801e-10
-9.28621e-10
-1.23698e-09
2.04837e-09
5.16689e-10
-6.52407e-10
-1.4743e-09
-1.91518e-09
2.25708e-09
3.19592e-10
-1.25561e-09
-2.44367e-09
-3.11716e-09
2.53464e-09
-1.07772e-10
-2.38162e-09
-4.08633e-09
-4.98084e-09
2.70571e-09
-1.04332e-09
-4.22789e-09
-6.4794e-09
-7.5955e-09
2.58804e-09
-2.6171e-09
-6.86192e-09
-9.80335e-09
-1.13305e-08
2.10111e-09
-4.83317e-09
-1.04597e-08
-1.44646e-08
-1.6632e-08
1.49064e-09
-7.74611e-09
-1.53896e-08
-2.09429e-08
-2.39325e-08
9.33356e-10
-1.16799e-08
-2.22648e-08
-2.99823e-08
-3.40909e-08
2.12663e-10
-1.7172e-08
-3.18758e-08
-4.25846e-08
-4.82177e-08
-7.96554e-10
-2.47057e-08
-4.50275e-08
-5.97868e-08
-6.74588e-08
-2.1219e-09
-3.49286e-08
-6.28852e-08
-8.31372e-08
-9.36688e-08
-4.01731e-09
-4.89734e-08
-8.72624e-08
-1.14996e-07
-1.29538e-07
-6.78167e-09
-6.82298e-08
-1.20416e-07
-1.58344e-07
-1.78343e-07
-1.08197e-08
-9.44802e-08
-1.65602e-07
-2.17467e-07
-2.4479e-07
-1.65013e-08
-1.30645e-07
-2.27928e-07
-2.98735e-07
-3.35893e-07
-2.45441e-08
-1.80954e-07
-3.14072e-07
-4.10551e-07
-4.61187e-07
-3.6637e-08
-2.50634e-07
-4.32566e-07
-5.64292e-07
-6.33693e-07
-5.42389e-08
-3.46928e-07
-5.96083e-07
-7.76374e-07
-8.7165e-07
-8.02217e-08
-4.81726e-07
-8.24203e-07
-1.07054e-06
-1.20132e-06
-1.22456e-07
-6.74769e-07
-1.1483e-06
-1.48499e-06
-1.66589e-06
-2.00327e-07
-9.62601e-07
-1.62233e-06
-2.08609e-06
-2.33669e-06
-3.55609e-07
-1.4123e-06
-2.32614e-06
-2.97218e-06
-3.30525e-06
-6.19751e-07