/*--------------------------------*- C++ -*----------------------------------*\
| =========                 |                                                 |
| \\      /  F ield         | OpenFOAM: The Open Source CFD Toolbox           |
|  \\    /   O peration     | Version:  5.x                                   |
|   \\  /    A nd           | Web:      www.OpenFOAM.org                      |
|    \\/     M anipulation  |                                                 |
\*---------------------------------------------------------------------------*/
FoamFile
{
    version     2.0;
    format      ascii;
    class       volVectorField;
    location    "0.01";
    object      stored_U;
}
// * * * * * * * * * * * * * * * * * * * * * * * * * * * * * * * * * * * * * //

dimensions      [0 1 -1 0 0 0 0];

internalField   nonuniform List<vector> 
2250
(
(-1.2948e-11 -6.5643e-11 -0.000999999)
(-3.89295e-11 -6.81282e-11 -0.000999999)
(-7.79333e-11 -7.5287e-11 -0.001)
(-1.73978e-10 -8.75014e-11 -0.001)
(-1.57592e-11 -1.53329e-10 -0.001)
(-1.24306e-11 -5.99136e-11 -0.001)
(-3.67053e-11 -5.99198e-11 -0.001)
(-6.56411e-11 -6.00798e-11 -0.001)
(-1.1586e-10 -5.14312e-11 -0.001)
(-1.07107e-10 3.72304e-12 -0.001)
(-1.28225e-11 -5.29577e-11 -0.001)
(-3.89707e-11 -5.26598e-11 -0.001)
(-6.94424e-11 -5.57481e-11 -0.001)
(-1.10154e-10 -5.97218e-11 -0.001)
(-1.17932e-10 -4.62583e-11 -0.001)
(-1.20226e-11 -3.23207e-11 -0.001)
(-3.93858e-11 -3.07603e-11 -0.001)
(-7.26999e-11 -3.32263e-11 -0.001)
(-1.06364e-10 -3.58524e-11 -0.001)
(-1.16181e-10 -2.32128e-11 -0.001)
(-1.11733e-11 -1.02325e-11 -0.001)
(-3.97261e-11 -9.42723e-12 -0.001)
(-7.43738e-11 -1.06745e-11 -0.001)
(-9.99172e-11 -1.12579e-11 -0.001)
(-1.08198e-10 -4.46244e-12 -0.001)
(-3.44259e-11 -2.35212e-10 -0.000999999)
(-1.20306e-10 -2.43955e-10 -0.000999999)
(-2.41917e-10 -2.53927e-10 -0.000999999)
(-4.82617e-10 -2.60496e-10 -0.001)
(-1.84936e-10 -4.12197e-10 -0.001)
(-4.05644e-11 -2.21272e-10 -0.000999999)
(-1.27016e-10 -2.27179e-10 -0.001)
(-2.27217e-10 -2.28384e-10 -0.001)
(-3.78292e-10 -2.13958e-10 -0.001)
(-3.09495e-10 -9.96087e-11 -0.001)
(-3.98694e-11 -1.79643e-10 -0.001)
(-1.26979e-10 -1.77387e-10 -0.001)
(-2.28683e-10 -1.81277e-10 -0.001)
(-3.53854e-10 -1.83e-10 -0.001)
(-3.38272e-10 -1.29089e-10 -0.001)
(-3.79488e-11 -1.08326e-10 -0.001)
(-1.28289e-10 -1.08121e-10 -0.001)
(-2.32822e-10 -1.15741e-10 -0.001)
(-3.26092e-10 -1.14432e-10 -0.001)
(-3.33502e-10 -6.46303e-11 -0.001)
(-3.93611e-11 -3.50662e-11 -0.001)
(-1.339e-10 -3.66278e-11 -0.001)
(-2.34491e-10 -4.10095e-11 -0.001)
(-3.02089e-10 -3.87979e-11 -0.001)
(-3.14077e-10 -1.77103e-11 -0.001)
(-7.36761e-11 -4.76113e-10 -0.000999999)
(-2.35786e-10 -4.79977e-10 -0.000999999)
(-4.03107e-10 -4.71464e-10 -0.000999999)
(-6.18652e-10 -4.42582e-10 -0.001)
(-5.72519e-10 -5.04888e-10 -0.001)
(-8.05569e-11 -4.53338e-10 -0.000999999)
(-2.45708e-10 -4.57475e-10 -0.001)
(-4.07481e-10 -4.58997e-10 -0.001)
(-5.84555e-10 -4.63759e-10 -0.001)
(-5.67083e-10 -4.10712e-10 -0.001)
(-7.6883e-11 -3.46501e-10 -0.001)
(-2.40538e-10 -3.43655e-10 -0.001)
(-4.09392e-10 -3.45845e-10 -0.001)
(-5.70374e-10 -3.46338e-10 -0.001)
(-5.62121e-10 -2.97889e-10 -0.001)
(-7.70123e-11 -2.15016e-10 -0.001)
(-2.44355e-10 -2.21688e-10 -0.001)
(-4.10151e-10 -2.28959e-10 -0.001)
(-5.36602e-10 -2.19536e-10 -0.001)
(-5.46314e-10 -1.71149e-10 -0.001)
(-8.29551e-11 -7.38991e-11 -0.001)
(-2.53527e-10 -8.01301e-11 -0.001)
(-4.06364e-10 -8.37179e-11 -0.001)
(-5.11448e-10 -7.72314e-11 -0.001)
(-5.28867e-10 -5.97324e-11 -0.001)
(-1.33917e-10 -7.62214e-10 -0.000999999)
(-3.89654e-10 -7.59902e-10 -0.000999999)
(-5.87673e-10 -7.5036e-10 -0.000999999)
(-6.89463e-10 -7.27435e-10 -0.001)
(-8.45269e-10 -6.86212e-10 -0.001)
(-1.27971e-10 -7.18377e-10 -0.000999999)
(-3.76957e-10 -7.11045e-10 -0.000999999)
(-5.88173e-10 -7.02998e-10 -0.001)
(-7.24909e-10 -7.15515e-10 -0.001)
(-8.22154e-10 -7.56615e-10 -0.001)
(-1.25137e-10 -5.55649e-10 -0.001)
(-3.72833e-10 -5.58049e-10 -0.001)
(-5.9213e-10 -5.58787e-10 -0.001)
(-7.43081e-10 -5.61562e-10 -0.001)
(-7.95484e-10 -5.75019e-10 -0.001)
(-1.29249e-10 -3.60924e-10 -0.001)
(-3.78991e-10 -3.71058e-10 -0.001)
(-5.91667e-10 -3.72714e-10 -0.001)
(-7.4113e-10 -3.65246e-10 -0.001)
(-7.84089e-10 -3.64691e-10 -0.001)
(-1.34263e-10 -1.28574e-10 -0.001)
(-3.8312e-10 -1.34137e-10 -0.001)
(-5.85067e-10 -1.33765e-10 -0.001)
(-7.33495e-10 -1.28799e-10 -0.001)
(-7.75847e-10 -1.27702e-10 -0.001)
(-1.86416e-10 -1.09026e-09 -0.000999999)
(-5.36537e-10 -1.09089e-09 -0.000999999)
(-8.07087e-10 -1.09423e-09 -0.000999999)
(-9.72869e-10 -1.10932e-09 -0.000999999)
(-9.40383e-10 -1.14253e-09 -0.001)
(-1.76773e-10 -1.02337e-09 -0.000999999)
(-5.12583e-10 -1.01825e-09 -0.000999999)
(-7.83228e-10 -1.00529e-09 -0.001)
(-9.48009e-10 -1.00331e-09 -0.001)
(-1.07355e-09 -1.00745e-09 -0.001)
(-1.79257e-10 -8.19779e-10 -0.001)
(-5.16428e-10 -8.29589e-10 -0.001)
(-7.92124e-10 -8.31732e-10 -0.001)
(-9.75021e-10 -8.42271e-10 -0.001)
(-1.08008e-09 -8.78059e-10 -0.001)
(-1.8495e-10 -5.44402e-10 -0.001)
(-5.22923e-10 -5.51301e-10 -0.001)
(-7.95885e-10 -5.4962e-10 -0.001)
(-9.9432e-10 -5.5098e-10 -0.001)
(-1.08377e-09 -5.67165e-10 -0.001)
(-1.84735e-10 -1.9376e-10 -0.001)
(-5.19524e-10 -1.94284e-10 -0.001)
(-7.9016e-10 -1.91814e-10 -0.001)
(-9.90535e-10 -1.90194e-10 -0.001)
(-1.07582e-09 -1.9004e-10 -0.001)
(-2.33641e-10 -1.51915e-09 -0.000999999)
(-6.82499e-10 -1.52344e-09 -0.000999999)
(-1.06143e-09 -1.53067e-09 -0.000999999)
(-1.41163e-09 -1.55146e-09 -0.000999999)
(-1.24325e-09 -1.71659e-09 -0.001)
(-2.32713e-10 -1.42238e-09 -0.000999999)
(-6.76626e-10 -1.43125e-09 -0.000999999)
(-1.04389e-09 -1.43226e-09 -0.000999999)
(-1.3236e-09 -1.43197e-09 -0.001)
(-1.45858e-09 -1.36093e-09 -0.001)
(-2.39695e-10 -1.15706e-09 -0.001)
(-6.89595e-10 -1.17173e-09 -0.001)
(-1.06209e-09 -1.17888e-09 -0.001)
(-1.34021e-09 -1.19573e-09 -0.001)
(-1.48686e-09 -1.20067e-09 -0.001)
(-2.45082e-10 -7.67024e-10 -0.001)
(-6.96179e-10 -7.71418e-10 -0.001)
(-1.06787e-09 -7.70043e-10 -0.001)
(-1.34537e-09 -7.73039e-10 -0.001)
(-1.48701e-09 -7.6801e-10 -0.001)
(-2.42135e-10 -2.69303e-10 -0.001)
(-6.89753e-10 -2.67348e-10 -0.001)
(-1.06159e-09 -2.64788e-10 -0.001)
(-1.33551e-09 -2.63182e-10 -0.001)
(-1.47698e-09 -2.5757e-10 -0.001)
(-2.9833e-10 -2.10086e-09 -0.000999998)
(-8.8397e-10 -2.10986e-09 -0.000999998)
(-1.41198e-09 -2.12158e-09 -0.000999999)
(-1.92099e-09 -2.11537e-09 -0.000999999)
(-1.91014e-09 -2.2964e-09 -0.001)
(-3.08511e-10 -1.94902e-09 -0.000999999)
(-9.0998e-10 -1.97414e-09 -0.000999999)
(-1.43105e-09 -2.00021e-09 -0.000999999)
(-1.85684e-09 -2.01515e-09 -0.001)
(-2.06097e-09 -1.93008e-09 -0.001)
(-3.19586e-10 -1.58752e-09 -0.000999999)
(-9.31307e-10 -1.60768e-09 -0.001)
(-1.45298e-09 -1.61912e-09 -0.001)
(-1.85093e-09 -1.63224e-09 -0.001)
(-2.06612e-09 -1.60631e-09 -0.001)
(-3.25538e-10 -1.04506e-09 -0.001)
(-9.38414e-10 -1.05152e-09 -0.001)
(-1.45554e-09 -1.05001e-09 -0.001)
(-1.84401e-09 -1.05262e-09 -0.001)
(-2.05746e-09 -1.05417e-09 -0.001)
(-3.23346e-10 -3.63777e-10 -0.001)
(-9.3232e-10 -3.62949e-10 -0.001)
(-1.45117e-09 -3.60268e-10 -0.001)
(-1.85141e-09 -3.61447e-10 -0.001)
(-2.06115e-09 -3.71276e-10 -0.001)
(-4.05469e-10 -2.88179e-09 -0.000999998)
(-1.21557e-09 -2.90108e-09 -0.000999998)
(-1.95754e-09 -2.91889e-09 -0.000999999)
(-2.55935e-09 -2.91028e-09 -0.000999999)
(-2.8376e-09 -2.97559e-09 -0.001)
(-4.2573e-10 -2.64765e-09 -0.000999999)
(-1.25998e-09 -2.68559e-09 -0.000999999)
(-1.98965e-09 -2.71803e-09 -0.000999999)
(-2.55028e-09 -2.73065e-09 -0.001)
(-2.86488e-09 -2.69911e-09 -0.001)
(-4.38107e-10 -2.14759e-09 -0.000999999)
(-1.28067e-09 -2.16926e-09 -0.001)
(-2.00255e-09 -2.17726e-09 -0.001)
(-2.54043e-09 -2.18506e-09 -0.001)
(-2.85278e-09 -2.18622e-09 -0.001)
(-4.43113e-10 -1.40309e-09 -0.001)
(-1.28535e-09 -1.40886e-09 -0.001)
(-2.00539e-09 -1.40736e-09 -0.001)
(-2.5592e-09 -1.4226e-09 -0.001)
(-2.86368e-09 -1.471e-09 -0.001)
(-4.40241e-10 -4.86012e-10 -0.001)
(-1.27962e-09 -4.84957e-10 -0.001)
(-2.01228e-09 -4.83768e-10 -0.001)
(-2.59889e-09 -4.95792e-10 -0.001)
(-2.88532e-09 -5.2851e-10 -0.001)
(-5.9214e-10 -3.93897e-09 -0.000999997)
(-1.74357e-09 -3.94974e-09 -0.000999997)
(-2.74351e-09 -3.95328e-09 -0.000999998)
(-3.4778e-09 -3.95122e-09 -0.000999999)
(-3.91466e-09 -3.96573e-09 -0.001)
(-6.02117e-10 -3.59184e-09 -0.000999998)
(-1.76102e-09 -3.61444e-09 -0.000999998)
(-2.75431e-09 -3.62468e-09 -0.000999999)
(-3.48668e-09 -3.63176e-09 -0.001)
(-3.93009e-09 -3.64312e-09 -0.001)
(-6.07592e-10 -2.88531e-09 -0.000999999)
(-1.76924e-09 -2.89682e-09 -0.000999999)
(-2.76078e-09 -2.89849e-09 -0.001)
(-3.49625e-09 -2.91373e-09 -0.001)
(-3.92522e-09 -2.96011e-09 -0.001)
(-6.07902e-10 -1.86881e-09 -0.001)
(-1.76844e-09 -1.86872e-09 -0.001)
(-2.77113e-09 -1.87126e-09 -0.001)
(-3.54824e-09 -1.9028e-09 -0.001)
(-3.9582e-09 -1.96953e-09 -0.001)
(-6.0264e-10 -6.43912e-10 -0.001)
(-1.76448e-09 -6.41096e-10 -0.001)
(-2.78928e-09 -6.44705e-10 -0.001)
(-3.58737e-09 -6.64712e-10 -0.001)
(-3.96854e-09 -6.90846e-10 -0.001)
(-8.55192e-10 -5.36166e-09 -0.000999996)
(-2.46833e-09 -5.35244e-09 -0.000999996)
(-3.82234e-09 -5.34263e-09 -0.000999997)
(-4.83539e-09 -5.35166e-09 -0.000999999)
(-5.33182e-09 -5.37339e-09 -0.001)
(-8.41326e-10 -4.85972e-09 -0.000999997)
(-2.44489e-09 -4.8541e-09 -0.000999998)
(-3.80687e-09 -4.8428e-09 -0.000999999)
(-4.81095e-09 -4.83891e-09 -0.001)
(-5.39303e-09 -4.8259e-09 -0.001)
(-8.40016e-10 -3.87934e-09 -0.000999999)
(-2.44176e-09 -3.88072e-09 -0.000999999)
(-3.80707e-09 -3.87644e-09 -0.001)
(-4.81849e-09 -3.88939e-09 -0.001)
(-5.38804e-09 -3.91736e-09 -0.001)
(-8.35053e-10 -2.49808e-09 -0.001)
(-2.43425e-09 -2.49478e-09 -0.001)
(-3.81542e-09 -2.4991e-09 -0.001)
(-4.8518e-09 -2.52079e-09 -0.001)
(-5.40153e-09 -2.53593e-09 -0.001)
(-8.30167e-10 -8.57493e-10 -0.001)
(-2.43299e-09 -8.55922e-10 -0.001)
(-3.82543e-09 -8.62721e-10 -0.001)
(-4.84565e-09 -8.73476e-10 -0.001)
(-5.37374e-09 -8.6616e-10 -0.001)
(-1.17365e-09 -7.30749e-09 -0.000999994)
(-3.40501e-09 -7.30687e-09 -0.000999995)
(-5.30945e-09 -7.29431e-09 -0.000999996)
(-6.79406e-09 -7.29434e-09 -0.000999998)
(-7.24804e-09 -7.39169e-09 -0.001)
(-1.16328e-09 -6.61264e-09 -0.000999996)
(-3.38081e-09 -6.6115e-09 -0.000999997)
(-5.26218e-09 -6.5849e-09 -0.000999998)
(-6.66163e-09 -6.53551e-09 -0.001)
(-7.35994e-09 -6.40204e-09 -0.001)
(-1.15952e-09 -5.26841e-09 -0.000999998)
(-3.36417e-09 -5.26544e-09 -0.000999999)
(-5.23337e-09 -5.24387e-09 -0.001)
(-6.61121e-09 -5.22133e-09 -0.001)
(-7.34536e-09 -5.16061e-09 -0.001)
(-1.14993e-09 -3.38244e-09 -0.001)
(-3.34576e-09 -3.37928e-09 -0.001)
(-5.21791e-09 -3.37232e-09 -0.001)
(-6.57827e-09 -3.35632e-09 -0.001)
(-7.32099e-09 -3.30316e-09 -0.00100001)
(-1.14745e-09 -1.1602e-09 -0.001)
(-3.34068e-09 -1.16225e-09 -0.001)
(-5.19999e-09 -1.16402e-09 -0.001)
(-6.52903e-09 -1.15466e-09 -0.001)
(-7.2742e-09 -1.12777e-09 -0.00100001)
(-1.60246e-09 -1.00173e-08 -0.000999992)
(-4.66851e-09 -1.00274e-08 -0.000999993)
(-7.28429e-09 -9.98716e-09 -0.000999995)
(-9.2415e-09 -9.93826e-09 -0.000999997)
(-1.00353e-08 -1.00051e-08 -0.001)
(-1.60406e-09 -9.06967e-09 -0.000999995)
(-4.64798e-09 -9.07619e-09 -0.000999996)
(-7.21323e-09 -9.02503e-09 -0.000999998)
(-9.11697e-09 -8.94211e-09 -0.001)
(-1.00285e-08 -8.81055e-09 -0.001)
(-1.59115e-09 -7.20273e-09 -0.000999997)
(-4.60587e-09 -7.19085e-09 -0.000999998)
(-7.15008e-09 -7.14448e-09 -0.001)
(-9.02701e-09 -7.08495e-09 -0.001)
(-9.99288e-09 -6.98017e-09 -0.00100001)
(-1.57801e-09 -4.61855e-09 -0.000999999)
(-4.57537e-09 -4.61361e-09 -0.001)
(-7.10712e-09 -4.58657e-09 -0.001)
(-8.95252e-09 -4.54016e-09 -0.001)
(-9.95115e-09 -4.47394e-09 -0.00100001)
(-1.57401e-09 -1.58653e-09 -0.001)
(-4.55565e-09 -1.58875e-09 -0.001)
(-7.06248e-09 -1.57898e-09 -0.001)
(-8.89666e-09 -1.55817e-09 -0.00100001)
(-9.91384e-09 -1.54078e-09 -0.00100001)
(-2.19781e-09 -1.37236e-08 -0.000999989)
(-6.36244e-09 -1.37143e-08 -0.00099999)
(-9.86103e-09 -1.36412e-08 -0.000999992)
(-1.23908e-08 -1.35432e-08 -0.000999996)
(-1.38556e-08 -1.34528e-08 -0.001)
(-2.18275e-09 -1.24002e-08 -0.000999993)
(-6.31754e-09 -1.2387e-08 -0.000999994)
(-9.80629e-09 -1.23235e-08 -0.000999997)
(-1.23653e-08 -1.22627e-08 -0.001)
(-1.37045e-08 -1.22308e-08 -0.001)
(-2.16024e-09 -9.83538e-09 -0.000999996)
(-6.26116e-09 -9.81983e-09 -0.000999998)
(-9.73662e-09 -9.76262e-09 -0.001)
(-1.2298e-08 -9.69304e-09 -0.001)
(-1.36304e-08 -9.62916e-09 -0.00100001)
(-2.14786e-09 -6.31375e-09 -0.000999999)
(-6.22518e-09 -6.30603e-09 -0.001)
(-9.67922e-09 -6.26284e-09 -0.001)
(-1.22317e-08 -6.20999e-09 -0.00100001)
(-1.35763e-08 -6.173e-09 -0.00100001)
(-2.13589e-09 -2.17247e-09 -0.001)
(-6.1854e-09 -2.16897e-09 -0.001)
(-9.62129e-09 -2.14929e-09 -0.001)
(-1.21839e-08 -2.13021e-09 -0.00100001)
(-1.35338e-08 -2.1256e-09 -0.00100001)
(-2.97273e-09 -1.87442e-08 -0.000999984)
(-8.61308e-09 -1.8725e-08 -0.000999986)
(-1.33827e-08 -1.86491e-08 -0.000999989)
(-1.6815e-08 -1.8551e-08 -0.000999994)
(-1.8806e-08 -1.83609e-08 -0.001)
(-2.94203e-09 -1.68977e-08 -0.00099999)
(-8.54668e-09 -1.68791e-08 -0.000999992)
(-1.33205e-08 -1.6813e-08 -0.000999995)
(-1.68029e-08 -1.67473e-08 -0.001)
(-1.86564e-08 -1.67336e-08 -0.00100001)
(-2.92102e-09 -1.3424e-08 -0.000999995)
(-8.49487e-09 -1.34184e-08 -0.000999997)
(-1.32505e-08 -1.33583e-08 -0.001)
(-1.67356e-08 -1.32819e-08 -0.001)
(-1.85605e-08 -1.32281e-08 -0.00100001)
(-2.91e-09 -8.62922e-09 -0.000999999)
(-8.45424e-09 -8.61892e-09 -0.001)
(-1.31836e-08 -8.56748e-09 -0.001)
(-1.66724e-08 -8.51517e-09 -0.00100001)
(-1.84816e-08 -8.47856e-09 -0.00100001)
(-2.88808e-09 -2.96981e-09 -0.001)
(-8.39928e-09 -2.95941e-09 -0.001)
(-1.31204e-08 -2.93744e-09 -0.00100001)
(-1.66135e-08 -2.92239e-09 -0.00100001)
(-1.84052e-08 -2.91145e-09 -0.00100002)
(-4.01633e-09 -2.5632e-08 -0.000999978)
(-1.16889e-08 -2.56136e-08 -0.000999981)
(-1.82424e-08 -2.55198e-08 -0.000999985)
(-2.30333e-08 -2.5412e-08 -0.000999992)
(-2.54028e-08 -2.52786e-08 -0.001)
(-3.98222e-09 -2.31074e-08 -0.000999986)
(-1.16009e-08 -2.30985e-08 -0.000999989)
(-1.81198e-08 -2.30065e-08 -0.000999993)
(-2.28826e-08 -2.2877e-08 -0.001)
(-2.52933e-08 -2.27162e-08 -0.00100001)
(-3.96207e-09 -1.83614e-08 -0.000999993)
(-1.15423e-08 -1.8361e-08 -0.000999995)
(-1.80206e-08 -1.82852e-08 -0.001)
(-2.2743e-08 -1.81788e-08 -0.00100001)
(-2.51748e-08 -1.80462e-08 -0.00100001)
(-3.94575e-09 -1.18002e-08 -0.000999998)
(-1.14882e-08 -1.17878e-08 -0.001)
(-1.79371e-08 -1.17324e-08 -0.00100001)
(-2.26432e-08 -1.16675e-08 -0.00100001)
(-2.50612e-08 -1.15776e-08 -0.00100002)
(-3.91883e-09 -4.0579e-09 -0.001)
(-1.14283e-08 -4.04666e-09 -0.001)
(-1.78643e-08 -4.02872e-09 -0.00100001)
(-2.25431e-08 -4.00948e-09 -0.00100001)
(-2.49427e-08 -3.97348e-09 -0.00100002)
(-5.4603e-09 -3.51252e-08 -0.00099997)
(-1.59025e-08 -3.50992e-08 -0.000999974)
(-2.48258e-08 -3.49431e-08 -0.00099998)
(-3.13563e-08 -3.47298e-08 -0.000999989)
(-3.46447e-08 -3.44931e-08 -0.001)
(-5.41885e-09 -3.16856e-08 -0.000999981)
(-1.57888e-08 -3.1678e-08 -0.000999985)
(-2.46447e-08 -3.15456e-08 -0.000999991)
(-3.10877e-08 -3.1341e-08 -0.001)
(-3.43623e-08 -3.10511e-08 -0.00100001)
(-5.39062e-09 -2.51594e-08 -0.000999991)
(-1.56997e-08 -2.51526e-08 -0.000999994)
(-2.44883e-08 -2.50432e-08 -0.001)
(-3.08618e-08 -2.48829e-08 -0.00100001)
(-3.41412e-08 -2.46619e-08 -0.00100002)
(-5.3627e-09 -1.61539e-08 -0.000999997)
(-1.56226e-08 -1.61418e-08 -0.001)
(-2.43743e-08 -1.60747e-08 -0.00100001)
(-3.0706e-08 -1.59719e-08 -0.00100002)
(-3.3959e-08 -1.58176e-08 -0.00100003)
(-5.33633e-09 -5.55166e-09 -0.001)
(-1.55576e-08 -5.54668e-09 -0.001)
(-2.42696e-08 -5.52851e-09 -0.00100001)
(-3.05435e-08 -5.49034e-09 -0.00100002)
(-3.37891e-08 -5.42691e-09 -0.00100003)
(-7.43631e-09 -4.81945e-08 -0.000999959)
(-2.16673e-08 -4.81656e-08 -0.000999964)
(-3.38107e-08 -4.79057e-08 -0.000999973)
(-4.26056e-08 -4.75066e-08 -0.000999985)
(-4.72685e-08 -4.70197e-08 -0.001)
(-7.38666e-09 -4.348e-08 -0.000999974)
(-2.15041e-08 -4.34651e-08 -0.000999979)
(-3.35193e-08 -4.32475e-08 -0.000999988)
(-4.22095e-08 -4.2919e-08 -0.001)
(-4.67647e-08 -4.25214e-08 -0.00100001)
(-7.33625e-09 -3.45069e-08 -0.000999987)
(-2.13488e-08 -3.44798e-08 -0.000999992)
(-3.32639e-08 -3.43032e-08 -0.001)
(-4.18795e-08 -3.40465e-08 -0.00100001)
(-4.63726e-08 -3.3735e-08 -0.00100003)
(-7.29197e-09 -2.21367e-08 -0.000999997)
(-2.12319e-08 -2.21216e-08 -0.001)
(-3.3085e-08 -2.20136e-08 -0.00100001)
(-4.16407e-08 -2.18354e-08 -0.00100002)
(-4.60771e-08 -2.16217e-08 -0.00100004)
(-7.26344e-09 -7.60704e-09 -0.001)
(-2.11397e-08 -7.60773e-09 -0.00100001)
(-3.29114e-08 -7.57187e-09 -0.00100001)
(-4.14047e-08 -7.49994e-09 -0.00100003)
(-4.58343e-08 -7.41852e-09 -0.00100004)
(-1.01588e-08 -6.61639e-08 -0.000999945)
(-2.95828e-08 -6.60885e-08 -0.000999951)
(-4.61102e-08 -6.56464e-08 -0.000999963)
(-5.80559e-08 -6.50156e-08 -0.00099998)
(-6.43161e-08 -6.42987e-08 -0.001)
(-1.00645e-08 -5.96775e-08 -0.000999965)
(-2.92722e-08 -5.96035e-08 -0.000999972)
(-4.55903e-08 -5.92101e-08 -0.000999984)
(-5.74147e-08 -5.86614e-08 -0.001)
(-6.36249e-08 -5.80346e-08 -0.00100002)
(-9.9681e-09 -4.73246e-08 -0.000999983)
(-2.89975e-08 -4.72541e-08 -0.000999989)
(-4.51673e-08 -4.69554e-08 -0.001)
(-5.68803e-08 -4.65274e-08 -0.00100002)
(-6.30136e-08 -4.6031e-08 -0.00100004)
(-9.90143e-09 -3.03507e-08 -0.000999996)
(-2.88091e-08 -3.03198e-08 -0.001)
(-4.48622e-08 -3.01241e-08 -0.00100001)
(-5.64895e-08 -2.98293e-08 -0.00100003)
(-6.25667e-08 -2.95125e-08 -0.00100005)
(-9.85822e-09 -1.04339e-08 -0.001)
(-2.86536e-08 -1.04305e-08 -0.00100001)
(-4.4587e-08 -1.0356e-08 -0.00100002)
(-5.61561e-08 -1.02446e-08 -0.00100004)
(-6.22148e-08 -1.01348e-08 -0.00100005)
(-1.38736e-08 -9.07966e-08 -0.000999925)
(-4.03436e-08 -9.06051e-08 -0.000999933)
(-6.28142e-08 -8.98848e-08 -0.00099995)
(-7.91596e-08 -8.88948e-08 -0.000999973)
(-8.77067e-08 -8.77828e-08 -0.001)
(-1.36877e-08 -8.1854e-08 -0.000999953)
(-3.98035e-08 -8.16686e-08 -0.000999962)
(-6.19929e-08 -8.1027e-08 -0.000999978)
(-7.81255e-08 -8.01634e-08 -0.001)
(-8.65894e-08 -7.91276e-08 -0.00100003)
(-1.35285e-08 -6.48887e-08 -0.000999977)
(-3.9355e-08 -6.47542e-08 -0.000999986)
(-6.13078e-08 -6.42572e-08 -0.001)
(-7.72602e-08 -6.35639e-08 -0.00100002)
(-8.56253e-08 -6.27636e-08 -0.00100005)
(-1.34265e-08 -4.16334e-08 -0.000999995)
(-3.90434e-08 -4.15628e-08 -0.001)
(-6.08008e-08 -4.12304e-08 -0.00100002)
(-7.66308e-08 -4.07756e-08 -0.00100004)
(-8.49386e-08 -4.02648e-08 -0.00100007)
(-1.335e-08 -1.43203e-08 -0.001)
(-3.87922e-08 -1.42983e-08 -0.00100001)
(-6.03988e-08 -1.41748e-08 -0.00100003)
(-7.61418e-08 -1.40174e-08 -0.00100005)
(-8.4407e-08 -1.38382e-08 -0.00100008)
(-1.89112e-08 -1.24608e-07 -0.000999898)
(-5.49739e-08 -1.24255e-07 -0.000999909)
(-8.5577e-08 -1.23132e-07 -0.000999932)
(-1.0785e-07 -1.21566e-07 -0.000999963)
(-1.19669e-07 -1.19744e-07 -0.001)
(-1.8608e-08 -1.12293e-07 -0.000999937)
(-5.41182e-08 -1.11962e-07 -0.000999948)
(-8.42994e-08 -1.10948e-07 -0.00099997)
(-1.06249e-07 -1.09595e-07 -0.001)
(-1.17842e-07 -1.07999e-07 -0.00100004)
(-1.83623e-08 -8.90221e-08 -0.00099997)
(-5.34079e-08 -8.87836e-08 -0.000999981)
(-8.32083e-08 -8.79804e-08 -0.001)
(-1.04902e-07 -8.68944e-08 -0.00100003)
(-1.16322e-07 -8.56431e-08 -0.00100007)
(-1.81959e-08 -5.71396e-08 -0.000999994)
(-5.29002e-08 -5.69936e-08 -0.00100001)
(-8.24077e-08 -5.64739e-08 -0.00100003)
(-1.0391e-07 -5.57763e-08 -0.00100006)
(-1.15227e-07 -5.49534e-08 -0.00100009)
(-1.80689e-08 -1.96565e-08 -0.00100001)
(-5.25242e-08 -1.96037e-08 -0.00100002)
(-8.18258e-08 -1.94243e-08 -0.00100004)
(-1.03174e-07 -1.91862e-08 -0.00100007)
(-1.14416e-07 -1.88949e-08 -0.0010001)
(-2.57818e-08 -1.71141e-07 -0.000999861)
(-7.49372e-08 -1.70527e-07 -0.000999877)
(-1.16668e-07 -1.68791e-07 -0.000999908)
(-1.46985e-07 -1.66394e-07 -0.00099995)
(-1.63078e-07 -1.63567e-07 -0.001)
(-2.53047e-08 -1.54192e-07 -0.000999915)
(-7.35913e-08 -1.53634e-07 -0.00099993)
(-1.14646e-07 -1.52038e-07 -0.00099996)
(-1.44508e-07 -1.49901e-07 -0.001)
(-1.60273e-07 -1.47445e-07 -0.00100005)
(-2.49237e-08 -1.22217e-07 -0.00099996)
(-7.24795e-08 -1.21803e-07 -0.000999976)
(-1.12932e-07 -1.20547e-07 -0.00100001)
(-1.42392e-07 -1.18847e-07 -0.00100005)
(-1.57906e-07 -1.16865e-07 -0.00100009)
(-2.46521e-08 -7.84344e-08 -0.000999993)
(-7.16792e-08 -7.81683e-08 -0.00100001)
(-1.11687e-07 -7.73711e-08 -0.00100004)
(-1.40823e-07 -7.6282e-08 -0.00100008)
(-1.5618e-07 -7.49835e-08 -0.00100012)
(-2.44564e-08 -2.69736e-08 -0.00100001)
(-7.1119e-08 -2.68789e-08 -0.00100003)
(-1.10822e-07 -2.6609e-08 -0.00100005)
(-1.39723e-07 -2.62372e-08 -0.00100009)
(-1.54961e-07 -2.57895e-08 -0.00100014)
(-3.51099e-08 -2.3523e-07 -0.000999811)
(-1.02084e-07 -2.34223e-07 -0.000999832)
(-1.59034e-07 -2.31521e-07 -0.000999874)
(-2.00417e-07 -2.27845e-07 -0.000999932)
(-2.222e-07 -2.235e-07 -0.001)
(-3.44019e-08 -2.1184e-07 -0.000999885)
(-1.00048e-07 -2.10954e-07 -0.000999906)
(-1.55885e-07 -2.08505e-07 -0.000999947)
(-1.96508e-07 -2.05143e-07 -0.001)
(-2.17864e-07 -2.01257e-07 -0.00100007)
(-3.38125e-08 -1.67867e-07 -0.000999948)
(-9.83323e-08 -1.67174e-07 -0.000999969)
(-1.5322e-07 -1.65238e-07 -0.00100001)
(-1.93168e-07 -1.6258e-07 -0.00100006)
(-2.14165e-07 -1.59446e-07 -0.00100013)
(-3.33824e-08 -1.07674e-07 -0.000999993)
(-9.70872e-08 -1.07221e-07 -0.00100001)
(-1.51286e-07 -1.05991e-07 -0.00100005)
(-1.90713e-07 -1.04302e-07 -0.00100011)
(-2.11486e-07 -1.02282e-07 -0.00100017)
(-3.30842e-08 -3.7011e-08 -0.00100002)
(-9.62441e-08 -3.68506e-08 -0.00100004)
(-1.49998e-07 -3.6434e-08 -0.00100008)
(-1.89078e-07 -3.58646e-08 -0.00100013)
(-2.09666e-07 -3.51791e-08 -0.00100019)
(-4.78196e-08 -3.23622e-07 -0.000999743)
(-1.39059e-07 -3.22013e-07 -0.000999772)
(-2.16688e-07 -3.17785e-07 -0.00099983)
(-2.73146e-07 -3.12059e-07 -0.000999909)
(-3.02757e-07 -3.05314e-07 -0.001)
(-4.67548e-08 -2.91233e-07 -0.000999845)
(-1.35965e-07 -2.89816e-07 -0.000999874)
(-2.11836e-07 -2.86064e-07 -0.000999929)
(-2.6702e-07 -2.80851e-07 -0.00100001)
(-2.96001e-07 -2.74724e-07 -0.0010001)
(-4.58389e-08 -2.30667e-07 -0.000999932)
(-1.33318e-07 -2.29528e-07 -0.00099996)
(-2.07719e-07 -2.2655e-07 -0.00100001)
(-2.61806e-07 -2.22438e-07 -0.00100009)
(-2.90232e-07 -2.17566e-07 -0.00100018)
(-4.51684e-08 -1.47861e-07 -0.000999994)
(-1.31393e-07 -1.47122e-07 -0.00100002)
(-2.0474e-07 -1.45232e-07 -0.00100007)
(-2.58033e-07 -1.42622e-07 -0.00100015)
(-2.86089e-07 -1.39541e-07 -0.00100023)
(-4.47245e-08 -5.08028e-08 -0.00100003)
(-1.30137e-07 -5.05467e-08 -0.00100005)
(-2.02808e-07 -4.99092e-08 -0.00100011)
(-2.556e-07 -4.90246e-08 -0.00100018)
(-2.83374e-07 -4.79922e-08 -0.00100026)
(-6.51841e-08 -4.4562e-07 -0.00099965)
(-1.89472e-07 -4.43047e-07 -0.000999691)
(-2.95136e-07 -4.36501e-07 -0.000999769)
(-3.72063e-07 -4.27551e-07 -0.000999876)
(-4.12497e-07 -4.16996e-07 -0.001)
(-6.35094e-08 -4.00696e-07 -0.000999792)
(-1.84673e-07 -3.98378e-07 -0.000999831)
(-2.8768e-07 -3.92596e-07 -0.000999906)
(-3.62551e-07 -3.84572e-07 -0.00100001)
(-4.01943e-07 -3.75027e-07 -0.00100013)
(-6.20924e-08 -3.17129e-07 -0.000999911)
(-1.80585e-07 -3.15289e-07 -0.000999949)
(-2.81324e-07 -3.10697e-07 -0.00100002)
(-3.54494e-07 -3.04348e-07 -0.00100012)
(-3.93014e-07 -2.96873e-07 -0.00100024)
(-6.10561e-08 -2.03171e-07 -0.000999997)
(-1.77616e-07 -2.01998e-07 -0.00100003)
(-2.76731e-07 -1.9907e-07 -0.00100011)
(-3.48723e-07 -1.95035e-07 -0.0010002)
(-3.86634e-07 -1.90354e-07 -0.00100032)
(-6.04058e-08 -6.97874e-08 -0.00100004)
(-1.75731e-07 -6.9393e-08 -0.00100008)
(-2.73804e-07 -6.83941e-08 -0.00100015)
(-3.45081e-07 -6.70222e-08 -0.00100025)
(-3.82538e-07 -6.54506e-08 -0.00100036)
(-8.88045e-08 -6.14183e-07 -0.000999526)
(-2.58135e-07 -6.10086e-07 -0.000999581)
(-4.02011e-07 -5.99984e-07 -0.000999687)
(-5.0668e-07 -5.86053e-07 -0.000999833)
(-5.61784e-07 -5.69641e-07 -0.001)
(-8.62105e-08 -5.51769e-07 -0.000999721)
(-2.50663e-07 -5.48041e-07 -0.000999774)
(-3.90419e-07 -5.39031e-07 -0.000999876)
(-4.91963e-07 -5.26608e-07 -0.00100002)
(-5.4545e-07 -5.11913e-07 -0.00100018)
(-8.40131e-08 -4.36299e-07 -0.000999885)
(-2.44317e-07 -4.33348e-07 -0.000999937)
(-3.8057e-07 -4.26217e-07 -0.00100003)
(-4.79562e-07 -4.16403e-07 -0.00100017)
(-5.31716e-07 -4.04909e-07 -0.00100033)
(-8.24184e-08 -2.79356e-07 -0.001)
(-2.39723e-07 -2.77486e-07 -0.00100005)
(-3.73462e-07 -2.72928e-07 -0.00100015)
(-4.70648e-07 -2.66682e-07 -0.00100028)
(-5.21856e-07 -2.59382e-07 -0.00100044)
(-8.14413e-08 -9.59378e-08 -0.00100007)
(-2.36863e-07 -9.53092e-08 -0.00100012)
(-3.69014e-07 -9.37454e-08 -0.00100021)
(-4.65072e-07 -9.16128e-08 -0.00100034)
(-5.15614e-07 -8.91142e-08 -0.00100049)
(-1.20946e-07 -8.47535e-07 -0.000999357)
(-3.51591e-07 -8.40904e-07 -0.000999432)
(-5.47494e-07 -8.25237e-07 -0.000999576)
(-6.89861e-07 -8.03703e-07 -0.000999775)
(-7.64681e-07 -7.78476e-07 -0.00100001)
(-1.16909e-07 -7.60447e-07 -0.000999627)
(-3.3991e-07 -7.54458e-07 -0.000999699)
(-5.29424e-07 -7.40398e-07 -0.000999836)
(-6.67173e-07 -7.21142e-07 -0.00100003)
(-7.39625e-07 -6.9857e-07 -0.00100025)
(-1.13497e-07 -6.00604e-07 -0.000999854)
(-3.30056e-07 -5.95894e-07 -0.000999923)
(-5.14167e-07 -5.84824e-07 -0.00100005)
(-6.48033e-07 -5.69649e-07 -0.00100024)
(-7.18489e-07 -5.51855e-07 -0.00100045)
(-1.11043e-07 -3.84288e-07 -0.00100002)
(-3.22951e-07 -3.81302e-07 -0.00100008)
(-5.03164e-07 -3.74235e-07 -0.00100021)
(-6.34194e-07 -3.64534e-07 -0.00100039)
(-7.03209e-07 -3.53135e-07 -0.00100059)
(-1.09553e-07 -1.31938e-07 -0.0010001)
(-3.18606e-07 -1.30923e-07 -0.00100017)
(-4.96385e-07 -1.28499e-07 -0.00100029)
(-6.25663e-07 -1.25159e-07 -0.00100047)
(-6.93811e-07 -1.21244e-07 -0.00100067)
(-1.64604e-07 -1.17094e-06 -0.00099913)
(-4.78551e-07 -1.16023e-06 -0.000999232)
(-7.4528e-07 -1.13589e-06 -0.000999428)
(-9.39054e-07 -1.10259e-06 -0.000999698)
(-1.04069e-06 -1.06373e-06 -0.00100002)
(-1.58333e-07 -1.04872e-06 -0.000999503)
(-4.6043e-07 -1.03919e-06 -0.0009996)
(-7.17274e-07 -1.01739e-06 -0.000999786)
(-9.04012e-07 -9.87582e-07 -0.00100004)
(-1.00206e-06 -9.52769e-07 -0.00100034)
(-1.53066e-07 -8.27126e-07 -0.000999817)
(-4.45172e-07 -8.1965e-07 -0.000999909)
(-6.93654e-07 -8.02498e-07 -0.00100009)
(-8.74433e-07 -7.79021e-07 -0.00100033)
(-9.69486e-07 -7.51579e-07 -0.00100062)
(-1.49273e-07 -5.28744e-07 -0.00100004)
(-4.34182e-07 -5.23986e-07 -0.00100013)
(-6.76623e-07 -5.13039e-07 -0.0010003)
(-8.53081e-07 -4.98037e-07 -0.00100054)
(-9.45919e-07 -4.80518e-07 -0.00100081)
(-1.46999e-07 -1.81453e-07 -0.00100016)
(-4.27566e-07 -1.79824e-07 -0.00100025)
(-6.66339e-07 -1.76064e-07 -0.00100041)
(-8.402e-07 -1.70909e-07 -0.00100064)
(-9.31772e-07 -1.64906e-07 -0.00100091)
(-2.23886e-07 -1.61974e-06 -0.000998825)
(-6.51074e-07 -1.60264e-06 -0.000998964)
(-1.01413e-06 -1.5647e-06 -0.00099923)
(-1.2777e-06 -1.51311e-06 -0.000999598)
(-1.41586e-06 -1.45313e-06 -0.00100003)
(-2.14182e-07 -1.44724e-06 -0.000999343)
(-6.22965e-07 -1.43212e-06 -0.000999473)
(-9.7072e-07 -1.39829e-06 -0.000999723)
(-1.22359e-06 -1.35218e-06 -0.00100007)
(-1.35628e-06 -1.29856e-06 -0.00100047)
(-2.06013e-07 -1.13935e-06 -0.000999775)
(-5.99311e-07 -1.12748e-06 -0.000999899)
(-9.34168e-07 -1.1009e-06 -0.00100013)
(-1.17797e-06 -1.06463e-06 -0.00100046)
(-1.30615e-06 -1.02242e-06 -0.00100084)
(-2.00136e-07 -7.2743e-07 -0.00100008)
(-5.82293e-07 -7.1987e-07 -0.0010002)
(-9.07841e-07 -7.02934e-07 -0.00100043)
(-1.14509e-06 -6.79798e-07 -0.00100074)
(-1.26989e-06 -6.52846e-07 -0.00100111)
(-1.96667e-07 -2.49481e-07 -0.00100025)
(-5.72232e-07 -2.46889e-07 -0.00100036)
(-8.92261e-07 -2.41082e-07 -0.00100058)
(-1.12558e-06 -2.33151e-07 -0.00100089)
(-1.24838e-06 -2.23888e-07 -0.00100125)
(-3.04473e-07 -2.24361e-06 -0.000998419)
(-8.8549e-07 -2.21621e-06 -0.000998606)
(-1.37935e-06 -2.15699e-06 -0.000998968)
(-1.73777e-06 -2.07705e-06 -0.000999467)
(-1.92528e-06 -1.98476e-06 -0.00100005)
(-2.89259e-07 -1.99838e-06 -0.000999136)
(-8.41592e-07 -1.97424e-06 -0.000999311)
(-1.31198e-06 -1.92165e-06 -0.000999646)
(-1.65433e-06 -1.85036e-06 -0.00100011)
(-1.83381e-06 -1.76789e-06 -0.00100066)
(-2.76548e-07 -1.56934e-06 -0.000999732)
(-8.04885e-07 -1.55051e-06 -0.000999896)
(-1.25544e-06 -1.50935e-06 -0.00100021)
(-1.584e-06 -1.45333e-06 -0.00100064)
(-1.75673e-06 -1.38829e-06 -0.00100116)
(-2.67447e-07 -1.00039e-06 -0.00100016)
(-7.78551e-07 -9.88433e-07 -0.00100031)
(-1.21477e-06 -9.62258e-07 -0.00100061)
(-1.53325e-06 -9.2654e-07 -0.00100103)
(-1.70098e-06 -8.8494e-07 -0.00100151)
(-2.62159e-07 -3.42854e-07 -0.00100038)
(-7.63249e-07 -3.38755e-07 -0.00100053)
(-1.19109e-06 -3.29796e-07 -0.00100082)
(-1.5036e-06 -3.17553e-07 -0.00100122)
(-1.66833e-06 -3.03263e-07 -0.0010017)
(-4.13585e-07 -3.11207e-06 -0.000997881)
(-1.20317e-06 -3.06801e-06 -0.000998134)
(-1.8751e-06 -2.97526e-06 -0.000998624)
(-2.36305e-06 -2.85128e-06 -0.000999301)
(-2.61728e-06 -2.7095e-06 -0.0010001)
(-3.89653e-07 -2.76025e-06 -0.000998875)
(-1.13448e-06 -2.72176e-06 -0.000999107)
(-1.77038e-06 -2.6399e-06 -0.000999556)
(-2.23422e-06 -2.5295e-06 -0.00100018)
(-2.47703e-06 -2.4025e-06 -0.00100092)
(-3.69881e-07 -2.16068e-06 -0.000999694)
(-1.07748e-06 -2.13089e-06 -0.00099991)
(-1.68281e-06 -2.06717e-06 -0.00100033)
(-2.12565e-06 -1.98056e-06 -0.0010009)
(-2.35853e-06 -1.88031e-06 -0.00100159)
(-3.55777e-07 -1.37486e-06 -0.00100028)
(-1.03677e-06 -1.356e-06 -0.00100048)
(-1.61999e-06 -1.31563e-06 -0.00100087)
(-2.04732e-06 -1.26048e-06 -0.00100142)
(-2.27282e-06 -1.19636e-06 -0.00100207)
(-3.47714e-07 -4.70888e-07 -0.00100058)
(-1.01351e-06 -4.64434e-07 -0.00100078)
(-1.584e-06 -4.50648e-07 -0.00100116)
(-2.00225e-06 -4.31758e-07 -0.00100168)
(-2.22331e-06 -4.09758e-07 -0.00100231)
(-5.60472e-07 -4.32294e-06 -0.000997176)
(-1.63212e-06 -4.2516e-06 -0.000997515)
(-2.54722e-06 -4.10534e-06 -0.000998175)
(-3.21314e-06 -3.91246e-06 -0.000999096)
(-3.55804e-06 -3.69515e-06 -0.00100018)
(-5.22738e-07 -3.81235e-06 -0.000998555)
(-1.52418e-06 -3.75099e-06 -0.00099886)
(-2.38371e-06 -3.62323e-06 -0.000999454)
(-3.01384e-06 -3.45169e-06 -0.00100029)
(-3.34331e-06 -3.25606e-06 -0.00100128)