/*--------------------------------*- C++ -*----------------------------------*\
| =========                 |                                                 |
| \\      /  F ield         | OpenFOAM: The Open Source CFD Toolbox           |
|  \\    /   O peration     | Version:  5.x                                   |
|   \\  /    A nd           | Web:      www.OpenFOAM.org                      |
|    \\/     M anipulation  |                                                 |
\*---------------------------------------------------------------------------*/
FoamFile
{
    version     2.0;
    format      ascii;
    class       surfaceScalarField;
    location    "100";
    object      phi;
}
// * * * * * * * * * * * * * * * * * * * * * * * * * * * * * * * * * * * * * //

dimensions      [0 3 -1 0 0 0 0];

internalField   nonuniform List<scalar> 
89
(
-0.025
-0.025
-0.025
-0.025
-0.025
-0.025
-0.025
-0.025
-0.025
-0.0249999
-0.0249999
-0.0249999
-0.0249998
-0.0249997
-0.0249995
-0.0249992
-0.0249989
-0.0249984
-0.0249976
-0.0249967
-0.0249953
-0.0249935
-0.0249909
-0.0249873
-0.0249824
-0.0249756
-0.0249662
-0.024953
-0.0249348
-0.0249102
-0.0248763
-0.0248297
-0.0247658
-0.0246783
-0.0245587
-0.0243954
-0.0241733
-0.0238598
-0.0233841
-0.0234553
-0.0233886
-0.0228377
-0.0225442
-0.0219963
-0.0214122
-0.0211094
-0.0211283
-0.0215971
-0.0220637
-0.0219871
-0.0220215
-0.0224162
-0.0232268
-0.0235124
-0.023847
-0.024108
-0.0243089
-0.0244638
-0.0245833
-0.0246757
-0.0247471
-0.0248025
-0.0248455
-0.0248789
-0.0249049
-0.0249252
-0.0249411
-0.0249535
-0.0249633
-0.0249709
-0.0249769
-0.0249815
-0.0249852
-0.0249881
-0.0249905
-0.0249923
-0.0249938
-0.024995
-0.024996
-0.0249969
-0.0249976
-0.0249981
-0.0249986
-0.024999
-0.0249993
-0.0249995
-0.0249997
-0.0249998
-0.0249999
)
;

boundaryField
{
    inlet
    {
        type            calculated;
        value           uniform -0.025;
    }
    outlet
    {
        type            calculated;
        value           uniform 0.025;
    }
    repeat_boundary
    {
        type            calculated;
        value           uniform 0;
    }
    procBoundary0to1
    {
        type            processor;
        value           nonuniform List<scalar> 
90
(
5.0392e-09
1.39846e-08
2.34325e-08
3.35451e-08
4.45736e-08
5.68512e-08
7.08528e-08
8.71865e-08
1.06608e-07
1.30035e-07
1.58543e-07
1.93347e-07
2.35784e-07
2.87268e-07
3.49239e-07
4.23073e-07
5.09953e-07
6.10681e-07
7.25388e-07
8.53101e-07
9.91093e-07
1.13391e-06
1.27193e-06
1.38917e-06
1.46006e-06
1.44409e-06
1.27583e-06
8.37718e-07
9.12814e-08
-7.91749e-07
-2.5678e-06
-5.57245e-06
-1.0079e-05
-1.67718e-05
-2.6567e-05
-4.07736e-05
-6.06991e-05
-9.3856e-05
-0.00015655
6.31903e-05
-3.10989e-05
-0.000195437
-8.24816e-05
-0.000288529
-0.000333209
-0.000188497
-0.000144692
2.15122e-05
0.000177298
-4.31747e-05
3.25553e-05
0.000126771
0.000568877
0.000236037
0.000178429
0.000134862
0.00010386
8.02481e-05
6.20849e-05
4.81057e-05
3.73386e-05
2.90366e-05
2.26252e-05
1.76649e-05
1.38144e-05
1.08173e-05
8.4819e-06
6.66344e-06
5.24373e-06
4.13412e-06
3.26679e-06
2.58746e-06
2.05344e-06
1.63181e-06
1.29755e-06
1.03169e-06
8.19924e-07
6.51307e-07
5.17402e-07
4.11588e-07
3.28582e-07
2.64092e-07
2.14584e-07
1.77111e-07
1.49215e-07
1.28838e-07
1.14309e-07
1.04285e-07
9.73414e-08
9.26801e-08
)
;
    }
    procBoundary0to2
    {
        type            processor;
        value           nonuniform List<scalar> 
90
(
-3.59997e-09
-1.00486e-08
-1.75708e-08
-2.66402e-08
-3.7902e-08
-5.20809e-08
-6.99854e-08
-9.26449e-08
-1.21192e-07
-1.57095e-07
-2.02204e-07
-2.58907e-07
-3.30316e-07
-4.20517e-07
-5.34879e-07
-6.80457e-07
-8.66498e-07
-1.1051e-06
-1.41205e-06
-1.808e-06
-2.31988e-06
-2.98296e-06
-3.84344e-06
-4.962e-06
-6.41855e-06
-8.31851e-06
-1.08014e-05
-1.40523e-05
-1.83185e-05
-2.39255e-05
-3.12933e-05
-4.09897e-05
-5.37744e-05
-7.06545e-05
-9.29648e-05
-0.000122519
-0.000161263
-0.000219627
-0.000319208
7.99071e-06
-3.55806e-05
-0.000355496
-0.000211019
-0.0002594
-0.000250888
-0.000114223
0.000163635
0.000447179
0.000289184
-3.33853e-05
1.86005e-06
0.000267929
0.000241717
4.94583e-05
0.000156176
0.000126183
9.70324e-05
7.45455e-05
5.73488e-05
4.41924e-05
3.41132e-05
2.63778e-05
2.04247e-05
1.58256e-05
1.22719e-05
9.52549e-06
7.40002e-06
5.75225e-06
4.48127e-06
3.50272e-06
2.74766e-06
2.16247e-06
1.70646e-06
1.34907e-06
1.06751e-06
8.44801e-07
6.68278e-07
5.28384e-07
4.17823e-07
3.30925e-07
2.63195e-07
2.10991e-07
1.71307e-07
1.4162e-07
1.19816e-07
1.04088e-07
9.29707e-08
8.52875e-08
8.00453e-08
7.65908e-08
)
;
    }
}


// ************************************************************************* //
