/*--------------------------------*- C++ -*----------------------------------*\
| =========                 |                                                 |
| \\      /  F ield         | OpenFOAM: The Open Source CFD Toolbox           |
|  \\    /   O peration     | Version:  5.x                                   |
|   \\  /    A nd           | Web:      www.OpenFOAM.org                      |
|    \\/     M anipulation  |                                                 |
\*---------------------------------------------------------------------------*/
FoamFile
{
    version     2.0;
    format      ascii;
    class       surfaceScalarField;
    location    "0.005";
    object      phi;
}
// * * * * * * * * * * * * * * * * * * * * * * * * * * * * * * * * * * * * * //

dimensions      [0 3 -1 0 0 0 0];

internalField   nonuniform List<scalar> 
179
(
-2.50013e-10
-2.50014e-10
-2.50014e-10
-2.50015e-10
-2.50015e-10
-2.50016e-10
-2.50017e-10
-2.50018e-10
-2.5002e-10
-2.50021e-10
-2.50023e-10
-2.50025e-10
-2.50028e-10
-2.5003e-10
-2.50033e-10
-2.50037e-10
-2.5004e-10
-2.50044e-10
-2.50049e-10
-2.50054e-10
-2.50059e-10
-2.50065e-10
-2.50072e-10
-2.5008e-10
-2.50088e-10
-2.50097e-10
-2.50108e-10
-2.50119e-10
-2.50131e-10
-2.50145e-10
-2.50161e-10
-2.50178e-10
-2.50197e-10
-2.50218e-10
-2.50241e-10
-2.50266e-10
-2.50295e-10
-2.50326e-10
-2.50361e-10
-2.504e-10
-2.50442e-10
-2.50489e-10
-2.50542e-10
-2.506e-10
-2.50664e-10
-2.50735e-10
-2.50813e-10
-2.509e-10
-2.50996e-10
-2.51102e-10
-2.5122e-10
-2.5135e-10
-2.51495e-10
-2.51654e-10
-2.51831e-10
-2.52026e-10
-2.52242e-10
-2.52482e-10
-2.52747e-10
-2.5304e-10
-2.53364e-10
-2.53724e-10
-2.54122e-10
-2.54563e-10
-2.55051e-10
-2.55592e-10
-2.56192e-10
-2.56856e-10
-2.57594e-10
-2.58413e-10
-2.59325e-10
-2.6034e-10
-2.61469e-10
-2.62725e-10
-2.64122e-10
-2.65672e-10
-2.67374e-10
-2.69188e-10
-2.70949e-10
-2.72295e-10
-2.72471e-10
-2.72415e-10
-2.81751e-10
-2.81194e-10
-2.76901e-10
-2.74392e-10
-2.68826e-10
-2.63862e-10
-2.67952e-10
-2.74417e-10
-2.81506e-10
-2.81295e-10
-2.96861e-10
-2.93727e-10
-2.91938e-10
-2.86534e-10
-2.77434e-10
-2.62267e-10
-2.51826e-10
-2.525e-10
-2.59621e-10
-2.65572e-10
-2.7157e-10
-2.742e-10
-2.74676e-10
-2.73188e-10
-2.71305e-10
-2.69459e-10
-2.67743e-10
-2.66163e-10
-2.64717e-10
-2.63394e-10
-2.62185e-10
-2.61081e-10
-2.60073e-10
-2.59154e-10
-2.58315e-10
-2.57552e-10
-2.56856e-10
-2.56222e-10
-2.55646e-10
-2.55122e-10
-2.54645e-10
-2.54212e-10
-2.53819e-10
-2.53461e-10
-2.53136e-10
-2.52841e-10
-2.52573e-10
-2.5233e-10
-2.5211e-10
-2.5191e-10
-2.51728e-10
-2.51564e-10
-2.51415e-10
-2.5128e-10
-2.51157e-10
-2.51047e-10
-2.50946e-10
-2.50855e-10
-2.50773e-10
-2.50699e-10
-2.50632e-10
-2.50571e-10
-2.50516e-10
-2.50466e-10
-2.50421e-10
-2.5038e-10
-2.50343e-10
-2.5031e-10
-2.5028e-10
-2.50253e-10
-2.50228e-10
-2.50206e-10
-2.50186e-10
-2.50168e-10
-2.50151e-10
-2.50137e-10
-2.50123e-10
-2.50111e-10
-2.501e-10
-2.5009e-10
-2.50081e-10
-2.50073e-10
-2.50065e-10
-2.50058e-10
-2.50052e-10
-2.50047e-10
-2.50041e-10
-2.50037e-10
-2.50032e-10
-2.50028e-10
-2.50025e-10
-2.50021e-10
-2.50018e-10
-2.50015e-10
-2.50012e-10
-2.50009e-10
-2.50007e-10
)
;

boundaryField
{
    inlet
    {
        type            calculated;
        value           uniform -2.50004e-10;
    }
    outlet
    {
        type            calculated;
        value           uniform 2.50013e-10;
    }
    repeat_boundary
    {
        type            calculated;
        value           uniform 0;
    }
    procBoundary3to1
    {
        type            processor;
        value           nonuniform List<scalar> 
180
(
1.94271e-16
2.73001e-16
3.97977e-16
5.42997e-16
6.99124e-16
8.63799e-16
1.03733e-15
1.22112e-15
1.41694e-15
1.62681e-15
1.85291e-15
2.0976e-15
2.36343e-15
2.6532e-15
2.96996e-15
3.31703e-15
3.69806e-15
4.11704e-15
4.57837e-15
5.08684e-15
5.64776e-15
6.26694e-15
6.95079e-15
7.70634e-15
8.5414e-15
9.46452e-15
1.04852e-14
1.16139e-14
1.28621e-14
1.42427e-14
1.57699e-14
1.74592e-14
1.93282e-14
2.1396e-14
2.36839e-14
2.62157e-14
2.90174e-14
3.21183e-14
3.55503e-14
3.93493e-14
4.35548e-14
4.82107e-14
5.33655e-14
5.90732e-14
6.53935e-14
7.23928e-14
8.01444e-14
8.873e-14
9.82396e-14
1.08773e-13
1.20442e-13
1.33369e-13
1.47691e-13
1.63559e-13
1.81141e-13
2.00625e-13
2.22218e-13
2.46151e-13
2.7268e-13
3.02088e-13
3.34691e-13
3.7084e-13
4.10923e-13
4.55372e-13
5.04675e-13
5.59377e-13
6.20083e-13
6.87474e-13
7.6233e-13
8.45519e-13
9.38017e-13
1.04091e-12
1.15535e-12
1.28213e-12
1.4205e-12
1.56495e-12
1.69738e-12
1.77598e-12
1.70667e-12
1.3645e-12
3.58456e-13
-5.44076e-14
6.09056e-12
-6.05568e-13
-2.52773e-12
-2.77228e-12
-3.36754e-12
-3.09496e-12
2.48866e-12
2.05927e-12
-6.69082e-14
-6.84837e-13
-9.55401e-12
-5.76915e-12
-4.38922e-12
-4.50225e-12
-4.68066e-12
-4.58173e-12
-3.4114e-12
4.49762e-13
1.73445e-12
1.97977e-12
2.01535e-12
1.14659e-12
8.44556e-13
5.10872e-13
4.46406e-13
4.37206e-13
4.10078e-13
3.69325e-13
3.27028e-13
2.88043e-13
2.5332e-13
2.22722e-13
1.95867e-13
1.72326e-13
1.51689e-13
1.33588e-13
1.17702e-13
1.03754e-13
9.15014e-14
8.07323e-14
7.12633e-14
6.2934e-14
5.56047e-14
4.91544e-14
4.34361e-14
3.81819e-14
3.36316e-14
2.9684e-14
2.62442e-14
2.32338e-14
2.0589e-14
1.82595e-14
1.62041e-14
1.43883e-14
1.27825e-14
1.13614e-14
1.01037e-14
8.98984e-15
8.00281e-15
7.12764e-15
6.35127e-15
5.66222e-15
5.05046e-15
4.50728e-15
4.02487e-15
3.5963e-15
3.21544e-15
2.87688e-15
2.57584e-15
2.30805e-15
2.06976e-15
1.85764e-15
1.66866e-15
1.50011e-15
1.34962e-15
1.21505e-15
1.09456e-15
9.86502e-16
8.89454e-16
8.02152e-16
7.23502e-16
6.52546e-16
5.88442e-16
5.30452e-16
4.77973e-16
4.30433e-16
3.87316e-16
3.48194e-16
3.12696e-16
2.80468e-16
2.51194e-16
2.24603e-16
2.00487e-16
1.78757e-16
1.59582e-16
1.43714e-16
1.32941e-16
1.18819e-16
)
;
    }
    procBoundary3to2
    {
        type            processor;
        value           nonuniform List<scalar> 
180
(
-1.56553e-17
-7.66706e-18
-1.09819e-18
2.03637e-18
3.00985e-18
2.74784e-18
1.69483e-18
1.3827e-20
-2.24393e-18
-5.05769e-18
-8.41821e-18
-1.23192e-17
-1.67514e-17
-2.17055e-17
-2.71746e-17
-3.31518e-17
-3.96135e-17
-4.65881e-17
-5.41146e-17
-6.22442e-17
-7.10525e-17
-8.06439e-17
-9.11551e-17
-1.02759e-16
-1.15669e-16
-1.3014e-16
-1.4647e-16
-1.65022e-16
-1.86202e-16
-2.10483e-16
-2.38423e-16
-2.70465e-16
-3.07533e-16
-3.50587e-16
-4.00754e-16
-4.58694e-16
-5.25131e-16
-5.99972e-16
-6.83504e-16
-7.76109e-16
-8.78196e-16
-9.90318e-16
-1.11331e-15
-1.24841e-15
-1.39733e-15
-1.56228e-15
-1.74596e-15
-1.95143e-15
-2.2005e-15
-2.48382e-15
-2.81138e-15
-3.18468e-15
-3.61033e-15
-4.09581e-15
-4.6496e-15
-5.28141e-15
-6.00239e-15
-6.82227e-15
-7.74909e-15
-8.79431e-15
-9.96964e-15
-1.12888e-14
-1.27684e-14
-1.44167e-14
-1.62341e-14
-1.8207e-14
-2.02967e-14
-2.24186e-14
-2.4404e-14
-2.59234e-14
-2.63212e-14
-2.52234e-14
-2.60458e-14
-2.58004e-14
-2.30441e-14
-1.43227e-14
5.32358e-15
3.65381e-14
5.52266e-14
-1.88503e-14
-1.83035e-13
-1.07536e-15
3.24621e-12
4.85003e-14
-1.7651e-12
2.63118e-13
-2.19841e-12
-1.86973e-12
1.60195e-12
4.40578e-12
7.15499e-12
4.74341e-13
2.51198e-11
2.63515e-12
2.60059e-12
-9.02563e-13
-4.41908e-12
-1.05851e-11
-7.02958e-12
2.24311e-13
5.38738e-12
3.97044e-12
3.98261e-12
1.48369e-12
-3.68436e-13
-1.99912e-12
-2.32999e-12
-2.28297e-12
-2.12727e-12
-1.94854e-12
-1.77358e-12
-1.61091e-12
-1.46223e-12
-1.32687e-12
-1.20373e-12
-1.09175e-12
-9.89956e-13
-8.97455e-13
-8.13425e-13
-7.37113e-13
-6.67834e-13
-6.04956e-13
-5.47903e-13
-4.96148e-13
-4.49209e-13
-4.06649e-13
-3.68067e-13
-3.331e-13
-3.01415e-13
-2.72711e-13
-2.46713e-13
-2.23168e-13
-2.0185e-13
-1.8255e-13
-1.6508e-13
-1.49269e-13
-1.34962e-13
-1.22018e-13
-1.10307e-13
-9.97151e-14
-9.0135e-14
-8.14714e-14
-7.36374e-14
-6.65541e-14
-6.01502e-14
-5.4361e-14
-4.91279e-14
-4.43978e-14
-4.01227e-14
-3.62591e-14
-3.27676e-14
-2.96127e-14
-2.67621e-14
-2.41869e-14
-2.18607e-14
-1.97599e-14
-1.78631e-14
-1.61509e-14
-1.46058e-14
-1.32121e-14
-1.19555e-14
-1.08232e-14
-9.8035e-15
-8.88604e-15
-8.06133e-15
-7.32084e-15
-6.6569e-15
-6.06263e-15
-5.5318e-15
-5.05888e-15
-4.63887e-15
-4.26736e-15
-3.94039e-15
-3.65448e-15
-3.40653e-15
-3.19375e-15
-3.01358e-15
-2.86429e-15
-2.74742e-15
-2.72473e-15
)
;
    }
}


// ************************************************************************* //
