/*--------------------------------*- C++ -*----------------------------------*\
| =========                 |                                                 |
| \\      /  F ield         | OpenFOAM: The Open Source CFD Toolbox           |
|  \\    /   O peration     | Version:  5.x                                   |
|   \\  /    A nd           | Web:      www.OpenFOAM.org                      |
|    \\/     M anipulation  |                                                 |
\*---------------------------------------------------------------------------*/
FoamFile
{
    version     2.0;
    format      ascii;
    class       volVectorField;
    location    "0.005";
    object      U;
}
// * * * * * * * * * * * * * * * * * * * * * * * * * * * * * * * * * * * * * //

dimensions      [0 1 -1 0 0 0 0];

internalField   nonuniform List<vector> 
180
(
(7.89213e-10 -7.21837e-09 -0.00100005)
(6.50618e-10 -1.01191e-08 -0.00100005)
(5.90988e-10 -1.46836e-08 -0.00100006)
(6.43119e-10 -2.00797e-08 -0.00100006)
(7.60786e-10 -2.59321e-08 -0.00100006)
(9.08409e-10 -3.21303e-08 -0.00100006)
(1.06974e-09 -3.86813e-08 -0.00100007)
(1.23937e-09 -4.56363e-08 -0.00100007)
(1.41605e-09 -5.3063e-08 -0.00100008)
(1.59971e-09 -6.10374e-08 -0.00100008)
(1.79048e-09 -6.9642e-08 -0.00100009)
(1.98834e-09 -7.89665e-08 -0.0010001)
(2.19314e-09 -8.91081e-08 -0.00100011)
(2.40454e-09 -1.00173e-07 -0.00100012)
(2.62208e-09 -1.12276e-07 -0.00100013)
(2.84519e-09 -1.25543e-07 -0.00100014)
(3.07326e-09 -1.40114e-07 -0.00100015)
(3.30567e-09 -1.5614e-07 -0.00100017)
(3.54182e-09 -1.73788e-07 -0.00100019)
(3.78123e-09 -1.93241e-07 -0.0010002)
(4.02359e-09 -2.14702e-07 -0.00100023)
(4.26881e-09 -2.38392e-07 -0.00100025)
(4.51703e-09 -2.64556e-07 -0.00100027)
(4.76874e-09 -2.93466e-07 -0.0010003)
(5.02476e-09 -3.25418e-07 -0.00100033)
(5.28625e-09 -3.60744e-07 -0.00100037)
(5.55479e-09 -3.99806e-07 -0.00100041)
(5.83228e-09 -4.43007e-07 -0.00100045)
(6.12103e-09 -4.90792e-07 -0.0010005)
(6.42366e-09 -5.43653e-07 -0.00100055)
(6.74316e-09 -6.02134e-07 -0.00100061)
(7.08275e-09 -6.66839e-07 -0.00100068)
(7.44588e-09 -7.38436e-07 -0.00100075)
(7.83624e-09 -8.17663e-07 -0.00100083)
(8.25785e-09 -9.0534e-07 -0.00100091)
(8.71513e-09 -1.00237e-06 -0.00100101)
(9.21287e-09 -1.10977e-06 -0.00100112)
(9.75602e-09 -1.22864e-06 -0.00100124)
(1.03493e-08 -1.36022e-06 -0.00100137)
(1.09968e-08 -1.50587e-06 -0.00100152)
(1.17016e-08 -1.66711e-06 -0.00100168)
(1.24658e-08 -1.84561e-06 -0.00100186)
(1.32893e-08 -2.04325e-06 -0.00100206)
(1.41704e-08 -2.26207e-06 -0.00100228)
(1.51045e-08 -2.50437e-06 -0.00100252)
(1.6085e-08 -2.77267e-06 -0.00100279)
(1.71027e-08 -3.0698e-06 -0.00100309)
(1.81438e-08 -3.39885e-06 -0.00100342)
(1.91928e-08 -3.7633e-06 -0.00100378)
(2.02358e-08 -4.16696e-06 -0.00100419)
(2.12571e-08 -4.61408e-06 -0.00100463)
(2.224e-08 -5.10938e-06 -0.00100513)
(2.31646e-08 -5.65809e-06 -0.00100568)
(2.40066e-08 -6.26601e-06 -0.00100628)
(2.47364e-08 -6.93959e-06 -0.00100695)
(2.53181e-08 -7.686e-06 -0.0010077)
(2.57078e-08 -8.51321e-06 -0.00100852)
(2.58527e-08 -9.43007e-06 -0.00100943)
(2.56885e-08 -1.04464e-05 -0.00101043)
(2.51355e-08 -1.1573e-05 -0.00101154)
(2.4094e-08 -1.28221e-05 -0.00101278)
(2.24419e-08 -1.42072e-05 -0.00101414)
(2.00292e-08 -1.57431e-05 -0.00101565)
(1.66734e-08 -1.74466e-05 -0.00101733)
(1.2154e-08 -1.93362e-05 -0.00101918)
(6.19645e-09 -2.14326e-05 -0.00102123)
(-1.54882e-09 -2.37588e-05 -0.00102351)
(-1.15361e-08 -2.63404e-05 -0.00102603)
(-2.43848e-08 -2.92061e-05 -0.00102883)
(-4.10063e-08 -3.2388e-05 -0.00103193)
(-6.29241e-08 -3.59219e-05 -0.00103539)
(-9.3161e-08 -3.98476e-05 -0.00103924)
(-1.38518e-07 -4.4207e-05 -0.00104347)
(-2.15894e-07 -4.90325e-05 -0.00104803)
(-3.75753e-07 -5.431e-05 -0.00105326)
(-7.42003e-07 -5.98766e-05 -0.00106113)
(-1.48522e-06 -6.50926e-05 -0.00107325)
(-2.59487e-06 -6.85825e-05 -0.00107468)
(-3.02747e-06 -6.70537e-05 -0.00102596)
(5.85134e-07 -5.54375e-05 -0.000761344)
(1.10483e-05 -2.27829e-05 -0.00336913)
(4.09027e-06 5.65685e-06 -2.19591e-05)
(-0.000108276 -0.000248688 -0.00430016)
(-6.02209e-07 3.23913e-05 -4.93891e-05)
(0.00013311 0.000305054 -0.0051917)
(-1.9365e-05 6.4142e-05 -0.000141813)
(0.000319514 0.000330005 -0.00528807)
(-7.83012e-06 5.36069e-05 -0.000205601)
(-0.000126024 -0.000167048 -0.00502872)
(-9.695e-05 -6.08652e-05 -0.00120093)
(-0.000394246 1.03313e-05 -0.00523814)
(3.55876e-06 5.98542e-06 -5.29405e-05)
(-0.00135497 0.000956313 -0.00440191)
(-4.28286e-05 5.02954e-05 -0.00027254)
(-0.000331501 0.000400517 -0.00473091)
(5.5885e-05 0.000126063 -0.00116151)
(0.000609783 0.000318561 -0.0034307)
(0.000516088 0.000274023 -0.00251166)
(0.000353903 0.000190632 -0.00535338)
(-1.35232e-05 -1.05539e-05 -0.00078174)
(-0.000263411 -0.000117684 -0.00334395)
(-0.00025622 -8.15052e-05 -0.00123469)
(-0.00032341 -0.000125517 -0.00171504)
(-0.000115914 -6.51029e-05 -0.0012204)
(4.67442e-06 -4.46543e-05 -0.00125005)
(6.72604e-05 -2.74294e-05 -0.00110913)
(8.46064e-05 -2.06121e-05 -0.00107894)
(8.4948e-05 -1.75267e-05 -0.00107772)
(7.97689e-05 -1.53264e-05 -0.00107438)
(7.32352e-05 -1.3424e-05 -0.00106808)
(6.66932e-05 -1.17753e-05 -0.00106174)
(6.05653e-05 -1.03499e-05 -0.00105611)
(5.49504e-05 -9.1078e-06 -0.00105106)
(4.98382e-05 -8.01971e-06 -0.00104645)
(4.51908e-05 -7.0652e-06 -0.00104224)
(4.0968e-05 -6.22759e-06 -0.00103839)
(3.71322e-05 -5.49225e-06 -0.00103488)
(3.3649e-05 -4.84638e-06 -0.00103168)
(3.04869e-05 -4.27879e-06 -0.00102876)
(2.7617e-05 -3.77976e-06 -0.00102611)
(2.50129e-05 -3.34079e-06 -0.00102369)
(2.26506e-05 -2.95448e-06 -0.0010215)
(2.05082e-05 -2.61436e-06 -0.0010195)
(1.85655e-05 -2.31477e-06 -0.00101768)
(1.68043e-05 -2.05077e-06 -0.00101603)
(1.52079e-05 -1.81804e-06 -0.00101453)
(1.37613e-05 -1.6128e-06 -0.00101317)
(1.24506e-05 -1.43171e-06 -0.00101193)
(1.12633e-05 -1.27178e-06 -0.00101081)
(1.0188e-05 -1.1304e-06 -0.00100979)
(9.21425e-06 -1.00532e-06 -0.00100886)
(8.33272e-06 -8.94581e-07 -0.00100802)
(7.53475e-06 -7.96469e-07 -0.00100726)
(6.81254e-06 -7.09493e-07 -0.00100657)
(6.15898e-06 -6.32341e-07 -0.00100594)
(5.56764e-06 -5.63862e-07 -0.00100538)
(5.03266e-06 -5.03046e-07 -0.00100486)
(4.54875e-06 -4.49005e-07 -0.0010044)
(4.11107e-06 -4.00956e-07 -0.00100398)
(3.71526e-06 -3.58214e-07 -0.0010036)
(3.35736e-06 -3.20172e-07 -0.00100325)
(3.03376e-06 -2.86297e-07 -0.00100294)
(2.74121e-06 -2.56119e-07 -0.00100266)
(2.47676e-06 -2.29223e-07 -0.0010024)
(2.23773e-06 -2.05243e-07 -0.00100217)
(2.02169e-06 -1.83855e-07 -0.00100196)
(1.82644e-06 -1.64772e-07 -0.00100177)
(1.65001e-06 -1.47739e-07 -0.0010016)
(1.49058e-06 -1.32532e-07 -0.00100144)
(1.34653e-06 -1.18951e-07 -0.0010013)
(1.21639e-06 -1.06817e-07 -0.00100118)
(1.09882e-06 -9.59741e-08 -0.00100106)
(9.92632e-07 -8.62804e-08 -0.00100096)
(8.96727e-07 -7.76111e-08 -0.00100087)
(8.10125e-07 -6.98548e-08 -0.00100078)
(7.31939e-07 -6.29123e-08 -0.00100071)
(6.61368e-07 -5.66951e-08 -0.00100064)
(5.97687e-07 -5.11243e-08 -0.00100057)
(5.40243e-07 -4.61296e-08 -0.00100052)
(4.88445e-07 -4.16483e-08 -0.00100047)
(4.4176e-07 -3.76246e-08 -0.00100042)
(3.99706e-07 -3.40088e-08 -0.00100038)
(3.61851e-07 -3.07566e-08 -0.00100034)
(3.27803e-07 -2.78288e-08 -0.00100031)
(2.97208e-07 -2.51905e-08 -0.00100028)
(2.69749e-07 -2.28108e-08 -0.00100025)
(2.4514e-07 -2.06622e-08 -0.00100022)
(2.23124e-07 -1.87204e-08 -0.0010002)
(2.03471e-07 -1.6964e-08 -0.00100018)
(1.85974e-07 -1.5374e-08 -0.00100016)
(1.70449e-07 -1.39336e-08 -0.00100014)
(1.56733e-07 -1.26279e-08 -0.00100012)
(1.4468e-07 -1.14438e-08 -0.00100011)
(1.3416e-07 -1.037e-08 -0.00100009)
(1.25062e-07 -9.39808e-09 -0.00100008)
(1.17281e-07 -8.52429e-09 -0.00100007)
(1.10727e-07 -7.75636e-09 -0.00100005)
(1.05346e-07 -7.12599e-09 -0.00100004)
(1.01233e-07 -6.69443e-09 -0.00100003)
(9.88233e-08 -6.56803e-09 -0.00100002)
)
;

boundaryField
{
    inlet
    {
        type            zeroGradient;
    }
    outlet
    {
        type            zeroGradient;
    }
    repeat_boundary
    {
        type            slip;
    }
    procBoundary3to1
    {
        type            processor;
        value           nonuniform List<vector> 
180
(
(8.31961e-10 -7.21836e-09 -0.000999942)
(7.78598e-10 -1.01191e-08 -0.000999941)
(8.21493e-10 -1.46835e-08 -0.00099994)
(9.6575e-10 -2.00797e-08 -0.000999938)
(1.16928e-09 -2.59321e-08 -0.000999936)
(1.39708e-09 -3.21302e-08 -0.000999933)
(1.63272e-09 -3.86812e-08 -0.000999929)
(1.8709e-09 -4.56362e-08 -0.000999925)
(2.11099e-09 -5.30629e-08 -0.00099992)
(2.35417e-09 -6.10373e-08 -0.000999914)
(2.60242e-09 -6.96419e-08 -0.000999907)
(2.85823e-09 -7.89664e-08 -0.000999899)
(3.1246e-09 -8.9108e-08 -0.00099989)
(3.40498e-09 -1.00172e-07 -0.00099988)
(3.70333e-09 -1.12275e-07 -0.000999869)
(4.02411e-09 -1.25543e-07 -0.000999856)
(4.37231e-09 -1.40114e-07 -0.000999842)
(4.75346e-09 -1.5614e-07 -0.000999826)
(5.17369e-09 -1.73788e-07 -0.000999808)
(5.63975e-09 -1.93241e-07 -0.000999788)
(6.15907e-09 -2.14701e-07 -0.000999766)
(6.7399e-09 -2.38391e-07 -0.000999741)
(7.39137e-09 -2.64555e-07 -0.000999714)
(8.12367e-09 -2.93465e-07 -0.000999683)
(8.94824e-09 -3.25417e-07 -0.00099965)
(9.878e-09 -3.60742e-07 -0.000999612)
(1.09276e-08 -3.99804e-07 -0.000999571)
(1.2114e-08 -4.43004e-07 -0.000999525)
(1.34564e-08 -4.90789e-07 -0.000999474)
(1.49773e-08 -5.43649e-07 -0.000999418)
(1.67028e-08 -6.02129e-07 -0.000999356)
(1.86635e-08 -6.66834e-07 -0.000999287)
(2.08949e-08 -7.38429e-07 -0.000999211)
(2.34386e-08 -8.17654e-07 -0.000999126)
(2.63432e-08 -9.05329e-07 -0.000999033)
(2.96653e-08 -1.00236e-06 -0.000998929)
(3.34708e-08 -1.10975e-06 -0.000998814)
(3.78356e-08 -1.22862e-06 -0.000998687)
(4.28477e-08 -1.36019e-06 -0.000998546)
(4.8608e-08 -1.50584e-06 -0.00099839)
(5.52328e-08 -1.66707e-06 -0.000998217)
(6.28556e-08 -1.84557e-06 -0.000998025)
(7.16299e-08 -2.04319e-06 -0.000997812)
(8.17316e-08 -2.262e-06 -0.000997576)
(9.33631e-08 -2.50428e-06 -0.000997315)
(1.06757e-07 -2.77257e-06 -0.000997025)
(1.22183e-07 -3.06967e-06 -0.000996703)
(1.39949e-07 -3.39869e-06 -0.000996346)
(1.60413e-07 -3.7631e-06 -0.00099595)
(1.83988e-07 -4.16671e-06 -0.000995511)
(2.11154e-07 -4.61378e-06 -0.000995023)
(2.42467e-07 -5.10901e-06 -0.000994482)
(2.78575e-07 -5.65764e-06 -0.000993881)
(3.20231e-07 -6.26545e-06 -0.000993213)
(3.68316e-07 -6.93891e-06 -0.000992471)
(4.23862e-07 -7.68516e-06 -0.000991645)
(4.88094e-07 -8.51217e-06 -0.000990728)
(5.62398e-07 -9.42879e-06 -0.000989708)
(6.48339e-07 -1.04448e-05 -0.000988574)
(7.47723e-07 -1.15711e-05 -0.000987313)
(8.62646e-07 -1.28197e-05 -0.00098591)
(9.95531e-07 -1.42042e-05 -0.000984349)
(1.14918e-06 -1.57395e-05 -0.000982612)
(1.32684e-06 -1.74421e-05 -0.000980679)
(1.53226e-06 -1.93307e-05 -0.000978527)
(1.76977e-06 -2.14258e-05 -0.000976129)
(2.04438e-06 -2.37504e-05 -0.000973458)
(2.36188e-06 -2.63301e-05 -0.000970481)
(2.72895e-06 -2.91934e-05 -0.000967161)
(3.1533e-06 -3.23722e-05 -0.000963458)
(3.64368e-06 -3.5902e-05 -0.00095933)
(4.20928e-06 -3.98215e-05 -0.000954719)
(4.85701e-06 -4.41685e-05 -0.000949524)
(5.58136e-06 -4.89619e-05 -0.000943594)
(6.33681e-06 -5.41447e-05 -0.00093709)
(6.97979e-06 -5.94271e-05 -0.000931402)
(7.18424e-06 -6.39152e-05 -0.000928063)
(6.39685e-06 -6.53912e-05 -0.000915459)
(4.00035e-06 -5.93627e-05 -0.000860259)
(5.63164e-07 -4.06423e-05 -0.000636387)
(-5.67022e-07 -3.53469e-06 -0.00259601)
(-3.09473e-05 1.81501e-05 -3.00123e-05)
(0.000157472 -0.000243904 -0.00260685)
(4.84288e-05 -8.32337e-05 -0.00333989)
(-5.23052e-05 2.73727e-05 -0.000588693)
(-0.000566957 0.000274591 -0.00443553)
(-5.81458e-05 3.37608e-05 -0.00018629)
(-0.000324933 0.000249143 -0.00326953)
(4.98354e-05 -0.000122225 -0.00166265)
(0.00031712 -0.00016929 -0.00379078)
(4.2155e-05 3.82943e-06 -0.0014379)
(6.54238e-06 6.13437e-05 -0.00425833)
(-3.87159e-05 9.1131e-05 -0.000937201)
(-0.000178218 0.000617253 -0.00392386)
(4.32186e-08 2.18763e-05 -8.78603e-05)
(-0.000226397 0.000473084 -0.00401777)
(-0.000118296 0.000195706 -0.00181069)
(-0.000192384 0.000248918 -0.00222983)
(-0.000187148 0.000307564 -0.00369222)
(-7.90196e-05 -5.52518e-05 -0.0018597)
(-0.000252766 -7.42016e-05 -0.00293755)
(-0.000400121 -8.92855e-05 -0.00253098)
(-0.000103649 -6.12538e-05 -0.00180023)
(2.16808e-06 -3.48739e-05 -0.00172457)
(3.668e-05 -1.89663e-05 -0.00138399)
(8.36448e-05 -9.65266e-06 -0.00124133)
(0.000103495 -1.09975e-05 -0.00114026)
(0.000105648 -1.32794e-05 -0.00111932)
(9.96405e-05 -1.37371e-05 -0.00111341)
(9.11054e-05 -1.28994e-05 -0.00110418)
(8.23877e-05 -1.16129e-05 -0.00109361)
(7.42442e-05 -1.02965e-05 -0.00108393)
(6.68421e-05 -9.08531e-06 -0.0010754)
(6.01673e-05 -8.00673e-06 -0.0010678)
(5.4161e-05 -7.05611e-06 -0.00106098)
(4.87585e-05 -6.22074e-06 -0.00105484)
(4.38991e-05 -5.48698e-06 -0.00104933)
(3.95276e-05 -4.8423e-06 -0.00104438)
(3.55949e-05 -4.27563e-06 -0.00103993)
(3.20562e-05 -3.7773e-06 -0.00103594)
(2.88719e-05 -3.33888e-06 -0.00103234)
(2.6006e-05 -2.953e-06 -0.00102911)
(2.34264e-05 -2.6132e-06 -0.00102621)
(2.11044e-05 -2.31387e-06 -0.00102359)
(1.90139e-05 -2.05006e-06 -0.00102124)
(1.71318e-05 -1.81748e-06 -0.00101913)
(1.54371e-05 -1.61236e-06 -0.00101722)
(1.39109e-05 -1.43137e-06 -0.00101551)
(1.25364e-05 -1.27151e-06 -0.00101397)
(1.12984e-05 -1.13019e-06 -0.00101259)
(1.01831e-05 -1.00516e-06 -0.00101134)
(9.17831e-06 -8.94451e-07 -0.00101022)
(8.27303e-06 -7.96368e-07 -0.00100921)
(7.45734e-06 -7.09413e-07 -0.0010083)
(6.72231e-06 -6.32277e-07 -0.00100748)
(6.05991e-06 -5.63812e-07 -0.00100674)
(5.46294e-06 -5.03006e-07 -0.00100607)
(4.9249e-06 -4.48973e-07 -0.00100547)
(4.43993e-06 -4.00932e-07 -0.00100493)
(4.0028e-06 -3.58194e-07 -0.00100445)
(3.60876e-06 -3.20156e-07 -0.00100401)
(3.25355e-06 -2.86285e-07 -0.00100361)
(2.93334e-06 -2.56109e-07 -0.00100326)
(2.64468e-06 -2.29216e-07 -0.00100293)
(2.38445e-06 -2.05237e-07 -0.00100265)
(2.14985e-06 -1.8385e-07 -0.00100238)
(1.93838e-06 -1.64768e-07 -0.00100215)
(1.74774e-06 -1.47736e-07 -0.00100194)
(1.5759e-06 -1.32529e-07 -0.00100175)
(1.421e-06 -1.18949e-07 -0.00100157)
(1.2814e-06 -1.06816e-07 -0.00100142)
(1.15558e-06 -9.59728e-08 -0.00100128)
(1.04219e-06 -8.62794e-08 -0.00100115)
(9.40018e-07 -7.76103e-08 -0.00100104)
(8.47961e-07 -6.98542e-08 -0.00100094)
(7.65029e-07 -6.29118e-08 -0.00100084)
(6.90328e-07 -5.66947e-08 -0.00100076)
(6.23054e-07 -5.1124e-08 -0.00100069)
(5.62481e-07 -4.61293e-08 -0.00100062)
(5.07957e-07 -4.16481e-08 -0.00100056)
(4.58894e-07 -3.76244e-08 -0.0010005)
(4.14763e-07 -3.40086e-08 -0.00100045)
(3.7509e-07 -3.07565e-08 -0.00100041)
(3.39446e-07 -2.78287e-08 -0.00100036)
(3.0745e-07 -2.51904e-08 -0.00100033)
(2.78756e-07 -2.28107e-08 -0.00100029)
(2.53057e-07 -2.06621e-08 -0.00100026)
(2.30078e-07 -1.87204e-08 -0.00100024)
(2.09572e-07 -1.6964e-08 -0.00100021)
(1.9132e-07 -1.5374e-08 -0.00100019)
(1.75127e-07 -1.39336e-08 -0.00100017)
(1.60819e-07 -1.26279e-08 -0.00100015)
(1.48243e-07 -1.14438e-08 -0.00100013)
(1.37266e-07 -1.037e-08 -0.00100011)
(1.27772e-07 -9.39808e-09 -0.0010001)
(1.19662e-07 -8.52428e-09 -0.00100008)
(1.12861e-07 -7.75636e-09 -0.00100007)
(1.07345e-07 -7.12599e-09 -0.00100006)
(1.03236e-07 -6.69443e-09 -0.00100004)
(1.01028e-07 -6.56803e-09 -0.00100003)
)
;
    }
    procBoundary3to2
    {
        type            processor;
        value           nonuniform List<vector> 
180
(
(7.89214e-10 -7.17562e-09 -0.00100006)
(6.50619e-10 -9.99113e-09 -0.00100006)
(5.90989e-10 -1.44531e-08 -0.00100006)
(6.4312e-10 -1.97571e-08 -0.00100006)
(7.60788e-10 -2.55236e-08 -0.00100006)
(9.08411e-10 -3.16416e-08 -0.00100007)
(1.06974e-09 -3.81183e-08 -0.00100007)
(1.23937e-09 -4.50048e-08 -0.00100008)
(1.41605e-09 -5.23681e-08 -0.00100008)
(1.59972e-09 -6.02829e-08 -0.00100009)
(1.79048e-09 -6.88301e-08 -0.00100009)
(1.98835e-09 -7.80966e-08 -0.0010001)
(2.19315e-09 -8.81766e-08 -0.00100011)
(2.40455e-09 -9.91722e-08 -0.00100012)
(2.62208e-09 -1.11194e-07 -0.00100013)
(2.8452e-09 -1.24364e-07 -0.00100014)
(3.07328e-09 -1.38815e-07 -0.00100016)
(3.30568e-09 -1.54692e-07 -0.00100017)
(3.54183e-09 -1.72156e-07 -0.00100019)
(3.78125e-09 -1.91383e-07 -0.00100021)
(4.02362e-09 -2.12566e-07 -0.00100023)
(4.26884e-09 -2.3592e-07 -0.00100026)
(4.51708e-09 -2.61682e-07 -0.00100028)
(4.7688e-09 -2.90111e-07 -0.00100031)
(5.02482e-09 -3.21495e-07 -0.00100034)
(5.28633e-09 -3.56152e-07 -0.00100038)
(5.55488e-09 -3.94433e-07 -0.00100042)
(5.8324e-09 -4.36725e-07 -0.00100046)
(6.12117e-09 -4.83456e-07 -0.00100051)
(6.42384e-09 -5.35099e-07 -0.00100056)
(6.74338e-09 -5.92175e-07 -0.00100062)
(7.08302e-09 -6.55259e-07 -0.00100069)
(7.44622e-09 -7.24987e-07 -0.00100076)
(7.83666e-09 -8.02061e-07 -0.00100084)
(8.25836e-09 -8.87254e-07 -0.00100093)
(8.71577e-09 -9.81423e-07 -0.00100103)
(9.21366e-09 -1.08551e-06 -0.00100114)
(9.75699e-09 -1.20056e-06 -0.00100126)
(1.03505e-08 -1.32772e-06 -0.00100139)
(1.09982e-08 -1.46826e-06 -0.00100154)
(1.17035e-08 -1.62358e-06 -0.00100171)
(1.2468e-08 -1.79522e-06 -0.00100189)
(1.32921e-08 -1.98491e-06 -0.00100209)
(1.41739e-08 -2.19451e-06 -0.00100231)
(1.51088e-08 -2.42611e-06 -0.00100256)
(1.60904e-08 -2.682e-06 -0.00100283)
(1.71093e-08 -2.96471e-06 -0.00100313)
(1.81521e-08 -3.27705e-06 -0.00100346)
(1.9203e-08 -3.62207e-06 -0.00100383)
(2.02485e-08 -4.0032e-06 -0.00100423)
(2.12729e-08 -4.42418e-06 -0.00100468)
(2.22596e-08 -4.88915e-06 -0.00100518)
(2.3189e-08 -5.40267e-06 -0.00100573)
(2.40369e-08 -5.96978e-06 -0.00100634)
(2.47741e-08 -6.596e-06 -0.00100701)
(2.53651e-08 -7.28744e-06 -0.00100775)
(2.57663e-08 -8.05081e-06 -0.00100858)
(2.59255e-08 -8.8935e-06 -0.00100948)
(2.57793e-08 -9.82369e-06 -0.00101049)
(2.52488e-08 -1.08504e-05 -0.0010116)
(2.42354e-08 -1.19835e-05 -0.00101283)
(2.26185e-08 -1.3234e-05 -0.00101419)
(2.02498e-08 -1.46138e-05 -0.00101569)
(1.69491e-08 -1.61363e-05 -0.00101736)
(1.2499e-08 -1.78159e-05 -0.00101919)
(6.62833e-09 -1.96687e-05 -0.00102123)
(-1.00759e-09 -2.17125e-05 -0.00102348)
(-1.08566e-08 -2.39665e-05 -0.00102596)
(-2.35278e-08 -2.64521e-05 -0.00102871)
(-3.99131e-08 -2.91927e-05 -0.00103175)
(-6.14929e-08 -3.22139e-05 -0.0010351)
(-9.11925e-08 -3.55428e-05 -0.00103881)
(-1.35636e-07 -3.92059e-05 -0.00104286)
(-2.11654e-07 -4.32169e-05 -0.00104716)
(-3.7117e-07 -4.75288e-05 -0.00105196)
(-7.46365e-07 -5.18966e-05 -0.00105907)
(-1.5355e-06 -5.55199e-05 -0.00107074)
(-2.76792e-06 -5.67402e-05 -0.00107369)
(-3.53982e-06 -5.25706e-05 -0.00102851)
(-1.05844e-06 -3.99378e-05 -0.000745929)
(4.00733e-06 -7.43676e-06 -0.0032038)
(-3.37758e-06 4.08381e-06 -1.70129e-05)
(-0.000138198 3.98033e-05 -0.00381871)
(-5.72827e-06 7.64551e-06 -0.000289736)
(7.84104e-05 -0.000139345 -0.00387783)
(1.71214e-05 -0.000222297 -0.00432624)
(7.60826e-06 -1.88986e-05 -0.000377135)
(0.000336971 -0.00041362 -0.00468981)
(-6.98605e-05 3.30085e-05 -0.00110114)
(-0.000365809 0.00077344 -0.00287024)
(-0.000457868 0.000982969 -0.00317254)
(-0.000119048 0.000149306 -0.000673158)
(-0.000980715 0.00138715 -0.00276154)
(-0.000297748 0.000432826 -0.00247556)
(-3.50678e-06 -3.57895e-05 -9.32343e-05)
(7.09189e-05 -1.08294e-05 -0.00479413)
(-2.2284e-06 -4.67647e-05 -0.000290356)
(0.000629429 -0.000573947 -0.00253311)
(0.000586489 -0.00049025 -0.00188923)
(-1.25724e-05 -0.000295 -0.0013901)
(-0.000269599 -0.000359854 -0.00231124)
(-0.000143968 -0.000111293 -0.00179553)
(-6.88679e-05 1.44047e-05 -0.00179463)
(-2.39169e-05 2.01557e-05 -0.001522)
(2.32228e-05 -1.30322e-06 -0.0011672)
(7.82365e-05 3.456e-06 -0.00100478)
(8.9919e-05 8.40261e-06 -0.000881993)
(8.72044e-05 8.39942e-06 -0.000894079)
(8.06144e-05 6.69134e-06 -0.000913896)
(7.35282e-05 5.19622e-06 -0.000923947)
(6.67991e-05 4.16008e-06 -0.000930343)
(6.06133e-05 3.41033e-06 -0.000936317)
(5.49801e-05 2.81871e-06 -0.000942073)
(4.98604e-05 2.32972e-06 -0.000947381)
(4.52087e-05 1.91937e-06 -0.000952205)
(4.09826e-05 1.57383e-06 -0.000956593)
(3.71443e-05 1.283e-06 -0.000960588)
(3.3659e-05 1.03874e-06 -0.000964223)
(3.04951e-05 8.34218e-07 -0.000967531)
(2.76237e-05 6.63425e-07 -0.00097054)
(2.50185e-05 5.21224e-07 -0.000973277)
(2.26552e-05 4.03243e-07 -0.000975765)
(2.05119e-05 3.05752e-07 -0.000978025)
(1.85686e-05 2.2557e-07 -0.000980079)
(1.68068e-05 1.59994e-07 -0.000981944)
(1.521e-05 1.06702e-07 -0.000983638)
(1.3763e-05 6.36613e-08 -0.000985175)
(1.2452e-05 2.91661e-08 -0.000986571)
(1.12644e-05 1.78671e-09 -0.000987837)
(1.01889e-05 -1.968e-08 -0.000988986)
(9.21503e-06 -3.62516e-08 -0.000990027)
(8.33335e-06 -4.87971e-08 -0.000990972)
(7.53527e-06 -5.80409e-08 -0.000991828)
(6.81296e-06 -6.45767e-08 -0.000992604)
(6.15933e-06 -6.89222e-08 -0.000993307)
(5.56792e-06 -7.15141e-08 -0.000993944)
(5.0329e-06 -7.27122e-08 -0.000994521)
(4.54894e-06 -7.28129e-08 -0.000995043)
(4.11123e-06 -7.20593e-08 -0.000995516)
(3.71539e-06 -7.06507e-08 -0.000995945)
(3.35746e-06 -6.87494e-08 -0.000996333)
(3.03384e-06 -6.64882e-08 -0.000996684)
(2.74128e-06 -6.3975e-08 -0.000997002)
(2.47682e-06 -6.12949e-08 -0.000997289)
(2.23777e-06 -5.85135e-08 -0.000997549)
(2.02172e-06 -5.56804e-08 -0.000997785)
(1.82647e-06 -5.28341e-08 -0.000997998)
(1.65003e-06 -5.0003e-08 -0.00099819)
(1.4906e-06 -4.72101e-08 -0.000998364)
(1.34654e-06 -4.44733e-08 -0.000998522)
(1.2164e-06 -4.18062e-08 -0.000998664)
(1.09883e-06 -3.92194e-08 -0.000998793)
(9.92641e-07 -3.67214e-08 -0.00099891)
(8.96734e-07 -3.43191e-08 -0.000999015)
(8.10131e-07 -3.2018e-08 -0.00099911)
(7.31944e-07 -2.98222e-08 -0.000999197)
(6.61372e-07 -2.77347e-08 -0.000999275)
(5.97691e-07 -2.57574e-08 -0.000999346)
(5.40246e-07 -2.38912e-08 -0.00099941)
(4.88447e-07 -2.21357e-08 -0.000999468)
(4.41761e-07 -2.04899e-08 -0.000999521)
(3.99708e-07 -1.89516e-08 -0.000999568)
(3.61852e-07 -1.75179e-08 -0.000999612)
(3.27804e-07 -1.6185e-08 -0.000999651)
(2.97208e-07 -1.49486e-08 -0.000999686)
(2.69749e-07 -1.38036e-08 -0.000999719)
(2.4514e-07 -1.27447e-08 -0.000999748)
(2.23124e-07 -1.17662e-08 -0.000999775)
(2.03471e-07 -1.08624e-08 -0.000999799)
(1.85974e-07 -1.00277e-08 -0.000999821)
(1.7045e-07 -9.25613e-09 -0.000999842)
(1.56733e-07 -8.54213e-09 -0.00099986)
(1.4468e-07 -7.88006e-09 -0.000999877)
(1.3416e-07 -7.26414e-09 -0.000999893)
(1.25062e-07 -6.68784e-09 -0.000999907)
(1.17281e-07 -6.1432e-09 -0.000999921)
(1.10727e-07 -5.62248e-09 -0.000999934)
(1.05346e-07 -5.12732e-09 -0.000999946)
(1.01233e-07 -4.69158e-09 -0.000999958)
(9.88233e-08 -4.36333e-09 -0.000999968)
)
;
    }
}


// ************************************************************************* //
