FoamFile
{version 2.0; format ascii;class Cloud<passiveParticle>; location 0;object  positions;}
345
(
( 270.217 -195.584 50.2176 ) 0 
( 85.8567 -269.479 50.1985 ) 0 
( 182.718 -445.767 50.36 ) 0 
( 140.311 -75.1147 50.2651 ) 0 
( 126.603 -360.977 50.4014 ) 0 
( 476.251 -361.752 50.3606 ) 0 
( 431.272 -8.98926 50.2754 ) 0 
( 284.172 -412.983 50.8998 ) 0 
( 439.335 -113.379 50.2227 ) 0 
( 370.815 -193.605 50.1816 ) 0 
( 338.101 -99.0926 50.2369 ) 0 
( 384.419 -135.958 131.17 ) 0 
( 25.7876 -411.434 50.4095 ) 0 
( 182.182 -242.876 50.3851 ) 0 
( 222.912 -334.093 50.1959 ) 0 
( 91.0384 -487.153 50.1439 ) 0 
( 377.562 -377.481 50.4492 ) 0 
( 477.121 -207.145 50.3532 ) 0 
( 7.20753 -115.896 50.1343 ) 0 
( 370.222 -447.205 122.084 ) 0 
( 240.231 -76.3376 50.2312 ) 0 
( 479.531 -294.692 124.965 ) 0 
( 313.35 -286.656 50.1616 ) 0 
( 1.59989 -215.722 50.137 ) 0 
( 440.434 -455.177 50.2215 ) 0 
( 413.303 -284.111 50.6592 ) 0 
( 308.726 -3.514 50.0804 ) 0 
( 495.051 -145.277 127.794 ) 0 
( 94.769 -164.267 50.2782 ) 0 
( 118.214 -426.616 126.046 ) 0 
( 211.084 -390.187 132.497 ) 0 
( 24.9254 -47.448 120.98 ) 0 
( 121.625 -219.532 129.783 ) 0 
( 155.011 -379.029 215.1 ) 0 
( 189.585 -152.043 91.4856 ) 0 
( 400.717 -234.416 137.263 ) 0 
( 183.703 -39.1742 133.539 ) 0 
( 446.973 -58.1406 137.055 ) 0 
( 369.689 -65.271 200.741 ) 0 
( 302.347 -349.771 127.176 ) 0 
( 105.82 -328.902 143.4 ) 0 
( 31.755 -167.08 132.846 ) 0 
( 274.019 -467.51 140.228 ) 0 
( 341.283 -189.412 204.346 ) 0 
( 466.033 -428.221 143.629 ) 0 
( 442.794 -132.348 212.934 ) 0 
( 284.809 -143.957 134.839 ) 0 
( 30.8283 -474.714 132.554 ) 0 
( 76.7293 -198.706 217.114 ) 0 
( 182.801 -480.191 180.473 ) 0 
( 27.954 -267.112 132.301 ) 0 
( 99.0535 -20.5932 183.653 ) 0 
( 347.322 -289.274 201.926 ) 0 
( 142.561 -274.004 219.442 ) 0 
( 400.623 -352.612 145.165 ) 0 
( 198.278 -291.196 137.378 ) 0 
( 486.075 -220.481 193.505 ) 0 
( 206.661 -199.956 179.211 ) 0 
( 253.924 -327.987 211.953 ) 0 
( 113.333 -109.807 140.589 ) 0 
( 286.379 -243.904 136.614 ) 0 
( 15.663 -376.531 144.515 ) 0 
( 45.1994 -321.344 222.647 ) 0 
( 180.603 -192.948 278.23 ) 0 
( 416.753 -214.047 265.581 ) 0 
( 68.9483 -430.13 214.057 ) 0 
( 283.609 -44.0685 138.671 ) 0 
( 406.535 -469.863 213.008 ) 0 
( 251.954 -426.555 229.263 ) 0 
( 443.528 -306.258 223.39 ) 0 
( 266.529 -236.73 251.274 ) 0 
( 480.38 -62.9895 275.118 ) 0 
( 221.315 -103.305 200.813 ) 0 
( 36.9131 -99.1264 206.167 ) 0 
( 374.142 -378.686 238.755 ) 0 
( 371.609 -2.73787 279.351 ) 0 
( 207.167 -96.1668 300.091 ) 0 
( 58.0064 -485.755 312.892 ) 0 
( 129.811 -115.732 239.56 ) 0 
( 490.942 -468.769 280.58 ) 0 
( 294.339 -366.902 297.909 ) 0 
( 299.934 -100.795 262.927 ) 0 
( 198.441 -338.558 296.008 ) 0 
( 450.689 -289.524 322.107 ) 0 
( 192.238 -12.0891 230.005 ) 0 
( 296.854 -469.44 307.869 ) 0 
( 77.065 -40.7433 279.615 ) 0 
( 88.6454 -171.007 313.08 ) 0 
( 130.242 -269.151 319.27 ) 0 
( 170.646 -7.19578 327.672 ) 0 
( 169.378 -455.863 277.727 ) 0 
( 493.883 -379.745 326.379 ) 0 
( 330.832 -185.127 307.852 ) 0 
( 396.594 -465.36 313.62 ) 0 
( 227.331 -254.833 342.735 ) 0 
( 92.8506 -373.642 293.679 ) 0 
( 31.8637 -253.183 308.198 ) 0 
( 25.12 -97.0463 344.624 ) 0 
( 283.574 -115.46 361.873 ) 0 
( 271.678 -20.395 316.018 ) 0 
( 393.783 -108.013 296.824 ) 0 
( 352.947 -282.53 302.122 ) 0 
( 224.102 -417.166 352.311 ) 0 
( 357.109 -47.9842 368.129 ) 0 
( 299.753 -311.704 381.917 ) 0 
( 197.092 -164.261 373.602 ) 0 
( 473.733 -329.735 411.858 ) 0 
( 388.704 -256.788 393.946 ) 0 
( 16.0276 -359.097 363.331 ) 0 
( 126.042 -434.701 365.862 ) 0 
( 390.821 -368.336 337.289 ) 0 
( 317.463 -413.295 388.444 ) 0 
( 439.161 -178.732 356.822 ) 0 
( 118.325 -40.5861 447.592 ) 0 
( 110.511 -338.586 388.746 ) 0 
( 298.856 -212.979 398.949 ) 0 
( 207.855 -337.689 411.495 ) 0 
( 485.831 -101.821 400.557 ) 0 
( 209.779 -61.6621 402.689 ) 0 
( 123.673 -89.4548 360.052 ) 0 
( 435.396 -18.3845 422.864 ) 0 
( 376.578 -347.111 435.253 ) 0 
( 58.1865 -420.805 438.22 ) 0 
( 292.904 -20.9668 440.567 ) 0 
( 172.568 -245.34 426.765 ) 0 
( 174.233 -422.168 453.201 ) 0 
( 317.179 -276.45 474.68 ) 0 
( 36.5649 -302.835 446.069 ) 0 
( 159.455 -130.931 460.254 ) 0 
( 64.1248 -134.916 429.508 ) 0 
( 103.212 -215.876 492.39 ) 0 
( 371.118 -65.939 483.838 ) 0 
( 2.56257 -209.456 457.423 ) 0 
( 79.2364 -227.76 395.243 ) 0 
( 453.728 -23.2309 522.523 ) 0 
( 470.997 -385.566 495.391 ) 0 
( 263.426 -140.281 458.096 ) 0 
( 28.0853 -50.8749 489.492 ) 0 
( 367.335 -137.019 413.228 ) 0 
( 436.3 -422.724 408.343 ) 0 
( 280.888 -369.624 471.94 ) 0 
( 365.103 -465.091 464.567 ) 0 
( 206.54 -203.119 511.299 ) 0 
( 265.435 -467.275 455.611 ) 0 
( 199.328 -302.72 505.932 ) 0 
( 85.3809 -123.799 527.297 ) 0 
( 449.292 -123.085 527.909 ) 0 
( 374.384 -183.937 502.004 ) 0 
( 415.836 -274.251 491.376 ) 0 
( 113.461 -350.958 488.359 ) 0 
( 463.988 -188.692 453.659 ) 0 
( 132.482 -35.772 547.56 ) 0 
( 224.727 -428.882 540.392 ) 0 
( 311.04 -118.987 543.989 ) 0 
( 465.108 -489.409 477.095 ) 0 
( 322.566 -436.545 559.364 ) 0 
( 372.207 -353.078 535.822 ) 0 
( 29.8243 -404.448 533.887 ) 0 
( 20.0711 -76.7895 588.491 ) 0 
( 296.608 -62.8379 626.024 ) 0 
( 295.896 -218.573 553.708 ) 0 
( 217.084 -127.812 576.828 ) 0 
( 224.861 -59.8323 503.563 ) 0 
( 118.978 -284.809 563.702 ) 0 
( 124.911 -433.908 543.358 ) 0 
( 304.267 -11.3271 540.072 ) 0 
( 281.715 -318.759 560.996 ) 0 
( 24.5885 -260.457 541.281 ) 0 
( 468.365 -218.277 555.744 ) 0 
( 394.258 -167.337 599.373 ) 0 
( 138.239 -188.777 583.892 ) 0 
( 378.313 -265.719 585.159 ) 0 
( 210.332 -257.781 595.403 ) 0 
( 111.747 -99.8437 621.629 ) 0 
( 34.7964 -11.9849 664.19 ) 0 
( 48.1493 -199.674 625.756 ) 0 
( 86.4033 -368.306 609.187 ) 0 
( 256.576 -487.902 614.631 ) 0 
( 493.591 -446.97 627.23 ) 0 
( 55.2104 -463.257 611.397 ) 0 
( 269.79 -389.089 631.86 ) 0 
( 422.064 -447.439 557.147 ) 0 
( 184.162 -354.512 593.565 ) 0 
( 366.212 -363.018 636.052 ) 0 
( 387.222 -67.6744 583.398 ) 0 
( 301.552 -162.073 636.438 ) 0 
( 461.136 -271.119 640.909 ) 0 
( 22.7931 -295.894 635.682 ) 0 
( 2.625 -232.176 710.475 ) 0 
( 297.844 -261.543 644.366 ) 0 
( 161.957 -460.548 632.896 ) 0 
( 38.1684 -108.824 689.444 ) 0 
( 198.263 -53.6672 641.223 ) 0 
( 202.689 -181.841 660.387 ) 0 
( 134.576 -262.608 660.57 ) 0 
( 219.466 -313.025 679.001 ) 0 
( 309.045 -338.989 715.196 ) 0 
( 455.525 -359.672 591.226 ) 0 
( 380.35 -270.726 700.155 ) 0 
( 65.4053 -62.4745 773.711 ) 0 
( 371.371 -466.115 641.929 ) 0 
( 52.3475 -411.934 699.785 ) 0 
( 462.236 -2.04064 627.564 ) 0 
( 190.263 -239.955 740.972 ) 0 
( 380.05 -164.591 699.464 ) 0 
( 446.547 -496.856 700.524 ) 0 
( 208.895 -464.603 721.867 ) 0 
( 147.103 -380.826 692.08 ) 0 
( 154.152 -110.745 711.922 ) 0 
( 253.866 -107.008 705.154 ) 0 
( 463.975 -330.606 721.984 ) 0 
( 93.0752 -189.838 715.214 ) 0 
( 365.294 -65.7894 701.475 ) 0 
( 255.258 -24.8783 762.465 ) 0 
( 449.875 -97.1793 655.751 ) 0 
( 282.318 -203.987 725.451 ) 0 
( 420.389 -100.154 779.66 ) 0 
( 31.4535 -184.583 794.115 ) 0 
( 218.488 -154.08 786.225 ) 0 
( 324.184 -126.937 773.55 ) 0 
( 349.875 -30.7834 793.838 ) 0 
( 304.973 -438.803 711.699 ) 0 
( 268.627 -281.59 787.107 ) 0 
( 399.542 -407.381 719.304 ) 0 
( 493.869 -423.18 748.696 ) 0 
( 117.093 -457.633 760.921 ) 0 
( 460.477 -217.268 726.513 ) 0 
( 23.3369 -393.305 794.615 ) 0 
( 75.4757 -316.83 720.337 ) 0 
( 226.628 -373.736 759.576 ) 0 
( 131.977 -363.081 789.593 ) 0 
( 11.6762 -289.259 792.344 ) 0 
( 267.361 -455.181 803.472 ) 0 
( 270.484 -81.3142 844.736 ) 0 
( 163.062 -50.4465 791.174 ) 0 
( 120.827 -140.562 802.697 ) 0 
( 363.862 -474.419 784.492 ) 0 
( 206.518 -330.972 847.96 ) 0 
( 469.982 -363.238 825.098 ) 0 
( 366.194 -217.094 783.871 ) 0 
( 105.127 -253.121 792.094 ) 0 
( 362.535 -122.892 865.892 ) 0 
( 383.97 -329.845 781.988 ) 0 
( 189.689 -232.548 841.145 ) 0 
( 72.4991 -327.763 861.652 ) 0 
( 418.787 -441.101 861.026 ) 0 
( 181.877 -8.11166 879.795 ) 0 
( 2.71453 -479.958 841.087 ) 0 
( 185.593 -122.732 877.023 ) 0 
( 332.246 -39.051 910.931 ) 0 
( 322.316 -444.941 886.355 ) 0 
( 60.122 -230.099 878.526 ) 0 
( 100.481 -65.9996 867.958 ) 0 
( 338.07 -276.708 859.055 ) 0 
( 303.239 -365.408 829.079 ) 0 
( 291.388 -189.591 844.56 ) 0 
( 104.062 -489.064 866.139 ) 0 
( 472.756 -390.398 928.043 ) 0 
( 425.325 -308.518 895.868 ) 0 
( 44.401 -414.107 903.703 ) 0 
( 63.3997 -140.808 923.133 ) 0 
( 140.764 -397.598 883.014 ) 0 
( 426.5 -46.4114 873.422 ) 0 
( 252.648 -267.91 910.282 ) 0 
( 143.836 -200.251 924.032 ) 0 
( 490.93 -118.564 848.024 ) 0 
( 146.892 -300.138 922.572 ) 0 
( 424.377 -201.451 863.805 ) 0 
( 403.595 -455.471 958.845 ) 0 
( 337.386 -116.319 974.141 ) 0 
( 345.679 -204.194 927.46 ) 0 
( 497.812 -31.9839 941.851 ) 0 
( 245.984 -16.1765 956.03 ) 0 
( 57.9437 -62.6223 984.81 ) 0 
( 52.1202 -329.095 959.591 ) 0 
( 6.79265 -439.358 992.719 ) 0 
( 250.948 -171.216 935.537 ) 0 
( 260.944 -373.705 920.086 ) 0 
( 218.768 -459.646 890.711 ) 0 
( 109.248 -472.679 964.692 ) 0 
( 64.1118 -227.199 978.692 ) 0 
( 218.313 -316.935 990.405 ) 0 
( 437.827 -225.058 959.996 ) 0 
( 310.183 -431.581 985.092 ) 0 
( 321.305 -29.2264 1020.11 ) 0 
( 438.517 -318.77 994.548 ) 0 
( 231.917 -102.119 1005.13 ) 0 
( 186.777 -410.672 976.14 ) 0 
( 341.4 -321.648 948.503 ) 0 
( 437.419 -129.251 931.666 ) 0 
( 100.025 -391.091 1021.85 ) 0 
( 414.444 -56.3484 995.93 ) 0 
( 198.427 -220.162 1005.37 ) 0 
( 152.858 -68.2464 954.156 ) 0 
( 383.938 -243.593 1042.05 ) 0 
( 4.57941 -419.479 1091.37 ) 0 
( 302.329 -341.869 1038.21 ) 0 
( 125.63 -294.312 1020.06 ) 0 
( 185.446 -369.578 1068.78 ) 0 
( 387.409 -393.872 1035.74 ) 0 
( 480.5 -155.567 1017.93 ) 0 
( 295.147 -164.224 1051.11 ) 0 
( 98.3194 -215.694 1075.15 ) 0 
( 120.003 -147.658 1005.32 ) 0 
( 239.031 -273.576 1079.62 ) 0 
( 6.96959 -184.83 1049.17 ) 0 
( 390.839 -135.015 1057.61 ) 0 
( 498.834 -347.996 1069.62 ) 0 
( 34.346 -310.582 1057.48 ) 0 
( 159.861 -84.1534 1071.94 ) 0 
( 293.718 -249.928 999.582 ) 0 
( 316.975 -416.634 1103 ) 0 
( 357.313 -308.507 1114.68 ) 0 
( 244.84 -115.907 1164.27 ) 0 
( 370.872 -491.568 1050.11 ) 0 
( 162.759 -429.989 1145.74 ) 0 
( 6.71146 -145.001 1147.89 ) 0 
( 18.8825 -243.751 1130.3 ) 0 
( 71.3852 -30.7258 1140.59 ) 0 
( 86.8083 -369.489 1118.87 ) 0 
( 441.189 -414.354 1116.99 ) 0 
( 204.337 -171.433 1092.25 ) 0 
( 62.291 -105.298 1074.92 ) 0 
( 394.784 -19.0935 1086.52 ) 0 
( 234.365 -30.8658 1111.79 ) 0 
( 238.096 -452.826 1050.89 ) 0 
( 450.092 -271.496 1111.55 ) 0 
( 148.306 -290.645 1118.39 ) 0 
( 214.11 -235.012 1169.65 ) 0 
( 319.822 -83.0655 1104.95 ) 0 
( 160.69 -58.3865 1174.94 ) 0 
( 49.7743 -461.311 1169.44 ) 0 
( 399.139 -256.582 1197.42 ) 0 
( 463.341 -172.637 1115 ) 0 
( 69.9098 -97.4639 1218.89 ) 0 
( 251.885 -351.229 1140.85 ) 0 
( 122.199 -146.562 1143.27 ) 0 
( 95.5993 -472.283 1081.02 ) 0 
( 300.137 -279.4 1195.21 ) 0 
( 416.307 -72.6038 1167.62 ) 0 
( 170.973 -342.119 1202.66 ) 0 
( 339.175 -131.001 1192.93 ) 0 
( 365.553 -478.852 1166.4 ) 0 
( 75.7068 -298.097 1192.73 ) 0 
( 342.415 -209.737 1126.5 ) 0 
)
