/*--------------------------------*- C++ -*----------------------------------*\
  =========                 |
  \\      /  F ield         | OpenFOAM: The Open Source CFD Toolbox
   \\    /   O peration     | Website:  https://openfoam.org
    \\  /    A nd           | Version:  9
     \\/     M anipulation  |
\*---------------------------------------------------------------------------*/
FoamFile
{
    format      ascii;
    class       volVectorField;
    location    "200";
    object      stored_U;
}
// * * * * * * * * * * * * * * * * * * * * * * * * * * * * * * * * * * * * * //

dimensions      [0 1 -1 0 0 0 0];

internalField   nonuniform List<vector> 
360
(
(1.09255e-09 -1.17027e-09 -0.000999998)
(1.09254e-09 -9.90714e-10 -0.000999982)
(1.27252e-09 -1.17064e-09 -0.00100002)
(1.27209e-09 -9.90717e-10 -0.000999996)
(2.62815e-09 -2.9465e-09 -0.000999998)
(2.62814e-09 -2.38987e-09 -0.000999981)
(3.18565e-09 -2.94727e-09 -0.00100002)
(3.18477e-09 -2.38988e-09 -0.000999996)
(4.34854e-09 -4.94523e-09 -0.000999998)
(4.34853e-09 -3.95609e-09 -0.00099998)
(5.3363e-09 -4.94403e-09 -0.00100002)
(5.33765e-09 -3.95609e-09 -0.000999996)
(6.23954e-09 -7.18884e-09 -0.000999999)
(6.23945e-09 -5.67774e-09 -0.000999978)
(7.75024e-09 -7.18854e-09 -0.00100002)
(7.75038e-09 -5.67774e-09 -0.000999997)
(8.36347e-09 -9.7942e-09 -0.000999999)
(8.36314e-09 -7.61111e-09 -0.000999976)
(1.05453e-08 -9.79323e-09 -0.00100003)
(1.05455e-08 -7.61109e-09 -0.000999997)
(1.07886e-08 -1.29037e-08 -0.000999999)
(1.07887e-08 -9.8188e-09 -0.000999973)
(1.38727e-08 -1.29028e-08 -0.00100003)
(1.38735e-08 -9.81874e-09 -0.000999997)
(1.35906e-08 -1.6691e-08 -0.000999999)
(1.35909e-08 -1.23685e-08 -0.000999969)
(1.79154e-08 -1.6693e-08 -0.00100004)
(1.79143e-08 -1.23686e-08 -0.000999997)
(1.68505e-08 -2.13817e-08 -0.000999999)
(1.68505e-08 -1.53336e-08 -0.000999964)
(2.28988e-08 -2.13819e-08 -0.00100005)
(2.28987e-08 -1.53337e-08 -0.000999996)
(2.06546e-08 -2.72416e-08 -0.000999998)
(2.06545e-08 -1.87931e-08 -0.000999957)
(2.91031e-08 -2.72417e-08 -0.00100006)
(2.91031e-08 -1.87931e-08 -0.000999994)
(2.5096e-08 -3.46135e-08 -0.000999996)
(2.5096e-08 -2.2831e-08 -0.000999948)
(3.68786e-08 -3.46136e-08 -0.00100008)
(3.68785e-08 -2.2831e-08 -0.000999992)
(3.02732e-08 -4.3928e-08 -0.000999993)
(3.02732e-08 -2.75362e-08 -0.000999937)
(4.66651e-08 -4.39281e-08 -0.0010001)
(4.66649e-08 -2.75362e-08 -0.000999988)
(3.62861e-08 -5.57303e-08 -0.000999988)
(3.6286e-08 -3.29986e-08 -0.000999923)
(5.90179e-08 -5.57305e-08 -0.00100012)
(5.90177e-08 -3.29987e-08 -0.000999982)
(4.32287e-08 -7.07161e-08 -0.000999982)
(4.32286e-08 -3.93026e-08 -0.000999906)
(7.46424e-08 -7.07164e-08 -0.00100015)
(7.46421e-08 -3.93027e-08 -0.000999975)
(5.11765e-08 -8.97774e-08 -0.000999972)
(5.11764e-08 -4.65146e-08 -0.000999887)
(9.44397e-08 -8.97778e-08 -0.00100019)
(9.44392e-08 -4.65147e-08 -0.000999964)
(6.01652e-08 -1.14065e-07 -0.000999959)
(6.0165e-08 -5.46634e-08 -0.000999863)
(1.19567e-07 -1.14065e-07 -0.00100024)
(1.19566e-07 -5.46635e-08 -0.00099995)
(7.0158e-08 -1.45068e-07 -0.000999942)
(7.01577e-08 -6.37093e-08 -0.000999836)
(1.51518e-07 -1.45069e-07 -0.0010003)
(1.51517e-07 -6.37096e-08 -0.000999932)
(8.09966e-08 -1.84727e-07 -0.000999918)
(8.09961e-08 -7.34983e-08 -0.000999806)
(1.92227e-07 -1.84729e-07 -0.00100037)
(1.92224e-07 -7.34988e-08 -0.000999907)
(9.23293e-08 -2.35569e-07 -0.000999886)
(9.23284e-08 -8.36941e-08 -0.000999772)
(2.44207e-07 -2.35573e-07 -0.00100047)
(2.44204e-07 -8.36948e-08 -0.000999874)
(1.03509e-07 -3.00904e-07 -0.000999842)
(1.03508e-07 -9.36795e-08 -0.000999734)
(3.10738e-07 -3.00909e-07 -0.00100059)
(3.10732e-07 -9.36807e-08 -0.000999829)
(1.13449e-07 -3.8506e-07 -0.000999782)
(1.13447e-07 -1.02408e-07 -0.000999695)
(3.9611e-07 -3.8507e-07 -0.00100075)
(3.96099e-07 -1.0241e-07 -0.000999769)
(1.20437e-07 -4.93705e-07 -0.0009997)
(1.20434e-07 -1.08202e-07 -0.000999656)
(5.05954e-07 -4.93721e-07 -0.00100095)
(5.05937e-07 -1.08205e-07 -0.000999688)
(1.21975e-07 -6.34234e-07 -0.000999591)
(1.21969e-07 -1.08597e-07 -0.000999618)
(6.47635e-07 -6.3426e-07 -0.00100121)
(6.47605e-07 -1.08603e-07 -0.000999579)
(1.14613e-07 -8.16266e-07 -0.000999443)
(1.14602e-07 -1.00182e-07 -0.000999583)
(8.30733e-07 -8.1631e-07 -0.00100155)
(8.30684e-07 -1.00193e-07 -0.000999432)
(9.37225e-08 -1.05227e-06 -0.000999247)
(9.37022e-08 -7.83097e-08 -0.000999552)
(1.06774e-06 -1.05234e-06 -0.00100197)
(1.06766e-06 -7.83297e-08 -0.000999235)
(5.32146e-08 -1.35834e-06 -0.000998984)
(5.31774e-08 -3.6705e-08 -0.000999532)
(1.37495e-06 -1.35847e-06 -0.00100253)
(1.37481e-06 -3.67427e-08 -0.000998972)
(-1.60705e-08 -1.7559e-06 -0.00099863)
(-1.614e-08 3.35532e-08 -0.000999534)
(1.77355e-06 -1.75613e-06 -0.00100323)
(1.77331e-06 3.34819e-08 -0.00099862)
(-1.27575e-07 -2.27317e-06 -0.000998148)
(-1.27704e-07 1.4584e-07 -0.000999581)
(2.29171e-06 -2.27356e-06 -0.00100415)
(2.29129e-06 1.45706e-07 -0.000998143)
(-3.01951e-07 -2.94799e-06 -0.000997494)
(-3.02192e-07 3.20262e-07 -0.0009997)
(2.96675e-06 -2.94865e-06 -0.00100533)
(2.96602e-06 3.20007e-07 -0.000997499)
(-5.67566e-07 -3.8301e-06 -0.000996606)
(-5.68018e-07 5.84596e-07 -0.000999928)
(3.84788e-06 -3.83126e-06 -0.00100686)
(3.84661e-06 5.84114e-07 -0.000996629)
(-9.63743e-07 -4.98518e-06 -0.000995406)
(-9.64593e-07 9.77429e-07 -0.00100032)
(5.00013e-06 -4.98723e-06 -0.00100885)
(4.9979e-06 9.7652e-07 -0.000995456)
(-1.54496e-06 -6.50011e-06 -0.000993785)
(-1.54657e-06 1.55232e-06 -0.00100094)
(6.5096e-06 -6.50376e-06 -0.00101144)
(6.50567e-06 1.55061e-06 -0.000993875)
(-2.38648e-06 -8.48993e-06 -0.000991597)
(-2.38952e-06 2.38342e-06 -0.00100189)
(8.49046e-06 -8.49644e-06 -0.00101481)
(8.4835e-06 2.38019e-06 -0.000991744)
(-3.59212e-06 -1.11073e-05 -0.000988645)
(-3.59795e-06 3.57322e-06 -0.00100333)
(1.10945e-05 -1.11191e-05 -0.00101921)
(1.10821e-05 3.56708e-06 -0.000988874)
(-5.30507e-06 -1.45559e-05 -0.000984614)
(-5.31678e-06 5.26366e-06 -0.00100538)
(1.45249e-05 -1.45778e-05 -0.00102489)
(1.45036e-05 5.25231e-06 -0.000984965)
(-7.72904e-06 -1.9122e-05 -0.000978903)
(-7.74606e-06 7.65e-06 -0.00100786)
(1.9053e-05 -1.91489e-05 -0.00103172)
(1.90733e-05 7.65863e-06 -0.000979231)
(-1.10315e-05 -2.50011e-05 -0.000972462)
(-1.11484e-05 1.10194e-05 -0.00101196)
(2.50592e-05 -2.51892e-05 -0.00104087)
(2.48202e-05 1.08725e-05 -0.000972523)
(-1.57017e-05 -3.29106e-05 -0.000979644)
(-1.58133e-05 1.57076e-05 -0.00104117)
(3.30697e-05 -3.31755e-05 -0.00107936)
(3.28393e-05 1.56159e-05 -0.000982267)
(-2.29531e-05 -4.42719e-05 -0.00102264)
(-2.29795e-05 2.2428e-05 -0.00115981)
(4.36824e-05 -4.42516e-05 -0.00122523)
(4.36868e-05 2.23761e-05 -0.00105496)
(-3.97177e-05 -6.74761e-05 -0.000477662)
(-3.91945e-05 3.37779e-05 -0.000400198)
(6.07794e-05 -6.62253e-05 -0.000390522)
(6.17969e-05 3.4045e-05 -0.000406233)
(2.51316e-05 2.72734e-05 -0.001947)
(2.52562e-05 -5.03158e-06 -0.0025208)
(-7.62186e-06 2.69608e-05 -0.00272066)
(-6.71508e-06 -4.54706e-06 -0.00209146)
(-9.40942e-06 -9.78267e-06 -0.00169121)
(-4.74621e-06 4.31568e-06 -0.00121913)
(2.60362e-06 -6.99204e-06 -0.0013354)
(4.52817e-06 4.72887e-06 -0.00156547)
(-3.63442e-05 -6.49642e-05 -0.00155624)
(-6.5264e-05 2.44112e-05 -0.00294802)
(6.38869e-05 -0.00010592 -0.00293638)
(3.91225e-05 1.31281e-05 -0.00166308)
(-2.7456e-05 -5.2125e-05 -0.00240355)
(-2.54139e-05 2.64633e-05 -0.00193375)
(5.25761e-05 -5.29825e-05 -0.00234761)
(5.90319e-05 3.54362e-05 -0.00281169)
(-6.8903e-05 -4.76199e-05 -0.002167)
(-8.70592e-05 3.33421e-05 -0.00316099)
(1.18656e-05 -6.82487e-05 -0.00316041)
(-2.57325e-06 1.46005e-05 -0.00164371)
(-8.83861e-05 -6.12115e-05 -0.00242003)
(-8.51226e-05 -3.04155e-05 -0.00226984)
(-5.8226e-05 -5.94063e-05 -0.00219997)
(-6.32592e-05 -3.19564e-05 -0.00265977)
(-5.25531e-05 -1.56456e-05 -0.00184769)
(-8.73231e-05 -7.05981e-06 -0.00322118)
(-7.76861e-05 -3.05057e-05 -0.00319571)
(-5.78601e-05 -3.53971e-06 -0.00206733)
(-6.39364e-05 4.81941e-05 -0.00258886)
(-5.75193e-05 5.80528e-05 -0.00198936)
(-5.24615e-05 5.6019e-05 -0.00228557)
(-5.48588e-05 9.0467e-05 -0.00248008)
(-2.24809e-05 8.27166e-05 -0.00179836)
(-2.28639e-05 0.000142019 -0.00327248)
(-6.72186e-05 0.00017183 -0.00330606)
(-4.82973e-05 7.99601e-05 -0.00202464)
(1.30595e-05 0.000107307 -0.0023034)
(1.96003e-05 4.51409e-05 -0.00239791)
(-4.24257e-05 6.64861e-05 -0.00189623)
(-4.6715e-05 3.78755e-05 -0.00261397)
(-4.89433e-05 3.75347e-06 -0.00245177)
(-5.1847e-05 -9.19837e-06 -0.0025562)
(-9.16641e-05 -8.41675e-07 -0.0031125)
(-5.32421e-05 -8.54362e-06 -0.00169859)
(-1.58069e-06 1.04477e-05 -0.0013639)
(-1.71803e-05 -5.42323e-05 -0.00288)
(-0.000103786 -1.55831e-06 -0.00239905)
(-7.65058e-05 -3.77097e-05 -0.0025931)
(1.31337e-05 -4.26067e-06 -0.00190592)
(-1.77224e-07 -4.8481e-05 -0.00146049)
(-4.52804e-06 0.000108367 -0.00183772)
(-9.50275e-06 3.3727e-05 -0.00125488)
(7.55974e-05 -2.61017e-06 -0.00173869)
(3.48341e-05 3.48695e-05 -0.00242895)
(-4.19419e-05 3.93304e-05 -0.00212548)
(4.39008e-05 3.4849e-05 -0.00190964)
(4.85462e-05 -8.34719e-06 -0.00108984)
(8.42487e-05 -3.43278e-05 -0.00109694)
(-4.16579e-05 3.05028e-05 -0.00139364)
(-2.8152e-05 -1.40323e-05 -0.00104873)
(5.83694e-05 3.10865e-05 -0.000900496)
(6.0937e-05 -4.51521e-05 -0.00106352)
(-2.61891e-05 3.3563e-05 -0.000981563)
(-2.68494e-05 -4.3908e-05 -0.000942582)
(4.4457e-05 2.62131e-05 -0.000935035)
(4.43773e-05 -3.43744e-05 -0.00106423)
(-1.67421e-05 2.63934e-05 -0.00101441)
(-1.66724e-05 -3.44522e-05 -0.000956497)
(3.35728e-05 1.93884e-05 -0.000956415)
(3.34781e-05 -2.54087e-05 -0.00105193)
(-1.12697e-05 1.93332e-05 -0.00101719)
(-1.13144e-05 -2.54838e-05 -0.00097314)
(2.5434e-05 1.42609e-05 -0.000967658)
(2.53798e-05 -1.87848e-05 -0.00103926)
(-7.62994e-06 1.42265e-05 -0.00101235)
(-7.65105e-06 -1.88211e-05 -0.000981265)
(1.93042e-05 1.05049e-05 -0.000975583)
(1.92737e-05 -1.38819e-05 -0.00102959)
(-5.0931e-06 1.0486e-05 -0.00100834)
(-5.10385e-06 -1.39012e-05 -0.000986688)
(1.46792e-05 7.75155e-06 -0.000981559)
(1.4662e-05 -1.02509e-05 -0.00102235)
(-3.32936e-06 7.74113e-06 -0.0010056)
(-3.33494e-06 -1.02613e-05 -0.000990609)
(1.11843e-05 5.73109e-06 -0.000986051)
(1.11745e-05 -7.56339e-06 -0.00101691)
(-2.11372e-06 5.72534e-06 -0.00100371)
(-2.11663e-06 -7.56899e-06 -0.000993434)
(8.5388e-06 4.24682e-06 -0.000989423)
(8.53325e-06 -5.57538e-06 -0.00101281)
(-1.28546e-06 4.24363e-06 -0.00100241)
(-1.28697e-06 -5.5784e-06 -0.000995454)
(6.53248e-06 3.15473e-06 -0.000991957)
(6.52931e-06 -4.10562e-06 -0.00100971)
(-7.2907e-07 3.15296e-06 -0.00100153)
(-7.2979e-07 -4.10716e-06 -0.000996889)
(5.00792e-06 2.34959e-06 -0.000993866)
(5.0061e-06 -3.01968e-06 -0.00100737)
(-3.62047e-07 2.3486e-06 -0.00100093)
(-3.6256e-07 -3.02069e-06 -0.000997903)
(3.84713e-06 1.75463e-06 -0.000995308)
(3.84608e-06 -2.21779e-06 -0.0010056)
(-1.25704e-07 1.75407e-06 -0.00100053)
(-1.25937e-07 -2.21829e-06 -0.000998614)
(2.96154e-06 1.31396e-06 -0.0009964)
(2.96094e-06 -1.62616e-06 -0.00100426)
(2.11875e-08 1.31365e-06 -0.00100028)
(2.10636e-08 -1.62642e-06 -0.00099911)
(2.2846e-06 9.8698e-07 -0.000997229)
(2.28424e-06 -1.19025e-06 -0.00100324)
(1.07225e-07 9.86797e-07 -0.00100011)
(1.07156e-07 -1.1904e-06 -0.00099945)
(1.76613e-06 7.43327e-07 -0.000997862)
(1.76592e-06 -8.69025e-07 -0.00100247)
(1.53693e-07 7.43222e-07 -0.00100001)
(1.53654e-07 -8.69105e-07 -0.00099968)
(1.36825e-06 5.61407e-07 -0.000998345)
(1.36812e-06 -6.32699e-07 -0.00100189)
(1.74093e-07 5.61346e-07 -0.000999953)
(1.74071e-07 -6.32742e-07 -0.000999834)
(1.0623e-06 4.25174e-07 -0.000998716)
(1.06222e-06 -4.59046e-07 -0.00100144)
(1.78049e-07 4.25138e-07 -0.000999921)
(1.78036e-07 -4.59069e-07 -0.000999935)
(8.26542e-07 3.22955e-07 -0.000999001)
(8.26499e-07 -3.31736e-07 -0.0010011)
(1.71835e-07 3.22933e-07 -0.000999906)
(1.71827e-07 -3.31749e-07 -0.001)
(6.4449e-07 2.46046e-07 -0.00099922)
(6.44464e-07 -2.38596e-07 -0.00100085)
(1.59838e-07 2.46033e-07 -0.000999903)
(1.59833e-07 -2.38604e-07 -0.00100004)
(5.03602e-07 1.88002e-07 -0.00099939)
(5.03586e-07 -1.70603e-07 -0.00100065)
(1.44991e-07 1.87994e-07 -0.000999906)
(1.44988e-07 -1.70607e-07 -0.00100006)
(3.94332e-07 1.44082e-07 -0.000999522)
(3.94323e-07 -1.21117e-07 -0.0010005)
(1.2913e-07 1.44077e-07 -0.000999912)
(1.29128e-07 -1.21119e-07 -0.00100007)
(3.09406e-07 1.1077e-07 -0.000999623)
(3.09401e-07 -8.52379e-08 -0.00100038)
(1.13396e-07 1.10768e-07 -0.00099992)
(1.13395e-07 -8.52392e-08 -0.00100008)
(2.4327e-07 8.54472e-08 -0.000999703)
(2.43267e-07 -5.93419e-08 -0.0010003)
(9.84799e-08 8.54456e-08 -0.000999928)
(9.8479e-08 -5.93427e-08 -0.00100007)
(1.91674e-07 6.61597e-08 -0.000999764)
(1.91672e-07 -4.07573e-08 -0.00100023)
(8.47567e-08 6.61587e-08 -0.000999937)
(8.47561e-08 -4.07578e-08 -0.00100007)
(1.51362e-07 5.14476e-08 -0.000999813)
(1.5136e-07 -2.75143e-08 -0.00100017)
(7.23993e-08 5.1447e-08 -0.000999944)
(7.23989e-08 -2.75146e-08 -0.00100006)
(1.19828e-07 4.02134e-08 -0.000999851)
(1.19827e-07 -1.81619e-08 -0.00100013)
(6.14526e-08 4.02131e-08 -0.000999951)
(6.14523e-08 -1.8162e-08 -0.00100005)
(9.51424e-08 3.16284e-08 -0.000999881)
(9.51419e-08 -1.16254e-08 -0.0010001)
(5.18884e-08 3.16282e-08 -0.000999958)
(5.18883e-08 -1.16255e-08 -0.00100005)
(7.58112e-08 2.5063e-08 -0.000999905)
(7.58109e-08 -7.11086e-09 -0.00100008)
(4.36373e-08 2.50628e-08 -0.000999964)
(4.36372e-08 -7.11093e-09 -0.00100004)
(6.06811e-08 2.00374e-08 -0.000999925)
(6.0681e-08 -4.0373e-09 -0.00100006)
(3.66064e-08 2.00373e-08 -0.00099997)
(3.66063e-08 -4.03733e-09 -0.00100004)
(4.88527e-08 1.61858e-08 -0.000999941)
(4.88526e-08 -1.96649e-09 -0.00100005)
(3.07003e-08 1.61855e-08 -0.000999975)
(3.07005e-08 -1.96642e-09 -0.00100003)
(3.96321e-08 1.32311e-08 -0.000999954)
(3.96318e-08 -5.84794e-10 -0.00100004)
(2.58159e-08 1.32304e-08 -0.00099998)
(2.58164e-08 -5.84495e-10 -0.00100002)
(3.24929e-08 1.09652e-08 -0.000999964)
(3.24931e-08 3.14769e-10 -0.00100003)
(2.18428e-08 1.0966e-08 -0.000999984)
(2.1842e-08 3.14354e-10 -0.00100002)
(2.70303e-08 9.23274e-09 -0.000999973)
(2.70303e-08 8.77657e-10 -0.00100002)
(1.86752e-08 9.23282e-09 -0.000999988)
(1.86751e-08 8.77593e-10 -0.00100002)
(2.2936e-08 7.91983e-09 -0.00099998)
(2.2936e-08 1.20841e-09 -0.00100002)
(1.62247e-08 7.91992e-09 -0.000999991)
(1.62248e-08 1.20869e-09 -0.00100001)
(1.99789e-08 6.93702e-09 -0.000999986)
(1.99791e-08 1.34902e-09 -0.00100001)
(1.43915e-08 6.93743e-09 -0.000999994)
(1.43909e-08 1.34962e-09 -0.00100001)
(1.79161e-08 6.18857e-09 -0.000999991)
(1.79158e-08 1.32436e-09 -0.00100001)
(1.30513e-08 6.18805e-09 -0.000999997)
(1.30518e-08 1.32369e-09 -0.00100001)
(1.6784e-08 5.83919e-09 -0.000999996)
(1.6784e-08 1.36629e-09 -0.001)
(1.2311e-08 5.8391e-09 -0.000999999)
(1.2311e-08 1.36613e-09 -0.001)
)
;

boundaryField
{
    inlet
    {
        type            calculated;
        value           nonuniform List<vector> 4((1.6784e-08 5.83919e-09 -0.000999996) (1.2311e-08 5.8391e-09 -0.000999999) (1.6784e-08 1.36629e-09 -0.001) (1.2311e-08 1.36613e-09 -0.001));
    }
    outlet
    {
        type            calculated;
        value           nonuniform List<vector> 4((1.09255e-09 -1.17027e-09 -0.000999998) (1.27252e-09 -1.17064e-09 -0.00100002) (1.09254e-09 -9.90714e-10 -0.000999982) (1.27209e-09 -9.90717e-10 -0.000999996));
    }
    repeat_boundary
    {
        type            calculated;
        value           nonuniform List<vector> 
720
(
(1.09255e-09 0 -0.000999998)
(2.62815e-09 0 -0.000999998)
(4.34854e-09 0 -0.000999998)
(6.23954e-09 0 -0.000999999)
(8.36347e-09 0 -0.000999999)
(1.07886e-08 0 -0.000999999)
(1.35906e-08 0 -0.000999999)
(1.68505e-08 0 -0.000999999)
(2.06546e-08 0 -0.000999998)
(2.5096e-08 0 -0.000999996)
(3.02732e-08 0 -0.000999993)
(3.62861e-08 0 -0.000999988)
(4.32287e-08 0 -0.000999982)
(5.11765e-08 0 -0.000999972)
(6.01652e-08 0 -0.000999959)
(7.0158e-08 0 -0.000999942)
(8.09966e-08 0 -0.000999918)
(9.23293e-08 0 -0.000999886)
(1.03509e-07 0 -0.000999842)
(1.13449e-07 0 -0.000999782)
(1.20437e-07 0 -0.0009997)
(1.21975e-07 0 -0.000999591)
(1.14613e-07 0 -0.000999443)
(9.37225e-08 0 -0.000999247)
(5.32146e-08 0 -0.000998984)
(-1.60705e-08 0 -0.00099863)
(-1.27575e-07 0 -0.000998148)
(-3.01951e-07 0 -0.000997494)
(-5.67566e-07 0 -0.000996606)
(-9.63743e-07 0 -0.000995406)
(-1.54496e-06 0 -0.000993785)
(-2.38648e-06 0 -0.000991597)
(-3.59212e-06 0 -0.000988645)
(-5.30507e-06 0 -0.000984614)
(-7.72904e-06 0 -0.000978903)
(-1.10315e-05 0 -0.000972462)
(-1.57017e-05 0 -0.000979644)
(-2.29531e-05 0 -0.00102264)
(-3.97177e-05 0 -0.000477662)
(2.51316e-05 0 -0.001947)
(-9.40942e-06 0 -0.00169121)
(-3.63442e-05 0 -0.00155624)
(-2.7456e-05 0 -0.00240355)
(-6.8903e-05 0 -0.002167)
(-8.83861e-05 0 -0.00242003)
(-5.25531e-05 0 -0.00184769)
(-6.39364e-05 0 -0.00258886)
(-2.24809e-05 0 -0.00179836)
(1.30595e-05 0 -0.0023034)
(-4.89433e-05 0 -0.00245177)
(-1.58069e-06 0 -0.0013639)
(1.31337e-05 0 -0.00190592)
(7.55974e-05 0 -0.00173869)
(4.85462e-05 0 -0.00108984)
(5.83694e-05 0 -0.000900496)
(4.4457e-05 0 -0.000935035)
(3.35728e-05 0 -0.000956415)
(2.5434e-05 0 -0.000967658)
(1.93042e-05 0 -0.000975583)
(1.46792e-05 0 -0.000981559)
(1.11843e-05 0 -0.000986051)
(8.5388e-06 0 -0.000989423)
(6.53248e-06 0 -0.000991957)
(5.00792e-06 0 -0.000993866)
(3.84713e-06 0 -0.000995308)
(2.96154e-06 0 -0.0009964)
(2.2846e-06 0 -0.000997229)
(1.76613e-06 0 -0.000997862)
(1.36825e-06 0 -0.000998345)
(1.0623e-06 0 -0.000998716)
(8.26542e-07 0 -0.000999001)
(6.4449e-07 0 -0.00099922)
(5.03602e-07 0 -0.00099939)
(3.94332e-07 0 -0.000999522)
(3.09406e-07 0 -0.000999623)
(2.4327e-07 0 -0.000999703)
(1.91674e-07 0 -0.000999764)
(1.51362e-07 0 -0.000999813)
(1.19828e-07 0 -0.000999851)
(9.51424e-08 0 -0.000999881)
(7.58112e-08 0 -0.000999905)
(6.06811e-08 0 -0.000999925)
(4.88527e-08 0 -0.000999941)
(3.96321e-08 0 -0.000999954)
(3.24929e-08 0 -0.000999964)
(2.70303e-08 0 -0.000999973)
(2.2936e-08 0 -0.00099998)
(1.99789e-08 0 -0.000999986)
(1.79161e-08 0 -0.000999991)
(1.6784e-08 0 -0.000999996)
(1.09254e-09 0 -0.000999982)
(2.62814e-09 0 -0.000999981)
(4.34853e-09 0 -0.00099998)
(6.23945e-09 0 -0.000999978)
(8.36314e-09 0 -0.000999976)
(1.07887e-08 0 -0.000999973)
(1.35909e-08 0 -0.000999969)
(1.68505e-08 0 -0.000999964)
(2.06545e-08 0 -0.000999957)
(2.5096e-08 0 -0.000999948)
(3.02732e-08 0 -0.000999937)
(3.6286e-08 0 -0.000999923)
(4.32286e-08 0 -0.000999906)
(5.11764e-08 0 -0.000999887)
(6.0165e-08 0 -0.000999863)
(7.01577e-08 0 -0.000999836)
(8.09961e-08 0 -0.000999806)
(9.23284e-08 0 -0.000999772)
(1.03508e-07 0 -0.000999734)
(1.13447e-07 0 -0.000999695)
(1.20434e-07 0 -0.000999656)
(1.21969e-07 0 -0.000999618)
(1.14602e-07 0 -0.000999583)
(9.37022e-08 0 -0.000999552)
(5.31774e-08 0 -0.000999532)
(-1.614e-08 0 -0.000999534)
(-1.27704e-07 0 -0.000999581)
(-3.02192e-07 0 -0.0009997)
(-5.68018e-07 0 -0.000999928)
(-9.64593e-07 0 -0.00100032)
(-1.54657e-06 0 -0.00100094)
(-2.38952e-06 0 -0.00100189)
(-3.59795e-06 0 -0.00100333)
(-5.31678e-06 0 -0.00100538)
(-7.74606e-06 0 -0.00100786)
(-1.11484e-05 0 -0.00101196)
(-1.58133e-05 0 -0.00104117)
(-2.29795e-05 0 -0.00115981)
(-3.91945e-05 0 -0.000400198)
(2.52562e-05 0 -0.0025208)
(-4.74621e-06 0 -0.00121913)
(-6.5264e-05 0 -0.00294802)
(-2.54139e-05 0 -0.00193375)
(-8.70592e-05 0 -0.00316099)
(-8.51226e-05 0 -0.00226984)
(-8.73231e-05 0 -0.00322118)
(-5.75193e-05 0 -0.00198936)
(-2.28639e-05 0 -0.00327248)
(1.96003e-05 0 -0.00239791)
(-5.1847e-05 0 -0.0025562)
(-1.71803e-05 0 -0.00288)
(-1.77224e-07 0 -0.00146049)
(3.48341e-05 0 -0.00242895)
(8.42487e-05 0 -0.00109694)
(6.0937e-05 0 -0.00106352)
(4.43773e-05 0 -0.00106423)
(3.34781e-05 0 -0.00105193)
(2.53798e-05 0 -0.00103926)
(1.92737e-05 0 -0.00102959)
(1.4662e-05 0 -0.00102235)
(1.11745e-05 0 -0.00101691)
(8.53325e-06 0 -0.00101281)
(6.52931e-06 0 -0.00100971)
(5.0061e-06 0 -0.00100737)
(3.84608e-06 0 -0.0010056)
(2.96094e-06 0 -0.00100426)
(2.28424e-06 0 -0.00100324)
(1.76592e-06 0 -0.00100247)
(1.36812e-06 0 -0.00100189)
(1.06222e-06 0 -0.00100144)
(8.26499e-07 0 -0.0010011)
(6.44464e-07 0 -0.00100085)
(5.03586e-07 0 -0.00100065)
(3.94323e-07 0 -0.0010005)
(3.09401e-07 0 -0.00100038)
(2.43267e-07 0 -0.0010003)
(1.91672e-07 0 -0.00100023)
(1.5136e-07 0 -0.00100017)
(1.19827e-07 0 -0.00100013)
(9.51419e-08 0 -0.0010001)
(7.58109e-08 0 -0.00100008)
(6.0681e-08 0 -0.00100006)
(4.88526e-08 0 -0.00100005)
(3.96318e-08 0 -0.00100004)
(3.24931e-08 0 -0.00100003)
(2.70303e-08 0 -0.00100002)
(2.2936e-08 0 -0.00100002)
(1.99791e-08 0 -0.00100001)
(1.79158e-08 0 -0.00100001)
(1.6784e-08 0 -0.001)
(0 -9.90714e-10 -0.000999982)
(0 -9.90717e-10 -0.000999996)
(0 -2.38987e-09 -0.000999981)
(0 -2.38988e-09 -0.000999996)
(0 -3.95609e-09 -0.00099998)
(0 -3.95609e-09 -0.000999996)
(0 -5.67774e-09 -0.000999978)
(0 -5.67774e-09 -0.000999997)
(0 -7.61111e-09 -0.000999976)
(0 -7.61109e-09 -0.000999997)
(0 -9.8188e-09 -0.000999973)
(0 -9.81874e-09 -0.000999997)
(0 -1.23685e-08 -0.000999969)
(0 -1.23686e-08 -0.000999997)
(0 -1.53336e-08 -0.000999964)
(0 -1.53337e-08 -0.000999996)
(0 -1.87931e-08 -0.000999957)
(0 -1.87931e-08 -0.000999994)
(0 -2.2831e-08 -0.000999948)
(0 -2.2831e-08 -0.000999992)
(0 -2.75362e-08 -0.000999937)
(0 -2.75362e-08 -0.000999988)
(0 -3.29986e-08 -0.000999923)
(0 -3.29987e-08 -0.000999982)
(0 -3.93026e-08 -0.000999906)
(0 -3.93027e-08 -0.000999975)
(0 -4.65146e-08 -0.000999887)
(0 -4.65147e-08 -0.000999964)
(0 -5.46634e-08 -0.000999863)
(0 -5.46635e-08 -0.00099995)
(0 -6.37093e-08 -0.000999836)
(0 -6.37096e-08 -0.000999932)
(0 -7.34983e-08 -0.000999806)
(0 -7.34988e-08 -0.000999907)
(0 -8.36941e-08 -0.000999772)
(0 -8.36948e-08 -0.000999874)
(0 -9.36795e-08 -0.000999734)
(0 -9.36807e-08 -0.000999829)
(0 -1.02408e-07 -0.000999695)
(0 -1.0241e-07 -0.000999769)
(0 -1.08202e-07 -0.000999656)
(0 -1.08205e-07 -0.000999688)
(0 -1.08597e-07 -0.000999618)
(0 -1.08603e-07 -0.000999579)
(0 -1.00182e-07 -0.000999583)
(0 -1.00193e-07 -0.000999432)
(0 -7.83097e-08 -0.000999552)
(0 -7.83297e-08 -0.000999235)
(0 -3.6705e-08 -0.000999532)
(0 -3.67427e-08 -0.000998972)
(0 3.35532e-08 -0.000999534)
(0 3.34819e-08 -0.00099862)
(0 1.4584e-07 -0.000999581)
(0 1.45706e-07 -0.000998143)
(0 3.20262e-07 -0.0009997)
(0 3.20007e-07 -0.000997499)
(0 5.84596e-07 -0.000999928)
(0 5.84114e-07 -0.000996629)
(0 9.77429e-07 -0.00100032)
(0 9.7652e-07 -0.000995456)
(0 1.55232e-06 -0.00100094)
(0 1.55061e-06 -0.000993875)
(0 2.38342e-06 -0.00100189)
(0 2.38019e-06 -0.000991744)
(0 3.57322e-06 -0.00100333)
(0 3.56708e-06 -0.000988874)
(0 5.26366e-06 -0.00100538)
(0 5.25231e-06 -0.000984965)
(0 7.65e-06 -0.00100786)
(0 7.65863e-06 -0.000979231)
(0 1.10194e-05 -0.00101196)
(0 1.08725e-05 -0.000972523)
(0 1.57076e-05 -0.00104117)
(0 1.56159e-05 -0.000982267)
(0 2.2428e-05 -0.00115981)
(0 2.23761e-05 -0.00105496)
(0 3.37779e-05 -0.000400198)
(0 3.4045e-05 -0.000406233)
(0 -5.03158e-06 -0.0025208)
(0 -4.54706e-06 -0.00209146)
(0 4.31568e-06 -0.00121913)
(0 4.72887e-06 -0.00156547)
(0 2.44112e-05 -0.00294802)
(0 1.31281e-05 -0.00166308)
(0 2.64633e-05 -0.00193375)
(0 3.54362e-05 -0.00281169)
(0 3.33421e-05 -0.00316099)
(0 1.46005e-05 -0.00164371)
(0 -3.04155e-05 -0.00226984)
(0 -3.19564e-05 -0.00265977)
(0 -7.05981e-06 -0.00322118)
(0 -3.53971e-06 -0.00206733)
(0 5.80528e-05 -0.00198936)
(0 9.0467e-05 -0.00248008)
(0 0.000142019 -0.00327248)
(0 7.99601e-05 -0.00202464)
(0 4.51409e-05 -0.00239791)
(0 3.78755e-05 -0.00261397)
(0 -9.19837e-06 -0.0025562)
(0 -8.54362e-06 -0.00169859)
(0 -5.42323e-05 -0.00288)
(0 -3.77097e-05 -0.0025931)
(0 -4.8481e-05 -0.00146049)
(0 3.3727e-05 -0.00125488)
(0 3.48695e-05 -0.00242895)
(0 3.4849e-05 -0.00190964)
(0 -3.43278e-05 -0.00109694)
(0 -1.40323e-05 -0.00104873)
(0 -4.51521e-05 -0.00106352)
(0 -4.3908e-05 -0.000942582)
(0 -3.43744e-05 -0.00106423)
(0 -3.44522e-05 -0.000956497)
(0 -2.54087e-05 -0.00105193)
(0 -2.54838e-05 -0.00097314)
(0 -1.87848e-05 -0.00103926)
(0 -1.88211e-05 -0.000981265)
(0 -1.38819e-05 -0.00102959)
(0 -1.39012e-05 -0.000986688)
(0 -1.02509e-05 -0.00102235)
(0 -1.02613e-05 -0.000990609)
(0 -7.56339e-06 -0.00101691)
(0 -7.56899e-06 -0.000993434)
(0 -5.57538e-06 -0.00101281)
(0 -5.5784e-06 -0.000995454)
(0 -4.10562e-06 -0.00100971)
(0 -4.10716e-06 -0.000996889)
(0 -3.01968e-06 -0.00100737)
(0 -3.02069e-06 -0.000997903)
(0 -2.21779e-06 -0.0010056)
(0 -2.21829e-06 -0.000998614)
(0 -1.62616e-06 -0.00100426)
(0 -1.62642e-06 -0.00099911)
(0 -1.19025e-06 -0.00100324)
(0 -1.1904e-06 -0.00099945)
(0 -8.69025e-07 -0.00100247)
(0 -8.69105e-07 -0.00099968)
(0 -6.32699e-07 -0.00100189)
(0 -6.32742e-07 -0.000999834)
(0 -4.59046e-07 -0.00100144)
(0 -4.59069e-07 -0.000999935)
(0 -3.31736e-07 -0.0010011)
(0 -3.31749e-07 -0.001)
(0 -2.38596e-07 -0.00100085)
(0 -2.38604e-07 -0.00100004)
(0 -1.70603e-07 -0.00100065)
(0 -1.70607e-07 -0.00100006)
(0 -1.21117e-07 -0.0010005)
(0 -1.21119e-07 -0.00100007)
(0 -8.52379e-08 -0.00100038)
(0 -8.52392e-08 -0.00100008)
(0 -5.93419e-08 -0.0010003)
(0 -5.93427e-08 -0.00100007)
(0 -4.07573e-08 -0.00100023)
(0 -4.07578e-08 -0.00100007)
(0 -2.75143e-08 -0.00100017)
(0 -2.75146e-08 -0.00100006)
(0 -1.81619e-08 -0.00100013)
(0 -1.8162e-08 -0.00100005)
(0 -1.16254e-08 -0.0010001)
(0 -1.16255e-08 -0.00100005)
(0 -7.11086e-09 -0.00100008)
(0 -7.11093e-09 -0.00100004)
(0 -4.0373e-09 -0.00100006)
(0 -4.03733e-09 -0.00100004)
(0 -1.96649e-09 -0.00100005)
(0 -1.96642e-09 -0.00100003)
(0 -5.84794e-10 -0.00100004)
(0 -5.84495e-10 -0.00100002)
(0 3.14769e-10 -0.00100003)
(0 3.14354e-10 -0.00100002)
(0 8.77657e-10 -0.00100002)
(0 8.77593e-10 -0.00100002)
(0 1.20841e-09 -0.00100002)
(0 1.20869e-09 -0.00100001)
(0 1.34902e-09 -0.00100001)
(0 1.34962e-09 -0.00100001)
(0 1.32436e-09 -0.00100001)
(0 1.32369e-09 -0.00100001)
(0 1.36629e-09 -0.001)
(0 1.36613e-09 -0.001)
(1.27252e-09 0 -0.00100002)
(3.18565e-09 0 -0.00100002)
(5.3363e-09 0 -0.00100002)
(7.75024e-09 0 -0.00100002)
(1.05453e-08 0 -0.00100003)
(1.38727e-08 0 -0.00100003)
(1.79154e-08 0 -0.00100004)
(2.28988e-08 0 -0.00100005)
(2.91031e-08 0 -0.00100006)
(3.68786e-08 0 -0.00100008)
(4.66651e-08 0 -0.0010001)
(5.90179e-08 0 -0.00100012)
(7.46424e-08 0 -0.00100015)
(9.44397e-08 0 -0.00100019)
(1.19567e-07 0 -0.00100024)
(1.51518e-07 0 -0.0010003)
(1.92227e-07 0 -0.00100037)
(2.44207e-07 0 -0.00100047)
(3.10738e-07 0 -0.00100059)
(3.9611e-07 0 -0.00100075)
(5.05954e-07 0 -0.00100095)
(6.47635e-07 0 -0.00100121)
(8.30733e-07 0 -0.00100155)
(1.06774e-06 0 -0.00100197)
(1.37495e-06 0 -0.00100253)
(1.77355e-06 0 -0.00100323)
(2.29171e-06 0 -0.00100415)
(2.96675e-06 0 -0.00100533)
(3.84788e-06 0 -0.00100686)
(5.00013e-06 0 -0.00100885)
(6.5096e-06 0 -0.00101144)
(8.49046e-06 0 -0.00101481)
(1.10945e-05 0 -0.00101921)
(1.45249e-05 0 -0.00102489)
(1.9053e-05 0 -0.00103172)
(2.50592e-05 0 -0.00104087)
(3.30697e-05 0 -0.00107936)
(4.36824e-05 0 -0.00122523)
(6.07794e-05 0 -0.000390522)
(-7.62186e-06 0 -0.00272066)
(2.60362e-06 0 -0.0013354)
(6.38869e-05 0 -0.00293638)
(5.25761e-05 0 -0.00234761)
(1.18656e-05 0 -0.00316041)
(-5.8226e-05 0 -0.00219997)
(-7.76861e-05 0 -0.00319571)
(-5.24615e-05 0 -0.00228557)
(-6.72186e-05 0 -0.00330606)
(-4.24257e-05 0 -0.00189623)
(-9.16641e-05 0 -0.0031125)
(-0.000103786 0 -0.00239905)
(-4.52804e-06 0 -0.00183772)
(-4.19419e-05 0 -0.00212548)
(-4.16579e-05 0 -0.00139364)
(-2.61891e-05 0 -0.000981563)
(-1.67421e-05 0 -0.00101441)
(-1.12697e-05 0 -0.00101719)
(-7.62994e-06 0 -0.00101235)
(-5.0931e-06 0 -0.00100834)
(-3.32936e-06 0 -0.0010056)
(-2.11372e-06 0 -0.00100371)
(-1.28546e-06 0 -0.00100241)
(-7.2907e-07 0 -0.00100153)
(-3.62047e-07 0 -0.00100093)
(-1.25704e-07 0 -0.00100053)
(2.11875e-08 0 -0.00100028)
(1.07225e-07 0 -0.00100011)
(1.53693e-07 0 -0.00100001)
(1.74093e-07 0 -0.000999953)
(1.78049e-07 0 -0.000999921)
(1.71835e-07 0 -0.000999906)
(1.59838e-07 0 -0.000999903)
(1.44991e-07 0 -0.000999906)
(1.2913e-07 0 -0.000999912)
(1.13396e-07 0 -0.00099992)
(9.84799e-08 0 -0.000999928)
(8.47567e-08 0 -0.000999937)
(7.23993e-08 0 -0.000999944)
(6.14526e-08 0 -0.000999951)
(5.18884e-08 0 -0.000999958)
(4.36373e-08 0 -0.000999964)
(3.66064e-08 0 -0.00099997)
(3.07003e-08 0 -0.000999975)
(2.58159e-08 0 -0.00099998)
(2.18428e-08 0 -0.000999984)
(1.86752e-08 0 -0.000999988)
(1.62247e-08 0 -0.000999991)
(1.43915e-08 0 -0.000999994)
(1.30513e-08 0 -0.000999997)
(1.2311e-08 0 -0.000999999)
(1.27209e-09 0 -0.000999996)
(3.18477e-09 0 -0.000999996)
(5.33765e-09 0 -0.000999996)
(7.75038e-09 0 -0.000999997)
(1.05455e-08 0 -0.000999997)
(1.38735e-08 0 -0.000999997)
(1.79143e-08 0 -0.000999997)
(2.28987e-08 0 -0.000999996)
(2.91031e-08 0 -0.000999994)
(3.68785e-08 0 -0.000999992)
(4.66649e-08 0 -0.000999988)
(5.90177e-08 0 -0.000999982)
(7.46421e-08 0 -0.000999975)
(9.44392e-08 0 -0.000999964)
(1.19566e-07 0 -0.00099995)
(1.51517e-07 0 -0.000999932)
(1.92224e-07 0 -0.000999907)
(2.44204e-07 0 -0.000999874)
(3.10732e-07 0 -0.000999829)
(3.96099e-07 0 -0.000999769)
(5.05937e-07 0 -0.000999688)
(6.47605e-07 0 -0.000999579)
(8.30684e-07 0 -0.000999432)
(1.06766e-06 0 -0.000999235)
(1.37481e-06 0 -0.000998972)
(1.77331e-06 0 -0.00099862)
(2.29129e-06 0 -0.000998143)
(2.96602e-06 0 -0.000997499)
(3.84661e-06 0 -0.000996629)
(4.9979e-06 0 -0.000995456)
(6.50567e-06 0 -0.000993875)
(8.4835e-06 0 -0.000991744)
(1.10821e-05 0 -0.000988874)
(1.45036e-05 0 -0.000984965)
(1.90733e-05 0 -0.000979231)
(2.48202e-05 0 -0.000972523)
(3.28393e-05 0 -0.000982267)
(4.36868e-05 0 -0.00105496)
(6.17969e-05 0 -0.000406233)
(-6.71508e-06 0 -0.00209146)
(4.52817e-06 0 -0.00156547)
(3.91225e-05 0 -0.00166308)
(5.90319e-05 0 -0.00281169)
(-2.57325e-06 0 -0.00164371)
(-6.32592e-05 0 -0.00265977)
(-5.78601e-05 0 -0.00206733)
(-5.48588e-05 0 -0.00248008)
(-4.82973e-05 0 -0.00202464)
(-4.6715e-05 0 -0.00261397)
(-5.32421e-05 0 -0.00169859)
(-7.65058e-05 0 -0.0025931)
(-9.50275e-06 0 -0.00125488)
(4.39008e-05 0 -0.00190964)
(-2.8152e-05 0 -0.00104873)
(-2.68494e-05 0 -0.000942582)
(-1.66724e-05 0 -0.000956497)
(-1.13144e-05 0 -0.00097314)
(-7.65105e-06 0 -0.000981265)
(-5.10385e-06 0 -0.000986688)
(-3.33494e-06 0 -0.000990609)
(-2.11663e-06 0 -0.000993434)