/*--------------------------------*- C++ -*----------------------------------*\
| =========                 |                                                 |
| \\      /  F ield         | OpenFOAM: The Open Source CFD Toolbox           |
|  \\    /   O peration     | Version:  5.x                                   |
|   \\  /    A nd           | Web:      www.OpenFOAM.org                      |
|    \\/     M anipulation  |                                                 |
\*---------------------------------------------------------------------------*/
FoamFile
{
    version     2.0;
    format      ascii;
    class       volScalarField;
    location    "600";
    object      p;
}
// * * * * * * * * * * * * * * * * * * * * * * * * * * * * * * * * * * * * * //

dimensions      [0 2 -2 0 0 0 0];

internalField   nonuniform List<scalar> 
90
(
-4.2354e-11
-1.33159e-10
-2.39917e-10
-3.69828e-10
-5.2769e-10
-7.13544e-10
-9.21247e-10
-1.13729e-09
-1.34006e-09
-1.49985e-09
-1.57973e-09
-1.5374e-09
-1.32795e-09
-9.06931e-10
-2.33342e-10
7.2842e-10
2.00851e-09
3.63437e-09
5.63615e-09
8.0578e-09
1.09712e-08
1.44924e-08
1.88049e-08
2.42048e-08
3.11201e-08
4.01003e-08
5.19146e-08
6.75906e-08
8.84904e-08
1.16412e-07
1.53688e-07
2.03242e-07
2.69227e-07
3.60273e-07
4.92399e-07
6.64505e-07
7.2804e-07
4.5715e-07
4.67749e-06
-7.47605e-06
1.16757e-05
0.000551876
0.0012521
0.00211001
0.00315678
0.00398453
0.00470836
0.00543717
0.0062426
0.00719106
0.00792146
0.00848876
0.00859586
0.00859432
0.00859257
0.00859142
0.00859062
0.00859001
0.00858955
0.0085892
0.00858894
0.00858875
0.0085886
0.0085885
0.00858842
0.00858836
0.00858831
0.00858828
0.00858825
0.00858823
0.00858822
0.00858821
0.0085882
0.0085882
0.00858819
0.00858819
0.00858819
0.00858819
0.00858819
0.00858819
0.00858818
0.00858818
0.00858818
0.00858818
0.00858817
0.00858817
0.00858817
0.00858817
0.00858816
0.00858816
)
;

boundaryField
{
    inlet
    {
        type            zeroGradient;
    }
    outlet
    {
        type            fixedValue;
        value           uniform 0;
    }
    repeat_boundary
    {
        type            zeroGradient;
    }
    procBoundary3to1
    {
        type            processor;
        value           nonuniform List<scalar> 
90
(
7.43417e-12
1.26045e-11
-6.89864e-12
-6.40798e-11
-1.6752e-10
-3.19914e-10
-5.17436e-10
-7.49735e-10
-1.00056e-09
-1.24898e-09
-1.47102e-09
-1.64162e-09
-1.73642e-09
-1.73322e-09
-1.61262e-09
-1.35757e-09
-9.52256e-10
-3.59208e-10
4.22066e-10
1.41717e-09
2.66583e-09
4.23071e-09
6.2033e-09
8.69427e-09
1.18556e-08
1.59428e-08
2.12824e-08
2.83211e-08
3.76706e-08
5.01647e-08
6.68866e-08
8.91056e-08
1.18684e-07
1.61716e-07
2.34607e-07
3.31262e-07
2.43252e-07
-2.55301e-07
4.67255e-06
-1.12061e-05
1.48386e-05
0.000596588
0.00134163
0.00218536
0.00302145
0.00394517
0.00495133
0.00571892
0.00636041
0.00712357
0.00783386
0.00848653
0.00859296
0.00859013
0.00858933
0.00858905
0.00858883
0.00858866
0.00858853
0.00858843
0.00858836
0.00858831
0.00858827
0.00858824
0.00858822
0.00858821
0.0085882
0.00858819
0.00858819
0.00858819
0.00858818
0.00858818
0.00858818
0.00858818
0.00858818
0.00858818
0.00858818
0.00858818
0.00858818
0.00858818
0.00858818
0.00858818
0.00858818
0.00858818
0.00858817
0.00858817
0.00858817
0.00858817
0.00858817
0.00858817
)
;
    }
    procBoundary3to2
    {
        type            processor;
        value           nonuniform List<scalar> 
90
(
1.89719e-11
5.0199e-11
5.74417e-11
2.81374e-11
-4.5728e-11
-1.6645e-10
-3.29965e-10
-5.2588e-10
-7.38202e-10
-9.46733e-10
-1.12899e-09
-1.26244e-09
-1.32684e-09
-1.30641e-09
-1.19158e-09
-9.80226e-10
-6.78183e-10
-2.99182e-10
1.36415e-10
6.01195e-10
1.06064e-09
1.47224e-09
1.78352e-09
1.92865e-09
1.82295e-09
1.35563e-09
3.82306e-10
-1.28465e-09
-3.88691e-09
-7.7381e-09
-1.33034e-08
-2.14211e-08
-3.29951e-08
-4.51839e-08
-4.60348e-08
-4.91201e-08
-2.90582e-07
-1.02872e-06
4.11756e-06
-1.37259e-05
1.41185e-05
0.000697102
0.00140584
0.00212006
0.00292949
0.00376664
0.00453399
0.00525478
0.00609555
0.00696596
0.00772208
0.00841785
0.00858242
0.00858821
0.00858681
0.00858724
0.00858751
0.00858768
0.00858781
0.00858791
0.00858798
0.00858803
0.00858806
0.00858809
0.00858811
0.00858813
0.00858814
0.00858815
0.00858816
0.00858816
0.00858817
0.00858817
0.00858817
0.00858818
0.00858818
0.00858818
0.00858818
0.00858818
0.00858818
0.00858818
0.00858818
0.00858818
0.00858818
0.00858818
0.00858817
0.00858817
0.00858817
0.00858817
0.00858817
0.00858817
)
;
    }
}


// ************************************************************************* //
