/*--------------------------------*- C++ -*----------------------------------*\
| =========                 |                                                 |
| \\      /  F ield         | OpenFOAM: The Open Source CFD Toolbox           |
|  \\    /   O peration     | Version:  5.x                                   |
|   \\  /    A nd           | Web:      www.OpenFOAM.org                      |
|    \\/     M anipulation  |                                                 |
\*---------------------------------------------------------------------------*/
FoamFile
{
    version     2.0;
    format      ascii;
    class       surfaceScalarField;
    location    "0.09";
    object      phi;
}
// * * * * * * * * * * * * * * * * * * * * * * * * * * * * * * * * * * * * * //

dimensions      [0 3 -1 0 0 0 0];

internalField   nonuniform List<scalar> 
5825
(
-2.03205e-16
-2.01621e-16
-1e-09
-2.185e-16
-2.36024e-16
-1e-09
-1.67395e-16
-2.35813e-16
-1e-09
-7.90539e-17
-2.3046e-16
-1e-09
-2.29502e-16
-1e-09
-2.40097e-16
-2.12714e-16
-1e-09
-2.12777e-16
-2.08745e-16
-1e-09
-1.60764e-16
-2.02302e-16
-1e-09
-7.77131e-17
-1.87025e-16
-1e-09
-1.8215e-16
-1e-09
-2.4053e-16
-1.52635e-16
-1e-09
-2.06356e-16
-1.52103e-16
-1e-09
-1.46167e-16
-1.40734e-16
-1e-09
-7.35519e-17
-1.38148e-16
-1e-09
-1.39629e-16
-1e-09
-2.4062e-16
-7.32271e-17
-1e-09
-1.94495e-16
-6.92536e-17
-1e-09
-1.43708e-16
-6.82268e-17
-1e-09
-7.51959e-17
-7.21213e-17
-1e-09
-6.805e-17
-1e-09
-2.35732e-16
-1e-09
-1.92899e-16
-1e-09
-1.47329e-16
-1e-09
-7.10803e-17
-1e-09
-1e-09
-6.29097e-16
-6.00431e-16
-1e-09
-5.68262e-16
-6.02142e-16
-1e-09
-4.21438e-16
-6.07915e-16
-1e-09
-2.10922e-16
-5.97911e-16
-1e-09
-5.92528e-16
-1e-09
-6.45323e-16
-5.32739e-16
-1e-09
-5.58387e-16
-5.26829e-16
-1e-09
-4.05142e-16
-5.20247e-16
-1e-09
-2.0278e-16
-5.03296e-16
-1e-09
-4.94357e-16
-1e-09
-6.54097e-16
-3.80323e-16
-1e-09
-5.51816e-16
-3.77803e-16
-1e-09
-3.90339e-16
-3.76849e-16
-1e-09
-1.95199e-16
-3.6645e-16
-1e-09
-3.63307e-16
-1e-09
-6.55155e-16
-1.83904e-16
-1e-09
-5.49648e-16
-1.91487e-16
-1e-09
-3.80466e-16
-1.85852e-16
-1e-09
-1.92429e-16
-1.86606e-16
-1e-09
-1.79138e-16
-1e-09
-6.60992e-16
-1e-09
-5.42789e-16
-1e-09
-3.80537e-16
-1e-09
-1.84708e-16
-1e-09
-1e-09
-1.20044e-15
-1.08263e-15
-1e-09
-9.54561e-16
-1.00372e-15
-1e-09
-6.84089e-16
-1.00191e-15
-1e-09
-3.54293e-16
-9.92221e-16
-1e-09
-9.76791e-16
-1e-09
-1.13276e-15
-8.7019e-16
-1e-09
-9.46954e-16
-8.7295e-16
-1e-09
-6.68714e-16
-8.59255e-16
-1e-09
-3.35304e-16
-8.46326e-16
-1e-09
-8.40995e-16
-1e-09
-1.139e-15
-6.32004e-16
-1e-09
-9.33489e-16
-6.32596e-16
-1e-09
-6.58104e-16
-6.308e-16
-1e-09
-3.31832e-16
-6.15584e-16
-1e-09
-6.02457e-16
-1e-09
-1.14357e-15
-3.33674e-16
-1e-09
-9.30472e-16
-3.25594e-16
-1e-09
-6.43401e-16
-3.11584e-16
-1e-09
-3.193e-16
-3.01558e-16
-1e-09
-2.91337e-16
-1e-09
-1.13439e-15
-1e-09
-9.14295e-16
-1e-09
-6.32012e-16
-1e-09
-3.0888e-16
-1e-09
-1e-09
-1.85514e-15
-1.66603e-15
-1e-09
-1.40603e-15
-1.49428e-15
-1e-09
-9.98094e-16
-1.46963e-15
-1e-09
-5.23267e-16
-1.4581e-15
-1e-09
-1.44408e-15
-1e-09
-1.69689e-15
-1.29678e-15
-1e-09
-1.3856e-15
-1.27876e-15
-1e-09
-9.85112e-16
-1.26263e-15
-1e-09
-5.09943e-16
-1.24501e-15
-1e-09
-1.2214e-15
-1e-09
-1.66912e-15
-9.56098e-16
-1e-09
-1.36976e-15
-9.31696e-16
-1e-09
-9.68982e-16
-9.05671e-16
-1e-09
-4.88845e-16
-8.7817e-16
-1e-09
-8.60137e-16
-1e-09
-1.64449e-15
-5.11207e-16
-1e-09
-1.34288e-15
-4.68786e-16
-1e-09
-9.41533e-16
-4.38512e-16
-1e-09
-4.72365e-16
-4.24425e-16
-1e-09
-4.28645e-16
-1e-09
-1.59809e-15
-1e-09
-1.30978e-15
-1e-09
-9.24866e-16
-1e-09
-4.765e-16
-1e-09
-1e-09
-2.59812e-15
-2.36998e-15
-1e-09
-1.97467e-15
-2.10259e-15
-1e-09
-1.42778e-15
-2.04471e-15
-1e-09
-7.65142e-16
-2.01265e-15
-1e-09
-1.972e-15
-1e-09
-2.35504e-15
-1.82224e-15
-1e-09
-1.94004e-15
-1.76746e-15
-1e-09
-1.39825e-15
-1.73586e-15
-1e-09
-7.30504e-16
-1.69685e-15
-1e-09
-1.65508e-15
-1e-09
-2.27502e-15
-1.31582e-15
-1e-09
-1.90877e-15
-1.25953e-15
-1e-09
-1.36042e-15
-1.20758e-15
-1e-09
-6.92242e-16
-1.18032e-15
-1.00001e-09
-1.17896e-15
-1.00001e-09
-2.21344e-15
-6.68641e-16
-1e-09
-1.85597e-15
-6.0656e-16
-1e-09
-1.3332e-15
-5.82398e-16
-1e-09
-6.9353e-16
-5.89818e-16
-1.00001e-09
-6.07608e-16
-1.00001e-09
-2.14306e-15
-1e-09
-1.8277e-15
-1e-09
-1.33738e-15
-1.00001e-09
-7.11255e-16
-1.00001e-09
-1.00001e-09
-3.34809e-15
-2.98635e-15
-1e-09
-2.72665e-15
-2.78534e-15
-1e-09
-1.99318e-15
-2.71797e-15
-1e-09
-1.06396e-15
-2.65744e-15
-1e-09
-2.59821e-15
-1.00001e-09
-3.16402e-15
-2.38355e-15
-1e-09
-2.67078e-15
-2.31869e-15
-1e-09
-1.9368e-15
-2.2806e-15
-1e-09
-1.01364e-15
-2.24534e-15
-1.00001e-09
-2.20934e-15
-1.00001e-09
-3.09193e-15
-1.67721e-15
-1e-09
-2.63311e-15
-1.62237e-15
-1e-09
-1.90363e-15
-1.59254e-15
-1.00001e-09
-9.8315e-16
-1.5881e-15
-1.00001e-09
-1.60226e-15
-1.00001e-09
-3.03325e-15
-8.24542e-16
-1e-09
-2.60143e-15
-7.92539e-16
-1.00001e-09
-1.89948e-15
-7.93297e-16
-1.00001e-09
-1.00035e-15
-8.19633e-16
-1.00001e-09
-8.28752e-16
-1.00001e-09
-2.99067e-15
-1e-09
-2.59555e-15
-1.00001e-09
-1.92219e-15
-1.00001e-09
-1.00911e-15
-1.00001e-09
-1.00001e-09
-4.40839e-15
-3.73103e-15
-1e-09
-3.71895e-15
-3.6163e-15
-1e-09
-2.70873e-15
-3.56994e-15
-1e-09
-1.42435e-15
-3.52189e-15
-1.00001e-09
-3.4759e-15
-1.00001e-09
-4.30161e-15
-3.04807e-15
-1e-09
-3.66322e-15
-3.01795e-15
-1e-09
-2.66147e-15
-3.00442e-15
-1.00001e-09
-1.38851e-15
-2.99305e-15
-1.00001e-09
-2.97457e-15
-1.00001e-09
-4.28081e-15
-2.14779e-15
-1e-09
-3.65001e-15
-2.12643e-15
-1.00001e-09
-2.65346e-15
-2.14116e-15
-1.00001e-09
-1.37738e-15
-2.15587e-15
-1.00001e-09
-2.17179e-15
-1.00001e-09
-4.25854e-15
-1.07499e-15
-1e-09
-3.66181e-15
-1.08845e-15
-1.00001e-09
-2.66844e-15
-1.10109e-15
-1.00001e-09
-1.39711e-15
-1.12831e-15
-1.00001e-09
-1.11807e-15
-1.00001e-09
-4.2597e-15
-1.00001e-09
-3.66461e-15
-1.00001e-09
-2.69055e-15
-1.00001e-09
-1.38576e-15
-1.00001e-09
-1.00001e-09
-5.9442e-15
-4.8483e-15
-1e-09
-5.04217e-15
-4.792e-15
-1e-09
-3.64862e-15
-4.77026e-15
-1.00001e-09
-1.90168e-15
-4.75952e-15
-1.00001e-09
-4.73587e-15
-1.00001e-09
-5.90036e-15
-4.03037e-15
-1e-09
-5.01051e-15
-4.02713e-15
-1.00001e-09
-3.6389e-15
-4.03715e-15
-1.00001e-09
-1.89072e-15
-4.04822e-15
-1.00001e-09
-4.04866e-15
-1.00001e-09
-5.9049e-15
-2.87555e-15
-1.00001e-09
-5.02126e-15
-2.88359e-15
-1.00001e-09
-3.65344e-15
-2.92653e-15
-1.00001e-09
-1.90069e-15
-2.94322e-15
-1.00001e-09
-2.95722e-15
-1.00001e-09
-5.91246e-15
-1.48137e-15
-1.00001e-09
-5.06061e-15
-1.51917e-15
-1.00001e-09
-3.6702e-15
-1.53262e-15
-1.00001e-09
-1.9192e-15
-1.55243e-15
-1.00001e-09
-1.52684e-15
-1.00001e-09
-5.93577e-15
-1.00001e-09
-5.06098e-15
-1.00001e-09
-3.68311e-15
-1.00001e-09
-1.89207e-15
-1.00001e-09
-1.00001e-09
-8.11991e-15
-6.57497e-15
-1e-09
-6.86856e-15
-6.50931e-15
-1.00001e-09
-4.94427e-15
-6.48071e-15
-1.00001e-09
-2.56697e-15
-6.49488e-15
-1.00001e-09
-6.49577e-15
-1.00001e-09
-8.07071e-15
-5.52175e-15
-1.00001e-09
-6.83305e-15
-5.4875e-15
-1.00001e-09
-4.96197e-15
-5.50117e-15
-1.00001e-09
-2.5844e-15
-5.53347e-15
-1.00001e-09
-5.54892e-15
-1.00001e-09
-8.04424e-15
-3.95733e-15
-1.00001e-09
-6.8472e-15
-3.97743e-15
-1.00001e-09
-4.99711e-15
-4.02931e-15
-1.00001e-09
-2.61226e-15
-4.03727e-15
-1.00001e-09
-4.04747e-15
-1.00002e-09
-8.06343e-15
-2.06547e-15
-1.00001e-09
-6.89485e-15
-2.10936e-15
-1.00001e-09
-5.00499e-15
-2.12814e-15
-1.00001e-09
-2.6294e-15
-2.1375e-15
-1.00002e-09
-2.09726e-15
-1.00002e-09
-8.08838e-15
-1.00001e-09
-6.89723e-15
-1.00001e-09
-5.00462e-15
-1.00002e-09
-2.58756e-15
-1.00002e-09
-1.00002e-09
-1.11092e-14
-9.02826e-15
-1e-09
-9.40587e-15
-8.93489e-15
-1.00001e-09
-6.76854e-15
-8.88016e-15
-1.00001e-09
-3.51923e-15
-8.89981e-15
-1.00001e-09
-8.91498e-15
-1.00002e-09
-1.10295e-14
-7.62411e-15
-1.00001e-09
-9.34231e-15
-7.54454e-15
-1.00001e-09
-6.79221e-15
-7.55543e-15
-1.00001e-09
-3.5572e-15
-7.59379e-15
-1.00002e-09
-7.60666e-15
-1.00002e-09
-1.09599e-14
-5.48917e-15
-1.00001e-09
-9.3528e-15
-5.5091e-15
-1.00001e-09
-6.83326e-15
-5.54461e-15
-1.00002e-09
-3.58782e-15
-5.53905e-15
-1.00002e-09
-5.52903e-15
-1.00002e-09
-1.09775e-14
-2.88297e-15
-1.00001e-09
-9.38351e-15
-2.91006e-15
-1.00002e-09
-6.82754e-15
-2.93299e-15
-1.00002e-09
-3.58896e-15
-2.91926e-15
-1.00002e-09
-2.864e-15
-1.00002e-09
-1.09785e-14
-1.00001e-09
-9.38455e-15
-1.00002e-09
-6.79965e-15
-1.00002e-09
-3.53219e-15
-1.00002e-09
-1.00002e-09
-1.50674e-14
-1.22262e-14
-1e-09
-1.28786e-14
-1.22364e-14
-1.00001e-09
-9.30774e-15
-1.21824e-14
-1.00001e-09
-4.86942e-15
-1.21908e-14
-1.00002e-09
-1.21858e-14
-1.00002e-09
-1.50843e-14
-1.0451e-14
-1.00001e-09
-1.28085e-14
-1.03748e-14
-1.00001e-09
-9.31871e-15
-1.03828e-14
-1.00002e-09
-4.89465e-15
-1.03901e-14
-1.00002e-09
-1.03788e-14
-1.00002e-09
-1.50242e-14
-7.59057e-15
-1.00001e-09
-1.28155e-14
-7.593e-15
-1.00002e-09
-9.32977e-15
-7.58334e-15
-1.00002e-09
-4.90833e-15
-7.56475e-15
-1.00003e-09
-7.51509e-15
-1.00003e-09
-1.50248e-14
-4.00697e-15
-1.00002e-09
-1.28007e-14
-3.99404e-15
-1.00002e-09
-9.3111e-15
-4.00355e-15
-1.00003e-09
-4.87508e-15
-3.956e-15
-1.00003e-09
-3.90663e-15
-1.00003e-09
-1.49766e-14
-1.00002e-09
-1.27805e-14
-1.00002e-09
-9.24348e-15
-1.00003e-09
-4.82384e-15
-1.00003e-09
-1.00003e-09
-2.04195e-14
-1.64965e-14
-1.00001e-09
-1.75498e-14
-1.66711e-14
-1.00001e-09
-1.27471e-14
-1.66479e-14
-1.00002e-09
-6.71209e-15
-1.66409e-14
-1.00003e-09
-1.65874e-14
-1.00003e-09
-2.05928e-14
-1.42237e-14
-1.00001e-09
-1.75168e-14
-1.42043e-14
-1.00002e-09
-1.27429e-14
-1.42008e-14
-1.00003e-09
-6.69806e-15
-1.41481e-14
-1.00003e-09
-1.41058e-14
-1.00003e-09
-2.05828e-14
-1.0401e-14
-1.00002e-09
-1.75125e-14
-1.0379e-14
-1.00003e-09
-1.26941e-14
-1.0314e-14
-1.00003e-09
-6.6894e-15
-1.02895e-14
-1.00004e-09
-1.02055e-14
-1.00004e-09
-2.05581e-14
-5.51449e-15
-1.00002e-09
-1.74432e-14
-5.46085e-15
-1.00003e-09
-1.26697e-14
-5.43824e-15
-1.00004e-09
-6.62805e-15
-5.37287e-15
-1.00004e-09
-5.35657e-15
-1.00004e-09
-2.04561e-14
-1.00002e-09
-1.73803e-14
-1.00003e-09
-1.25766e-14
-1.00004e-09
-6.60902e-15
-1.00004e-09
-1.00005e-09
-2.77866e-14
-2.24337e-14
-1.00001e-09
-2.38609e-14
-2.26798e-14
-1.00002e-09
-1.73829e-14
-2.26826e-14
-1.00003e-09
-9.19126e-15
-2.26529e-14
-1.00003e-09
-2.25439e-14
-1.00004e-09
-2.80283e-14
-1.93643e-14
-1.00002e-09
-2.38612e-14
-1.93749e-14
-1.00003e-09
-1.73589e-14
-1.93347e-14
-1.00004e-09
-9.13585e-15
-1.92221e-14
-1.00004e-09
-1.91496e-14
-1.00005e-09
-2.80401e-14
-1.41762e-14
-1.00002e-09
-2.38204e-14
-1.41163e-14
-1.00004e-09
-1.72497e-14
-1.40063e-14
-1.00004e-09
-9.10805e-15
-1.3978e-14
-1.00005e-09
-1.38845e-14
-1.00005e-09
-2.79741e-14
-7.52669e-15
-1.00003e-09
-2.37069e-14
-7.43858e-15
-1.00004e-09
-1.72214e-14
-7.3843e-15
-1.00005e-09
-9.04553e-15
-7.33367e-15
-1.00006e-09
-7.34129e-15
-1.00006e-09
-2.78202e-14
-1.00003e-09
-2.35982e-14
-1.00004e-09
-1.71328e-14
-1.00005e-09
-9.04932e-15
-1.00006e-09
-1.00006e-09
-3.80092e-14
-3.07851e-14
-1.00001e-09
-3.25097e-14
-3.08947e-14
-1.00003e-09
-2.37074e-14
-3.08571e-14
-1.00004e-09
-1.25383e-14
-3.07632e-14
-1.00005e-09
-3.05993e-14
-1.00005e-09
-3.81157e-14
-2.6437e-14
-1.00002e-09
-3.24725e-14
-2.6377e-14
-1.00004e-09
-2.36209e-14
-2.62535e-14
-1.00005e-09
-1.24473e-14
-2.61026e-14
-1.00006e-09
-2.59898e-14
-1.00006e-09
-3.80538e-14
-1.92967e-14
-1.00003e-09
-3.23485e-14
-1.91632e-14
-1.00005e-09
-2.34738e-14
-1.90252e-14
-1.00006e-09
-1.23947e-14
-1.89744e-14
-1.00007e-09
-1.88846e-14
-1.00007e-09
-3.79122e-14
-1.01936e-14
-1.00004e-09
-3.22064e-14
-1.00874e-14
-1.00005e-09
-2.3423e-14
-1.00224e-14
-1.00007e-09
-1.23477e-14
-9.99715e-15
-1.00008e-09
-9.99035e-15
-1.00008e-09
-3.77178e-14
-1.00004e-09
-3.20672e-14
-1.00006e-09
-2.3345e-14
-1.00007e-09
-1.23357e-14
-1.00008e-09
-1.00008e-09
-5.20467e-14
-4.22358e-14
-1.00002e-09
-4.43669e-14
-4.20454e-14
-1.00004e-09
-3.23184e-14
-4.18799e-14
-1.00005e-09
-1.70385e-14
-4.1687e-14
-1.00007e-09
-4.14882e-14
-1.00007e-09
-5.18525e-14
-3.60255e-14
-1.00003e-09
-4.42015e-14
-3.58171e-14
-1.00005e-09
-3.21326e-14
-3.55885e-14
-1.00007e-09
-1.69371e-14
-3.54256e-14
-1.00008e-09
-3.52515e-14
-1.00009e-09
-5.16433e-14
-2.61793e-14
-1.00005e-09
-4.39723e-14
-2.59774e-14
-1.00007e-09
-3.1975e-14
-2.58273e-14
-1.00008e-09
-1.68453e-14
-2.57231e-14
-1.00009e-09
-2.56291e-14
-1.0001e-09
-5.14338e-14
-1.37284e-14
-1.00006e-09
-4.38166e-14
-1.36544e-14
-1.00007e-09
-3.18707e-14
-1.35881e-14
-1.00009e-09
-1.681e-14
-1.35676e-14
-1.0001e-09
-1.35261e-14
-1.00011e-09
-5.12414e-14
-1.00006e-09
-4.36485e-14
-1.00008e-09
-3.17777e-14
-1.0001e-09
-1.67612e-14
-1.00011e-09
-1.00011e-09
-7.10532e-14
-5.75777e-14
-1.00002e-09
-6.04437e-14
-5.70774e-14
-1.00005e-09
-4.39547e-14
-5.67573e-14
-1.00007e-09
-2.31246e-14
-5.64796e-14
-1.00009e-09
-5.62457e-14
-1.0001e-09
-7.05474e-14
-4.88661e-14
-1.00005e-09
-6.01282e-14
-4.85334e-14
-1.00007e-09
-4.36861e-14
-4.82191e-14
-1.00009e-09
-2.3022e-14
-4.80347e-14
-1.00011e-09
-4.77826e-14
-1.00012e-09
-7.021e-14
-3.54248e-14
-1.00006e-09
-5.98133e-14
-3.52009e-14
-1.00009e-09
-4.3509e-14
-3.50245e-14
-1.00011e-09
-2.28816e-14
-3.48536e-14
-1.00013e-09
-3.47365e-14
-1.00014e-09
-6.99762e-14
-1.85582e-14
-1.00008e-09
-5.96291e-14
-1.85193e-14
-1.0001e-09
-4.33379e-14
-1.84259e-14
-1.00012e-09
-2.28434e-14
-1.83846e-14
-1.00014e-09
-1.83165e-14
-1.00015e-09
-6.97753e-14
-1.00008e-09
-5.93973e-14
-1.00011e-09
-4.31982e-14
-1.00013e-09
-2.27651e-14
-1.00015e-09
-1.00016e-09
-9.66404e-14
-7.80983e-14
-1.00003e-09
-8.21816e-14
-7.7426e-14
-1.00007e-09
-5.97395e-14
-7.69496e-14
-1.0001e-09
-3.14514e-14
-7.65671e-14
-1.00012e-09
-7.62166e-14
-1.00013e-09
-9.59594e-14
-6.6218e-14
-1.00006e-09
-8.17175e-14
-6.57753e-14
-1.0001e-09
-5.93722e-14
-6.53587e-14
-1.00013e-09
-3.12797e-14
-6.50864e-14
-1.00015e-09
-6.47605e-14
-1.00016e-09
-9.5504e-14
-4.80383e-14
-1.00009e-09
-8.13001e-14
-4.77477e-14
-1.00012e-09
-5.9109e-14
-4.74832e-14
-1.00015e-09
-3.11045e-14
-4.72575e-14
-1.00017e-09
-4.70845e-14
-1.00018e-09
-9.51969e-14
-2.52777e-14
-1.0001e-09
-8.10257e-14
-2.51659e-14
-1.00014e-09
-5.88829e-14
-2.50148e-14
-1.00017e-09
-3.10379e-14
-2.49335e-14
-1.00019e-09
-2.48428e-14
-1.0002e-09
-9.48623e-14
-1.00011e-09
-8.06874e-14
-1.00015e-09
-5.86674e-14
-1.00018e-09
-3.09333e-14
-1.0002e-09
-1.00021e-09
-1.31192e-13
-1.0581e-13
-1.00005e-09
-1.11664e-13
-1.05033e-13
-1.00009e-09
-8.12189e-14
-1.0434e-13
-1.00014e-09
-4.27909e-14
-1.03776e-13
-1.00017e-09
-1.03248e-13
-1.00018e-09
-1.30406e-13
-8.98697e-14
-1.00008e-09
-1.10985e-13
-8.92143e-14
-1.00013e-09
-8.06762e-14
-8.86188e-14
-1.00017e-09
-4.25055e-14
-8.81926e-14
-1.0002e-09
-8.77897e-14
-1.00022e-09
-1.29735e-13
-6.53003e-14
-1.00012e-09
-1.10389e-13
-6.48119e-14
-1.00017e-09
-8.02617e-14
-6.43931e-14
-1.00021e-09
-4.2307e-14
-6.41002e-14
-1.00024e-09
-6.38188e-14
-1.00025e-09
-1.29223e-13
-3.44572e-14
-1.00014e-09
-1.09957e-13
-3.41833e-14
-1.00019e-09
-7.99673e-14
-3.39585e-14
-1.00023e-09
-4.21703e-14
-3.38095e-14
-1.00026e-09
-3.36645e-14
-1.00027e-09
-1.28646e-13
-1.00016e-09
-1.09477e-13
-1.0002e-09
-7.96353e-14
-1.00024e-09
-4.20063e-14
-1.00027e-09
-1.00029e-09
-1.78156e-13
-1.43521e-13
-1.00006e-09
-1.51733e-13
-1.42442e-13
-1.00013e-09
-1.10396e-13
-1.41409e-13
-1.00018e-09
-5.81529e-14
-1.40611e-13
-1.00023e-09
-1.39911e-13
-1.00025e-09
-1.77071e-13
-1.22047e-13
-1.00012e-09
-1.50712e-13
-1.21015e-13
-1.00018e-09
-1.09623e-13
-1.20142e-13
-1.00024e-09
-5.77839e-14
-1.19507e-13
-1.00028e-09
-1.18944e-13
-1.0003e-09
-1.76025e-13
-8.87152e-14
-1.00016e-09
-1.49838e-13
-8.79367e-14
-1.00022e-09
-1.09004e-13
-8.72939e-14
-1.00028e-09
-5.75001e-14
-8.68472e-14
-1.00032e-09
-8.63978e-14
-1.00034e-09
-1.75218e-13
-4.67936e-14
-1.00019e-09
-1.49176e-13
-4.63507e-14
-1.00026e-09
-1.08554e-13
-4.60137e-14
-1.00031e-09
-5.72475e-14
-4.5756e-14
-1.00035e-09
-4.55073e-14
-1.00037e-09
-1.74364e-13
-1.00021e-09
-1.48489e-13
-1.00027e-09
-1.08048e-13
-1.00033e-09
-5.69726e-14
-1.00037e-09
-1.00039e-09
-2.42285e-13
-1.95001e-13
-1.00009e-09
-2.06305e-13
-1.93182e-13
-1.00017e-09
-1.50075e-13
-1.91598e-13
-1.00025e-09
-7.90569e-14
-1.90459e-13
-1.00031e-09
-1.89491e-13
-1.00034e-09
-2.40463e-13
-1.65722e-13
-1.00016e-09
-2.0473e-13
-1.64097e-13
-1.00025e-09
-1.48966e-13
-1.62766e-13
-1.00032e-09
-7.85407e-14
-1.61793e-13
-1.00038e-09
-1.60925e-13
-1.00041e-09
-2.38826e-13
-1.20363e-13
-1.00022e-09
-2.03397e-13
-1.19182e-13
-1.00031e-09
-1.48013e-13
-1.1818e-13
-1.00038e-09
-7.80521e-14
-1.17447e-13
-1.00043e-09
-1.16775e-13
-1.00046e-09
-2.37608e-13
-6.3404e-14
-1.00026e-09
-2.02367e-13
-6.27422e-14
-1.00035e-09
-1.47277e-13
-6.22194e-14
-1.00042e-09
-7.76471e-14
-6.18128e-14
-1.00048e-09
-6.14546e-14
-1.00051e-09
-2.36387e-13
-1.00029e-09
-2.01367e-13
-1.00037e-09
-1.46532e-13
-1.00045e-09
-7.72523e-14
-1.0005e-09
-1.00053e-09
-3.29709e-13
-2.6505e-13
-1.00012e-09
-2.80627e-13
-2.61974e-13
-1.00024e-09
-2.04112e-13
-2.59496e-13
-1.00034e-09
-1.0755e-13
-2.57756e-13
-1.00042e-09
-2.56294e-13
-1.00046e-09
-3.2663e-13
-2.2491e-13
-1.00021e-09
-2.78155e-13
-2.22362e-13
-1.00033e-09
-2.02411e-13
-2.20265e-13
-1.00044e-09
-1.06703e-13
-2.18728e-13
-1.00051e-09
-2.17416e-13
-1.00055e-09
-3.2407e-13
-1.63166e-13
-1.0003e-09
-2.76053e-13
-1.61334e-13
-1.00041e-09
-2.00901e-13
-1.5977e-13
-1.00052e-09
-1.05909e-13
-1.58623e-13
-1.00059e-09
-1.57659e-13
-1.00063e-09
-3.22189e-13
-8.58575e-14
-1.00036e-09
-2.74451e-13
-8.48542e-14
-1.00047e-09
-1.99749e-13
-8.40554e-14
-1.00057e-09
-1.0531e-13
-8.34627e-14
-1.00065e-09
-8.29934e-14
-1.00069e-09
-3.20421e-13
-1.00039e-09
-2.73001e-13
-1.0005e-09
-1.98692e-13
-1.0006e-09
-1.0479e-13
-1.00068e-09
-1.00072e-09
-4.48354e-13
-3.59789e-13
-1.00016e-09
-3.81666e-13
-3.55e-13
-1.00032e-09
-2.7768e-13
-3.5119e-13
-1.00047e-09
-1.46364e-13
-3.48471e-13
-1.00057e-09
-3.46235e-13
-1.00062e-09
-4.43559e-13
-3.0494e-13
-1.00029e-09
-3.77858e-13
-3.01023e-13
-1.00045e-09
-2.75012e-13
-2.97747e-13
-1.00059e-09
-1.44967e-13
-2.95347e-13
-1.00069e-09
-2.9343e-13
-1.00075e-09
-4.39627e-13
-2.21048e-13
-1.0004e-09
-3.74575e-13
-2.18193e-13
-1.00056e-09
-2.72649e-13
-2.15796e-13
-1.0007e-09
-1.43756e-13
-2.14061e-13
-1.0008e-09
-2.12675e-13
-1.00085e-09
-4.36705e-13
-1.16221e-13
-1.00048e-09
-3.72126e-13
-1.14724e-13
-1.00064e-09
-2.70906e-13
-1.13519e-13
-1.00078e-09
-1.42866e-13
-1.12644e-13
-1.00088e-09
-1.11944e-13
-1.00093e-09
-4.34162e-13
-1.00053e-09
-3.70029e-13
-1.00068e-09
-2.69396e-13
-1.00082e-09
-1.42095e-13
-1.00092e-09
-1.00097e-09
-6.09369e-13
-4.87817e-13
-1.00022e-09
-5.19125e-13
-4.80731e-13
-1.00044e-09
-3.77884e-13
-4.7491e-13
-1.00063e-09
-1.99246e-13
-4.70659e-13
-1.00077e-09
-4.67297e-13
-1.00085e-09
-6.02269e-13
-4.13156e-13
-1.00039e-09
-5.13302e-13
-4.07149e-13
-1.00062e-09
-3.73702e-13
-4.02084e-13
-1.0008e-09
-1.97029e-13
-3.98396e-13
-1.00094e-09
-3.95581e-13
-1.00102e-09
-5.96244e-13
-2.99285e-13
-1.00054e-09
-5.08226e-13
-2.94857e-13
-1.00076e-09
-3.70063e-13
-2.91187e-13
-1.00095e-09
-1.95177e-13
-2.88525e-13
-1.00108e-09
-2.86464e-13
-1.00116e-09
-5.91721e-13
-1.57259e-13
-1.00065e-09
-5.04476e-13
-1.55016e-13
-1.00087e-09
-3.67385e-13
-1.53148e-13
-1.00105e-09
-1.9379e-13
-1.51759e-13
-1.00119e-09
-1.5064e-13
-1.00126e-09
-5.88043e-13
-1.00071e-09
-5.01383e-13
-1.00093e-09
-3.65126e-13
-1.00111e-09
-1.9257e-13
-1.00124e-09
-1.00131e-09
-8.28536e-13
-6.61277e-13
-1.0003e-09
-7.06383e-13
-6.50618e-13
-1.0006e-09
-5.14375e-13
-6.41633e-13
-1.00086e-09
-2.71276e-13
-6.35068e-13
-1.00105e-09
-6.30125e-13
-1.00116e-09
-8.17856e-13
-5.59455e-13
-1.00054e-09
-6.97389e-13
-5.50132e-13
-1.00084e-09
-5.07906e-13
-5.42315e-13
-1.00109e-09
-2.67897e-13
-5.3667e-13
-1.00128e-09
-5.32468e-13
-1.00138e-09
-8.08504e-13
-4.04874e-13
-1.00074e-09
-6.89549e-13
-3.97983e-13
-1.00103e-09
-5.02325e-13
-3.92274e-13
-1.00129e-09
-2.65008e-13
-3.88082e-13
-1.00147e-09
-3.8499e-13
-1.00157e-09
-8.01476e-13
-2.12648e-13
-1.00088e-09
-6.83719e-13
-2.09131e-13
-1.00118e-09
-4.98106e-13
-2.06133e-13
-1.00142e-09
-2.62827e-13
-2.03914e-13
-1.00161e-09
-2.02262e-13
-1.0017e-09
-7.95989e-13
-1.00096e-09
-6.79037e-13
-1.00125e-09
-4.94692e-13
-1.0015e-09
-2.61031e-13
-1.00168e-09
-1.00178e-09
-1.12698e-12
-8.96092e-13
-1.00041e-09
-9.61396e-13
-8.79669e-13
-1.00082e-09
-7.00351e-13
-8.65863e-13
-1.00118e-09
-3.69501e-13
-8.55852e-13
-1.00144e-09
-8.4859e-13
-1.00158e-09
-1.11053e-12
-7.56665e-13
-1.00073e-09
-9.4757e-13
-7.42183e-13
-1.00114e-09
-6.90474e-13
-7.3015e-13
-1.00149e-09
-3.64373e-13
-7.21471e-13
-1.00174e-09
-7.15242e-13
-1.00188e-09
-1.09599e-12
-5.46898e-13
-1.001e-09
-9.35493e-13
-5.36062e-13
-1.0014e-09
-6.81886e-13
-5.2709e-13
-1.00174e-09
-3.59931e-13
-5.20527e-13
-1.00199e-09
-5.15955e-13
-1.00213e-09
-1.08495e-12
-2.8712e-13
-1.0012e-09
-9.26331e-13
-2.81397e-13
-1.00159e-09
-6.7527e-13
-2.76632e-13
-1.00193e-09
-3.56581e-13
-2.73225e-13
-1.00217e-09
-2.70858e-13
-1.00231e-09
-1.07652e-12
-1.0013e-09
-9.19244e-13
-1.00169e-09
-6.70218e-13
-1.00202e-09
-3.54006e-13
-1.00227e-09
-1.0024e-09
-1.53298e-12
-1.21301e-12
-1.00056e-09
-1.30873e-12
-1.18772e-12
-1.00112e-09
-9.54083e-13
-1.16673e-12
-1.00161e-09
-5.03654e-13
-1.15144e-12
-1.00196e-09
-1.14074e-12
-1.00216e-09
-1.50766e-12
-1.02157e-12
-1.00099e-09
-1.2877e-12
-9.99072e-13
-1.00155e-09
-9.39e-13
-9.80636e-13
-1.00202e-09
-4.95857e-13
-9.67338e-13
-1.00237e-09
-9.5831e-13
-1.00256e-09
-1.48509e-12
-7.37016e-13
-1.00136e-09
-1.26918e-12
-7.19831e-13
-1.0019e-09
-9.25851e-13
-7.05795e-13
-1.00236e-09
-4.89256e-13
-6.95628e-13
-1.0027e-09
-6.88827e-13
-1.00289e-09
-1.46759e-12
-3.86691e-13
-1.00162e-09
-1.25481e-12
-3.77443e-13
-1.00214e-09
-9.1557e-13
-3.70065e-13
-1.0026e-09
-4.84061e-13
-3.64826e-13
-1.00293e-09
-3.61335e-13
-1.00312e-09
-1.45461e-12
-1.00176e-09
-1.24421e-12
-1.00228e-09
-9.08076e-13
-1.00273e-09
-4.80262e-13
-1.00306e-09
-1.00324e-09
-2.08539e-12
-1.6398e-12
-1.00077e-09
-1.78242e-12
-1.60087e-12
-1.00154e-09
-1.30063e-12
-1.5692e-12
-1.0022e-09
-6.87199e-13
-1.54582e-12
-1.00269e-09
-1.53018e-12
-1.00296e-09
-2.0465e-12
-1.37611e-12
-1.00136e-09
-1.75061e-12
-1.34085e-12
-1.0021e-09
-1.27758e-12
-1.31293e-12
-1.00275e-09
-6.7547e-13
-1.2928e-12
-1.00322e-09
-1.28002e-12
-1.00349e-09
-2.01122e-12
-9.90137e-13
-1.00184e-09
-1.72251e-12
-9.62597e-13
-1.00256e-09
-1.25778e-12
-9.40687e-13
-1.0032e-09
-6.65995e-13
-9.24554e-13
-1.00366e-09
-9.14201e-13
-1.00392e-09
-1.98319e-12
-5.19379e-13
-1.00218e-09
-1.6999e-12
-5.04449e-13
-1.00288e-09
-1.24139e-12
-4.93185e-13
-1.00351e-09
-6.57635e-13
-4.84974e-13
-1.00396e-09
-4.80094e-13
-1.00421e-09
-1.96315e-12
-1.00237e-09
-1.68413e-12
-1.00306e-09
-1.23017e-12
-1.00368e-09
-6.52298e-13
-1.00412e-09
-1.00438e-09
-2.83695e-12
-2.21312e-12
-1.00107e-09
-2.42942e-12
-2.15223e-12
-1.00211e-09
-1.7743e-12
-2.10529e-12
-1.00302e-09
-9.39076e-13
-2.06931e-12
-1.00369e-09
-2.04658e-12
-1.00406e-09
-2.7765e-12
-1.84825e-12
-1.00186e-09
-2.38182e-12
-1.79204e-12
-1.00286e-09
-1.73893e-12
-1.751e-12
-1.00375e-09
-9.21358e-13
-1.72096e-12
-1.00439e-09
-1.70424e-12
-1.00475e-09
-2.72075e-12
-1.32483e-12
-1.00249e-09
-2.34035e-12
-1.27944e-12
-1.00346e-09
-1.71005e-12
-1.24489e-12
-1.00433e-09
-9.09247e-13
-1.21756e-12
-1.00497e-09
-1.2012e-12
-1.00533e-09
-2.67467e-12
-6.96187e-13
-1.00294e-09
-2.304e-12
-6.7119e-13
-1.00386e-09
-1.68215e-12
-6.54783e-13
-1.00472e-09
-8.94904e-13
-6.41848e-13
-1.00532e-09
-6.36363e-13
-1.00567e-09
-2.64288e-12
-1.00319e-09
-2.28115e-12
-1.00409e-09
-1.66565e-12
-1.00495e-09
-8.88856e-13
-1.00554e-09
-1.0059e-09
-3.85702e-12
-2.98023e-12
-1.00152e-09
-3.31529e-12
-2.88128e-12
-1.00291e-09
-2.42187e-12
-2.81492e-12
-1.00417e-09
-1.28624e-12
-2.75775e-12
-1.00508e-09
-2.72463e-12
-1.0056e-09
-3.76028e-12
-2.4732e-12
-1.00256e-09
-3.24585e-12
-2.38024e-12
-1.00387e-09
-2.36593e-12
-2.32505e-12
-1.00512e-09
-1.25849e-12
-2.2815e-12
-1.00597e-09
-2.26611e-12
-1.00647e-09
-3.66989e-12
-1.76212e-12
-1.0034e-09
-3.18938e-12
-1.68334e-12
-1.00463e-09
-2.32741e-12
-1.62769e-12
-1.00589e-09
-1.25055e-12
-1.5759e-12
-1.00675e-09
-1.54866e-12
-1.0073e-09
-3.59036e-12
-9.33228e-13
-1.00396e-09
-3.12791e-12
-8.88201e-13
-1.00512e-09
-2.27315e-12
-8.68475e-13
-1.00633e-09
-1.22104e-12
-8.47195e-13
-1.0071e-09
-8.45853e-13
-1.00759e-09
-3.53676e-12
-1.00433e-09
-3.0986e-12
-1.00542e-09
-2.25001e-12
-1.00667e-09
-1.22033e-12
-1.00742e-09
-1.00797e-09
-5.22886e-12
-4.00234e-12
-1.00224e-09
-4.5348e-12
-3.82722e-12
-1.00401e-09
-3.30468e-12
-3.74583e-12
-1.00581e-09
-1.77059e-12
-3.64542e-12
-1.00701e-09
-3.59345e-12
-1.00779e-09
-5.06172e-12
-3.2981e-12
-1.00362e-09
-4.43854e-12
-3.1298e-12
-1.00519e-09
-3.20699e-12
-3.07849e-12
-1.00702e-09
-1.71909e-12
-3.0166e-12
-1.00809e-09
-3.02664e-12
-1.00875e-09
-4.90412e-12
-2.32033e-12
-1.00476e-09
-4.38157e-12
-2.17331e-12
-1.00611e-09
-3.16931e-12
-2.08509e-12
-1.0081e-09
-1.75094e-12
-1.97698e-12
-1.00921e-09
-1.9355e-12
-1.01014e-09
-4.75765e-12
-1.25987e-12
-1.00541e-09
-4.26433e-12
-1.16587e-12
-1.00662e-09
-3.03843e-12
-1.16118e-12
-1.00848e-09
-1.67121e-12
-1.11721e-12
-1.00933e-09
-1.13699e-12
-1.01006e-09
-4.66001e-12
-1.00599e-09
-4.24384e-12
-1.007e-09
-3.01046e-12
-1.00906e-09
-1.7029e-12
-1.00984e-09
-1.01081e-09
-7.01505e-12
-5.36469e-12
-1.00354e-09
-6.23497e-12
-5.00027e-12
-1.00544e-09
-4.49294e-12
-4.95188e-12
-1.00819e-09
-2.47345e-12
-4.7396e-12
-1.00968e-09
-4.66302e-12
-1.01101e-09
-6.70811e-12
-4.40803e-12
-1.00533e-09
-6.11136e-12
-4.03616e-12
-1.00675e-09
-4.28217e-12
-4.08913e-12
-1.00971e-09
-2.33216e-12
-3.97215e-12
-1.01081e-09
-4.07868e-12
-1.01167e-09
-6.43495e-12
-3.00469e-12
-1.00703e-09
-6.13282e-12
-2.71155e-12
-1.00774e-09
-4.30893e-12
-2.60447e-12
-1.01141e-09
-2.54049e-12
-2.36224e-12
-1.01258e-09
-2.3239e-12
-1.01444e-09
-6.16365e-12
-1.74176e-12
-1.00754e-09
-5.86141e-12
-1.50246e-12
-1.00813e-09
-3.96592e-12
-1.59171e-12
-1.01139e-09
-2.29858e-12
-1.45497e-12
-1.0119e-09
-1.55068e-12
-1.01314e-09
-5.99378e-12
-1.00868e-09
-5.90995e-12
-1.00859e-09
-3.97427e-12
-1.01259e-09
-2.44737e-12
-1.01283e-09
-1.01481e-09
-9.22516e-12
-7.18275e-12
-1.00624e-09
-8.66481e-12
-6.32321e-12
-1.00699e-09
-6.04744e-12
-6.51249e-12
-1.01183e-09
-3.58705e-12
-6.00875e-12
-1.01317e-09
-5.97689e-12
-1.01598e-09
-8.74253e-12
-5.97503e-12
-1.00826e-09
-8.48449e-12
-5.00396e-12
-1.00833e-09
-5.56151e-12
-5.48299e-12
-1.01366e-09
-3.10144e-12
-5.13739e-12
-1.01414e-09
-5.54239e-12
-1.0152e-09
-8.31208e-12
-3.80517e-12
-1.01123e-09
-8.80351e-12
-3.21499e-12
-1.00904e-09
-5.93844e-12
-3.17589e-12
-1.01658e-09
-3.8836e-12
-2.59739e-12
-1.01718e-09
-2.63411e-12
-1.02123e-09
-7.83265e-12
-2.50939e-12
-1.01075e-09
-8.09707e-12
-1.86308e-12
-1.00922e-09
-5.08023e-12
-2.26988e-12
-1.01531e-09
-3.16399e-12
-1.81983e-12
-1.0146e-09
-2.15513e-12
-1.01678e-09
-7.53427e-12
-1.0133e-09
-8.34396e-12
-1.00964e-09
-5.26329e-12
-1.01794e-09
-3.63979e-12
-1.01627e-09
-1.0206e-09
-1.18482e-11
-9.55201e-12
-1.01237e-09
-1.21505e-11
-7.60233e-12
-1.00814e-09
-8.14891e-12
-8.53106e-12
-1.01778e-09
-5.54009e-12
-7.3886e-12
-1.0173e-09
-7.57799e-12
-1.02418e-09
-1.13288e-11
-8.19694e-12
-1.01311e-09
-1.17606e-11
-5.73523e-12
-1.00977e-09
-7.0633e-12
-7.36815e-12
-1.01952e-09
-3.91126e-12
-6.46646e-12
-1.01821e-09
-7.63345e-12
-1.01906e-09
-1.05753e-11
-4.66924e-12
-1.01917e-09
-1.28386e-11
-3.57436e-12
-1.00893e-09
-8.5568e-12
-3.71938e-12
-1.02451e-09
-6.29038e-12
-2.41052e-12
-1.0235e-09
-2.68422e-12
-1.03247e-09
-9.8183e-12
-3.79866e-12
-1.0154e-09
-1.10941e-11
-2.15574e-12
-1.00936e-09
-6.44167e-12
-3.39987e-12
-1.02029e-09
-4.25673e-12
-2.09906e-12
-1.01709e-09
-3.09293e-12
-1.02063e-09
-9.18535e-12
-1.02145e-09
-1.181e-11
-1.00917e-09
-7.08989e-12
-1.02606e-09
-5.61445e-12
-1.01984e-09
-1.02931e-09
-1.46229e-11
-1.25332e-11
-1.02689e-09
-1.68231e-11
-7.91684e-12
-1.00834e-09
-1.12465e-11
-1.09265e-11
-1.02784e-09
-9.28226e-12
-8.75621e-12
-1.02127e-09
-9.39059e-12
-1.03892e-09
-1.48053e-11
-1.11308e-11
-1.02087e-09
-1.60912e-11
-5.474e-12
-1.01092e-09
-8.70358e-12
-9.71636e-12
-1.02812e-09
-4.20888e-12
-7.98761e-12
-1.02348e-09
-1.07664e-11
-1.02189e-09
-1.3024e-11
-5.39498e-12
-1.03407e-09
-1.88551e-11
-3.78398e-12
-1.00479e-09
-1.31811e-11
-4.02729e-12
-1.03587e-09
-1.09059e-11
-1.29764e-12
-1.03247e-09
-2.11437e-12
-1.05203e-09
-1.21971e-11
-6.11141e-12
-1.02169e-09
-1.49288e-11
-2.12786e-12
-1.00829e-09
-8.0441e-12
-5.45516e-12
-1.02574e-09
-5.42885e-12
-1.95924e-12
-1.01905e-09
-4.69048e-12
-1.02348e-09
-1.05267e-11
-1.03623e-09
-1.66063e-11
-1.00522e-09
-9.78575e-12
-1.03833e-09
-9.12267e-12
-1.02247e-09
-1.04312e-09
-1.65906e-11
-1.60369e-11
-1.06164e-09
-2.19092e-11
-4.42274e-12
-1.00853e-09
-1.5993e-11
-1.35066e-11
-1.04452e-09
-1.71389e-11
-9.35542e-12
-1.02237e-09
-1.1192e-11
-1.06749e-09
-1.97329e-11
-1.44169e-11
-1.03337e-09
-2.16085e-11
-3.94546e-12
-1.00952e-09
-1.00293e-11
-1.21409e-11
-1.04106e-09
-2.32464e-12
-9.95693e-12
-1.03058e-09
-1.56748e-11
-1.01973e-09
-1.4747e-11
-5.58796e-12
-1.06148e-09
-2.77726e-11
-3.79414e-12
-9.91918e-10
-2.21762e-11
-3.92383e-12
-1.04969e-09
-2.02227e-11
2.34436e-12
-1.04672e-09
-5.61595e-13
-1.08736e-09
-1.52801e-11
-1.0678e-11
-1.0292e-09
-1.93654e-11
-1.43621e-12
-1.00656e-09
-9.71611e-12
-9.74365e-12
-1.02957e-09
-6.08398e-12
-2.75272e-13
-1.02006e-09
-7.72858e-12
-1.0224e-09
-1.04539e-11
-1.0637e-09
-2.29841e-11
-9.94128e-10
-1.39094e-11
-1.05715e-09
-1.56615e-11
-1.02099e-09
-1.06651e-09
-1.45778e-11
-2.0051e-11
-1.14117e-09
-2.14904e-11
6.10686e-12
-1.01356e-09
-2.2016e-11
-1.68314e-11
-1.06515e-09
-3.00067e-11
-6.67039e-12
-1.01604e-09
-1.26094e-11
-1.11671e-09
-2.59778e-11
-1.64725e-11
-1.05583e-09
-2.70304e-11
-6.27531e-13
-1.00174e-09
-9.52517e-12
-1.40688e-11
-1.06133e-09
5.8501e-12
-1.19162e-11
-1.04071e-09
-2.18517e-11
-1.00464e-09
-1.33365e-11
-4.74119e-12
-1.11108e-09
-3.7894e-11
-3.91718e-12
-9.64071e-10
-3.67561e-11
-4.20237e-12
-1.06069e-09
-3.37618e-11
8.88042e-12
-1.07051e-09
2.51007e-12
-1.14549e-09
-2.01696e-11
-1.97152e-11
-1.03717e-09
-2.29486e-11
1.19843e-12
-1.0089e-09
-1.02007e-11