/*--------------------------------*- C++ -*----------------------------------*\
  =========                 |
  \\      /  F ield         | OpenFOAM: The Open Source CFD Toolbox
   \\    /   O peration     | Website:  https://openfoam.org
    \\  /    A nd           | Version:  9
     \\/     M anipulation  |
\*---------------------------------------------------------------------------*/
FoamFile
{
    format      ascii;
    class       surfaceScalarField;
    location    "7000";
    object      phi;
}
// * * * * * * * * * * * * * * * * * * * * * * * * * * * * * * * * * * * * * //

dimensions      [0 3 -1 0 0 0 0];

internalField   nonuniform List<scalar> 
1436
(
-1.28051e-06
0.000410343
-250.023
0.000382803
-250.023
-2.92731e-05
-249.973
-249.977
-3.76211e-06
0.000519631
-250.023
0.000484781
-250.023
-3.89639e-05
-249.972
-249.976
-6.00225e-06
0.000703836
-250.024
0.000656479
-250.024
-5.37546e-05
-249.972
-249.976
-7.40598e-06
0.000933635
-250.025
0.000870199
-250.025
-7.16154e-05
-249.971
-249.975
-8.15688e-06
0.00119202
-250.026
0.00110961
-250.026
-9.19236e-05
-249.969
-249.974
-8.22134e-06
0.00147095
-250.028
0.00136703
-250.028
-0.000114403
-249.968
-249.973
-8.26399e-06
0.00176845
-250.03
0.00164017
-250.029
-0.000139167
-249.966
-249.972
-7.31561e-06
0.00208567
-250.032
0.00192965
-250.031
-0.000166528
-249.964
-249.97
-4.95852e-06
0.00242529
-250.034
0.00223746
-250.034
-0.000196938
-249.961
-249.968
-1.39593e-06
0.00279074
-250.037
0.00256619
-250.036
-0.000230927
-249.958
-249.966
3.65276e-06
0.00318589
-250.041
0.00291876
-250.039
-0.0002691
-249.955
-249.963
1.05071e-05
0.00361497
-250.044
0.00329836
-250.042
-0.000312119
-249.951
-249.961
1.79874e-05
0.00408262
-250.049
0.00370841
-250.046
-0.000360749
-249.947
-249.957
2.95812e-05
0.00459385
-250.054
0.00415265
-250.05
-0.000415848
-249.942
-249.954
4.45911e-05
0.00515417
-250.059
0.00463508
-250.055
-0.000478373
-249.936
-249.95
6.34889e-05
0.00576962
-250.065
0.00516008
-250.06
-0.00054939
-249.93
-249.945
8.69213e-05
0.00644682
-250.072
0.00573239
-250.066
-0.000630092
-249.923
-249.94
0.000115615
0.00719305
-250.079
0.00635719
-250.072
-0.000721811
-249.915
-249.935
0.000150397
0.00801633
-250.087
0.00704012
-250.079
-0.000826043
-249.906
-249.929
0.000192218
0.00892551
-250.097
0.00778734
-250.086
-0.000944469
-249.896
-249.922
0.000242176
0.00993036
-250.107
0.00860558
-250.095
-0.00107899
-249.885
-249.915
0.000301547
0.0110417
-250.118
0.00950216
-250.104
-0.00123174
-249.873
-249.906
0.000371819
0.0122716
-250.131
0.0104851
-250.114
-0.00140518
-249.859
-249.897
0.000454732
0.0136333
-250.145
0.0115631
-250.125
-0.00160207
-249.844
-249.887
0.000552325
0.0151415
-250.161
0.0127457
-250.137
-0.00182559
-249.827
-249.876
0.000666985
0.0168129
-250.178
0.0140433
-250.151
-0.00207937
-249.808
-249.864
0.000801511
0.0186656
-250.197
0.015467
-250.165
-0.00236758
-249.787
-249.851
0.000959188
0.02072
-250.219
0.0170293
-250.182
-0.00269498
-249.764
-249.837
0.00114387
0.0229989
-250.243
0.0187432
-250.199
-0.00306707
-249.738
-249.821
0.00136007
0.0255277
-250.27
0.0206232
-250.219
-0.00349015
-249.709
-249.804
0.00161309
0.0283346
-250.3
0.0226851
-250.24
-0.00397146
-249.677
-249.785
0.00190909
0.0314513
-250.333
0.0249456
-250.263
-0.00451932
-249.641
-249.765
0.00225531
0.0349128
-250.37
0.0274232
-250.288
-0.00514328
-249.601
-249.742
0.00266017
0.0387588
-250.412
0.0301379
-250.316
-0.00585427
-249.556
-249.718
0.00313346
0.043033
-250.458
0.0331111
-250.346
-0.00666487
-249.507
-249.692
0.00368652
0.0477845
-250.509
0.036366
-250.379
-0.00758942
-249.451
-249.663
0.00433251
0.0530683
-250.567
0.0399276
-250.414
-0.0086444
-249.39
-249.632
0.00508668
0.0589454
-250.631
0.0438231
-250.453
-0.00984862
-249.321
-249.598
0.00596669
0.0654845
-250.702
0.0480815
-250.495
-0.0112236
-249.244
-249.561
0.00699293
0.0727619
-250.782
0.0527343
-250.541
-0.0127939
-249.159
-249.521
0.00818898
0.0808632
-250.871
0.057815
-250.591
-0.0145875
-249.064
-249.478
0.00958207
0.0898839
-250.971
0.0633599
-250.645
-0.0166367
-248.957
-249.431
0.0112036
0.099931
-251.082
0.0694078
-250.703
-0.018978
-248.838
-249.381
0.0130898
0.111124
-251.206
0.0760002
-250.766
-0.0216533
-248.705
-249.326
0.0152824
0.123597
-251.345
0.0831812
-250.834
-0.0247102
-248.557
-249.268
0.0178297
0.1375
-251.5
0.0909979
-250.907
-0.0282034
-248.391
-249.205
0.020787
0.153
-251.674
0.0995001
-250.985
-0.032195
-248.206
-249.138
0.0242185
0.170284
-251.868
0.10874
-251.07
-0.0367563
-247.999
-249.066
0.028198
0.189565
-252.086
0.118774
-251.161
-0.0419685
-247.767
-248.989
0.0328107
0.211076
-252.33
0.12966
-251.257
-0.0479245
-247.508
-248.907
0.0381546
0.235083
-252.603
0.141457
-251.361
-0.0547304
-247.219
-248.82
0.044343
0.261882
-252.909
0.154228
-251.471
-0.0625073
-246.894
-248.728
0.0515062
0.291806
-253.252
0.168038
-251.587
-0.0713938
-246.531
-248.631
0.0597943
0.325227
-253.637
0.182953
-251.711
-0.0815482
-246.125
-248.53
0.0693803
0.362565
-254.069
0.199041
-251.84
-0.0931512
-245.669
-248.424
0.0804633
0.404289
-254.554
0.216368
-251.977
-0.106409
-245.159
-248.314
0.0932722
0.450928
-255.098
0.235002
-252.119
-0.121558
-244.586
-248.2
0.108069
0.503073
-255.709
0.255008
-252.266
-0.138866
-243.945
-248.084
0.125156
0.561391
-256.395
0.276452
-252.417
-0.15864
-243.225
-247.966
0.144881
0.626628
-257.166
0.299395
-252.572
-0.181229
-242.417
-247.848
0.16764
0.699622
-258.034
0.323897
-252.728
-0.207033
-241.511
-247.731
0.193892
0.781318
-259.009
0.350013
-252.885
-0.236504
-240.493
-247.617
0.224159
0.872772
-260.106
0.377797
-253.039
-0.270159
-239.35
-247.509
0.25904
0.975173
-261.34
0.4073
-253.187
-0.308585
-238.067
-247.411
0.299217
1.08986
-262.729
0.438574
-253.326
-0.352448
-236.625
-247.325
0.345469
1.21832
-264.292
0.471681
-253.453
-0.402506
-235.004
-247.255
0.398684
1.36224
-266.053
0.506696
-253.561
-0.459614
-233.182
-247.208
0.459873
1.52352
-268.037
0.543722
-253.645
-0.524742
-231.134
-247.189
0.530183
1.70424
-270.271
0.582862
-253.697
-0.59898
-228.831
-247.205
0.610911
1.90675
-272.789
0.624205
-253.711
-0.683545
-226.24
-247.264
0.70349
2.13352
-275.625
0.667786
-253.675
-0.779745
-223.327
-247.376
0.809408
2.38686
-278.822
0.713535
-253.579
-0.888823
-220.052
-247.552
0.929864
2.66784
-282.419
0.759091
-253.409
-1.01141
-216.373
-247.804
1.06471
2.97319
-286.457
0.799225
-253.143
-1.14602
-212.254
-248.151
1.20956
3.288
-290.955
0.835558
-252.769
-1.28573
-207.68
-248.601
1.34981
3.57221
-295.877
0.863611
-252.283
-1.4121
-202.696
-249.149
1.45178
3.74329
-301.072
0.885848
-251.717
-1.48553
-197.467
-249.75
1.46275
3.66791
-306.202
0.941819
-251.196
-1.43362
-192.365
-250.24
1.2969
3.14394
-310.643
0.926474
-250.825
-1.11447
-188.106
-250.429
0.83461
1.94059
-313.419
0.919776
-250.91
-0.338039
-185.827
-249.848
-0.167248
-0.236325
-313.015
0.0164656
-251.093
0.0248038
-186.089
-249.806
-0.0378566
0.0174858
-312.994
0.0177217
-251.149
-0.237492
-185.834
-250.026
-6.04803
1.9418
-308.888
9.79672
-266.994
2.42422
-186.316
-237.805
-1.03024
0.0543055
-307.912
0.805846
-268.83
-0.438482
-185.823
-237.438
-4.0529
-2.88018
-300.979
-0.411064
-272.472
-1.76391
-186.94
-239.613
-1.56703
-0.128248
-299.284
1.15027
-275.189
-1.77542
-185.293
-240.238
-5.30161
-5.51686
-288.465
-0.105135
-280.386
-1.68352
-189.126
-242.027
-10.2707
-3.41791
-274.777
-4.11697
-286.54
-4.13941
-188.405
-250.283
0.0323724
1.30913
-276.118
-1.6952
-284.812
-6.5593
-180.536
-258.538
8.44355
2.09635
-286.658
-6.74714
-269.622
-0.373803
-178.066
-265.659
1.93245
1.69056
-290.281
-6.71909
-260.97
-3.22743
-173.148
-275.605
15.2013
-2.49129
-302.991
-7.58166
-238.187
1.73376
-177.373
-281.453
0.462236
-2.47528
-300.978
-1.97893
-235.746
1.2224
-181.071
-282.21
5.9309
-3.9891
-302.92
-8.79878
-221.016
-2.99216
-182.068
-294.001
0.694814
-1.94071
-301.674
-7.72758
-212.594
-0.567322
-183.441
-302.295
1.64118
-2.19117
-301.124
-2.54871
-208.404
-0.961656
-184.671
-305.806
7.48051
-0.557161
-308.047
-17.5356
-183.388
-1.94229
-183.286
-325.284
1.87109
-1.00597
-308.912
-0.101093
-181.415
-0.6638
-183.628
-326.049
0.287022
0.90278
-310.102
-2.90298
-178.225
-5.45644
-177.268
-334.408
-1.82857
-0.505858
-307.767
0.610197
-180.664
-1.31051
-176.464
-335.108
-2.33622
-1.94693
-303.484
6.22929
-189.23
4.90966
-183.32
-323.969
-1.96878
-2.0461
-299.469
1.61812
-192.816
1.14425
-186.511
-321.206
-3.48627
-4.96127
-291.022
-0.365024
-195.938
0.186606
-191.658
-321.385
-1.28108
-3.19251
-286.548
0.4049
-197.623
1.32604
-196.177
-319.654
-0.686121
-1.34605
-284.516
1.62428
-199.933
1.95972
-199.482
-316.07
-1.7222
-1.91821
-280.875
2.63268
-204.288
2.91668
-204.317
-310.521
-1.97018
-2.04555
-276.859
2.96689
-209.225
3.18584
-209.548
-304.368
-1.93064
-1.90647
-273.022
2.95656
-214.112
3.08368
-214.538
-298.327
-1.75351
-1.69554
-269.573
2.77885
-218.644
2.82046
-219.054
-292.728
-1.53977
-1.47957
-266.553
2.52444
-222.708
2.5168
-223.05
-287.687
-1.32948
-1.27689
-263.947
2.25074
-226.289
2.22448
-226.551
-283.211
-1.1381
-1.09417
-261.714
1.98852
-229.415
1.95966
-229.605
-279.263
-0.970155
-0.933706
-259.81
1.75017
-232.136
1.72476
-232.264
-275.788
-0.82509
-0.794799
-258.19
1.53837
-234.499
1.51786
-234.577
-272.732
-0.700541
-0.67533
-256.814
1.35179
-236.552
1.33601
-236.588
-270.044
-0.593853
-0.572855
-255.648
1.18793
-238.334
1.17626
-238.337
-267.68
-0.502587
-0.485081
-254.66
1.04414
-239.881
1.03592
-239.859
-265.6
-0.424608
-0.409979
-253.825
0.917964
-241.223
0.912613
-241.181
-263.769
-0.358069
-0.345786
-253.121
0.807241
-242.389
0.804239
-242.332
-262.158
-0.301379
-0.290975
-252.529
0.710055
-243.4
0.708969
-243.332
-260.739
-0.25317
-0.244228
-252.032
0.624733
-244.278
0.625197
-244.201
-259.489
-0.212268
-0.204408
-251.615
0.549808
-245.041
0.551514
-244.957
-258.387
-0.177673
-0.170535
-251.267
0.483999
-245.702
0.486687
-245.614
-257.417
-0.148539
-0.141765
-250.976
0.426186
-246.277
0.429632
-246.186
-256.561
-0.124158
-0.117374
-250.735
0.375389
-246.776
0.379402
-246.682
-255.806
-0.103948
-0.0967398
-250.534
0.330754
-247.211
0.335165
-247.114
-255.14
-0.0862328
-0.0793326
-250.368
0.291536
-247.589
0.296193
-247.49
-254.552
-0.0698717
-0.0646898
-250.234
0.257079
-247.915
0.261845
-247.816
-254.033
-0.0561602
-0.0524023
-250.125
0.226791
-248.198
0.231562
-248.1
-253.575
-0.0446967
-0.04212
-250.038
0.20016
-248.443
0.204853
-248.347
-253.17
-0.0351354
-0.0335442
-249.97
0.176735
-248.655
0.181288
-248.561
-252.812
-0.0271766
-0.0264193
-249.916
0.156122
-248.838
0.16049
-248.748
-252.495
-0.0205555
-0.0205273
-249.875
0.137978
-248.996
0.142127
-248.911
-252.215
-0.0150253
-0.0156822
-249.844
0.122001
-249.133
0.125909
-249.052
-251.967
-0.0101285
-0.0116679
-249.823
0.107925
-249.251
0.11158
-249.176
-251.748
-0.0059074
-0.00825707
-249.808
0.0955174
-249.353
0.0989174
-249.283
-251.553
-0.00332457
-0.00563074
-249.8
0.0845697
-249.441
0.087722
-249.376
-251.381
-0.000839406
-0.00336798
-249.795
0.0749096
-249.517
0.077822
-249.458
-251.228
0.00105775
-0.00122066
-249.795
0.0663812
-249.582
0.0690647
-249.528
-251.093
0.00241247
0.000424985
-249.798
0.0588483
-249.639
0.0613131
-249.589
-250.973
0.00338182
0.00127779
-249.803
0.0521918
-249.688
0.054448
-249.642
-250.866
0.00411102
0.00202995
-249.809
0.0463074
-249.73
0.0483683
-249.689
-250.772
0.0045997
0.00265384
-249.816
0.0411032
-249.767
0.0429832
-249.729
-250.688
0.00491266
0.00313065
-249.824
0.0364986
-249.799
0.0382122
-249.765
-250.613
0.00508889
0.00347495
-249.833
0.0324227
-249.826
0.0339838
-249.795
-250.547
0.00515763
0.00370575
-249.842
0.0288137
-249.85
0.0302354
-249.822
-250.487
0.00514302
0.00384064
-249.851
0.0256169
-249.871
0.0269112
-249.845
-250.435
0.00506461
0.00389528
-249.86
0.0227843
-249.888
0.0239625
-249.865
-250.388
0.00493811
0.00388601
-249.869
0.0202736
-249.904
0.0213458
-249.883
-250.347
0.00477609
0.00382734
-249.877
0.0180474
-249.917
0.0190231
-249.898
-250.31
0.00458856
0.00373107
-249.886
0.016073
-249.929
0.0169607
-249.911
-250.276
0.00438353
0.00360687
-249.894
0.0143212
-249.939
0.0151287
-249.923
-250.247
0.00416749
0.00346265
-249.901
0.0127664
-249.947
0.0135009
-249.933
-250.221
0.00394561
0.00330482
-249.908
0.0113858
-249.954
0.0120538
-249.942
-250.197
0.0037221
0.0031386
-249.915
0.0101596
-249.961
0.0107671
-249.949
-250.176
0.00350029
0.00296819
-249.922
0.00906993
-249.966
0.00962232
-249.956
-250.158
0.00328281
0.00279696
-249.928
0.00810121
-249.971
0.00860353
-249.961
-250.141
0.0030716
0.00262758
-249.934
0.00723963
-249.975
0.00769644
-249.966
-250.126
0.00286811
0.00246211
-249.939
0.00647298
-249.978
0.00688848
-249.971
-250.113
0.00267332
0.00230214
-249.944
0.0057905
-249.981
0.00616852
-249.974
-250.101
0.00248811
0.00214885
-249.949
0.00518268
-249.984
0.00552674
-249.977
-250.09
0.00231316
0.00200306
-249.953
0.00464114
-249.986
0.00495446
-249.98
-250.081
0.0021488
0.00186533
-249.957
0.00415849
-249.988
0.00444401
-249.983
-250.072
0.00199518
0.00173599
-249.961
0.00372823
-249.989
0.00398865
-249.985
-250.064
0.00185229
0.00161518
-249.964
0.00334462
-249.991
0.00358242
-249.987
-250.058
0.00171999
0.00150287
-249.968
0.00300262
-249.992
0.00322006
-249.988
-250.051
0.001598
0.00139896
-249.971
0.0026978
-249.993
0.00289696
-249.99
-250.046
0.00148599
0.00130323
-249.973
0.00242626
-249.994
0.00260905
-249.991
-250.041
0.00138355
0.00121538
-249.976
0.00218459
-249.995
0.00235276
-249.992
-250.036
0.00129023
0.0011351
-249.978
0.00196977
-249.995
0.00212494
-249.993
-250.032
0.00120558
0.00106201
-249.981
0.00177918
-249.996
0.00192284
-249.994
-250.028
0.00112911
0.000995736
-249.983
0.0016105
-249.997
0.00174403
-249.995
-250.025
0.00106037
0.000935894
-249.985
0.00146171
-249.997
0.00158641
-249.995
-250.022
0.000998891
0.000882106
-249.987
0.00133104
-249.997
0.00144811
-249.996
-250.019
0.000944262
0.000834018
-249.988
0.00121697
-249.998
0.00132754
-249.997
-250.017
0.000896119
0.00079133
-249.99
0.00111814
-249.998
0.00122331
-249.997
-250.014
0.000854231
0.000753892
-249.992
0.00103348
-249.998
0.00113424
-249.998
-250.012
0.000818746
0.000721966
-249.993
0.00096267
-249.999
0.00105989
-249.998
-250.01
0.000791287
0.000697258
-249.994
0.000907321
-249.999
0.0010018
-249.999
-250.008
0.000781662
0.000687001
0.000886932
0.000981713
)
;

boundaryField
{
    inlet
    {
        type            calculated;
        value           nonuniform List<scalar> 4(-249.996 -249.999 -249.999 -250.006);
    }
    outlet
    {
        type            calculated;
        value           nonuniform List<scalar> 4(250.022 249.973 250.022 249.977);
    }
    repeat_boundary
    {
        type            calculated;
        value           uniform 0;
    }
}


// ************************************************************************* //
