/*--------------------------------*- C++ -*----------------------------------*\
  =========                 |
  \\      /  F ield         | OpenFOAM: The Open Source CFD Toolbox
   \\    /   O peration     | Website:  https://openfoam.org
    \\  /    A nd           | Version:  9
     \\/     M anipulation  |
\*---------------------------------------------------------------------------*/
FoamFile
{
    format      ascii;
    class       volVectorField;
    location    "0.04";
    object      stored_U;
}
// * * * * * * * * * * * * * * * * * * * * * * * * * * * * * * * * * * * * * //

dimensions      [0 1 -1 0 0 0 0];

internalField   nonuniform List<vector> 
9000
(
(-3.25243e-11 -4.02718e-11 -0.000999999)
(-7.99427e-11 -4.00453e-11 -0.000999999)
(-1.07911e-10 -3.81921e-11 -0.000999999)
(-1.32762e-10 -3.64012e-11 -0.000999999)
(-1.40762e-10 -3.48151e-11 -0.001)
(-1.31196e-10 -3.58081e-11 -0.001)
(-1.18337e-10 -3.35266e-11 -0.001)
(-9.53689e-11 -3.32576e-11 -0.001)
(-6.01352e-11 -3.28207e-11 -0.001)
(-2.04178e-11 -3.22688e-11 -0.001)
(-3.22846e-11 -1.06198e-10 -0.000999999)
(-7.79654e-11 -1.06188e-10 -0.000999999)
(-1.04505e-10 -1.02209e-10 -0.000999999)
(-1.29647e-10 -9.91173e-11 -0.001)
(-1.40449e-10 -9.77741e-11 -0.001)
(-1.30186e-10 -1.0231e-10 -0.001)
(-1.16046e-10 -9.37625e-11 -0.001)
(-9.4867e-11 -9.21825e-11 -0.001)
(-5.9316e-11 -9.10076e-11 -0.001)
(-1.99509e-11 -8.966e-11 -0.001)
(-3.23529e-11 -1.57388e-10 -0.000999999)
(-7.59085e-11 -1.57952e-10 -0.000999999)
(-1.01077e-10 -1.529e-10 -0.001)
(-1.28596e-10 -1.49912e-10 -0.001)
(-1.44244e-10 -1.52215e-10 -0.001)
(-1.27477e-10 -1.60903e-10 -0.001)
(-1.0848e-10 -1.44942e-10 -0.001)
(-9.28274e-11 -1.4004e-10 -0.001)
(-5.79137e-11 -1.38178e-10 -0.001)
(-1.92746e-11 -1.36378e-10 -0.001)
(-3.25326e-11 -2.09423e-10 -0.001)
(-7.31625e-11 -2.05846e-10 -0.001)
(-9.64658e-11 -1.95539e-10 -0.001)
(-1.28972e-10 -1.89978e-10 -0.001)
(-1.51525e-10 -2.01028e-10 -0.001)
(-1.22961e-10 -2.0087e-10 -0.001)
(-9.51982e-11 -1.84752e-10 -0.001)
(-8.81163e-11 -1.79305e-10 -0.001)
(-5.59286e-11 -1.78186e-10 -0.001)
(-1.84142e-11 -1.76613e-10 -0.001)
(-2.84079e-11 -1.92563e-10 -0.001)
(-6.1636e-11 -1.93414e-10 -0.001)
(-8.51963e-11 -1.92139e-10 -0.001)
(-1.34049e-10 -1.96143e-10 -0.001)
(-1.55196e-10 -2.00527e-10 -0.001)
(-1.11447e-10 -1.63534e-10 -0.001)
(-8.70486e-11 -1.79147e-10 -0.001)
(-8.62756e-11 -1.74634e-10 -0.001)
(-5.55828e-11 -1.71982e-10 -0.001)
(-1.80422e-11 -1.70688e-10 -0.001)
(-3.30322e-11 -1.21894e-10 -0.001)
(-7.23703e-11 -1.2475e-10 -0.001)
(-9.90911e-11 -1.30459e-10 -0.001)
(-1.37227e-10 -1.35698e-10 -0.001)
(-1.18921e-10 -1.2843e-10 -0.001)
(-1.01912e-10 -1.21888e-10 -0.001)
(-1.06367e-10 -1.32538e-10 -0.001)
(-8.09987e-11 -1.2779e-10 -0.001)
(-5.23374e-11 -1.23869e-10 -0.001)
(-1.74874e-11 -1.21456e-10 -0.001)
(-3.09956e-11 -9.03923e-11 -0.001)
(-6.99282e-11 -8.84456e-11 -0.001)
(-9.6121e-11 -8.95808e-11 -0.001)
(-1.31801e-10 -8.64328e-11 -0.001)
(-1.41015e-10 -8.08242e-11 -0.001)
(-1.15579e-10 -1.04962e-10 -0.001)
(-9.32182e-11 -9.48237e-11 -0.001)
(-7.76074e-11 -9.34937e-11 -0.001)
(-4.94852e-11 -9.21812e-11 -0.001)
(-1.58977e-11 -9.0461e-11 -0.001)
(-3.0861e-11 -7.41366e-11 -0.001)
(-7.13307e-11 -7.3492e-11 -0.001)
(-9.70665e-11 -7.53481e-11 -0.001)
(-1.28446e-10 -7.40377e-11 -0.001)
(-1.37432e-10 -6.90849e-11 -0.001)
(-1.15663e-10 -6.65457e-11 -0.001)
(-9.48722e-11 -6.91866e-11 -0.001)
(-7.83489e-11 -7.1028e-11 -0.001)
(-4.95266e-11 -7.11312e-11 -0.001)
(-1.59921e-11 -7.16993e-11 -0.001)
(-3.01526e-11 -4.60047e-11 -0.001)
(-7.09434e-11 -4.38213e-11 -0.001)
(-9.66509e-11 -4.38996e-11 -0.001)
(-1.25521e-10 -4.26031e-11 -0.001)
(-1.33461e-10 -3.96105e-11 -0.001)
(-1.15646e-10 -3.7808e-11 -0.001)
(-9.76786e-11 -4.07331e-11 -0.001)
(-7.95527e-11 -4.26574e-11 -0.001)
(-5.03256e-11 -4.3288e-11 -0.001)
(-1.66232e-11 -4.45605e-11 -0.001)
(-2.85087e-11 -1.49923e-11 -0.001)
(-6.8972e-11 -1.3438e-11 -0.001)
(-9.56444e-11 -1.31929e-11 -0.001)
(-1.239e-10 -1.26263e-11 -0.001)
(-1.32358e-10 -1.18183e-11 -0.001)
(-1.165e-10 -1.17891e-11 -0.001)
(-9.94639e-11 -1.29406e-11 -0.001)
(-8.0716e-11 -1.38182e-11 -0.001)
(-5.14168e-11 -1.42819e-11 -0.001)
(-1.73138e-11 -1.49772e-11 -0.001)
(-9.05724e-11 -1.11983e-10 -0.000999999)
(-2.26696e-10 -1.09768e-10 -0.000999999)
(-3.13755e-10 -1.04699e-10 -0.000999999)
(-3.90761e-10 -1.00559e-10 -0.000999999)
(-4.15393e-10 -9.75768e-11 -0.001)
(-3.82819e-10 -1.01955e-10 -0.001)
(-3.38911e-10 -9.44051e-11 -0.001)
(-2.7203e-10 -9.3445e-11 -0.001)
(-1.71579e-10 -9.21729e-11 -0.001)
(-5.79286e-11 -8.98826e-11 -0.001)
(-8.8319e-11 -2.97521e-10 -0.000999999)
(-2.19658e-10 -2.94604e-10 -0.000999999)
(-3.05147e-10 -2.83689e-10 -0.000999999)
(-3.8435e-10 -2.75581e-10 -0.000999999)
(-4.17579e-10 -2.70021e-10 -0.001)
(-3.8042e-10 -2.89139e-10 -0.001)
(-3.31097e-10 -2.62667e-10 -0.001)
(-2.70345e-10 -2.58574e-10 -0.001)
(-1.68488e-10 -2.5554e-10 -0.001)
(-5.58978e-11 -2.5088e-10 -0.001)
(-8.72419e-11 -4.41962e-10 -0.000999999)
(-2.12734e-10 -4.39481e-10 -0.000999999)
(-2.95345e-10 -4.24824e-10 -0.000999999)
(-3.77835e-10 -4.14366e-10 -0.001)
(-4.2976e-10 -4.10774e-10 -0.001)
(-3.76262e-10 -4.53796e-10 -0.001)
(-3.09065e-10 -4.02694e-10 -0.001)
(-2.65472e-10 -3.90978e-10 -0.001)
(-1.64704e-10 -3.86602e-10 -0.001)
(-5.38536e-11 -3.81123e-10 -0.001)
(-8.50234e-11 -5.80076e-10 -0.000999999)
(-2.01686e-10 -5.62983e-10 -0.000999999)
(-2.80034e-10 -5.33894e-10 -0.001)
(-3.70324e-10 -5.13993e-10 -0.001)
(-4.56967e-10 -5.02364e-10 -0.001)
(-3.72334e-10 -6.0182e-10 -0.001)
(-2.683e-10 -5.1712e-10 -0.001)
(-2.54292e-10 -4.97341e-10 -0.001)
(-1.59384e-10 -4.91272e-10 -0.001)
(-5.11476e-11 -4.84615e-10 -0.001)
(-6.91591e-11 -5.44921e-10 -0.001)
(-1.65484e-10 -5.43842e-10 -0.001)
(-2.46337e-10 -5.4316e-10 -0.001)
(-3.46342e-10 -5.62164e-10 -0.001)
(-5.17617e-10 -6.21038e-10 -0.001)
(-3.90797e-10 -3.91669e-10 -0.001)
(-2.04452e-10 -4.98848e-10 -0.001)
(-2.39642e-10 -4.97492e-10 -0.001)
(-1.52912e-10 -4.89789e-10 -0.001)
(-4.81369e-11 -4.8389e-10 -0.001)
(-8.29705e-11 -3.62884e-10 -0.001)
(-1.98904e-10 -3.75013e-10 -0.001)
(-2.98423e-10 -3.91504e-10 -0.001)
(-4.4828e-10 -4.08051e-10 -0.001)
(-2.86477e-10 -4.32962e-10 -0.001)
(-2.50233e-10 -2.9643e-10 -0.001)
(-3.74105e-10 -3.84399e-10 -0.001)
(-2.45219e-10 -3.79822e-10 -0.001)
(-1.46743e-10 -3.70229e-10 -0.001)
(-4.61649e-11 -3.64373e-10 -0.001)
(-8.05104e-11 -2.72293e-10 -0.001)
(-1.93341e-10 -2.71299e-10 -0.001)
(-2.7935e-10 -2.72164e-10 -0.001)
(-3.87989e-10 -2.53981e-10 -0.001)
(-4.05931e-10 -1.95031e-10 -0.001)
(-3.42259e-10 -3.71268e-10 -0.001)
(-2.87932e-10 -2.93823e-10 -0.001)
(-2.25472e-10 -2.80177e-10 -0.001)
(-1.3827e-10 -2.75458e-10 -0.001)
(-4.30658e-11 -2.73647e-10 -0.001)
(-8.13342e-11 -2.24074e-10 -0.001)
(-1.98152e-10 -2.24232e-10 -0.001)
(-2.81071e-10 -2.29377e-10 -0.001)
(-3.7116e-10 -2.25717e-10 -0.001)
(-4.03704e-10 -2.03982e-10 -0.001)
(-3.48943e-10 -2.14084e-10 -0.001)
(-2.83066e-10 -2.1065e-10 -0.001)
(-2.26902e-10 -2.14617e-10 -0.001)
(-1.40798e-10 -2.16935e-10 -0.001)
(-4.49036e-11 -2.21364e-10 -0.001)
(-8.01463e-11 -1.36811e-10 -0.001)
(-1.98128e-10 -1.31432e-10 -0.001)
(-2.80791e-10 -1.32477e-10 -0.001)
(-3.62564e-10 -1.30673e-10 -0.001)
(-3.94296e-10 -1.22837e-10 -0.001)
(-3.48876e-10 -1.19848e-10 -0.001)
(-2.88477e-10 -1.24969e-10 -0.001)
(-2.31761e-10 -1.31208e-10 -0.001)
(-1.45455e-10 -1.3491e-10 -0.001)
(-4.78939e-11 -1.40115e-10 -0.001)
(-7.55319e-11 -4.35102e-11 -0.001)
(-1.93142e-10 -3.90983e-11 -0.001)
(-2.79735e-10 -3.89749e-11 -0.001)
(-3.6081e-10 -3.85952e-11 -0.001)
(-3.92093e-10 -3.7913e-11 -0.001)
(-3.50281e-10 -3.71564e-11 -0.001)
(-2.93776e-10 -4.00503e-11 -0.001)
(-2.36367e-10 -4.30581e-11 -0.001)
(-1.49685e-10 -4.50987e-11 -0.001)
(-5.0252e-11 -4.7463e-11 -0.001)
(-1.48659e-10 -1.77145e-10 -0.000999998)
(-3.9007e-10 -1.72658e-10 -0.000999998)
(-5.65911e-10 -1.65779e-10 -0.000999998)
(-7.14602e-10 -1.613e-10 -0.000999999)
(-7.58262e-10 -1.57884e-10 -0.000999999)
(-6.95275e-10 -1.63284e-10 -0.000999999)
(-6.06836e-10 -1.53681e-10 -0.001)
(-4.82339e-10 -1.52215e-10 -0.001)
(-3.0568e-10 -1.50389e-10 -0.001)
(-1.03073e-10 -1.46578e-10 -0.001)
(-1.44109e-10 -4.80583e-10 -0.000999998)
(-3.79086e-10 -4.73004e-10 -0.000999998)
(-5.55606e-10 -4.58268e-10 -0.000999998)
(-7.08079e-10 -4.46906e-10 -0.000999999)
(-7.61751e-10 -4.33981e-10 -0.000999999)
(-6.92474e-10 -4.6102e-10 -0.001)
(-5.96985e-10 -4.27779e-10 -0.001)
(-4.79997e-10 -4.23618e-10 -0.001)
(-3.00907e-10 -4.20438e-10 -0.001)
(-9.97593e-11 -4.1383e-10 -0.001)
(-1.40442e-10 -7.19642e-10 -0.000999998)
(-3.67555e-10 -7.10811e-10 -0.000999998)
(-5.40898e-10 -6.90251e-10 -0.000999999)
(-6.91734e-10 -6.69875e-10 -0.000999999)
(-7.73915e-10 -6.39949e-10 -0.000999999)
(-6.90502e-10 -7.23753e-10 -0.001)
(-5.70672e-10 -6.52172e-10 -0.001)
(-4.75984e-10 -6.40459e-10 -0.001)
(-2.97292e-10 -6.36474e-10 -0.001)
(-9.7466e-11 -6.29501e-10 -0.001)
(-1.3396e-10 -9.25571e-10 -0.000999999)
(-3.48327e-10 -8.98992e-10 -0.000999999)
(-5.14672e-10 -8.59102e-10 -0.000999999)
(-6.57828e-10 -8.13469e-10 -0.000999999)
(-8.15681e-10 -6.9961e-10 -0.001)
(-7.04751e-10 -1.04507e-09 -0.001)
(-5.13738e-10 -8.7287e-10 -0.001)
(-4.64368e-10 -8.22956e-10 -0.001)
(-2.91209e-10 -8.01392e-10 -0.001)
(-9.40108e-11 -7.86707e-10 -0.001)
(-1.12129e-10 -9.07543e-10 -0.000999999)
(-2.99251e-10 -9.03214e-10 -0.000999999)
(-4.55324e-10 -9.01635e-10 -0.000999999)
(-5.32239e-10 -9.34011e-10 -0.001)
(-1.0055e-09 -1.12051e-09 -0.001)
(-8.63761e-10 -5.71936e-10 -0.001)
(-3.48564e-10 -8.0993e-10 -0.001)
(-4.04552e-10 -8.31484e-10 -0.001)
(-2.62626e-10 -8.25914e-10 -0.001)
(-8.43598e-11 -8.16824e-10 -0.001)
(-1.27873e-10 -6.88639e-10 -0.000999999)
(-3.40597e-10 -7.07535e-10 -0.001)
(-5.4542e-10 -7.27061e-10 -0.001)
(-8.76692e-10 -7.58396e-10 -0.001)
(-4.53625e-10 -9.19202e-10 -0.001)
(-3.93843e-10 -4.52321e-10 -0.001)
(-7.73251e-10 -6.58047e-10 -0.001)
(-4.80399e-10 -6.85789e-10 -0.001)
(-2.78186e-10 -6.8664e-10 -0.001)
(-8.65462e-11 -6.84302e-10 -0.001)
(-1.29561e-10 -5.47537e-10 -0.001)
(-3.36244e-10 -5.53057e-10 -0.001)
(-5.06139e-10 -5.51918e-10 -0.001)
(-7.24356e-10 -5.14991e-10 -0.001)
(-6.99743e-10 -3.52048e-10 -0.001)
(-6.02585e-10 -7.80717e-10 -0.001)
(-5.81724e-10 -5.97987e-10 -0.001)
(-4.33229e-10 -5.59088e-10 -0.001)
(-2.62506e-10 -5.46084e-10 -0.001)
(-8.32786e-11 -5.44691e-10 -0.001)
(-1.3218e-10 -4.40162e-10 -0.001)
(-3.4382e-10 -4.42934e-10 -0.001)
(-5.07314e-10 -4.49817e-10 -0.001)
(-6.76824e-10 -4.45396e-10 -0.001)
(-7.19366e-10 -3.82316e-10 -0.001)
(-6.40074e-10 -4.62042e-10 -0.001)
(-5.51611e-10 -4.30771e-10 -0.001)
(-4.28543e-10 -4.2814e-10 -0.001)
(-2.64891e-10 -4.29556e-10 -0.001)
(-8.61597e-11 -4.35824e-10 -0.001)
(-1.31409e-10 -2.68155e-10 -0.001)
(-3.44969e-10 -2.62255e-10 -0.001)
(-5.08527e-10 -2.65027e-10 -0.001)
(-6.56817e-10 -2.66159e-10 -0.001)
(-7.16356e-10 -2.44037e-10 -0.001)
(-6.51039e-10 -2.64627e-10 -0.001)
(-5.47765e-10 -2.61234e-10 -0.001)
(-4.32015e-10 -2.65956e-10 -0.001)
(-2.71021e-10 -2.70713e-10 -0.001)
(-9.03229e-11 -2.77407e-10 -0.001)
(-1.2554e-10 -8.5155e-11 -0.001)
(-3.39477e-10 -7.96546e-11 -0.001)
(-5.10142e-10 -8.0491e-11 -0.001)
(-6.54473e-10 -8.23033e-11 -0.001)
(-7.16366e-10 -7.94795e-11 -0.001)
(-6.55967e-10 -8.37431e-11 -0.001)
(-5.51832e-10 -8.56645e-11 -0.001)
(-4.37194e-10 -8.88263e-11 -0.001)
(-2.76356e-10 -9.16229e-11 -0.001)
(-9.31789e-11 -9.44722e-11 -0.001)
(-2.1324e-10 -2.38963e-10 -0.000999997)
(-5.88088e-10 -2.34159e-10 -0.000999997)
(-8.87674e-10 -2.27671e-10 -0.000999998)
(-1.13048e-09 -2.24143e-10 -0.000999998)
(-1.19974e-09 -2.19548e-10 -0.000999998)
(-1.10392e-09 -2.19371e-10 -0.000999999)
(-9.61094e-10 -2.14674e-10 -0.000999999)
(-7.59461e-10 -2.13439e-10 -0.001)
(-4.8448e-10 -2.11612e-10 -0.001)
(-1.6423e-10 -2.07684e-10 -0.001)
(-2.08392e-10 -6.66319e-10 -0.000999997)
(-5.7748e-10 -6.57178e-10 -0.000999997)
(-8.79355e-10 -6.42524e-10 -0.000999998)
(-1.12464e-09 -6.30916e-10 -0.000999998)
(-1.19737e-09 -6.13916e-10 -0.000999999)
(-1.10122e-09 -6.189e-10 -0.000999999)
(-9.57043e-10 -6.02991e-10 -0.001)
(-7.57867e-10 -6.01581e-10 -0.001)
(-4.80031e-10 -5.993e-10 -0.001)
(-1.61e-10 -5.92955e-10 -0.001)
(-2.03233e-10 -1.01071e-09 -0.000999997)
(-5.64164e-10 -1.00063e-09 -0.000999998)
(-8.63158e-10 -9.81115e-10 -0.000999998)
(-1.10421e-09 -9.59751e-10 -0.000999998)
(-1.19022e-09 -9.21012e-10 -0.000999999)
(-1.09521e-09 -9.66158e-10 -0.000999999)
(-9.4568e-10 -9.21518e-10 -0.001)
(-7.57296e-10 -9.15321e-10 -0.001)
(-4.77947e-10 -9.12394e-10 -0.001)
(-1.59325e-10 -9.05997e-10 -0.001)
(-1.96363e-10 -1.28381e-09 -0.000999998)
(-5.45889e-10 -1.26183e-09 -0.000999998)
(-8.3847e-10 -1.22879e-09 -0.000999998)
(-1.06461e-09 -1.18429e-09 -0.000999999)
(-1.2039e-09 -1.0275e-09 -0.000999999)
(-1.10182e-09 -1.39112e-09 -0.001)
(-9.06282e-10 -1.24034e-09 -0.001)
(-7.48852e-10 -1.18065e-09 -0.001)
(-4.72556e-10 -1.14762e-09 -0.001)
(-1.56385e-10 -1.12863e-09 -0.001)
(-1.78664e-10 -1.31864e-09 -0.000999998)
(-5.06471e-10 -1.31043e-09 -0.000999998)
(-7.85512e-10 -1.29569e-09 -0.000999999)
(-9.02877e-10 -1.30517e-09 -0.000999999)
(-1.39696e-09 -1.49527e-09 -0.001)
(-1.30806e-09 -1.0077e-09 -0.001)
(-7.35254e-10 -1.19283e-09 -0.001)
(-6.64668e-10 -1.21674e-09 -0.001)
(-4.28267e-10 -1.21364e-09 -0.001)
(-1.4265e-10 -1.2055e-09 -0.001)
(-1.85518e-10 -1.12786e-09 -0.000999999)
(-5.20232e-10 -1.14499e-09 -0.000999999)
(-8.33129e-10 -1.15309e-09 -0.000999999)
(-1.2642e-09 -1.1685e-09 -0.001)
(-9.06339e-10 -1.3757e-09 -0.001)
(-7.99366e-10 -8.69446e-10 -0.001)
(-1.11529e-09 -1.04438e-09 -0.001)
(-7.69728e-10 -1.08727e-09 -0.001)
(-4.63736e-10 -1.10038e-09 -0.001)
(-1.50617e-10 -1.10281e-09 -0.001)
(-1.93551e-10 -9.43929e-10 -0.000999999)
(-5.29477e-10 -9.57216e-10 -0.000999999)
(-8.08946e-10 -9.62641e-10 -0.001)
(-1.12552e-09 -9.35371e-10 -0.001)
(-1.09792e-09 -7.72083e-10 -0.001)
(-9.76706e-10 -1.15534e-09 -0.001)
(-9.53099e-10 -9.97991e-10 -0.001)
(-7.20719e-10 -9.54641e-10 -0.001)
(-4.4597e-10 -9.36464e-10 -0.001)
(-1.47153e-10 -9.32195e-10 -0.001)
(-1.96899e-10 -7.43617e-10 -0.001)
(-5.37082e-10 -7.47642e-10 -0.001)
(-8.11212e-10 -7.53801e-10 -0.001)
(-1.07364e-09 -7.53062e-10 -0.001)
(-1.12635e-09 -6.78338e-10 -0.001)
(-1.02521e-09 -7.8931e-10 -0.001)
(-9.14593e-10 -7.48114e-10 -0.001)
(-7.08266e-10 -7.36639e-10 -0.001)
(-4.43144e-10 -7.32597e-10 -0.001)
(-1.4812e-10 -7.34915e-10 -0.001)
(-1.96122e-10 -4.57374e-10 -0.001)
(-5.38176e-10 -4.51885e-10 -0.001)
(-8.14257e-10 -4.55742e-10 -0.001)
(-1.04998e-09 -4.61163e-10 -0.001)
(-1.13409e-09 -4.30874e-10 -0.001)
(-1.04641e-09 -4.75309e-10 -0.001)
(-9.00365e-10 -4.6312e-10 -0.001)
(-7.05203e-10 -4.61612e-10 -0.001)
(-4.45667e-10 -4.63521e-10 -0.001)
(-1.50853e-10 -4.6839e-10 -0.001)
(-1.90174e-10 -1.48045e-10 -0.001)
(-5.33497e-10 -1.4279e-10 -0.001)
(-8.18765e-10 -1.44742e-10 -0.001)
(-1.04658e-09 -1.48948e-10 -0.001)
(-1.13816e-09 -1.43479e-10 -0.001)
(-1.05539e-09 -1.55282e-10 -0.001)
(-8.99194e-10 -1.54414e-10 -0.001)
(-7.07335e-10 -1.55708e-10 -0.001)
(-4.49955e-10 -1.57823e-10 -0.001)
(-1.53575e-10 -1.60534e-10 -0.001)
(-2.95457e-10 -3.10795e-10 -0.000999996)
(-8.43832e-10 -3.08262e-10 -0.000999996)
(-1.30204e-09 -3.03151e-10 -0.000999996)
(-1.65429e-09 -2.99369e-10 -0.000999997)
(-1.77386e-09 -2.92133e-10 -0.000999998)
(-1.66317e-09 -2.88086e-10 -0.000999998)
(-1.45454e-09 -2.88864e-10 -0.000999999)
(-1.14982e-09 -2.87943e-10 -0.001)
(-7.36561e-10 -2.86689e-10 -0.001)
(-2.51283e-10 -2.83634e-10 -0.001)
(-2.92888e-10 -8.88814e-10 -0.000999996)
(-8.37234e-10 -8.82466e-10 -0.000999996)
(-1.29568e-09 -8.68948e-10 -0.000999997)
(-1.64659e-09 -8.56304e-10 -0.000999997)
(-1.76605e-09 -8.39532e-10 -0.000999998)
(-1.66308e-09 -8.18773e-10 -0.000999998)
(-1.45718e-09 -8.23909e-10 -0.000999999)
(-1.14987e-09 -8.2442e-10 -0.001)
(-7.34203e-10 -8.22732e-10 -0.001)
(-2.49235e-10 -8.17361e-10 -0.001)
(-2.87912e-10 -1.3689e-09 -0.000999996)
(-8.23859e-10 -1.36195e-09 -0.000999997)
(-1.27846e-09 -1.34492e-09 -0.000999997)
(-1.62825e-09 -1.32811e-09 -0.000999998)
(-1.7399e-09 -1.30751e-09 -0.000999998)
(-1.65083e-09 -1.26421e-09 -0.000999999)
(-1.46305e-09 -1.26661e-09 -0.000999999)
(-1.15097e-09 -1.26624e-09 -0.001)
(-7.32574e-10 -1.26304e-09 -0.001)
(-2.47992e-10 -1.25715e-09 -0.001)
(-2.83237e-10 -1.7305e-09 -0.000999997)
(-8.10512e-10 -1.72084e-09 -0.000999997)
(-1.26184e-09 -1.70299e-09 -0.000999997)
(-1.60923e-09 -1.68529e-09 -0.000999998)
(-1.70225e-09 -1.58876e-09 -0.000999999)
(-1.62232e-09 -1.71847e-09 -0.000999999)
(-1.45937e-09 -1.65258e-09 -0.001)
(-1.14647e-09 -1.61574e-09 -0.001)
(-7.27699e-10 -1.58881e-09 -0.001)
(-2.4584e-10 -1.57299e-09 -0.001)
(-2.74726e-10 -1.84417e-09 -0.000999997)
(-7.9276e-10 -1.83785e-09 -0.000999998)
(-1.24283e-09 -1.81271e-09 -0.000999998)
(-1.51401e-09 -1.7782e-09 -0.000999999)
(-1.77308e-09 -1.85129e-09 -0.000999999)
(-1.71461e-09 -1.7131e-09 -0.001)
(-1.36024e-09 -1.73916e-09 -0.001)
(-1.08729e-09 -1.72835e-09 -0.001)
(-6.93042e-10 -1.71857e-09 -0.001)
(-2.3531e-10 -1.71143e-09 -0.001)
(-2.73279e-10 -1.702e-09 -0.000999998)
(-7.75315e-10 -1.71306e-09 -0.000999998)
(-1.20204e-09 -1.70677e-09 -0.000999999)
(-1.64779e-09 -1.686e-09 -0.000999999)
(-1.6372e-09 -1.793e-09 -0.001)
(-1.51025e-09 -1.59249e-09 -0.001)
(-1.47458e-09 -1.63239e-09 -0.001)
(-1.12595e-09 -1.64279e-09 -0.001)
(-7.14218e-10 -1.64807e-09 -0.001)
(-2.4203e-10 -1.64729e-09 -0.001)
(-2.82544e-10 -1.46625e-09 -0.000999999)
(-7.94236e-10 -1.48041e-09 -0.000999999)
(-1.21565e-09 -1.49313e-09 -0.000999999)
(-1.60014e-09 -1.50154e-09 -0.001)
(-1.67951e-09 -1.42788e-09 -0.001)
(-1.55406e-09 -1.55063e-09 -0.001)
(-1.4106e-09 -1.48751e-09 -0.001)
(-1.10312e-09 -1.46762e-09 -0.001)
(-7.00843e-10 -1.45238e-09 -0.001)
(-2.37705e-10 -1.44341e-09 -0.001)
(-2.84654e-10 -1.14695e-09 -0.000999999)
(-7.99391e-10 -1.14995e-09 -0.000999999)
(-1.22306e-09 -1.15485e-09 -0.001)
(-1.58252e-09 -1.16327e-09 -0.001)
(-1.68626e-09 -1.12614e-09 -0.001)
(-1.56986e-09 -1.17839e-09 -0.001)
(-1.39156e-09 -1.15658e-09 -0.001)
(-1.09091e-09 -1.14493e-09 -0.001)
(-6.92914e-10 -1.13561e-09 -0.001)
(-2.35899e-10 -1.13253e-09 -0.001)
(-2.83377e-10 -7.14257e-10 -0.001)
(-7.99889e-10 -7.09739e-10 -0.001)
(-1.22883e-09 -7.14217e-10 -0.001)
(-1.57132e-09 -7.23201e-10 -0.001)
(-1.69452e-09 -7.03879e-10 -0.001)
(-1.58439e-09 -7.39187e-10 -0.001)
(-1.37705e-09 -7.28694e-10 -0.001)
(-1.08215e-09 -7.23068e-10 -0.001)
(-6.90664e-10 -7.21415e-10 -0.001)
(-2.36817e-10 -7.24854e-10 -0.001)
(-2.78309e-10 -2.36105e-10 -0.001)
(-7.9641e-10 -2.31989e-10 -0.001)
(-1.23398e-09 -2.34622e-10 -0.001)
(-1.56897e-09 -2.39565e-10 -0.001)
(-1.69882e-09 -2.35376e-10 -0.001)
(-1.59155e-09 -2.4718e-10 -0.001)
(-1.3727e-09 -2.45534e-10 -0.001)
(-1.08151e-09 -2.45469e-10 -0.001)
(-6.94764e-10 -2.46989e-10 -0.001)
(-2.40248e-10 -2.50398e-10 -0.001)
(-4.08906e-10 -4.10492e-10 -0.000999994)
(-1.18515e-09 -4.10503e-10 -0.000999995)
(-1.84169e-09 -4.06555e-10 -0.000999995)
(-2.32564e-09 -4.01122e-10 -0.000999996)
(-2.52584e-09 -3.90785e-10 -0.000999997)
(-2.42957e-09 -3.88915e-10 -0.000999998)
(-2.14597e-09 -3.90485e-10 -0.000999998)
(-1.69824e-09 -3.89124e-10 -0.000999999)
(-1.0895e-09 -3.8842e-10 -0.001)
(-3.7326e-10 -3.86242e-10 -0.001)
(-4.08906e-10 -1.19069e-09 -0.000999994)
(-1.18271e-09 -1.18834e-09 -0.000999995)
(-1.83585e-09 -1.17548e-09 -0.000999995)
(-2.31442e-09 -1.15969e-09 -0.000999996)
(-2.51849e-09 -1.1413e-09 -0.000999997)
(-2.43383e-09 -1.11875e-09 -0.000999998)
(-2.15023e-09 -1.12894e-09 -0.000999999)
(-1.69941e-09 -1.1277e-09 -0.000999999)
(-1.08937e-09 -1.12564e-09 -0.001)
(-3.72474e-10 -1.12066e-09 -0.001)
(-4.05e-10 -1.85305e-09 -0.000999995)
(-1.1699e-09 -1.84992e-09 -0.000999995)
(-1.81665e-09 -1.83221e-09 -0.000999996)
(-2.29614e-09 -1.81449e-09 -0.000999997)
(-2.48995e-09 -1.80939e-09 -0.000999997)
(-2.42197e-09 -1.72394e-09 -0.000999998)
(-2.15901e-09 -1.7475e-09 -0.000999999)
(-1.69823e-09 -1.74728e-09 -0.001)
(-1.08675e-09 -1.74239e-09 -0.001)
(-3.71163e-10 -1.73557e-09 -0.001)
(-4.02152e-10 -2.34342e-09 -0.000999996)
(-1.1582e-09 -2.34252e-09 -0.000999996)
(-1.80041e-09 -2.32976e-09 -0.000999996)
(-2.29176e-09 -2.3284e-09 -0.000999997)
(-2.42811e-09 -2.30612e-09 -0.000999998)
(-2.37228e-09 -2.23246e-09 -0.000999999)
(-2.17367e-09 -2.21886e-09 -0.001)
(-1.69444e-09 -2.20663e-09 -0.001)
(-1.08121e-09 -2.19243e-09 -0.001)
(-3.69093e-10 -2.18146e-09 -0.001)
(-3.99489e-10 -2.54535e-09 -0.000999996)
(-1.15153e-09 -2.54579e-09 -0.000999997)
(-1.80238e-09 -2.52302e-09 -0.000999997)
(-2.27254e-09 -2.46838e-09 -0.000999998)
(-2.39396e-09 -2.44509e-09 -0.000999999)
(-2.33486e-09 -2.53867e-09 -0.001)
(-2.13332e-09 -2.46567e-09 -0.001)
(-1.67193e-09 -2.42548e-09 -0.001)
(-1.06598e-09 -2.4081e-09 -0.001)
(-3.6449e-10 -2.39968e-09 -0.001)
(-3.9768e-10 -2.43637e-09 -0.000999997)
(-1.13074e-09 -2.44307e-09 -0.000999998)
(-1.72278e-09 -2.43472e-09 -0.000999998)
(-2.21393e-09 -2.39814e-09 -0.000999999)
(-2.49842e-09 -2.39422e-09 -0.001)
(-2.39263e-09 -2.46088e-09 -0.001)
(-2.06069e-09 -2.41175e-09 -0.001)
(-1.63706e-09 -2.38189e-09 -0.001)
(-1.06018e-09 -2.36819e-09 -0.001)
(-3.65307e-10 -2.358e-09 -0.001)
(-4.01626e-10 -2.13441e-09 -0.000999998)
(-1.14512e-09 -2.14229e-09 -0.000999998)
(-1.75712e-09 -2.15513e-09 -0.000999999)
(-2.23196e-09 -2.18944e-09 -0.001)
(-2.45695e-09 -2.19068e-09 -0.001)
(-2.35236e-09 -2.13572e-09 -0.001)
(-2.05422e-09 -2.12806e-09 -0.001)
(-1.6285e-09 -2.12373e-09 -0.001)
(-1.0468e-09 -2.11004e-09 -0.001)
(-3.58878e-10 -2.09682e-09 -0.001)
(-4.01609e-10 -1.67263e-09 -0.000999999)
(-1.14739e-09 -1.67471e-09 -0.000999999)
(-1.76975e-09 -1.67954e-09 -0.001)
(-2.2494e-09 -1.69563e-09 -0.001)
(-2.44461e-09 -1.70109e-09 -0.001)
(-2.33012e-09 -1.68602e-09 -0.001)
(-2.04871e-09 -1.67772e-09 -0.001)
(-1.61918e-09 -1.66877e-09 -0.001)
(-1.03751e-09 -1.65735e-09 -0.001)
(-3.56232e-10 -1.65237e-09 -0.001)
(-4.0056e-10 -1.05436e-09 -0.000999999)
(-1.14875e-09 -1.05233e-09 -0.001)
(-1.77785e-09 -1.05732e-09 -0.001)
(-2.25338e-09 -1.06719e-09 -0.001)
(-2.44719e-09 -1.0654e-09 -0.001)
(-2.32884e-09 -1.07523e-09 -0.001)
(-2.03684e-09 -1.06815e-09 -0.001)
(-1.60813e-09 -1.06218e-09 -0.001)
(-1.03361e-09 -1.05947e-09 -0.001)
(-3.57066e-10 -1.06379e-09 -0.00100001)
(-3.96865e-10 -3.54564e-10 -0.001)
(-1.14608e-09 -3.52262e-10 -0.001)
(-1.78101e-09 -3.54738e-10 -0.001)
(-2.25299e-09 -3.58859e-10 -0.001)
(-2.44779e-09 -3.5867e-10 -0.001)
(-2.32821e-09 -3.64146e-10 -0.001)
(-2.03156e-09 -3.62583e-10 -0.001)
(-1.60736e-09 -3.62873e-10 -0.001)
(-1.03918e-09 -3.649e-10 -0.00100001)
(-3.61851e-10 -3.6967e-10 -0.00100001)
(-5.65724e-10 -5.51958e-10 -0.000999992)
(-1.64521e-09 -5.53426e-10 -0.000999993)
(-2.55866e-09 -5.49977e-10 -0.000999993)
(-3.21879e-09 -5.43645e-10 -0.000999994)
(-3.52928e-09 -5.3347e-10 -0.000999995)
(-3.46748e-09 -5.32042e-10 -0.000999997)
(-3.0946e-09 -5.32948e-10 -0.000999998)
(-2.44859e-09 -5.30128e-10 -0.000999999)
(-1.57116e-09 -5.29214e-10 -0.001)
(-5.39349e-10 -5.27336e-10 -0.001)
(-5.67209e-10 -1.6084e-09 -0.000999993)
(-1.64529e-09 -1.60874e-09 -0.000999993)
(-2.55373e-09 -1.59646e-09 -0.000999994)
(-3.20847e-09 -1.57953e-09 -0.000999995)
(-3.52439e-09 -1.56145e-09 -0.000999996)
(-3.47348e-09 -1.5431e-09 -0.000999997)
(-3.09851e-09 -1.55172e-09 -0.000999998)
(-2.4495e-09 -1.54571e-09 -0.000999999)
(-1.57239e-09 -1.54237e-09 -0.001)
(-5.39502e-10 -1.53701e-09 -0.001)
(-5.64048e-10 -2.5124e-09 -0.000999993)
(-1.63332e-09 -2.51138e-09 -0.000999994)
(-2.53441e-09 -2.49211e-09 -0.000999994)
(-3.19015e-09 -2.47075e-09 -0.000999995)
(-3.49965e-09 -2.46558e-09 -0.000999996)
(-3.46436e-09 -2.38841e-09 -0.000999998)
(-3.10322e-09 -2.4143e-09 -0.000999999)
(-2.44411e-09 -2.4083e-09 -0.001)
(-1.56858e-09 -2.40107e-09 -0.001)
(-5.38015e-10 -2.39168e-09 -0.001)
(-5.61362e-10 -3.1799e-09 -0.000999994)
(-1.62011e-09 -3.18042e-09 -0.000999994)
(-2.5131e-09 -3.16335e-09 -0.000999995)
(-3.1821e-09 -3.15669e-09 -0.000999996)
(-3.44218e-09 -3.18e-09 -0.000999997)
(-3.42218e-09 -3.01255e-09 -0.000999999)
(-3.11855e-09 -3.04129e-09 -0.001)
(-2.43662e-09 -3.03528e-09 -0.001)
(-1.56068e-09 -3.02566e-09 -0.001)
(-5.34814e-10 -3.01242e-09 -0.001)
(-5.58526e-10 -3.48103e-09 -0.000999995)
(-1.61056e-09 -3.4835e-09 -0.000999996)
(-2.51055e-09 -3.463e-09 -0.000999996)
(-3.20681e-09 -3.41021e-09 -0.000999997)
(-3.35575e-09 -3.33906e-09 -0.000999998)
(-3.32555e-09 -3.51285e-09 -0.000999999)
(-3.12588e-09 -3.39411e-09 -0.001)
(-2.42867e-09 -3.35898e-09 -0.001)
(-1.55177e-09 -3.34226e-09 -0.001)
(-5.30657e-10 -3.33068e-09 -0.001)
(-5.57261e-10 -3.39104e-09 -0.000999996)
(-1.5954e-09 -3.3964e-09 -0.000999997)
(-2.4397e-09 -3.39274e-09 -0.000999997)
(-3.05797e-09 -3.36592e-09 -0.000999998)
(-3.54483e-09 -3.30936e-09 -0.000999999)
(-3.47759e-09 -3.4726e-09 -0.001)
(-2.96458e-09 -3.37664e-09 -0.001)
(-2.38497e-09 -3.33661e-09 -0.001)
(-1.539e-09 -3.31307e-09 -0.001)
(-5.29656e-10 -3.29744e-09 -0.001)
(-5.57507e-10 -3.00854e-09 -0.000999997)
(-1.60572e-09 -3.01346e-09 -0.000999998)
(-2.48005e-09 -3.02542e-09 -0.000999998)
(-3.12358e-09 -3.06532e-09 -0.000999999)
(-3.46209e-09 -3.11353e-09 -0.001)
(-3.39283e-09 -2.9732e-09 -0.001)
(-2.98996e-09 -2.99763e-09 -0.001)
(-2.3653e-09 -2.98502e-09 -0.001)
(-1.51917e-09 -2.96631e-09 -0.001)
(-5.21423e-10 -2.95101e-09 -0.00100001)
(-5.56556e-10 -2.36983e-09 -0.000999998)
(-1.60644e-09 -2.37356e-09 -0.000999999)
(-2.4914e-09 -2.37838e-09 -0.000999999)
(-3.14615e-09 -2.39313e-09 -0.001)
(-3.45282e-09 -2.41018e-09 -0.001)
(-3.36162e-09 -2.38483e-09 -0.001)
(-2.97639e-09 -2.36736e-09 -0.001)
(-2.35382e-09 -2.35535e-09 -0.001)
(-1.51091e-09 -2.34371e-09 -0.00100001)
(-5.20119e-10 -2.33997e-09 -0.00100001)
(-5.56734e-10 -1.50852e-09 -0.000999999)
(-1.60955e-09 -1.51006e-09 -0.000999999)
(-2.49931e-09 -1.5151e-09 -0.001)
(-3.15519e-09 -1.52339e-09 -0.001)
(-3.45359e-09 -1.52918e-09 -0.001)
(-3.34981e-09 -1.52747e-09 -0.001)
(-2.9603e-09 -1.51541e-09 -0.001)
(-2.34165e-09 -1.50892e-09 -0.00100001)
(-1.50833e-09 -1.50703e-09 -0.00100001)
(-5.22128e-10 -1.51246e-09 -0.00100001)
(-5.54151e-10 -5.13288e-10 -0.000999999)
(-1.60691e-09 -5.1272e-10 -0.001)
(-2.49968e-09 -5.14714e-10 -0.001)
(-3.15402e-09 -5.17914e-10 -0.001)
(-3.45012e-09 -5.19522e-10 -0.001)
(-3.34111e-09 -5.21003e-10 -0.001)
(-2.95184e-09 -5.17424e-10 -0.001)
(-2.34088e-09 -5.18427e-10 -0.00100001)
(-1.51444e-09 -5.21124e-10 -0.00100001)
(-5.27374e-10 -5.26373e-10 -0.00100001)
(-7.79599e-10 -7.47046e-10 -0.00099999)
(-2.26787e-09 -7.48722e-10 -0.00099999)
(-3.52709e-09 -7.45594e-10 -0.000999991)
(-4.43423e-09 -7.40414e-10 -0.000999992)
(-4.89334e-09 -7.34608e-10 -0.000999994)
(-4.8671e-09 -7.27675e-10 -0.000999996)
(-4.37116e-09 -7.29145e-10 -0.000999997)
(-3.45894e-09 -7.24351e-10 -0.000999999)
(-2.22005e-09 -7.22477e-10 -0.001)
(-7.63094e-10 -7.20666e-10 -0.001)
(-7.81331e-10 -2.17722e-09 -0.00099999)
(-2.26928e-09 -2.17826e-09 -0.00099999)
(-3.52545e-09 -2.1675e-09 -0.000999991)
(-4.43172e-09 -2.15423e-09 -0.000999993)
(-4.88987e-09 -2.14592e-09 -0.000999994)
(-4.87077e-09 -2.11539e-09 -0.000999996)
(-4.37606e-09 -2.12826e-09 -0.000999998)
(-3.45881e-09 -2.11695e-09 -0.000999999)
(-2.22191e-09 -2.11105e-09 -0.001)
(-7.64061e-10 -2.10427e-09 -0.001)
(-7.77977e-10 -3.39922e-09 -0.000999991)
(-2.25831e-09 -3.39817e-09 -0.000999991)
(-3.50984e-09 -3.38046e-09 -0.000999992)
(-4.42136e-09 -3.36217e-09 -0.000999994)
(-4.86405e-09 -3.36498e-09 -0.000999995)
(-4.85885e-09 -3.27477e-09 -0.000999997)
(-4.38118e-09 -3.31685e-09 -0.000999999)
(-3.44854e-09 -3.30586e-09 -0.001)
(-2.21581e-09 -3.29419e-09 -0.001)
(-7.61828e-10 -3.27978e-09 -0.001)
(-7.73823e-10 -4.29629e-09 -0.000999992)
(-2.24397e-09 -4.2957e-09 -0.000999993)
(-3.48945e-09 -4.2796e-09 -0.000999994)
(-4.41649e-09 -4.27171e-09 -0.000999995)
(-4.80274e-09 -4.32742e-09 -0.000999996)
(-4.82293e-09 -4.08109e-09 -0.000999998)
(-4.40741e-09 -4.16117e-09 -0.001)
(-3.43654e-09 -4.16643e-09 -0.001)
(-2.2025e-09 -4.15231e-09 -0.001)
(-7.56068e-10 -4.12917e-09 -0.001)
(-7.69347e-10 -4.73237e-09 -0.000999993)
(-2.23331e-09 -4.73109e-09 -0.000999994)
(-3.48561e-09 -4.70363e-09 -0.000999995)
(-4.46919e-09 -4.64101e-09 -0.000999996)
(-4.67327e-09 -4.5182e-09 -0.000999998)
(-4.69277e-09 -4.81947e-09 -0.000999999)
(-4.46654e-09 -4.64105e-09 -0.001)
(-3.43994e-09 -4.60935e-09 -0.001)
(-2.18679e-09 -4.59442e-09 -0.001)
(-7.46715e-10 -4.57665e-09 -0.001)
(-7.63714e-10 -4.67307e-09 -0.000999995)
(-2.20609e-09 -4.67871e-09 -0.000999996)
(-3.39909e-09 -4.67234e-09 -0.000999996)
(-4.2312e-09 -4.64753e-09 -0.000999998)
(-4.98121e-09 -4.53872e-09 -0.000999999)
(-4.94565e-09 -4.79828e-09 -0.001)
(-4.1974e-09 -4.64159e-09 -0.001)
(-3.39019e-09 -4.59575e-09 -0.001)
(-2.1789e-09 -4.57442e-09 -0.00100001)
(-7.47141e-10 -4.56051e-09 -0.00100001)
(-7.66138e-10 -4.18623e-09 -0.000999997)
(-2.22346e-09 -4.19567e-09 -0.000999997)
(-3.45415e-09 -4.21022e-09 -0.000999998)
(-4.33539e-09 -4.25493e-09 -0.000999999)
(-4.82417e-09 -4.33793e-09 -0.001)
(-4.79565e-09 -4.08095e-09 -0.001)
(-4.26402e-09 -4.1469e-09 -0.001)
(-3.37304e-09 -4.1347e-09 -0.00100001)
(-2.16062e-09 -4.11541e-09 -0.00100001)
(-7.41608e-10 -4.10292e-09 -0.00100001)
(-7.652e-10 -3.31306e-09 -0.000999998)
(-2.22188e-09 -3.31961e-09 -0.000999998)
(-3.4581e-09 -3.3211e-09 -0.000999999)
(-4.35888e-09 -3.32779e-09 -0.001)
(-4.80711e-09 -3.3524e-09 -0.001)
(-4.75461e-09 -3.31041e-09 -0.001)
(-4.25115e-09 -3.29243e-09 -0.00100001)
(-3.35894e-09 -3.27604e-09 -0.00100001)
(-2.15529e-09 -3.26602e-09 -0.00100001)
(-7.42582e-10 -3.26346e-09 -0.00100001)
(-7.66332e-10 -2.12136e-09 -0.000999999)
(-2.22489e-09 -2.1262e-09 -0.000999999)
(-3.46194e-09 -2.12996e-09 -0.001)
(-4.36644e-09 -2.13414e-09 -0.001)
(-4.80651e-09 -2.14096e-09 -0.001)
(-4.7354e-09 -2.13565e-09 -0.001)
(-4.2294e-09 -2.11542e-09 -0.00100001)
(-3.34662e-09 -2.10718e-09 -0.00100001)
(-2.15438e-09 -2.10602e-09 -0.00100001)
(-7.45259e-10 -2.11046e-09 -0.00100001)
(-7.64526e-10 -7.26567e-10 -0.000999999)
(-2.22197e-09 -7.27562e-10 -0.001)
(-3.45909e-09 -7.29305e-10 -0.001)
(-4.36131e-09 -7.31379e-10 -0.001)