# vtk DataFile Version 4.0
Generated by LIGGGHTS
ASCII
DATASET POLYDATA
POINTS 846 float
-4.90563 -4.43107 0.632561 -2.7173 -4.61971 0.747609 -1.01692 -4.22149 0.713243 
0.191263 -4.8204 0.5036 1.43572 -4.16734 0.579734 4.02972 -4.12054 0.502145 
-3.56371 -3.32106 0.500173 -2.36261 -3.19656 0.511606 -1.30384 -3.25527 0.518392 
0.476082 -3.53623 0.50585 2.72138 -3.6292 0.500157 4.56687 -3.05217 0.537853 
-3.97649 -2.26715 0.500011 -3.0574 -2.51444 0.807266 -0.290208 -2.88785 0.509418 
-0.967326 -2.17449 0.692177 0.617875 -2.39469 0.50115 1.48135 -2.92004 0.500247 
2.32182 -2.15471 0.697494 3.29814 -2.06372 0.501094 -4.9375 -1.93213 0.501701 
-3.94354 -1.14723 0.500243 -2.14093 -1.98666 0.524833 -1.83791 -1.00892 0.500945 
0.438533 -1.32603 0.500403 1.41547 -1.55307 0.501001 -4.40459 -0.236783 0.500724 
-2.89591 -0.799169 0.499731 -0.786082 -0.91343 0.501992 1.11898 -0.572696 0.500528 
2.11175 -0.740914 0.5 3.24088 -0.968514 0.516431 3.76005 -0.0597063 0.840533 
4.27594 -0.908904 0.500997 -4.12491 0.852232 0.502792 -2.68031 0.176318 0.556264 
-1.69394 0.0897446 0.700219 0.0545905 0.246266 0.525286 1.27743 0.426962 0.500498 
2.98258 0.711884 0.608776 4.51554 0.513994 0.510974 -3.4863 1.69041 0.500137 
-2.68101 1.17342 0.801214 -1.74898 1.48801 0.500213 -0.794671 1.09624 0.501477 
0.513156 1.17288 0.50249 2.1897 1.44208 0.500741 -4.61962 2.34038 0.500239 
-3.4188 2.7087 0.676377 -2.46771 2.23758 0.501029 -0.852865 2.13941 0.499997 
0.540702 2.55846 0.504567 1.46467 2.16654 0.506765 2.31093 2.76901 0.729782 
3.01906 2.10057 0.500475 4.41609 2.04083 0.499999 4.71094 2.98408 0.878591 
-4.27553 3.21265 0.84855 -2.52615 3.87999 0.591955 -1.37651 3.23269 0.503505 
-0.373453 3.17439 0.500826 1.46856 3.26409 0.505816 2.71448 3.65996 0.500277 
3.78269 3.035 0.504811 4.52992 3.95884 0.502035 -4.68255 4.60314 0.500021 
-3.55727 4.43183 0.503351 -1.66229 4.89133 0.765402 -0.88453 4.21081 0.522169 
0.769313 4.36209 0.499883 1.73018 4.76117 0.642006 4.3363 4.92255 0.737328 
-4.39034 -4.63872 1.62101 0.446832 -4.21419 1.25814 2.26705 -4.4915 1.03254 
3.38814 -4.7469 0.945385 -4.33928 -3.5827 1.0813 -3.17236 -3.85295 1.25202 
-1.9899 -3.99402 1.04289 -1.52995 -3.06507 1.53281 -0.345822 -3.52325 1.3424 
0.920544 -3.10375 1.30891 2.21055 -3.08918 1.16994 2.86697 -3.76683 1.57966 
3.63016 -3.24458 0.930017 4.19358 -3.7655 1.62123 -4.7945 -2.6639 1.21803 
-0.801924 -2.14957 1.78758 0.0611492 -2.39963 1.33559 1.49802 -2.20911 1.26727 
3.03336 -2.55635 1.3798 4.19095 -2.14506 0.945364 -4.83336 -1.02731 0.941065 
-3.21748 -1.56149 1.06835 -2.35579 -1.89979 1.65686 -1.26688 -1.3937 1.24202 
0.176378 -1.4142 1.46175 1.3118 -1.26516 1.65917 2.25734 -1.31981 1.30321 
3.06525 -1.27809 1.89176 -3.5916 -0.336205 1.07786 -2.1732 -0.621057 1.35991 
-1.25061 -0.555485 1.90772 -0.715473 -0.162919 1.15973 0.501801 -0.274544 1.26649 
2.80172 -0.20968 1.08496 3.89173 -0.944136 1.42371 -4.80616 0.6231 1.24603 
-3.44913 0.646929 1.21704 -1.26266 0.798067 1.33343 0.16385 0.794031 1.36026 
1.44505 0.0460878 1.42198 4.45573 0.0541818 1.61518 -4.67552 1.91819 1.43979 
-3.67377 1.63627 1.48112 -2.0675 1.31737 1.62486 -0.688842 1.72002 1.71696 
0.379219 1.79526 1.27387 1.35836 1.32145 1.0456 2.26722 1.05954 1.42241 
2.97851 1.85684 1.59542 3.95168 1.24838 0.896865 4.40094 1.5794 1.73257 
-4.04856 2.90756 1.77358 -1.59122 2.18978 1.19529 -1.47685 2.92106 1.87898 
-0.434345 2.66841 1.3784 2.03877 2.38288 1.61466 3.7828 2.32719 1.2191 
-3.41342 3.58838 1.27218 -2.28796 3.01721 1.16967 -2.5199 3.92811 1.60021 
-1.62849 3.96207 1.14301 -0.01627 3.97648 0.983581 0.74547 3.25148 1.19629 
1.9231 3.73214 1.52324 3.25698 3.27317 1.33253 4.21615 3.35695 1.67771 
-4.36184 4.10524 1.30744 -3.29407 4.63418 1.47637 -1.04133 4.2951 1.88233 
0.810033 4.3077 1.49802 2.73074 4.50575 1.04413 3.74372 4.19156 1.07649 
4.34213 4.4255 1.8439 -2.5755 -4.23104 1.99933 -1.62651 -4.33285 2.74618 
-0.108666 -4.12097 2.15915 -3.64586 -3.60901 2.09877 1.10682 -3.87141 1.93593 
-4.46467 -3.03084 2.09099 -2.879 -2.78606 1.79952 -0.690634 -2.80793 2.77319 
0.328572 -2.82935 2.20636 1.48086 -2.79473 2.07735 2.35655 -2.28969 2.2734 
4.09355 -2.24701 1.93751 -4.09201 -1.89406 1.90756 -0.41923 -1.14026 2.2654 
-4.07776 -0.651148 1.92763 -2.02357 0.033092 2.17923 2.26091 -0.366228 1.93119 
-4.1051 0.594429 1.98186 -1.49487 0.842463 2.76821 -0.548447 0.406716 1.96562 
0.616826 0.295477 2.10203 1.88581 0.614612 2.23601 3.09982 0.856622 1.9741 
1.20841 1.62636 1.98617 -3.17538 2.38803 1.91957 0.425454 2.40792 2.06917 
-4.39935 3.96626 2.31614 0.192721 3.64472 1.9338 1.31957 2.99985 1.97555 
2.80669 3.9269 1.95199 1.35716 4.34721 2.33546 2.62946 -4.24514 3.80593 
-3.30001 -3.25171 3.81063 0.501731 -3.57654 3.55339 1.91078 -3.19628 3.26108 
4.46733 -3.64532 3.6663 -4.46464 -2.16021 3.79528 -1.4656 -2.12735 2.82172 
0.908524 -2.40029 3.48696 4.38433 -2.36736 3.53964 -4.04965 -1.06631 3.21283 
-0.535139 -1.54067 3.32978 1.83383 -1.54707 3.5698 4.05553 -1.02814 3.61355 
0.044931 -0.728519 3.19981 -3.12872 0.68349 3.2412 -1.96062 0.0488463 3.72879 
-0.521165 0.150845 3.70199 -1.71034 1.78066 3.45358 -0.526029 1.14437 3.26172 
2.58886 1.51818 3.38673 -2.58522 2.26172 3.80183 -0.191308 2.43527 3.57687 
1.39294 2.4173 3.80631 3.20144 2.76346 3.73661 4.34336 2.56541 3.76623 
-4.41814 3.41137 3.7479 -3.44119 3.12284 3.57045 -2.36372 3.72735 3.41296 
-0.474659 3.91307 3.42124 -3.55439 4.27696 3.40075 2.60934 4.15439 3.53818 
-3.42976 -4.2455 4.09174 -2.33781 -4.12823 4.40356 1.02704 -4.45466 4.04499 
-1.83322 -3.18341 3.97161 -0.545713 -3.85504 3.9683 3.57133 -3.14799 4.07914 
-2.34618 -2.1473 3.99053 -1.02252 -2.69312 4.74495 -3.50469 -1.83685 4.0133 
-2.52748 -1.00118 3.86764 0.368357 -1.81727 4.72438 3.01137 -1.43991 4.0283 
-4.22803 -0.15766 4.06963 -1.32146 -0.760165 4.02939 1.08036 -0.645759 3.94958 
1.84003 0.0355093 3.99479 3.21694 0.417552 4.00154 4.40565 0.826357 3.88393 
-4.09358 1.52853 3.92473 0.529071 1.38381 3.90129 -1.28861 3.036 3.94088 
1.12095 3.93384 3.86317 4.17896 4.23781 4.00235 -4.37031 -4.4062 4.96259 
4.41589 -4.38604 5.43296 0.3214 -3.78122 5.68145 1.27539 -3.3641 5.3508 
2.48525 -3.57702 5.89038 0.0178133 -2.74125 5.24888 2.54534 -2.20802 5.12064 
4.43031 -2.65651 5.80128 -4.44824 -1.92366 5.77324 -1.40755 -1.72813 5.17824 
1.74095 -1.14548 5.65781 2.88346 -1.02821 5.88395 3.66797 -1.8367 5.49268 
0.481229 -0.678517 5.80049 -4.44502 0.758801 5.04139 -0.841943 0.456573 5.88215 
0.760613 0.950757 5.6584 -3.31937 1.1027 5.68892 -2.40884 1.88238 5.73359 
-1.24652 1.51684 5.47363 1.64763 1.64862 5.48441 3.95473 1.86453 5.75376 
-3.98285 2.22176 5.87712 -3.6579 3.347 5.49382 -1.86415 3.37671 5.86918 
-0.385313 3.3515 5.33699 2.65935 3.15365 5.65199 4.25973 3.28708 5.37286 
-2.88926 4.46792 5.73138 -1.62506 4.45534 5.63188 1.61631 4.48099 5.53657 
3.28209 4.16793 5.06757 -1.80024 -4.46971 6.01923 -0.775399 -4.15253 6.00619 
-4.2242 -3.15793 6.0153 -3.18857 -3.60472 5.97139 3.58601 -3.54007 5.98033 
-2.88228 -2.46864 6.05475 -1.82161 -2.97696 6.01111 -0.775582 -2.76034 6.70652 
1.40503 -2.21404 5.9873 2.32293 -2.63878 6.88426 -3.21558 -1.22702 6.04586 
-2.21844 -1.03305 5.97199 -0.372403 -1.55137 6.04433 -3.54522 -0.195935 6.0356 
-0.601509 -0.576258 5.93355 4.35246 -0.211247 5.97658 -2.31378 0.652999 6.02248 
1.96681 0.0325421 6.06752 3.0628 0.224778 6.05496 2.78233 1.34625 6.04339 
-0.566183 2.27159 6.01471 0.391698 2.75651 5.95413 2.31165 2.37456 6.73891 
1.49947 3.08015 6.04161 -4.41774 4.04246 6.04417 0.0833131 4.3604 5.91262 
-3.59979 -4.41508 7.03267 -0.85346 -4.1805 7.89239 0.804985 -4.24466 7.19815 
3.06524 -4.32246 7.08031 4.03388 -4.21531 7.85343 -3.48488 -3.25631 7.88817 
-2.17539 -3.71592 7.87382 1.69894 -3.60086 7.69617 3.11526 -3.20989 7.82375 
-4.16905 -2.49172 7.74546 -1.88402 -2.64915 7.84051 0.679281 -2.94409 7.00238 
3.19324 -2.19311 7.71094 4.48247 -2.5268 7.76386 -3.78897 -1.50652 7.58216 
-2.88885 -1.03354 7.81634 -1.24359 -1.8959 7.09046 -0.313578 -1.89941 7.91584 
0.66852 -1.62627 7.37688 2.12786 -1.28646 7.93713 4.38205 -1.17805 7.17206 
-4.38262 -0.177783 7.39164 -1.5851 -0.422284 7.90559 0.755108 -0.667197 7.90187 
3.67122 -0.487347 7.42585 -4.40959 0.925727 7.0397 -1.46158 0.722843 7.68537 
0.357497 0.259719 7.90193 2.42508 0.0147207 7.91917 4.36993 0.909648 7.90617 
-3.24464 1.22741 7.76 -2.06966 1.68966 7.51404 0.04762 1.9025 7.60304 
1.29846 1.12127 7.84972 3.17868 1.40398 7.95022 -4.32849 2.90663 7.87324 
-2.7768 2.46104 7.36193 -1.15405 2.54523 7.46438 1.05612 2.78433 7.65096 
3.7623 2.62725 7.56305 -4.14876 3.90627 7.88927 -3.00324 3.42397 7.69191 
-1.61394 3.75724 7.72514 -0.447028 3.88061 7.51314 2.3398 3.82474 6.98112 
3.8801 3.79753 7.78584 0.930522 4.04386 7.28067 3.12572 4.45244 7.02739 
-4.32603 -3.98923 8.41163 0.799384 -3.46943 8.93171 4.32106 -3.38831 8.90793 
-3.18021 -2.24953 8.65047 -0.436688 -0.470933 7.95401 -2.53071 0.283738 8.60343 
-3.12006 4.31446 8.6 -3.34954 -4.17827 9.73062 -1.73938 -4.4346 9.40788 
-0.256302 -4.17273 9.40492 0.808126 -4.37495 9.84377 2.02427 -4.30468 9.41811 
-4.35477 -3.05111 9.3098 -2.59005 -3.2489 9.49428 -1.1686 -3.61115 9.47622 
2.39312 -3.01955 9.16146 3.26142 -3.83697 9.56124 -2.09569 -2.36953 9.54287 
-0.472379 -2.86622 9.37819 0.976034 -2.05343 9.08111 4.173 -2.46078 9.72892 
-3.85608 -1.61052 9.39456 -1.52978 -1.46293 9.54213 2.71109 -1.77727 9.57603 
3.72085 -1.33456 9.14542 -3.57366 -0.635516 9.38704 -2.45996 -0.626045 9.45799 
-0.0363289 -0.775526 9.58858 1.64267 -0.45296 8.99007 2.82579 -0.602224 9.24709 
3.74685 -0.133939 9.62799 -4.33231 0.190842 9.25008 -3.21135 0.670472 9.71267 
-1.1372 0.195211 9.39301 0.56949 0.254972 9.85811 1.58336 0.710768 9.4869 
-4.40258 1.97099 9.59435 -2.37532 1.40719 9.69757 -0.620382 1.313 9.02364 
0.48654 1.32164 9.6967 2.6109 1.12611 9.48937 3.72086 1.24635 9.63004 
-3.379 2.1075 9.34629 -1.95629 2.58724 9.16098 -0.881744 2.24874 9.52087 
0.370273 2.4239 9.71866 1.53612 2.0476 9.52156 3.17697 2.31605 9.57187 
[...]
POINT_DATA 846
FIELD FieldData 7
id 1 846 int
48 17 126 50 115 29 60 12 7 
23 51 24 49 79 11 104 56 28 
59 14 20 27 45 19 18 22 54 
15 1 26 4 78 114 43 33 37 
80 16 35 2 46 3 71 21 42 
55 53 52 94 8 25 13 6 63 
47 36 81 9 10 40 34 44 5 
41 38 58 57 88 32 39 30 112 
161 106 89 31 120 62 69 129 77 
100 93 136 64 123 103 132 83 102 
70 109 67 99 155 61 85 150 82 
159 65 117 169 105 98 86 66 101 
108 73 113 91 130 68 153 133 146 
74 119 110 163 97 128 134 84 121 
122 138 95 87 118 152 111 90 96 
116 92 170 107 165 141 75 72 76 
145 151 214 148 127 168 166 172 220 
140 157 160 135 164 147 139 143 158 
167 187 125 124 171 137 131 142 173 
162 144 154 149 156 198 194 199 213 
205 212 174 180 223 224 204 207 196 
227 190 216 188 203 226 186 183 200 
201 175 211 219 222 185 206 178 202 
189 284 221 210 195 197 225 248 217 
191 285 179 208 184 177 181 215 193 
176 218 182 209 192 260 231 255 253 
245 249 241 282 234 283 279 269 247 
230 271 277 238 265 259 232 239 236 
243 252 229 276 235 278 263 267 268 
242 244 281 262 280 233 272 266 303 
228 318 274 264 254 258 257 270 250 
273 256 261 246 240 297 275 251 237 
291 310 320 316 336 333 321 322 319 
288 312 289 287 302 335 323 324 330 
298 305 313 295 317 329 309 304 308 
301 334 331 326 299 311 294 300 296 
314 315 286 293 292 325 328 290 327 
306 307 332 346 343 344 375 337 359 
376 349 380 377 398 364 389 350 348 
339 341 384 371 342 356 370 360 391 
354 368 358 378 355 383 369 373 338 
361 421 387 379 372 393 347 367 352 
353 374 366 362 340 388 385 390 381 
345 392 357 363 382 365 351 386 431 
404 399 396 400 420 439 411 440 419 
407 401 414 403 430 413 416 397 426 
428 422 443 405 481 417 433 432 442 
402 427 503 415 408 434 444 437 469 
435 429 447 394 459 412 424 418 461 
438 423 486 395 406 445 409 436 410 
441 425 468 484 446 478 477 501 455 
500 492 482 457 485 456 448 460 465 
488 490 462 472 453 458 498 471 493 
499 474 480 475 470 463 449 452 450 
479 489 497 496 454 483 473 451 487 
491 495 466 494 502 464 467 476 539 
542 536 507 544 533 555 556 510 549 
550 534 537 554 512 524 531 519 543 
546 504 551 520 516 558 513 611 557 
514 518 553 529 505 581 508 538 548 
528 515 535 506 527 517 525 522 552 
509 541 521 526 599 511 545 523 530 
532 578 575 547 540 615 616 576 569 
572 608 589 570 571 586 588 582 563 
587 579 595 610 568 593 607 594 580 
564 561 614 573 560 605 612 596 567 
601 591 609 600 574 577 617 613 559 
598 566 583 562 584 597 585 603 565 
604 606 590 602 592 642 643 669 631 
661 672 626 648 668 632 636 655 633 
654 634 649 670 665 625 658 675 618 
651 676 630 647 646 624 664 653 660 
627 635 621 640 641 674 671 619 662 
629 673 656 644 666 622 628 663 620 
650 657 623 639 637 652 667 638 645 
659 728 727 680 718 722 699 696 703 
697 702 698 683 706 716 677 729 711 
679 694 721 708 725 689 714 678 705 
693 704 688 691 723 681 701 692 686 
774 709 750 738 732 780 767 720 724 
717 752 719 769 700 740 775 682 713 
742 690 766 712 739 736 737 685 710 
781 759 687 762 787 761 726 754 707 
784 695 756 779 778 765 684 753 757 
715 760 786 731 730 747 749 804 741 
745 800 833 822 733 735 825 844 791 
808 764 777 744 810 802 770 755 820 
815 772 746 794 743 768 734 805 773 
782 789 827 809 783 812 771 785 793 
845 748 801 814 758 840 763 751 790 
817 776 837 807 831 828 835 798 832 
818 834 846 823 821 836 788 829 842 
806 811 795 843 792 841 813 839 803 
819 799 816 830 796 797 824 826 838 

type 1 846 int
1 1 1 1 1 1 1 1 1 
1 1 1 1 1 1 1 1 1 
1 1 1 1 1 1 1 1 1 
1 1 1 1 1 1 1 1 1 
1 1 1 1 1 1 1 1 1 
1 1 1 1 1 1 1 1 1 
1 1 1 1 1 1 1 1 1 
1 1 1 1 1 1 1 1 1 
1 1 1 1 1 1 1 1 1 
1 1 1 1 1 1 1 1 1 
1 1 1 1 1 1 1 1 1 
1 1 1 1 1 1 1 1 1 
1 1 1 1 1 1 1 1 1 
1 1 1 1 1 1 1 1 1 
1 1 1 1 1 1 1 1 1 
1 1 1 1 1 1 1 1 1 
1 1 1 1 1 1 1 1 1 
1 1 1 1 1 1 1 1 1 
1 1 1 1 1 1 1 1 1 
1 1 1 1 1 1 1 1 1 
1 1 1 1 1 1 1 1 1 
1 1 1 1 1 1 1 1 1 
1 1 1 1 1 1 1 1 1 
1 1 1 1 1 1 1 1 1 
1 1 1 1 1 1 1 1 1 
1 1 1 1 1 1 1 1 1 
1 1 1 1 1 1 1 1 1 
1 1 1 1 1 1 1 1 1 
1 1 1 1 1 1 1 1 1 
1 1 1 1 1 1 1 1 1 
1 1 1 1 1 1 1 1 1 
1 1 1 1 1 1 1 1 1 
1 1 1 1 1 1 1 1 1 
1 1 1 1 1 1 1 1 1 
1 1 1 1 1 1 1 1 1 
1 1 1 1 1 1 1 1 1 
1 1 1 1 1 1 1 1 1 
1 1 1 1 1 1 1 1 1 
1 1 1 1 1 1 1 1 1 
1 1 1 1 1 1 1 1 1 
1 1 1 1 1 1 1 1 1 
1 1 1 1 1 1 1 1 1 
1 1 1 1 1 1 1 1 1 
1 1 1 1 1 1 1 1 1 
1 1 1 1 1 1 1 1 1 
1 1 1 1 1 1 1 1 1 
1 1 1 1 1 1 1 1 1 
1 1 1 1 1 1 1 1 1 
1 1 1 1 1 1 1 1 1 
1 1 1 1 1 1 1 1 1 
1 1 1 1 1 1 1 1 1 
1 1 1 1 1 1 1 1 1 
1 1 1 1 1 1 1 1 1 
1 1 1 1 1 1 1 1 1 
1 1 1 1 1 1 1 1 1 
1 1 1 1 1 1 1 1 1 
1 1 1 1 1 1 1 1 1 
1 1 1 1 1 1 1 1 1 
1 1 1 1 1 1 1 1 1 
1 1 1 1 1 1 1 1 1 
1 1 1 1 1 1 1 1 1 
1 1 1 1 1 1 1 1 1 
1 1 1 1 1 1 1 1 1 
1 1 1 1 1 1 1 1 1 
1 1 1 1 1 1 1 1 1 
1 1 1 1 1 1 1 1 1 
1 1 1 1 1 1 1 1 1 
1 1 1 1 1 1 1 1 1 
1 1 1 1 1 1 1 1 1 
1 1 1 1 1 1 1 1 1 
1 1 1 1 1 1 1 1 1 
1 1 1 1 1 1 1 1 1 
1 1 1 1 1 1 1 1 1 
1 1 1 1 1 1 1 1 1 
1 1 1 1 1 1 1 1 1 
1 1 1 1 1 1 1 1 1 
1 1 1 1 1 1 1 1 1 
1 1 1 1 1 1 1 1 1 
1 1 1 1 1 1 1 1 1 
1 1 1 1 1 1 1 1 1 
1 1 1 1 1 1 1 1 1 
1 1 1 1 1 1 1 1 1 
1 1 1 1 1 1 1 1 1 
1 1 1 1 1 1 1 1 1 
1 1 1 1 1 1 1 1 1 
1 1 1 1 1 1 1 1 1 
1 1 1 1 1 1 1 1 1 
1 1 1 1 1 1 1 1 1 
1 1 1 1 1 1 1 1 1 
1 1 1 1 1 1 1 1 1 
1 1 1 1 1 1 1 1 1 
1 1 1 1 1 1 1 1 1 
1 1 1 1 1 1 1 1 1 
1 1 1 1 1 1 1 1 1 

i 3 846 int
0 0 0 0 0 0 0 0 0 
0 0 0 0 0 0 0 0 0 
0 0 0 0 0 0 0 0 0 
0 0 0 0 0 0 0 0 0 
0 0 0 0 0 0 0 0 0 
0 0 0 0 0 0 0 0 0 
0 0 0 0 0 0 1 0 0 
0 0 0 0 0 0 0 0 0 
0 0 0 0 0 0 0 0 0 
0 0 0 0 0 0 0 0 0 
0 0 0 0 0 0 0 0 0 
0 0 0 0 0 0 0 0 0 
0 0 0 0 0 0 0 0 0 
0 0 0 0 0 0 0 0 0 
0 0 0 0 0 0 0 0 0 
0 0 0 0 0 0 0 0 0 
0 0 0 0 0 0 0 0 0 
0 0 0 0 0 0 0 0 0 
0 0 0 0 0 0 0 0 0 
0 0 0 0 0 0 0 0 0 
0 0 0 0 0 0 0 0 0 
0 0 0 0 0 0 0 0 0 
0 0 0 0 -1 0 0 0 0 
0 0 0 0 0 0 0 -1 0 
0 0 0 0 0 0 0 0 0 
0 0 0 0 0 0 0 0 0 
0 0 0 0 0 0 0 0 0 
0 0 0 0 0 0 0 0 0 
0 0 0 0 0 0 0 0 0 
0 0 0 0 0 0 0 0 0 
0 0 0 0 0 0 0 0 0 
0 0 0 0 0 0 0 0 0 
0 0 0 0 0 0 0 0 0 
0 0 0 0 0 0 0 0 0 
0 0 0 0 0 0 0 0 0 
0 0 0 0 0 0 0 0 0 
0 0 0 0 0 0 0 0 0 
0 0 0 0 0 0 0 0 0 
0 0 0 0 0 0 0 0 0 
0 0 0 0 0 0 0 0 0 
0 0 0 0 0 0 0 0 0 
0 0 0 0 0 0 0 0 0 
0 0 0 0 0 0 0 0 0 
0 0 0 0 0 0 0 0 0 
0 0 0 0 0 0 0 0 0 
0 0 0 0 0 0 0 0 0 
0 0 0 0 0 0 0 0 0 
0 0 0 0 0 0 0 0 0 
0 0 0 0 0 0 0 0 0 
0 0 0 0 0 0 0 0 0 
0 0 0 0 0 0 0 0 0 
0 0 0 0 0 0 0 0 0 
0 0 0 0 0 0 0 0 0 
0 0 0 0 0 0 0 0 0 
0 0 0 0 0 0 0 0 0 
0 0 0 0 0 0 0 0 0 
0 0 0 0 0 0 0 0 0 
0 0 0 0 0 0 0 0 0 
0 0 0 0 0 0 0 0 0 
0 0 0 0 0 0 0 0 0 
0 0 0 0 0 0 0 0 0 
0 0 0 0 0 0 0 0 0 
0 0 0 0 0 0 0 0 0 
0 0 0 0 0 0 0 0 0 
0 0 0 0 0 0 0 0 0 
0 0 0 0 0 0 0 0 0 
0 0 0 0 0 0 0 0 0 
0 0 0 0 0 0 0 0 0 
0 0 0 0 0 0 0 0 0 
0 0 0 0 0 0 0 0 0 
0 0 0 0 0 0 0 0 0 
0 0 0 0 0 0 0 0 0 
0 0 0 0 0 0 0 0 0 
0 0 0 0 0 0 0 0 0 
0 0 0 0 0 0 0 0 0 
0 0 0 0 0 0 0 0 0 
0 0 0 0 0 0 0 0 0 
0 0 0 0 0 0 0 0 0 
0 0 0 0 0 0 0 0 0 
0 0 0 0 0 0 0 0 0 
0 0 0 0 0 0 0 0 0 
0 0 0 0 0 0 0 0 0 
0 0 0 0 0 0 0 0 0 
0 0 0 0 0 0 0 0 0 
0 0 0 0 0 0 0 0 0 
0 0 0 0 0 0 0 0 0 
0 0 0 0 0 0 0 0 0 
0 0 0 0 0 0 0 0 0 
0 0 0 0 0 0 0 0 0 
0 0 0 0 0 0 0 0 0 
0 0 0 0 0 0 0 0 0 
0 0 0 0 0 0 0 0 0 
0 0 0 0 0 0 0 0 0 
0 0 0 0 0 0 0 0 0 
0 0 0 0 0 0 0 0 0 
0 0 0 0 0 0 0 0 0 
0 0 0 0 0 0 0 0 0 
0 0 0 0 0 0 0 0 0 
0 0 0 0 0 0 0 0 0 
0 0 0 0 0 0 0 0 0 
0 0 0 0 0 0 0 0 0 
0 0 0 0 0 0 0 0 0 
0 0 0 0 0 0 0 0 0 
0 0 0 0 0 0 0 0 0 
0 0 0 0 0 0 0 0 0 
0 0 0 0 0 0 0 0 0 
0 0 0 0 0 0 0 0 0 
0 0 0 0 0 0 0 0 0 
0 0 0 0 0 0 0 0 0 
0 0 0 0 0 0 0 0 0 
0 0 0 0 0 0 0 0 0 
0 0 0 0 0 0 0 0 0 
0 0 0 0 0 0 0 0 0 
0 0 0 0 0 0 0 0 0 
0 0 0 0 0 0 0 0 0 
0 0 0 0 0 0 0 0 0 
0 0 0 0 0 0 0 0 0 
0 0 0 0 0 0 0 0 0 
0 0 0 0 0 0 0 0 0 
0 0 0 0 0 0 0 0 0 
0 0 0 0 0 0 0 0 0 
0 0 0 0 0 0 0 0 0 
0 0 0 0 0 0 0 0 0 
0 0 0 0 0 0 0 0 0 
0 0 0 0 0 0 0 0 0 
0 0 0 0 0 0 0 0 0 
0 0 0 0 0 0 0 0 0 
0 0 0 0 0 0 0 0 0 
0 0 0 0 0 0 0 0 0 
0 0 0 0 0 0 0 0 0 
0 0 0 0 0 0 0 0 0 
0 0 0 0 0 0 0 0 0 
0 0 0 0 0 0 0 0 0 
0 0 0 0 0 0 0 0 0 
0 0 0 0 0 0 0 0 0 
0 0 0 0 0 0 0 0 0 
0 0 0 0 0 0 0 0 0 
0 0 0 0 0 0 0 0 0 
0 0 0 0 0 0 0 0 0 
0 0 0 0 0 0 0 0 0 
0 0 0 0 0 0 0 0 0 
0 0 0 0 0 0 0 0 0 
0 0 0 0 0 0 0 0 0 
0 0 0 0 0 0 0 0 0 
0 0 0 0 0 0 0 0 0 
0 0 0 0 0 0 0 0 0 
0 0 0 0 0 0 0 0 0 
0 0 0 0 0 0 0 0 0 
0 0 0 0 0 0 0 0 0 
0 0 0 0 0 0 0 0 0 
0 0 0 0 0 0 0 0 0 
0 0 0 0 0 0 0 0 0 
0 0 0 0 0 0 0 0 0 
0 0 0 0 0 0 0 0 0 
0 0 0 0 0 0 0 0 0 
0 0 0 0 0 0 0 0 0 
0 0 0 0 0 0 0 0 0 
0 0 0 0 0 0 0 0 0 
0 0 0 0 0 0 0 0 0 
0 0 0 0 0 0 0 0 0 
0 0 0 0 0 0 0 0 0 
0 0 0 0 0 0 0 0 0 
0 0 0 0 0 0 0 0 0 
0 0 0 0 0 0 0 0 0 
0 0 0 0 0 0 0 0 0 
0 0 0 0 0 0 0 0 0 
0 0 0 0 0 0 0 0 0 
0 0 0 0 0 0 0 0 0 
0 0 0 0 0 0 0 0 0 
0 0 0 0 0 0 0 0 0 
0 0 0 0 0 0 0 0 0 
0 0 0 0 0 0 0 0 0 
0 0 0 0 0 0 0 0 0 
0 0 0 0 0 0 0 0 0 
0 0 0 0 0 0 0 0 0 
0 0 0 0 0 0 0 0 0 
0 0 0 0 0 0 0 0 0 
0 0 0 0 0 0 0 0 0 
0 0 0 0 0 0 0 0 0 
0 0 0 0 0 0 0 0 0 
0 0 0 0 0 0 0 0 0 
0 0 0 0 0 0 0 0 0 
0 0 0 0 0 0 0 0 0 
0 0 0 0 0 0 0 0 0 
0 0 0 0 0 0 0 0 0 
0 0 0 0 0 0 0 0 0 
0 0 0 0 0 0 0 0 0 
0 0 0 0 0 0 0 0 0 
0 0 0 0 0 0 0 0 0 
0 0 0 0 0 0 0 0 0 
0 0 0 0 0 0 0 0 0 
0 0 0 0 0 0 0 0 0 
0 0 0 0 0 0 0 0 0 
0 0 0 0 0 0 0 0 0 
0 0 0 0 0 0 0 0 0 
0 0 0 0 0 0 0 0 0 
0 0 0 0 0 0 0 0 0 
0 0 0 0 0 0 0 0 0 
0 0 0 0 0 0 0 0 0 
0 0 0 0 0 0 0 0 0 
0 0 0 0 0 0 0 0 0 
0 0 0 0 0 0 0 0 0 
0 0 0 0 0 0 0 0 0 
0 0 0 0 0 0 0 0 0 
0 0 0 0 0 0 0 0 0 
0 0 0 0 0 0 0 0 0 
0 0 0 0 0 0 0 0 0 
0 0 0 0 0 0 0 0 0 
0 0 0 0 0 0 0 0 0 
0 0 0 0 0 0 0 0 0 
0 0 0 0 0 0 0 0 0 
0 0 0 0 0 0 0 0 0 
0 0 0 0 0 0 0 0 0 
0 0 0 0 0 0 0 0 0 
0 0 0 0 0 0 0 0 0 
0 0 0 0 0 0 0 0 0 
0 0 0 0 0 0 0 0 0 
0 0 0 0 0 0 0 0 0 
0 0 0 0 0 0 0 0 0 
0 0 0 0 0 0 0 0 0 
0 0 0 0 0 0 0 0 0 
0 0 0 0 0 0 0 0 0 
0 0 0 0 0 0 0 0 0 
0 0 0 0 0 0 0 0 0 
0 0 0 0 0 0 0 0 0 
0 0 0 0 0 0 0 0 0 
0 0 0 0 0 0 0 0 0 
0 0 0 0 0 0 0 0 0 
0 0 0 0 0 0 0 0 0 
0 0 0 0 0 0 0 0 0 
0 0 0 0 0 0 0 0 0 
0 0 0 0 0 0 0 0 0 
0 0 0 0 0 0 0 0 0 
0 0 0 0 0 0 0 0 0 
0 0 0 0 0 0 0 0 0 
0 0 0 0 0 0 0 0 0 
0 0 0 0 0 0 0 0 0 
0 0 0 0 0 0 0 0 0 
0 0 0 0 0 0 0 0 0 
0 0 0 0 0 0 0 0 0 
0 0 0 0 0 0 0 0 0 
0 0 0 0 0 0 0 0 0 
0 0 0 0 0 0 0 0 0 
0 0 0 0 0 0 0 0 0 
0 0 0 0 0 0 0 0 0 
0 0 0 0 0 0 0 0 0 
0 0 0 0 0 0 0 0 0 
0 0 0 0 0 0 0 0 0 
0 0 0 0 0 0 0 0 0 
0 0 0 0 0 0 0 0 0 
0 0 0 0 0 0 0 0 0 
0 0 0 0 0 0 0 0 0 
0 0 0 0 0 0 0 0 0 
0 0 0 0 0 0 0 0 0 
0 0 0 0 0 0 0 0 0 
0 0 0 0 0 0 0 0 0 
0 0 0 0 0 0 0 0 0 
0 0 0 0 0 0 0 0 0 
0 0 0 0 0 0 0 0 0 
0 0 0 0 0 0 0 0 0 
0 0 0 0 0 0 0 0 0 
0 0 0 0 0 0 0 0 0 
0 0 0 0 0 0 0 0 0 
0 0 0 0 0 0 0 0 0 
0 0 0 0 0 0 0 0 0 
0 0 0 0 0 0 0 0 0 
0 0 0 0 0 0 0 0 0 
0 0 0 0 0 0 0 0 0 
0 0 0 0 0 0 0 0 0 
0 0 0 0 0 0 0 0 0 
0 0 0 0 0 0 0 0 0 
0 0 0 0 0 0 0 0 0 
0 0 0 0 0 0 0 0 0 
0 0 0 0 0 0 0 0 0 
0 0 0 0 0 0 0 0 0 
0 0 0 0 0 0 0 0 0 
0 0 0 0 0 0 0 0 0 
0 0 0 0 0 0 0 0 0 
0 0 0 0 0 0 0 0 0 
0 0 0 0 0 0 0 0 0 
0 0 0 0 0 0 0 0 0 
0 0 0 0 0 0 0 0 0 

v 3 846 double
-0.00231886 0.0034702 -0.00752288 -0.00218051 -0.0045048 0.000402611 0.00341364 -0.00184796 -0.0128052 
-0.0021537 -0.00108109 -3.89461e-05 -0.00244154 0.000454524 -0.000744812 0.00319193 6.90073e-05 -0.000278727 
-1.40722e-05 0.00118911 2.38116e-05 -0.00028083 -0.00310859 0.000393597 0.0010219 0.00249029 -0.0037347 
-0.00193317 -0.00086624 0.000513397 -0.000421891 -0.000290108 -0.000125373 0.000461173 -0.000908637 -0.00479384 
0.000627773 0.000644143 2.06075e-05 0.00172524 0.00135177 -0.00259778 -0.000781766 0.000981997 -0.000541437 
-0.00145934 0.00174551 -0.00522859 -0.00038192 0.00189932 0.000124788 0.000264374 0.000772604 3.25783e-05 
-0.000454352 -0.000818041 8.20121e-05 0.000767892 0.000538961 0.000149596 0.000785372 0.00224671 -0.000108435 
-0.000897973 0.00183547 -0.000249073 -0.000759222 -0.00202881 0.000386508 -0.00208818 -0.000601705 5.62972e-05 
0.00159647 -0.000239103 -4.70563e-05 0.00181148 -0.000294805 0.00168353 -0.000413674 0.00312467 7.41293e-05 
-0.000109441 -0.000522863 0.000841746 0.000243319 -0.000715895 0.000261329 -0.000957261 -0.000375942 0.000143966 
0.000322421 -0.0021381 0.00106916 -0.000227988 -0.00243709 -0.00137943 -0.000318387 0.000575713 -0.00176967 
0.000148035 0.00114979 4.78396e-05 -0.0011315 -0.000507723 -0.000463844 0.00119999 0.000182588 -0.00524016 
0.00166362 -0.00176178 -0.00411394 -9.749e-05 -0.000864871 -0.00152902 -0.00445683 0.00112255 5.42731e-05 
0.00146878 0.000110275 0.00213914 0.00105276 0.000927751 0.00138869 -0.00268744 -0.00114386 -6.74388e-05 
0.000748028 0.000287975 -0.00813182 -0.000315243 -0.00195124 0.000155835 0.00206617 0.000140727 0.000280105 
-0.00021767 -0.000572126 0.000198916 -0.000216285 -0.000101452 8.89162e-05 0.000925757 -0.000539247 0.000158069 
0.00133595 -0.00292935 0.000818139 -0.00303398 -0.0033007 -0.000129935 7.78724e-05 -0.000217234 8.95821e-14 
-0.00183141 -0.00122567 -0.00140334 -0.00129243 -0.000903257 0.000316675 0.00113743 0.00274088 -0.00342089 
0.0010714 0.00121432 0.000139671 5.59692e-05 0.000773245 -1.06045e-05 0.00300852 0.0026459 -0.00142476 
0.00158038 0.00280955 -0.00813862 0.0011006 6.31135e-05 0.0021074 0.00152925 -0.0011495 0.000250768 
7.4713e-05 0.00142165 -4.55956e-05 -0.00148284 0.00101658 0.00109105 -0.00187302 0.00126191 0.000908926 
0.00203755 0.000379872 0.000289049 0.000121663 -0.00215262 0.000395275 -0.000774135 0.00266517 0.000966921 
-0.00186998 0.00266179 -0.000277395 -0.00397267 0.000173241 -0.00275369 0.000403656 -0.000509059 0.00106055 
0.00175767 0.00187912 2.2376e-06 -0.00303363 -0.0016179 -0.000821658 -0.000841395 0.00118039 -0.0045735 
0.000819012 -0.00470363 -0.00662516 -0.000260213 0.000268241 -0.00152099 0.00277776 0.000107203 -0.00356666 
0.00101888 0.000249787 -0.00243115 -0.00390056 0.000283429 -0.00430367 0.00330047 -0.00362201 -0.00472966 
0.00297142 -0.00559777 -0.00247137 0.00234857 0.0024212 -0.0130692 0.000474295 -0.00304844 -0.000555872 
-0.00289756 0.00177606 -0.00233042 0.000667327 0.00179054 -0.00063213 -0.00132666 -0.00024839 -0.00813807 
-0.00272105 0.00528334 -0.0070263 0.00256963 -0.0022207 -0.0135092 -0.00343118 -0.0026645 0.0022519 
-0.000119635 -0.00445068 -0.00120377 -0.00424056 0.000246598 -0.00185499 -0.000727157 -0.000551151 -0.00256526 
0.00489422 -0.000869535 -0.00784754 -0.000328197 0.00070685 -0.00252015 0.000100917 0.00312138 0.00124881 
-0.00156139 0.00136049 -0.00375318 0.00681046 -0.00239507 -0.0132604 -0.00129585 -0.00118464 -0.000588602 
0.0021292 -0.00122922 6.12708e-05 -0.00446321 -0.00114924 -0.0162839 0.000148707 -0.00618419 -0.00691794 
-0.00107305 -0.00449025 -0.00446052 0.00146371 -8.44369e-05 -0.00250638 -0.00451876 0.000359072 -0.00151883 
0.000642549 0.00391745 -0.00112863 -0.00034105 0.00139929 -0.00340651 -0.00232687 -0.00315214 8.65349e-05 
-0.000803838 0.00119229 -0.00140733 0.000781694 -0.00142798 -4.02716e-05 0.0031782 0.00228919 -0.000491038 
0.00492968 0.00022826 -0.00473728 -0.000183242 6.0176e-05 -0.000824162 -0.00310757 -0.000252332 -0.000647805 
-0.00159731 -0.00103566 -0.000651375 -0.00492707 -0.00382865 -0.0155496 -0.00197162 -0.0011317 0.00164095 
-0.00284721 -0.00120266 -1.49582e-05 -0.00118183 0.00288535 -0.00675547 -0.00165325 -0.0046471 -0.0139898 
-0.00131 0.00204836 -0.0020181 -0.000183202 -0.000337469 0.00035791 0.000770474 -0.00227416 -0.00143452 
-0.00312195 -0.000224436 -0.00666863 -0.00106801 8.76169e-05 -0.00257848 0.00527904 -0.00181053 -0.00437946 
0.00243449 -0.000841181 -0.00944785 -0.00179737 0.00048139 -0.00167944 0.00525427 0.00154293 -0.00491918 
0.000618591 0.00323046 -0.000311208 -0.00166666 -0.00116916 -0.00716902 0.00101887 0.000505201 0.000988375 
-0.00340424 -0.000121005 -0.00123833 -0.00240577 0.00101456 -0.00274327 -0.00229198 0.00484681 -0.00416467 
-0.000251238 0.00048326 -0.0023012 0.00185166 0.00162869 0.000140886 -0.00293493 0.000956142 -0.00268179 
-0.00210361 -0.00156874 -0.00269338 -0.00106146 0.00150674 -0.00108842 -0.00188086 0.00212213 -0.0109686 
0.0022463 0.000920343 -0.00328742 -0.00561828 0.00540997 -0.0177439 0.00383919 0.00357942 -0.00693718 
9.80424e-05 0.000739268 -4.8957e-05 -0.00330525 0.00334398 -0.0078008 -0.00328957 0.00212814 -0.00816797 
0.00250291 0.00276149 -0.0120282 0.00644727 -0.00485669 -0.00712576 0 0 -0.0209408 
0.00288865 -0.00916589 -0.003061 0.00282779 -0.00396223 -0.00478777 0.00175444 -0.0054724 -0.00938675 
0.000589191 -0.00657875 -0.00016079 0 0 -0.0213797 0 0 -0.0209282 
0.000200412 -0.00550744 -0.00469681 0.00106422 8.23239e-05 -0.00193859 0.0010169 0.0041753 -0.00619929 
-0.00128453 -0.00191534 -0.00236496 0 0 -0.0213301 -0.00305539 0.000387674 -0.00297765 
-0.00430644 -0.00198583 -0.00609691 -0.000658257 0.0067975 -0.00618914 0.00371742 0.00186469 -0.00467096 
0.00112729 -0.000667621 -0.00679452 0 0 -0.0209305 -0.00213794 -0.000904836 -0.000544518 
0.00333415 -0.00528333 -0.00711307 0.00118194 0.000603716 0.00160244 0 0 -0.0212995 
-0.0012554 0.00399703 -0.00109074 0.00336151 0.0053745 -0.0153532 -0.000599586 0.00812894 -0.00566709 
0.000595156 -0.00073498 -0.00568906 -0.0034592 0.000294254 -0.0011387 0.00415711 -0.00208563 -0.00859695 
-0.00128823 0.00223539 -0.00243368 0.00540996 0.000770592 -0.00346801 0 0 -0.0204384 
0 0 -0.0204361 0 0 -0.0205592 0 0 -0.0206982 
0 0 -0.0205053 0 0 -0.0204435 0 0 -0.0209054 
0 0 -0.0205909 0 0 -0.0205658 0 0 -0.0207211 
0 0 -0.0206657 0 0 -0.0205514 0 0 -0.0205305 
0 0 -0.0207273 0 0 -0.0207077 0 0 -0.0204754 
0 0 -0.0204882 0 0 -0.0206068 0 0 -0.020698 
0 0 -0.0206386 0 0 -0.0204403 0 0 -0.0205481 
0 0 -0.0204382 0 0 -0.0204716 0 0 -0.0204574 
0 0 -0.0204662 0 0 -0.0205511 0 0 -0.0206261 
0 0 -0.0206222 0 0 -0.0206319 0 0 -0.0205665 
0 0 -0.0203007 0 0 -0.0201495 0 0 -0.0203233 
0 0 -0.0203587 0 0 -0.0203603 0 0 -0.0203068 
0 0 -0.0203496 0 0 -0.0199826 0 0 -0.0203386 
0 0 -0.0204088 0 0 -0.0199927 0 0 -0.0203314 
0 0 -0.0203114 0 0 -0.0203309 0 0 -0.0203693 
0 0 -0.0203475 0 0 -0.0203443 0 0 -0.0204009 
0 0 -0.0203813 0 0 -0.0203926 0 0 -0.0203735 
0 0 -0.0204109 0 0 -0.0203439 0 0 -0.0198755 
0 0 -0.0196419 0 0 -0.0195174 0 0 -0.0196829 
0 0 -0.0194122 0 0 -0.0197336 0 0 -0.0197973 
0 0 -0.0194571 0 0 -0.0194712 0 0 -0.0197687 
0 0 -0.0195293 0 0 -0.0194154 0 0 -0.0196121 
0 0 -0.0194575 0 0 -0.0198365 0 0 -0.0194163 
0 0 -0.019529 0 0 -0.0195137 0 0 -0.0194912 
0 0 -0.0196216 0 0 -0.0196162 0 0 -0.019481 
0 0 -0.0194188 0 0 -0.0196115 0 0 -0.0194228 
0 0 -0.0196898 0 0 -0.0195322 0 0 -0.0196719 
0 0 -0.0194923 0 0 -0.0195423 0 0 -0.0195901 
0 0 -0.0198236 0 0 -0.0193469 0 0 -0.0193535 
0 0 -0.0193489 0 0 -0.0193711 0 0 -0.0193666 
0 0 -0.0193289 0 0 -0.019351 0 0 -0.0189952 
0 0 -0.0193631 0 0 -0.0189032 0 0 -0.0193334 
0 0 -0.0193709 0 0 -0.0193342 0 0 -0.0193386 
0 0 -0.0193903 0 0 -0.0193685 0 0 -0.0193453 
0 0 -0.0193224 0 0 -0.0193288 0 0 -0.0193347 
0 0 -0.0193492 0 0 -0.0193799 0 0 -0.0189785 
0 0 -0.0193355 0 0 -0.0193343 0 0 -0.0194009 
0 0 -0.018826 0 0 -0.0183726 0 0 -0.0187396 
0 0 -0.0188012 0 0 -0.0183934 0 0 -0.0183748 
0 0 -0.0183825 0 0 -0.0184771 0 0 -0.0184092 
0 0 -0.0184509 0 0 -0.0184003 0 0 -0.0188418 
0 0 -0.0184692 0 0 -0.0184411 0 0 -0.0185375 
0 0 -0.0184131 0 0 -0.0187959 0 0 -0.01836 
0 0 -0.0186458 0 0 -0.0183487 0 0 -0.0187532 
0 0 -0.018638 0 0 -0.0183655 0 0 -0.0183675 
0 0 -0.01862 0 0 -0.0188224 0 0 -0.0184828 
0 0 -0.0183675 0 0 -0.0183583 0 0 -0.0183652 
0 0 -0.0184431 0 0 -0.0185735 0 0 -0.0185264 
0 0 -0.0183953 0 0 -0.0183417 0 0 -0.0183828 
0 0 -0.0186536 0 0 -0.0185997 0 0 -0.018501 
0 0 -0.0185476 0 0 -0.0183743 0 0 -0.0184793 
0 0 -0.0184617 0 0 -0.018574 0 0 -0.0188529 
0 0 -0.0184294 0 0 -0.0186963 0 0 -0.0188288 
0 0 -0.0180932 0 0 -0.017809 0 0 -0.0178221 
0 0 -0.0179632 0 0 -0.0183396 0 0 -0.0179889 
0 0 -0.0179908 0 0 -0.0173633 0 0 -0.0175447 
0 0 -0.0175464 0 0 -0.0172993 0 0 -0.017539 
0 0 -0.0175995 0 0 -0.0174964 0 0 -0.0175065 
0 0 -0.017682 0 0 -0.0174588 0 0 -0.0174691 
0 0 -0.0175613 0 0 -0.0177265 0 0 -0.0173643 
0 0 -0.0175522 0 0 -0.0174695 0 0 -0.0174504 
0 0 -0.0176909 0 0 -0.0175564 0 0 -0.0175167 
0 0 -0.0174434 0 0 -0.0177768 0 0 -0.0176344 
0 0 -0.0174212 0 0 -0.0176327 0 0 -0.0173734 
0 0 -0.0175531 0 0 -0.0172911 0 0 -0.0175005 
0 0 -0.0174401 0 0 -0.017382 0 0 -0.0177583 
0 0 -0.0173825 0 0 -0.0174991 0 0 -0.01742 
0 0 -0.0175792 0 0 -0.0176823 0 0 -0.0174814 
0 0 -0.0173701 0 0 -0.0174811 0 0 -0.0174528 
0 0 -0.0174281 0 0 -0.0173647 0 0 -0.0173763 