/*--------------------------------*- C++ -*----------------------------------*\
| =========                 |                                                 |
| \\      /  F ield         | OpenFOAM: The Open Source CFD Toolbox           |
|  \\    /   O peration     | Version:  5.x                                   |
|   \\  /    A nd           | Web:      www.OpenFOAM.org                      |
|    \\/     M anipulation  |                                                 |
\*---------------------------------------------------------------------------*/
FoamFile
{
    version     2.0;
    format      ascii;
    class       volScalarField;
    location    "0.003";
    object      p;
}
// * * * * * * * * * * * * * * * * * * * * * * * * * * * * * * * * * * * * * //

dimensions      [0 2 -2 0 0 0 0];

internalField   nonuniform List<scalar> 
180
(
8.8814e-09
2.65138e-08
4.41089e-08
6.17858e-08
7.94978e-08
9.73079e-08
1.15236e-07
1.33301e-07
1.51516e-07
1.69892e-07
1.88435e-07
2.07147e-07
2.26027e-07
2.45072e-07
2.64276e-07
2.83631e-07
3.03131e-07
3.22767e-07
3.42534e-07
3.6243e-07
3.82453e-07
4.02609e-07
4.22904e-07
4.4335e-07
4.63958e-07
4.84743e-07
5.05714e-07
5.26871e-07
5.48198e-07
5.6965e-07
5.91131e-07
6.1247e-07
6.33581e-07
6.54371e-07
6.74773e-07
6.94686e-07
7.13965e-07
7.3242e-07
7.49807e-07
7.65824e-07
7.80098e-07
7.92183e-07
8.0154e-07
8.07525e-07
8.09368e-07
8.06143e-07
7.96742e-07
7.79871e-07
7.54022e-07
7.17683e-07
6.69081e-07
6.06142e-07
5.26443e-07
4.27156e-07
3.04992e-07
1.56145e-07
-2.37597e-08
-2.39691e-07
-4.97192e-07
-8.02268e-07
-1.1611e-06
-1.58161e-06
-2.074e-06
-2.64986e-06
-3.32235e-06
-4.10634e-06
-5.01857e-06
-6.07774e-06
-7.30469e-06
-8.72246e-06
-1.03563e-05
-1.22332e-05
-1.43818e-05
-1.68345e-05
-1.96405e-05
-2.28646e-05
-2.64453e-05
-2.97914e-05
-3.24572e-05
-3.86225e-05
-7.83185e-05
0.00059026
0.00106104
0.00104735
0.00440421
0.00568258
0.00682887
0.00761654
0.00809469
0.00937876
0.0118211
0.0140847
0.0158539
0.0163117
0.016547
0.0169963
0.0173749
0.0181697
0.0187113
0.019651
0.0210892
0.021415
0.0215596
0.0216487
0.0216695
0.0216678
0.0216613
0.0216573
0.0216546
0.0216524
0.0216504
0.0216487
0.0216472
0.0216459
0.0216448
0.0216438
0.021643
0.0216423
0.0216417
0.0216412
0.0216408
0.0216404
0.0216401
0.0216398
0.0216396
0.0216394
0.0216393
0.0216391
0.021639
0.021639
0.0216389
0.0216388
0.0216388
0.0216388
0.0216387
0.0216387
0.0216387
0.0216387
0.0216387
0.0216387
0.0216387
0.0216387
0.0216387
0.0216387
0.0216387
0.0216387
0.0216387
0.0216387
0.0216387
0.0216387
0.0216387
0.0216387
0.0216388
0.0216388
0.0216388
0.0216388
0.0216388
0.0216388
0.0216388
0.0216388
0.0216388
0.0216388
0.0216388
0.0216388
0.0216389
0.0216389
0.0216389
0.0216389
0.0216389
0.0216389
0.0216389
0.0216389
0.0216389
0.0216389
0.0216389
0.0216389
0.0216389
0.0216389
0.0216389
0.0216389
)
;

boundaryField
{
    inlet
    {
        type            zeroGradient;
    }
    outlet
    {
        type            fixedValue;
        value           uniform 0;
    }
    repeat_boundary
    {
        type            zeroGradient;
    }
    procBoundary1to0
    {
        type            processor;
        value           nonuniform List<scalar> 
180
(
8.1281e-09
2.4283e-08
4.04441e-08
5.66541e-08
7.28112e-08
8.89722e-08
1.05136e-07
1.21301e-07
1.37464e-07
1.5362e-07
1.6976e-07
1.85872e-07
2.01942e-07
2.17951e-07
2.33877e-07
2.49697e-07
2.6538e-07
2.80898e-07
2.96217e-07
3.11304e-07
3.26124e-07
3.40645e-07
3.54838e-07
3.68679e-07
3.82154e-07
3.95261e-07
4.08015e-07
4.20457e-07
4.32661e-07
4.44745e-07
4.56897e-07
4.69395e-07
4.82454e-07
4.9631e-07
5.11192e-07
5.27385e-07
5.45234e-07
5.65156e-07
5.87648e-07
6.13301e-07
6.42814e-07
6.77013e-07
7.16879e-07
7.63576e-07
8.1849e-07
8.83282e-07
9.59934e-07
1.05078e-06
1.15858e-06
1.28631e-06
1.43748e-06
1.61624e-06
1.82741e-06
2.07663e-06
2.37047e-06
2.71655e-06
3.12364e-06
3.60179e-06
4.16241e-06
4.81826e-06
5.58327e-06
6.47432e-06
7.51186e-06
8.71932e-06
1.01235e-05
1.17549e-05
1.36483e-05
1.58433e-05
1.83847e-05
2.13231e-05
2.47155e-05
2.86265e-05
3.31288e-05
3.83005e-05
4.42115e-05
5.09236e-05
5.86416e-05
6.81592e-05
8.05146e-05
9.772e-05
6.72159e-05
0.000928675
0.00130081
0.00154685
0.00262906
0.00283378
0.00411958
0.00631284
0.00884772
0.0125174
0.0136397
0.0139911
0.0146595
0.015101
0.015239
0.0165437
0.0168676
0.0170828
0.0180844
0.0187877
0.0196474
0.0204533
0.021448
0.0216484
0.021639
0.0216492
0.0216461
0.0216446
0.021644
0.0216436
0.0216432
0.0216428
0.0216424
0.0216421
0.0216418
0.0216416
0.0216413
0.0216411
0.0216409
0.0216407
0.0216405
0.0216404
0.0216402
0.0216401
0.02164
0.0216399
0.0216398
0.0216397
0.0216396
0.0216395
0.0216394
0.0216394
0.0216393
0.0216393
0.0216392
0.0216392
0.0216391
0.0216391
0.0216391
0.021639
0.021639
0.021639
0.021639
0.021639
0.021639
0.0216389
0.0216389
0.0216389
0.0216389
0.0216389
0.0216389
0.0216389
0.0216389
0.0216389
0.0216389
0.0216389
0.0216389
0.0216389
0.0216389
0.0216389
0.0216389
0.0216389
0.0216389
0.0216389
0.0216389
0.0216389
0.0216389
0.0216389
0.0216389
0.0216389
0.0216389
0.0216389
0.0216389
0.0216389
0.0216389
0.0216389
0.0216389
0.0216389
0.0216389
0.0216389
)
;
    }
    procBoundary1to3
    {
        type            processor;
        value           nonuniform List<scalar> 
180
(
9.06393e-09
2.71197e-08
4.52161e-08
6.34165e-08
8.16435e-08
9.99778e-08
1.18442e-07
1.3706e-07
1.55855e-07
1.74846e-07
1.94051e-07
2.13487e-07
2.33166e-07
2.53097e-07
2.73285e-07
2.93732e-07
3.14436e-07
3.3539e-07
3.56582e-07
3.77995e-07
3.99608e-07
4.21393e-07
4.43315e-07
4.65328e-07
4.87376e-07
5.09385e-07
5.31266e-07
5.52928e-07
5.74266e-07
5.95152e-07
6.15433e-07
6.34931e-07
6.53433e-07
6.7069e-07
6.86411e-07
7.00248e-07
7.11793e-07
7.20563e-07
7.25986e-07
7.27387e-07
7.23973e-07
7.14809e-07
6.98799e-07
6.7465e-07
6.4084e-07
5.95582e-07
5.36777e-07
4.61961e-07
3.68243e-07
2.52241e-07
1.09998e-07
-6.31015e-08
-2.72447e-07
-5.24324e-07
-8.26054e-07
-1.18616e-06
-1.61455e-06
-2.12303e-06
-2.72542e-06
-3.43786e-06
-4.27931e-06
-5.27199e-06
-6.44193e-06
-7.81969e-06
-9.44161e-06
-1.13501e-05
-1.35949e-05
-1.62343e-05
-1.93369e-05
-2.29833e-05
-2.72682e-05
-3.23029e-05
-3.82173e-05
-4.51687e-05
-5.33617e-05
-6.30535e-05
-7.43792e-05
-8.68547e-05
-0.00010033
-0.000122686
-0.000217789
0.000751828
0.00122796
0.00156104
0.0030891
0.00446964
0.00569617
0.00692136
0.00988391
0.0111946
0.0117439
0.0133496
0.0136517
0.0138706
0.0147605
0.01552
0.0164517
0.016892
0.0176925
0.0206293
0.0214476
0.0215477
0.02161
0.021634
0.0216448
0.0216408
0.0216385
0.0216378
0.0216375
0.0216373
0.0216371
0.021637
0.0216369
0.0216369
0.0216369
0.0216369
0.021637
0.0216371
0.0216371
0.0216372
0.0216373
0.0216374
0.0216375
0.0216376
0.0216377
0.0216377
0.0216378
0.0216379
0.021638
0.021638
0.0216381
0.0216381
0.0216382
0.0216382
0.0216383
0.0216383
0.0216384
0.0216384
0.0216384
0.0216385
0.0216385
0.0216385
0.0216385
0.0216386
0.0216386
0.0216386
0.0216386
0.0216387
0.0216387
0.0216387
0.0216387
0.0216387
0.0216387
0.0216387
0.0216388
0.0216388
0.0216388
0.0216388
0.0216388
0.0216388
0.0216388
0.0216388
0.0216388
0.0216388
0.0216388
0.0216389
0.0216389
0.0216389
0.0216389
0.0216389
0.0216389
0.0216389
0.0216389
0.0216389
0.0216389
0.0216389
0.0216389
0.0216389
0.0216389
0.0216389
)
;
    }
}


// ************************************************************************* //
