/*--------------------------------*- C++ -*----------------------------------*\
| =========                 |                                                 |
| \\      /  F ield         | OpenFOAM: The Open Source CFD Toolbox           |
|  \\    /   O peration     | Version:  5.x                                   |
|   \\  /    A nd           | Web:      www.OpenFOAM.org                      |
|    \\/     M anipulation  |                                                 |
\*---------------------------------------------------------------------------*/
FoamFile
{
    version     2.0;
    format      ascii;
    class       surfaceScalarField;
    location    "0.003";
    object      phi;
}
// * * * * * * * * * * * * * * * * * * * * * * * * * * * * * * * * * * * * * //

dimensions      [0 3 -1 0 0 0 0];

internalField   nonuniform List<scalar> 
179
(
-2.49987e-10
-2.49986e-10
-2.49986e-10
-2.49986e-10
-2.49985e-10
-2.49984e-10
-2.49983e-10
-2.49982e-10
-2.49981e-10
-2.4998e-10
-2.49978e-10
-2.49976e-10
-2.49974e-10
-2.49972e-10
-2.49969e-10
-2.49966e-10
-2.49963e-10
-2.49959e-10
-2.49955e-10
-2.4995e-10
-2.49945e-10
-2.49939e-10
-2.49933e-10
-2.49926e-10
-2.49918e-10
-2.49909e-10
-2.49899e-10
-2.49889e-10
-2.49877e-10
-2.49863e-10
-2.49849e-10
-2.49832e-10
-2.49814e-10
-2.49794e-10
-2.49772e-10
-2.49747e-10
-2.49719e-10
-2.49689e-10
-2.49655e-10
-2.49618e-10
-2.49576e-10
-2.4953e-10
-2.49479e-10
-2.49422e-10
-2.49358e-10
-2.49288e-10
-2.4921e-10
-2.49123e-10
-2.49027e-10
-2.4892e-10
-2.48802e-10
-2.4867e-10
-2.48524e-10
-2.48363e-10
-2.48183e-10
-2.47983e-10
-2.47761e-10
-2.47515e-10
-2.47242e-10
-2.46937e-10
-2.46599e-10
-2.46224e-10
-2.45806e-10
-2.45341e-10
-2.44825e-10
-2.4425e-10
-2.43611e-10
-2.429e-10
-2.42108e-10
-2.41228e-10
-2.40248e-10
-2.39158e-10
-2.37944e-10
-2.36593e-10
-2.35089e-10
-2.33418e-10
-2.31578e-10
-2.296e-10
-2.27652e-10
-2.26074e-10
-2.25785e-10
-2.25745e-10
-2.14632e-10
-2.14567e-10
-2.2088e-10
-2.32601e-10
-2.36284e-10
-2.42864e-10
-2.40341e-10
-2.34874e-10
-2.33572e-10
-2.34201e-10
-2.45032e-10
-2.559e-10
-2.58839e-10
-2.64694e-10
-2.74177e-10
-2.80539e-10
-2.86333e-10
-2.87235e-10
-2.89277e-10
-2.92098e-10
-2.91053e-10
-2.89763e-10
-2.88164e-10
-2.85143e-10
-2.81755e-10
-2.78486e-10
-2.755e-10
-2.72821e-10
-2.70424e-10
-2.68282e-10
-2.66368e-10
-2.64656e-10
-2.63125e-10
-2.61756e-10
-2.60531e-10
-2.59435e-10
-2.58455e-10
-2.57577e-10
-2.56791e-10
-2.56088e-10
-2.55458e-10
-2.54893e-10
-2.54388e-10
-2.53935e-10
-2.53529e-10
-2.53166e-10
-2.5284e-10
-2.52548e-10
-2.52286e-10
-2.52051e-10
-2.5184e-10
-2.51652e-10
-2.51482e-10
-2.5133e-10
-2.51194e-10
-2.51072e-10
-2.50962e-10
-2.50863e-10
-2.50775e-10
-2.50696e-10
-2.50625e-10
-2.50561e-10
-2.50504e-10
-2.50452e-10
-2.50406e-10
-2.50365e-10
-2.50328e-10
-2.50294e-10
-2.50264e-10
-2.50237e-10
-2.50213e-10
-2.50191e-10
-2.50172e-10
-2.50154e-10
-2.50138e-10
-2.50124e-10
-2.50111e-10
-2.50099e-10
-2.50089e-10
-2.5008e-10
-2.50071e-10
-2.50063e-10
-2.50057e-10
-2.5005e-10
-2.50045e-10
-2.5004e-10
-2.50035e-10
-2.50031e-10
-2.50027e-10
-2.50024e-10
-2.5002e-10
-2.50017e-10
-2.50015e-10
-2.50012e-10
-2.5001e-10
-2.50008e-10
-2.50005e-10
)
;

boundaryField
{
    inlet
    {
        type            calculated;
        value           uniform -2.50003e-10;
    }
    outlet
    {
        type            calculated;
        value           uniform 2.49987e-10;
    }
    repeat_boundary
    {
        type            calculated;
        value           uniform 0;
    }
    procBoundary1to0
    {
        type            processor;
        value           nonuniform List<scalar> 
180
(
-2.48196e-17
-1.91276e-17
-2.18029e-17
-2.70775e-17
-3.2627e-17
-3.77396e-17
-4.21511e-17
-4.57446e-17
-4.84481e-17
-5.0221e-17
-5.10421e-17
-5.09128e-17
-4.98627e-17
-4.79589e-17
-4.52866e-17
-4.19422e-17
-3.80286e-17
-3.36628e-17
-2.89814e-17
-2.41459e-17
-1.93645e-17
-1.49241e-17
-1.12397e-17
-8.92862e-18
-8.91962e-18
-1.26156e-17
-2.21341e-17
-4.06712e-17
-7.30689e-17
-1.26724e-16
-2.12426e-16
-2.51676e-16
-2.85836e-16
-2.96539e-16
-3.12872e-16
-3.36048e-16
-3.67641e-16
-4.09642e-16
-4.64509e-16
-5.35242e-16
-6.25468e-16
-7.39537e-16
-8.8266e-16
-1.06107e-15
-1.28222e-15
-1.55508e-15
-1.89043e-15
-2.30093e-15
-2.67424e-15
-3.12278e-15
-3.66083e-15
-4.3051e-15
-5.07537e-15
-5.99517e-15
-7.09253e-15
-8.40101e-15
-9.96107e-15
-1.1822e-14
-1.40451e-14
-1.67101e-14
-1.98543e-14
-2.35416e-14
-2.79034e-14
-3.30598e-14
-3.91517e-14
-4.63437e-14
-5.48289e-14
-6.48335e-14
-7.66202e-14
-9.04967e-14
-1.0682e-13
-1.26004e-13
-1.48522e-13
-1.74864e-13
-2.05355e-13
-2.39447e-13
-2.73197e-13
-2.90343e-13
-2.58045e-13
-2.05331e-13
-7.07901e-14
4.5974e-14
-4.66096e-12
2.19113e-13
3.81753e-12
9.39443e-12
6.21711e-13
3.76718e-12
-3.73201e-13
-3.71429e-12
-1.9946e-12
-2.58143e-13
5.26081e-13
4.68532e-12
8.25092e-13
1.58904e-12
4.91974e-12
1.74011e-12
2.44588e-12
1.19841e-12
3.56198e-12
4.76929e-12
9.23734e-13
-1.75425e-13
-7.86711e-13
-2.4385e-12
-2.80849e-12
-2.70121e-12
-2.46515e-12
-2.21843e-12
-1.99e-12
-1.78409e-12
-1.5995e-12
-1.4342e-12
-1.28617e-12
-1.15357e-12
-1.03478e-12
-9.28335e-13
-8.32945e-13
-7.47446e-13
-6.708e-13
-6.02079e-13
-5.40457e-13
-4.8519e-13
-4.35618e-13
-3.91147e-13
-3.51247e-13
-3.15443e-13
-2.83312e-13
-2.54473e-13
-2.28586e-13
-2.05347e-13
-1.84484e-13
-1.65754e-13
-1.48937e-13
-1.33836e-13
-1.20274e-13
-1.08092e-13
-9.71507e-14
-8.73214e-14
-7.84908e-14
-7.05568e-14
-6.3428e-14
-5.70222e-14
-5.12658e-14
-4.60927e-14
-4.14435e-14
-3.7265e-14
-3.35093e-14
-3.01336e-14
-2.70992e-14
-2.43718e-14
-2.19203e-14
-1.9717e-14
-1.77368e-14
-1.59575e-14
-1.4359e-14
-1.29233e-14
-1.16342e-14
-1.04773e-14
-9.43943e-15
-8.50905e-15
-7.67564e-15
-6.92979e-15
-6.26306e-15
-5.66788e-15
-5.13747e-15
-4.66574e-15
-4.24728e-15
-3.87723e-15
-3.5513e-15
-3.26566e-15
-3.01698e-15
-2.80231e-15
-2.61911e-15
-2.46525e-15
-2.33898e-15
-2.23922e-15
-2.16504e-15
-2.16992e-15
)
;
    }
    procBoundary1to3
    {
        type            processor;
        value           nonuniform List<scalar> 
180
(
-1.34305e-16
-2.27086e-16
-3.52648e-16
-4.87927e-16
-6.29074e-16
-7.76551e-16
-9.31815e-16
-1.09659e-15
-1.27273e-15
-1.4622e-15
-1.6671e-15
-1.8897e-15
-2.13246e-15
-2.39805e-15
-2.68938e-15
-3.00962e-15
-3.36223e-15
-3.75099e-15
-4.18005e-15
-4.65393e-15
-5.17763e-15
-5.7566e-15
-6.39684e-15
-7.10498e-15
-7.88829e-15
-8.7548e-15
-9.7134e-15
-1.0774e-14
-1.19478e-14
-1.3247e-14
-1.46856e-14
-1.62792e-14
-1.80447e-14
-2.00007e-14
-2.21676e-14
-2.45681e-14
-2.72274e-14
-3.01736e-14
-3.34376e-14
-3.70539e-14
-4.10609e-14
-4.55008e-14
-5.04206e-14
-5.58723e-14
-6.19133e-14
-6.86071e-14
-7.6024e-14
-8.42416e-14
-9.33463e-14
-1.03432e-13
-1.14604e-13
-1.26977e-13
-1.40679e-13
-1.55849e-13
-1.72645e-13
-1.91236e-13
-2.11813e-13
-2.34583e-13
-2.59774e-13
-2.87639e-13
-3.18453e-13
-3.52518e-13
-3.90166e-13
-4.31769e-13
-4.77738e-13
-5.28514e-13
-5.84581e-13
-6.46466e-13
-7.1474e-13
-7.90019e-13
-8.72992e-13
-9.64427e-13
-1.06526e-12
-1.17642e-12
-1.2986e-12
-1.4313e-12
-1.56832e-12
-1.68595e-12
-1.69098e-12
-1.37214e-12
-2.17639e-13
-8.60703e-14
-6.45207e-12
-2.84256e-13
2.49575e-12
2.32659e-12
3.06152e-12
2.81248e-12
-2.15012e-12
-1.75239e-12
6.92483e-13
8.87058e-13
1.03046e-11
6.18304e-12
2.11339e-12
4.26588e-12
4.56318e-12
4.62188e-12
3.34887e-12
-2.97314e-13
-1.51941e-12
-1.94807e-12
-1.9683e-12
-1.11445e-12
-8.12041e-13
-5.8249e-13
-5.79339e-13
-5.68167e-13
-5.19959e-13
-4.613e-13
-4.06324e-13
-3.57697e-13
-3.14968e-13
-2.7742e-13
-2.44425e-13
-2.15424e-13
-1.89924e-13
-1.67492e-13
-1.4775e-13
-1.30369e-13
-1.1506e-13
-1.0157e-13
-8.96798e-14
-7.91943e-14
-6.99441e-14
-6.17802e-14
-5.45739e-14
-4.82193e-14
-4.26156e-14
-3.76732e-14
-3.33134e-14
-2.94665e-14
-2.60715e-14
-2.30745e-14
-2.04282e-14
-1.80906e-14
-1.60252e-14
-1.41996e-14
-1.25851e-14
-1.11564e-14
-9.8914e-15
-8.77026e-15
-7.77595e-15
-6.894e-15
-6.11119e-15
-5.41594e-15
-4.79824e-15
-4.2493e-15
-3.76152e-15
-3.32916e-15
-2.94633e-15
-2.60738e-15
-2.30847e-15
-2.04813e-15
-1.81671e-15
-1.60983e-15
-1.42418e-15
-1.25824e-15
-1.11156e-15
-9.82412e-16
-8.68979e-16
-7.69454e-16
-6.82163e-16
-6.05606e-16
-5.38468e-16
-4.79599e-16
-4.27994e-16
-3.8277e-16
-3.43145e-16
-3.08422e-16
-2.77973e-16
-2.51229e-16
-2.2767e-16
-2.06822e-16
-1.88261e-16
-1.71621e-16
-1.56706e-16
-1.4383e-16
-1.34545e-16
-1.19608e-16
)
;
    }
}


// ************************************************************************* //
