/*--------------------------------*- C++ -*----------------------------------*\
| =========                 |                                                 |
| \\      /  F ield         | OpenFOAM: The Open Source CFD Toolbox           |
|  \\    /   O peration     | Version:  5.x                                   |
|   \\  /    A nd           | Web:      www.OpenFOAM.org                      |
|    \\/     M anipulation  |                                                 |
\*---------------------------------------------------------------------------*/
FoamFile
{
    version     2.0;
    format      ascii;
    class       volVectorField;
    location    "0.003";
    object      U;
}
// * * * * * * * * * * * * * * * * * * * * * * * * * * * * * * * * * * * * * //

dimensions      [0 1 -1 0 0 0 0];

internalField   nonuniform List<vector> 
180
(
(1.06535e-09 -4.43777e-09 -0.000999948)
(1.21227e-09 -7.46822e-09 -0.000999947)
(1.65564e-09 -1.1692e-08 -0.000999945)
(2.2327e-09 -1.63699e-08 -0.000999944)
(2.85429e-09 -2.13115e-08 -0.000999942)
(3.49432e-09 -2.65139e-08 -0.000999939)
(4.1469e-09 -3.20226e-08 -0.000999936)
(4.81185e-09 -3.78963e-08 -0.000999932)
(5.49023e-09 -4.42e-08 -0.000999927)
(6.18327e-09 -5.10036e-08 -0.000999922)
(6.89217e-09 -5.83827e-08 -0.000999916)
(7.61796e-09 -6.64192e-08 -0.000999909)
(8.36147e-09 -7.52021e-08 -0.000999901)
(9.12324e-09 -8.48282e-08 -0.000999892)
(9.90346e-09 -9.54035e-08 -0.000999882)
(1.07019e-08 -1.07044e-07 -0.000999871)
(1.1518e-08 -1.19876e-07 -0.000999858)
(1.23504e-08 -1.3404e-07 -0.000999844)
(1.31975e-08 -1.49688e-07 -0.000999828)
(1.40569e-08 -1.66989e-07 -0.000999811)
(1.49257e-08 -1.86129e-07 -0.000999791)
(1.58006e-08 -2.07311e-07 -0.000999769)
(1.66778e-08 -2.30761e-07 -0.000999745)
(1.75532e-08 -2.56729e-07 -0.000999718)
(1.8423e-08 -2.8549e-07 -0.000999688)
(1.92839e-08 -3.17348e-07 -0.000999655)
(2.01337e-08 -3.5264e-07 -0.000999618)
(2.09726e-08 -3.91743e-07 -0.000999577)
(2.18045e-08 -4.35075e-07 -0.000999532)
(2.2639e-08 -4.83101e-07 -0.000999482)
(2.34955e-08 -5.36342e-07 -0.000999426)
(2.44067e-08 -5.95381e-07 -0.000999364)
(2.53887e-08 -6.60852e-07 -0.000999295)
(2.6457e-08 -7.3346e-07 -0.000999218)
(2.762e-08 -8.1398e-07 -0.000999133)
(2.88905e-08 -9.03274e-07 -0.000999039)
(3.02862e-08 -1.0023e-06 -0.000998935)
(3.18307e-08 -1.11212e-06 -0.00099882)
(3.35539e-08 -1.23391e-06 -0.000998692)
(3.54933e-08 -1.36899e-06 -0.000998549)
(3.76951e-08 -1.51881e-06 -0.000998392)
(4.02155e-08 -1.68498e-06 -0.000998216)
(4.31229e-08 -1.8693e-06 -0.000998022)
(4.64996e-08 -2.07373e-06 -0.000997805)
(5.04448e-08 -2.3005e-06 -0.000997565)
(5.50781e-08 -2.55203e-06 -0.000997299)
(6.05451e-08 -2.83104e-06 -0.000997003)
(6.70177e-08 -3.14052e-06 -0.000996674)
(7.47061e-08 -3.48382e-06 -0.000996309)
(8.381e-08 -3.86459e-06 -0.000995904)
(9.45672e-08 -4.28691e-06 -0.000995455)
(1.07261e-07 -4.75528e-06 -0.000994956)
(1.2223e-07 -5.27471e-06 -0.000994403)
(1.39874e-07 -5.85073e-06 -0.000993789)
(1.60673e-07 -6.48947e-06 -0.000993107)
(1.85195e-07 -7.19775e-06 -0.000992351)
(2.14117e-07 -7.98312e-06 -0.00099151)
(2.4824e-07 -8.85392e-06 -0.000990576)
(2.88521e-07 -9.81944e-06 -0.000989539)
(3.36097e-07 -1.089e-05 -0.000988387)
(3.92324e-07 -1.20769e-05 -0.000987105)
(4.58793e-07 -1.33928e-05 -0.000985681)
(5.3737e-07 -1.48517e-05 -0.000984098)
(6.30233e-07 -1.6469e-05 -0.000982337)
(7.39954e-07 -1.8262e-05 -0.00098038)
(8.69528e-07 -2.02495e-05 -0.000978202)
(1.02249e-06 -2.24524e-05 -0.000975781)
(1.203e-06 -2.48942e-05 -0.000973087)
(1.41589e-06 -2.76003e-05 -0.00097009)
(1.66684e-06 -3.05991e-05 -0.000966755)
(1.96245e-06 -3.3922e-05 -0.000963046)
(2.31038e-06 -3.76035e-05 -0.000958918)
(2.71905e-06 -4.16813e-05 -0.000954297)
(3.19566e-06 -4.6194e-05 -0.000949078)
(3.73688e-06 -5.11691e-05 -0.000943409)
(4.29159e-06 -5.6575e-05 -0.000938439)
(4.63041e-06 -6.21215e-05 -0.000935198)
(4.0292e-06 -6.65077e-05 -0.000922109)
(9.97505e-07 -6.53561e-05 -0.000869535)
(-4.78088e-06 -4.91402e-05 -0.000697062)
(-1.14584e-05 -1.93114e-06 -0.00252151)
(-2.55066e-05 -1.52815e-06 -4.32891e-05)
(0.000192453 -0.000260266 -0.00261159)
(5.52198e-05 -6.84898e-05 -0.00327358)
(-4.1161e-05 2.53181e-05 -0.000727691)
(-0.000535746 0.000302137 -0.00424653)
(-5.91431e-05 3.32055e-05 -0.000288547)
(-0.000293829 0.000281758 -0.00309075)
(5.77229e-05 -0.000102621 -0.00177678)
(0.000285128 -0.000122324 -0.00358539)
(3.3102e-05 3.06436e-05 -0.00163704)
(-7.16085e-06 9.70726e-05 -0.00406521)
(-6.56986e-05 0.000101332 -0.00104148)
(-0.00020646 0.000666322 -0.00364171)
(-1.96405e-06 -1.79024e-05 -0.00022279)
(-0.000208403 0.000478021 -0.00371753)
(-9.92519e-05 0.000198334 -0.00181314)
(-0.000174434 0.000247858 -0.00220724)
(-0.000178318 0.00032085 -0.00365444)
(-8.2478e-05 -4.55663e-05 -0.00188495)
(-0.000259398 -7.09179e-05 -0.00288833)
(-0.000414894 -8.63582e-05 -0.00254948)
(-0.000111194 -6.62004e-05 -0.00178371)
(9.76773e-06 -3.66259e-05 -0.0017166)
(5.24967e-05 -2.05397e-05 -0.00138063)
(9.67941e-05 -1.59027e-05 -0.0012363)
(0.000106297 -2.0015e-05 -0.00113362)
(0.000101103 -2.1551e-05 -0.00111236)
(9.19599e-05 -2.02994e-05 -0.001106)
(8.26163e-05 -1.81308e-05 -0.00109664)
(7.40043e-05 -1.59576e-05 -0.00108643)
(6.62561e-05 -1.40062e-05 -0.00107721)
(5.93211e-05 -1.22902e-05 -0.00106909)
(5.31196e-05 -1.0786e-05 -0.00106187)
(4.75737e-05 -9.46844e-06 -0.00105541)
(4.26134e-05 -8.3143e-06 -0.00104963)
(3.8176e-05 -7.30311e-06 -0.00104445)
(3.42057e-05 -6.41695e-06 -0.00103983)
(3.06525e-05 -5.64014e-06 -0.00103568)
(2.74721e-05 -4.95901e-06 -0.00103198)
(2.46249e-05 -4.3616e-06 -0.00102866)
(2.20755e-05 -3.83747e-06 -0.00102569)
(1.97924e-05 -3.3775e-06 -0.00102303)
(1.77475e-05 -2.97372e-06 -0.00102065)
(1.59156e-05 -2.61915e-06 -0.00101852)
(1.42743e-05 -2.30769e-06 -0.0010166)
(1.28036e-05 -2.03401e-06 -0.00101489)
(1.14855e-05 -1.79345e-06 -0.00101336)
(1.0304e-05 -1.58191e-06 -0.00101198)
(9.24483e-06 -1.39584e-06 -0.00101075)
(8.29522e-06 -1.2321e-06 -0.00100964)
(7.44373e-06 -1.08796e-06 -0.00100865)
(6.68016e-06 -9.61035e-07 -0.00100776)
(5.9954e-06 -8.49229e-07 -0.00100697)
(5.38125e-06 -7.50711e-07 -0.00100625)
(4.83036e-06 -6.63876e-07 -0.00100561)
(4.33616e-06 -5.8732e-07 -0.00100504)
(3.89277e-06 -5.19808e-07 -0.00100452)
(3.49492e-06 -4.6026e-07 -0.00100406)
(3.13792e-06 -4.07725e-07 -0.00100364)
(2.81754e-06 -3.6137e-07 -0.00100327)
(2.52999e-06 -3.20459e-07 -0.00100294)
(2.27191e-06 -2.84347e-07 -0.00100264)
(2.04025e-06 -2.52464e-07 -0.00100237)
(1.8323e-06 -2.24309e-07 -0.00100212)
(1.64561e-06 -1.99441e-07 -0.00100191)
(1.47801e-06 -1.77468e-07 -0.00100171)
(1.32753e-06 -1.58048e-07 -0.00100154)
(1.19243e-06 -1.40875e-07 -0.00100138)
(1.07111e-06 -1.25684e-07 -0.00100124)
(9.62185e-07 -1.12237e-07 -0.00100111)
(8.64374e-07 -1.00329e-07 -0.001001)
(7.76548e-07 -8.97754e-08 -0.0010009)
(6.9769e-07 -8.04183e-08 -0.00100081)
(6.26891e-07 -7.21188e-08 -0.00100072)
(5.63335e-07 -6.47553e-08 -0.00100065)
(5.0629e-07 -5.82197e-08 -0.00100058)
(4.551e-07 -5.24162e-08 -0.00100052)
(4.09177e-07 -4.726e-08 -0.00100047)
(3.67993e-07 -4.26763e-08 -0.00100042)
(3.31077e-07 -3.85995e-08 -0.00100038)
(2.98004e-07 -3.49721e-08 -0.00100034)
(2.68397e-07 -3.17435e-08 -0.0010003)
(2.41913e-07 -2.8869e-08 -0.00100027)
(2.18251e-07 -2.63093e-08 -0.00100024)
(1.97136e-07 -2.40293e-08 -0.00100021)
(1.78327e-07 -2.19979e-08 -0.00100019)
(1.61605e-07 -2.01872e-08 -0.00100017)
(1.46778e-07 -1.85722e-08 -0.00100015)
(1.33672e-07 -1.71307e-08 -0.00100013)
(1.22135e-07 -1.58425e-08 -0.00100012)
(1.12033e-07 -1.46896e-08 -0.0010001)
(1.03246e-07 -1.36557e-08 -0.00100009)
(9.56709e-08 -1.27263e-08 -0.00100008)
(8.92187e-08 -1.1889e-08 -0.00100006)
(8.38139e-08 -1.11333e-08 -0.00100005)
(7.93971e-08 -1.04562e-08 -0.00100004)
(7.59345e-08 -9.87616e-09 -0.00100003)
(7.34326e-08 -9.44766e-09 -0.00100003)
(7.20951e-08 -9.3429e-09 -0.00100002)
)
;

boundaryField
{
    inlet
    {
        type            zeroGradient;
    }
    outlet
    {
        type            zeroGradient;
    }
    repeat_boundary
    {
        type            slip;
    }
    procBoundary1to0
    {
        type            processor;
        value           nonuniform List<vector> 
180
(
(1.06535e-09 -4.43571e-09 -0.00099996)
(1.21227e-09 -7.41526e-09 -0.000999959)
(1.65566e-09 -1.15994e-08 -0.000999958)
(2.2327e-09 -1.62393e-08 -0.000999957)
(2.85429e-09 -2.11449e-08 -0.000999955)
(3.49432e-09 -2.63104e-08 -0.000999952)
(4.14691e-09 -3.17813e-08 -0.000999949)
(4.81185e-09 -3.76156e-08 -0.000999946)
(5.49023e-09 -4.38768e-08 -0.000999941)
(6.18327e-09 -5.06329e-08 -0.000999937)
(6.89217e-09 -5.79569e-08 -0.000999931)
(7.61797e-09 -6.5928e-08 -0.000999924)
(8.36148e-09 -7.46317e-08 -0.000999917)
(9.12324e-09 -8.41618e-08 -0.000999909)
(9.90347e-09 -9.46205e-08 -0.000999899)
(1.07019e-08 -1.06121e-07 -0.000999888)
(1.1518e-08 -1.18786e-07 -0.000999876)
(1.23504e-08 -1.32754e-07 -0.000999862)
(1.31975e-08 -1.48175e-07 -0.000999847)
(1.40569e-08 -1.65216e-07 -0.000999829)
(1.49257e-08 -1.84063e-07 -0.00099981)
(1.58007e-08 -2.04921e-07 -0.000999788)
(1.66778e-08 -2.28016e-07 -0.000999764)
(1.75533e-08 -2.53601e-07 -0.000999737)
(1.84231e-08 -2.81952e-07 -0.000999707)
(1.9284e-08 -3.1338e-07 -0.000999674)
(2.01338e-08 -3.48226e-07 -0.000999637)
(2.09727e-08 -3.86863e-07 -0.000999597)
(2.18046e-08 -4.29707e-07 -0.000999552)
(2.26392e-08 -4.77212e-07 -0.000999502)
(2.34957e-08 -5.29877e-07 -0.000999447)
(2.44069e-08 -5.88251e-07 -0.000999387)
(2.5389e-08 -6.52948e-07 -0.00099932)
(2.64574e-08 -7.24651e-07 -0.000999245)
(2.76205e-08 -8.04118e-07 -0.000999163)
(2.8891e-08 -8.92187e-07 -0.000999072)
(3.02869e-08 -9.89784e-07 -0.000998971)
(3.18315e-08 -1.09793e-06 -0.00099886)
(3.35549e-08 -1.21775e-06 -0.000998736)
(3.54945e-08 -1.35049e-06 -0.0009986)
(3.76966e-08 -1.49752e-06 -0.000998449)
(4.02174e-08 -1.66037e-06 -0.000998282)
(4.31252e-08 -1.84072e-06 -0.000998097)
(4.65024e-08 -2.04041e-06 -0.000997892)
(5.04482e-08 -2.26151e-06 -0.000997666)
(5.50823e-08 -2.50626e-06 -0.000997417)
(6.05502e-08 -2.77718e-06 -0.000997141)
(6.7024e-08 -3.07701e-06 -0.000996836)
(7.47139e-08 -3.4088e-06 -0.0009965)
(8.38196e-08 -3.77595e-06 -0.000996128)
(9.45789e-08 -4.18218e-06 -0.000995717)
(1.07276e-07 -4.63162e-06 -0.000995264)
(1.22247e-07 -5.12882e-06 -0.000994763)
(1.39896e-07 -5.67882e-06 -0.000994211)
(1.607e-07 -6.28715e-06 -0.000993602)
(1.85228e-07 -6.95992e-06 -0.000992931)
(2.14157e-07 -7.70388e-06 -0.000992191)
(2.4829e-07 -8.52644e-06 -0.000991377)
(2.88581e-07 -9.43578e-06 -0.00099048)
(3.36171e-07 -1.04409e-05 -0.000989494)
(3.92416e-07 -1.15517e-05 -0.000988409)
(4.58905e-07 -1.27791e-05 -0.000987216)
(5.37508e-07 -1.41352e-05 -0.000985906)
(6.30403e-07 -1.5633e-05 -0.000984467)
(7.40162e-07 -1.72873e-05 -0.000982888)
(8.69785e-07 -1.91138e-05 -0.000981156)
(1.02281e-06 -2.11304e-05 -0.000979257)
(1.20339e-06 -2.33561e-05 -0.000977177)
(1.41637e-06 -2.58124e-05 -0.000974902)
(1.66743e-06 -2.85224e-05 -0.000972413)
(1.9632e-06 -3.15117e-05 -0.000969696)
(2.31137e-06 -3.48085e-05 -0.000966729)
(2.72072e-06 -3.84436e-05 -0.000963459)
(3.20037e-06 -4.24488e-05 -0.00095981)
(3.7571e-06 -4.68463e-05 -0.000955991)
(4.38571e-06 -5.15998e-05 -0.000953299)
(5.02704e-06 -5.64233e-05 -0.000952856)
(5.48772e-06 -6.02486e-05 -0.000942368)
(5.45449e-06 -5.96459e-05 -0.000893246)
(6.03299e-06 -4.75659e-05 -0.000645775)
(9.82451e-06 -4.28518e-06 -0.00289022)
(1.58649e-05 1.32986e-05 -1.65801e-05)
(0.000198756 2.93989e-05 -0.00347976)
(4.74737e-06 2.88811e-05 -6.14708e-05)
(-0.000449324 -0.000249604 -0.00285542)
(-0.000515647 -0.00028129 -0.0026217)
(-2.53361e-05 -1.56706e-05 -0.000571348)
(-0.000122303 -0.000151378 -0.00486681)
(1.08091e-05 3.26235e-06 -0.000279352)
(0.000291604 0.000280707 -0.00425739)
(0.00020766 0.000415503 -0.0018263)
(5.12972e-05 0.000850663 -0.00313099)
(5.57776e-06 4.58708e-05 -0.000379557)
(-0.000220667 0.00126595 -0.00298223)
(-0.000193212 0.000365013 -0.00290101)
(-2.93292e-05 -2.9503e-05 -0.00101193)
(-0.000417579 -0.00100998 -0.00355662)
(-4.56589e-05 -0.000164073 -0.000777771)
(-0.000139288 -0.000365289 -0.00352884)
(-8.49059e-05 -0.000184978 -0.00180301)
(-0.000208854 -0.00016306 -0.0028)
(-0.00011171 -6.67003e-05 -0.00246497)
(-8.5661e-06 -9.01429e-06 -0.00151902)
(3.72246e-06 2.9397e-05 -0.0017362)
(1.55063e-05 -7.13018e-06 -0.000791579)
(8.42143e-05 1.69304e-05 -0.000955419)
(0.000102966 1.92557e-05 -0.000874894)
(0.000100456 1.6054e-05 -0.000880719)
(9.1908e-05 1.30566e-05 -0.000897866)
(8.26603e-05 1.08492e-05 -0.000910524)
(7.40517e-05 9.13228e-06 -0.000920137)
(6.6295e-05 7.71035e-06 -0.000928614)
(5.93519e-05 6.50522e-06 -0.000936281)
(5.31437e-05 5.48051e-06 -0.000943135)
(4.75927e-05 4.60963e-06 -0.000949235)
(4.26284e-05 3.87015e-06 -0.000954667)
(3.81879e-05 3.24284e-06 -0.000959507)
(3.4215e-05 2.71127e-06 -0.000963821)
(3.06598e-05 2.26133e-06 -0.000967668)
(2.74779e-05 1.88096e-06 -0.000971099)
(2.46294e-05 1.55983e-06 -0.00097416)
(2.20791e-05 1.28913e-06 -0.000976892)
(1.97953e-05 1.06128e-06 -0.00097933)
(1.77498e-05 8.69826e-07 -0.000981507)
(1.59174e-05 7.09262e-07 -0.000983452)
(1.42758e-05 5.74875e-07 -0.000985189)
(1.28047e-05 4.62649e-07 -0.000986741)
(1.14864e-05 3.69165e-07 -0.000988128)
(1.03047e-05 2.915e-07 -0.000989368)
(9.2454e-06 2.27176e-07 -0.000990477)
(8.29567e-06 1.74099e-07 -0.000991468)
(7.44409e-06 1.30501e-07 -0.000992356)
(6.68045e-06 9.49088e-08 -0.000993151)
(5.99563e-06 6.61043e-08 -0.000993862)
(5.38143e-06 4.29495e-08 -0.000994499)
(4.8305e-06 2.44719e-08 -0.000995068)
(4.33627e-06 9.85603e-09 -0.000995578)
(3.89286e-06 -1.58068e-09 -0.000996035)
(3.495e-06 -1.04089e-08 -0.000996444)
(3.13798e-06 -1.71055e-08 -0.00099681)
(2.81758e-06 -2.20685e-08 -0.000997139)
(2.53003e-06 -2.56297e-08 -0.000997433)
(2.27194e-06 -2.80654e-08 -0.000997697)
(2.04027e-06 -2.96037e-08 -0.000997933)
(1.83232e-06 -3.04342e-08 -0.000998145)
(1.64563e-06 -3.07138e-08 -0.000998336)
(1.47802e-06 -3.0571e-08 -0.000998506)
(1.32754e-06 -3.01105e-08 -0.000998659)
(1.19243e-06 -2.94174e-08 -0.000998797)
(1.07112e-06 -2.85595e-08 -0.00099892)
(9.6219e-07 -2.75907e-08 -0.00099903)
(8.64378e-07 -2.65534e-08 -0.00099913)
(7.76551e-07 -2.54804e-08 -0.000999219)
(6.97693e-07 -2.43963e-08 -0.000999298)
(6.26893e-07 -2.33194e-08 -0.00099937)
(5.63336e-07 -2.22624e-08 -0.000999434)
(5.06291e-07 -2.12341e-08 -0.000999492)
(4.55101e-07 -2.02399e-08 -0.000999544)
(4.09177e-07 -1.92823e-08 -0.000999591)
(3.67994e-07 -1.83618e-08 -0.000999633)
(3.31077e-07 -1.7478e-08 -0.000999671)
(2.98005e-07 -1.66298e-08 -0.000999705)
(2.68397e-07 -1.58156e-08 -0.000999736)
(2.41914e-07 -1.50341e-08 -0.000999763)
(2.18251e-07 -1.4284e-08 -0.000999789)
(1.97137e-07 -1.35638e-08 -0.000999811)
(1.78327e-07 -1.28723e-08 -0.000999832)
(1.61606e-07 -1.22085e-08 -0.000999851)
(1.46778e-07 -1.15715e-08 -0.000999868)
(1.33672e-07 -1.09606e-08 -0.000999883)
(1.22136e-07 -1.0375e-08 -0.000999898)
(1.12033e-07 -9.81424e-09 -0.000999911)
(1.03246e-07 -9.27767e-09 -0.000999923)
(9.56709e-08 -8.76466e-09 -0.000999934)
(8.92187e-08 -8.27406e-09 -0.000999945)
(8.38139e-08 -7.80263e-09 -0.000999955)
(7.93971e-08 -7.34036e-09 -0.000999964)
(7.59345e-08 -6.87138e-09 -0.000999973)
(7.34326e-08 -6.42567e-09 -0.000999983)
(7.20951e-08 -6.09111e-09 -0.000999991)
)
;
    }
    procBoundary1to3
    {
        type            processor;
        value           nonuniform List<vector> 
180
(
(1.06329e-09 -4.43777e-09 -0.00100004)
(1.1593e-09 -7.46824e-09 -0.00100004)
(1.56297e-09 -1.16921e-08 -0.00100004)
(2.10211e-09 -1.63699e-08 -0.00100004)
(2.68767e-09 -2.13115e-08 -0.00100004)
(3.29083e-09 -2.65139e-08 -0.00100005)
(3.90561e-09 -3.20226e-08 -0.00100005)
(4.53112e-09 -3.78963e-08 -0.00100005)
(5.167e-09 -4.42e-08 -0.00100006)
(5.81251e-09 -5.10036e-08 -0.00100007)
(6.46637e-09 -5.83828e-08 -0.00100007)
(7.1267e-09 -6.64193e-08 -0.00100008)
(7.79112e-09 -7.52021e-08 -0.00100009)
(8.45677e-09 -8.48283e-08 -0.0010001)
(9.12046e-09 -9.54036e-08 -0.00100011)
(9.77869e-09 -1.07044e-07 -0.00100012)
(1.04278e-08 -1.19876e-07 -0.00100013)
(1.10642e-08 -1.3404e-07 -0.00100014)
(1.1684e-08 -1.49688e-07 -0.00100016)
(1.2284e-08 -1.66989e-07 -0.00100018)
(1.28606e-08 -1.86129e-07 -0.0010002)
(1.34111e-08 -2.07311e-07 -0.00100022)
(1.39331e-08 -2.30761e-07 -0.00100024)
(1.44247e-08 -2.5673e-07 -0.00100027)
(1.48854e-08 -2.8549e-07 -0.0010003)
(1.53162e-08 -3.17349e-07 -0.00100033)
(1.57189e-08 -3.52641e-07 -0.00100037)
(1.60925e-08 -3.91744e-07 -0.00100041)
(1.64363e-08 -4.35076e-07 -0.00100045)
(1.67494e-08 -4.83103e-07 -0.0010005)
(1.70302e-08 -5.36344e-07 -0.00100056)
(1.72764e-08 -5.95383e-07 -0.00100062)
(1.74841e-08 -6.60855e-07 -0.00100069)
(1.76473e-08 -7.33464e-07 -0.00100076)
(1.77576e-08 -8.13985e-07 -0.00100085)
(1.78033e-08 -9.0328e-07 -0.00100094)
(1.77697e-08 -1.00231e-06 -0.00100104)
(1.7638e-08 -1.11213e-06 -0.00100116)
(1.73853e-08 -1.23392e-06 -0.00100129)
(1.69842e-08 -1.36901e-06 -0.00100143)
(1.64026e-08 -1.51883e-06 -0.00100158)
(1.56036e-08 -1.685e-06 -0.00100176)
(1.4545e-08 -1.86932e-06 -0.00100195)
(1.31794e-08 -2.07376e-06 -0.00100216)
(1.14539e-08 -2.30053e-06 -0.0010024)
(9.30988e-09 -2.55207e-06 -0.00100266)
(6.68266e-09 -2.83109e-06 -0.00100295)
(3.50165e-09 -3.14059e-06 -0.00100327)
(-3.10329e-10 -3.4839e-06 -0.00100362)
(-4.83768e-09 -3.8647e-06 -0.00100402)
(-1.01721e-08 -4.28704e-06 -0.00100445)
(-1.64128e-08 -4.75545e-06 -0.00100494)
(-2.36657e-08 -5.27491e-06 -0.00100547)
(-3.2042e-08 -5.85098e-06 -0.00100606)
(-4.16636e-08 -6.48978e-06 -0.00100672)
(-5.26516e-08 -7.19814e-06 -0.00100744)
(-6.51389e-08 -7.98359e-06 -0.00100825)
(-7.92646e-08 -8.8545e-06 -0.00100913)
(-9.5171e-08 -9.82016e-06 -0.00101012)
(-1.12993e-07 -1.08909e-05 -0.0010112)
(-1.32871e-07 -1.2078e-05 -0.0010124)
(-1.54918e-07 -1.33942e-05 -0.00101373)
(-1.7923e-07 -1.48534e-05 -0.00101519)
(-2.05876e-07 -1.64711e-05 -0.00101681)
(-2.34888e-07 -1.82646e-05 -0.0010186)
(-2.66228e-07 -2.02527e-05 -0.00102057)
(-2.99766e-07 -2.24564e-05 -0.00102274)
(-3.35251e-07 -2.48991e-05 -0.00102514)
(-3.72281e-07 -2.76063e-05 -0.00102777)
(-4.10249e-07 -3.06066e-05 -0.00103068)
(-4.48275e-07 -3.39313e-05 -0.00103388)
(-4.8513e-07 -3.76151e-05 -0.0010374)
(-5.19282e-07 -4.16966e-05 -0.00104123)
(-5.50288e-07 -4.62171e-05 -0.00104534)
(-5.88434e-07 -5.12159e-05 -0.00105001)
(-6.96807e-07 -5.67018e-05 -0.00105684)
(-1.08416e-06 -6.24527e-05 -0.00106712)
(-2.17029e-06 -6.77609e-05 -0.00106607)
(-4.19185e-06 -6.96092e-05 -0.0010151)
(-4.47602e-06 -6.10749e-05 -0.000805905)
(-1.54623e-06 -3.29694e-05 -0.00336219)
(9.89608e-07 -3.15435e-05 -1.30303e-05)
(-9.04111e-05 -0.000275795 -0.00412578)
(1.68237e-07 3.01223e-06 -7.60595e-05)
(0.000157699 0.00031406 -0.00484577)
(-6.13671e-06 3.67311e-05 -0.000200188)
(0.00035335 0.000350073 -0.00499968)
(2.3232e-06 3.93582e-05 -0.000282117)
(-7.76918e-05 -0.000137578 -0.00478509)
(-8.39021e-05 -6.03034e-05 -0.00131495)
(-0.000295635 8.59286e-05 -0.00516968)
(-1.4682e-06 2.03699e-05 -0.000113005)
(-0.00118749 0.00101643 -0.00432385)
(-5.39343e-05 5.57876e-05 -0.000367896)
(-0.000267549 0.000408236 -0.00440209)
(3.68474e-05 9.95177e-05 -0.00120003)
(0.000582826 0.00031622 -0.00323846)
(0.000514812 0.000296321 -0.00256093)
(0.000296554 0.000184735 -0.00496724)
(-3.15433e-05 1.8162e-05 -0.000893229)
(-0.000269582 -0.000101886 -0.00314086)
(-0.000275399 -9.29184e-05 -0.00125759)
(-0.000312248 -0.000125632 -0.00165878)
(-0.000100373 -6.89478e-05 -0.00118978)
(1.58186e-05 -4.82938e-05 -0.00121642)
(6.17476e-05 -3.29416e-05 -0.0010793)
(6.76888e-05 -2.69758e-05 -0.00105198)
(6.39098e-05 -2.36674e-05 -0.00105276)
(5.87328e-05 -2.08359e-05 -0.00105134)
(5.36721e-05 -1.82606e-05 -0.00104726)
(4.89277e-05 -1.59969e-05 -0.00104309)
(4.45473e-05 -1.40253e-05 -0.00103939)
(4.05314e-05 -1.2303e-05 -0.00103601)
(3.68574e-05 -1.07957e-05 -0.0010329)
(3.3499e-05 -9.47588e-06 -0.00103003)
(3.04316e-05 -8.32005e-06 -0.0010274)
(2.76321e-05 -7.30757e-06 -0.00102497)
(2.5079e-05 -6.42041e-06 -0.00102275)
(2.27523e-05 -5.64283e-06 -0.00102071)
(2.06331e-05 -4.9611e-06 -0.00101885)
(1.87042e-05 -4.36322e-06 -0.00101714)
(1.69495e-05 -3.83874e-06 -0.00101558)
(1.53541e-05 -3.37849e-06 -0.00101415)
(1.39043e-05 -2.97449e-06 -0.00101285)
(1.25875e-05 -2.61975e-06 -0.00101167)
(1.1392e-05 -2.30817e-06 -0.00101059)
(1.03071e-05 -2.03439e-06 -0.0010096)
(9.32299e-06 -1.79374e-06 -0.00100871)
(8.43068e-06 -1.58214e-06 -0.00100789)
(7.6219e-06 -1.39602e-06 -0.00100715)
(6.88909e-06 -1.23224e-06 -0.00100647)
(6.22532e-06 -1.08807e-06 -0.00100586)
(5.62425e-06 -9.61124e-07 -0.0010053)
(5.0801e-06 -8.49299e-07 -0.0010048)
(4.58761e-06 -7.50766e-07 -0.00100434)
(4.14203e-06 -6.6392e-07 -0.00100393)
(3.739e-06 -5.87354e-07 -0.00100355)
(3.37455e-06 -5.19836e-07 -0.00100321)
(3.04508e-06 -4.60282e-07 -0.0010029)
(2.74731e-06 -4.07743e-07 -0.00100262)
(2.47824e-06 -3.61383e-07 -0.00100237)
(2.23517e-06 -3.2047e-07 -0.00100214)
(2.01563e-06 -2.84355e-07 -0.00100193)
(1.81739e-06 -2.52471e-07 -0.00100175)
(1.63842e-06 -2.24315e-07 -0.00100158)
(1.47689e-06 -1.99445e-07 -0.00100142)
(1.33111e-06 -1.77472e-07 -0.00100128)
(1.1996e-06 -1.5805e-07 -0.00100116)
(1.08097e-06 -1.40878e-07 -0.00100105)
(9.7399e-07 -1.25686e-07 -0.00100094)
(8.77538e-07 -1.12239e-07 -0.00100085)
(7.90599e-07 -1.0033e-07 -0.00100077)
(7.12253e-07 -8.97763e-08 -0.00100069)
(6.41668e-07 -8.0419e-08 -0.00100062)
(5.78092e-07 -7.21194e-08 -0.00100056)
(5.20842e-07 -6.47557e-08 -0.00100051)
(4.69304e-07 -5.822e-08 -0.00100045)
(4.22923e-07 -5.24165e-08 -0.00100041)
(3.81199e-07 -4.72603e-08 -0.00100037)
(3.43679e-07 -4.26765e-08 -0.00100033)
(3.09955e-07 -3.85997e-08 -0.0010003)
(2.79662e-07 -3.49723e-08 -0.00100027)
(2.52469e-07 -3.17436e-08 -0.00100024)
(2.28079e-07 -2.88691e-08 -0.00100021)
(2.06225e-07 -2.63094e-08 -0.00100019)
(1.86671e-07 -2.40293e-08 -0.00100017)
(1.69201e-07 -2.19979e-08 -0.00100015)
(1.53627e-07 -2.01872e-08 -0.00100013)
(1.39777e-07 -1.85723e-08 -0.00100012)
(1.27502e-07 -1.71307e-08 -0.0010001)
(1.16668e-07 -1.58425e-08 -0.00100009)
(1.07158e-07 -1.46896e-08 -0.00100008)
(9.88679e-08 -1.36557e-08 -0.00100007)
(9.17092e-08 -1.27263e-08 -0.00100006)
(8.56038e-08 -1.1889e-08 -0.00100005)
(8.04832e-08 -1.11333e-08 -0.00100004)
(7.62813e-08 -1.04562e-08 -0.00100003)
(7.29297e-08 -9.87616e-09 -0.00100002)
(7.04106e-08 -9.44766e-09 -0.00100001)
(6.88433e-08 -9.3429e-09 -0.00100001)
)
;
    }
}


// ************************************************************************* //
