/*--------------------------------*- C++ -*----------------------------------*\
| =========                 |                                                 |
| \\      /  F ield         | OpenFOAM: The Open Source CFD Toolbox           |
|  \\    /   O peration     | Version:  5.x                                   |
|   \\  /    A nd           | Web:      www.OpenFOAM.org                      |
|    \\/     M anipulation  |                                                 |
\*---------------------------------------------------------------------------*/
FoamFile
{
    version     2.0;
    format      ascii;
    class       volScalarField;
    location    "20000";
    object      p;
}
// * * * * * * * * * * * * * * * * * * * * * * * * * * * * * * * * * * * * * //

dimensions      [0 2 -2 0 0 0 0];

internalField   nonuniform List<scalar> 
2250
(
-9.44204e-11
-1.38182e-10
-1.92131e-10
-2.26794e-10
-2.50229e-10
-7.54815e-11
-1.32231e-10
-1.8789e-10
-2.25852e-10
-2.3484e-10
-6.90186e-11
-1.12638e-10
-1.53982e-10
-1.67067e-10
-1.6544e-10
-7.42732e-11
-7.62841e-11
-8.47389e-11
-8.09858e-11
-7.44514e-11
-9.01596e-11
-2.38851e-11
-6.31822e-12
1.43269e-11
2.4211e-11
-3.23674e-10
-4.51041e-10
-5.89111e-10
-6.65323e-10
-6.88883e-10
-2.81121e-10
-4.33236e-10
-5.58349e-10
-6.19205e-10
-6.15861e-10
-2.39563e-10
-3.49376e-10
-4.27497e-10
-4.49124e-10
-4.42023e-10
-1.85688e-10
-2.09804e-10
-2.30418e-10
-2.2797e-10
-2.2018e-10
-1.11975e-10
-4.04361e-11
-1.62253e-11
1.16352e-11
9.69138e-12
-6.62941e-10
-8.35409e-10
-9.82984e-10
-1.04432e-09
-1.03804e-09
-5.93264e-10
-7.8297e-10
-9.03905e-10
-9.39752e-10
-9.1724e-10
-4.82715e-10
-6.19081e-10
-6.83329e-10
-6.96557e-10
-6.82003e-10
-2.78142e-10
-3.58599e-10
-3.88434e-10
-3.95383e-10
-3.96783e-10
3.54224e-11
-4.99091e-11
-8.20983e-11
-9.83245e-11
-1.28773e-10
-1.17929e-09
-1.29445e-09
-1.36334e-09
-1.35705e-09
-1.31296e-09
-1.0991e-09
-1.20791e-09
-1.2449e-09
-1.2161e-09
-1.16859e-09
-9.00871e-10
-9.60025e-10
-9.61913e-10
-9.41532e-10
-9.14486e-10
-5.40687e-10
-5.9572e-10
-6.11525e-10
-6.16633e-10
-6.23161e-10
-8.09859e-12
-1.6582e-10
-2.53473e-10
-3.16529e-10
-3.65029e-10
-1.84716e-09
-1.7971e-09
-1.72809e-09
-1.63176e-09
-1.55247e-09
-1.76244e-09
-1.67725e-09
-1.57802e-09
-1.47418e-09
-1.41041e-09
-1.47993e-09
-1.35727e-09
-1.26659e-09
-1.20604e-09
-1.17487e-09
-1.04343e-09
-9.44533e-10
-9.09402e-10
-8.96992e-10
-9.08638e-10
-4.93223e-10
-4.94666e-10
-5.39723e-10
-5.98973e-10
-6.57255e-10
-2.44375e-09
-2.20863e-09
-2.01659e-09
-1.87253e-09
-1.7955e-09
-2.3229e-09
-2.05883e-09
-1.86519e-09
-1.74065e-09
-1.69686e-09
-2.00349e-09
-1.73691e-09
-1.59379e-09
-1.52893e-09
-1.51482e-09
-1.62492e-09
-1.37456e-09
-1.29048e-09
-1.27254e-09
-1.29635e-09
-1.32207e-09
-1.05232e-09
-9.73491e-10
-1.00668e-09
-1.07895e-09
-2.67564e-09
-2.40338e-09
-2.21187e-09
-2.10814e-09
-2.0788e-09
-2.54379e-09
-2.28326e-09
-2.12105e-09
-2.05377e-09
-2.05011e-09
-2.30891e-09
-2.07198e-09
-1.96527e-09
-1.93592e-09
-1.93722e-09
-2.11398e-09
-1.8571e-09
-1.7744e-09
-1.7678e-09
-1.78908e-09
-2.15196e-09
-1.74213e-09
-1.59218e-09
-1.60374e-09
-1.65586e-09
-2.57559e-09
-2.43432e-09
-2.35525e-09
-2.33891e-09
-2.3585e-09
-2.5396e-09
-2.42168e-09
-2.36748e-09
-2.37434e-09
-2.38069e-09
-2.49386e-09
-2.38994e-09
-2.35808e-09
-2.35154e-09
-2.33209e-09
-2.50119e-09
-2.36051e-09
-2.31167e-09
-2.29208e-09
-2.27016e-09
-2.72765e-09
-2.42624e-09
-2.30368e-09
-2.26389e-09
-2.23649e-09
-2.40765e-09
-2.39803e-09
-2.42531e-09
-2.46616e-09
-2.49013e-09
-2.51076e-09
-2.49825e-09
-2.52536e-09
-2.55477e-09
-2.52666e-09
-2.64962e-09
-2.63533e-09
-2.64576e-09
-2.61431e-09
-2.55069e-09
-2.81474e-09
-2.78449e-09
-2.75276e-09
-2.68153e-09
-2.60459e-09
-3.05862e-09
-2.97534e-09
-2.90256e-09
-2.79062e-09
-2.69545e-09
-2.17868e-09
-2.22753e-09
-2.30834e-09
-2.35426e-09
-2.34583e-09
-2.36288e-09
-2.40429e-09
-2.46355e-09
-2.46584e-09
-2.40323e-09
-2.65746e-09
-2.68246e-09
-2.69695e-09
-2.62455e-09
-2.54385e-09
-3.00555e-09
-3.00861e-09
-2.96763e-09
-2.85545e-09
-2.76219e-09
-3.33481e-09
-3.33262e-09
-3.27293e-09
-3.13131e-09
-3.02635e-09
-1.69473e-09
-1.82041e-09
-1.92727e-09
-1.9543e-09
-1.92146e-09
-1.95025e-09
-2.06729e-09
-2.13292e-09
-2.1084e-09
-2.05595e-09
-2.41608e-09
-2.47256e-09
-2.482e-09
-2.40654e-09
-2.3542e-09
-2.99835e-09
-2.97287e-09
-2.92441e-09
-2.82486e-09
-2.75093e-09
-3.60434e-09
-3.49976e-09
-3.41448e-09
-3.28168e-09
-3.17663e-09
-9.62273e-10
-1.16435e-09
-1.27242e-09
-1.29239e-09
-1.2732e-09
-1.31902e-09
-1.48168e-09
-1.54464e-09
-1.53621e-09
-1.53065e-09
-1.907e-09
-1.98848e-09
-2.01574e-09
-1.9933e-09
-1.98278e-09
-2.65054e-09
-2.63424e-09
-2.621e-09
-2.58336e-09
-2.53924e-09
-3.56103e-09
-3.39496e-09
-3.31005e-09
-3.21194e-09
-3.12841e-09
1.93038e-12
-1.88677e-10
-2.91691e-10
-3.41058e-10
-3.62744e-10
-4.039e-10
-5.62439e-10
-6.48487e-10
-7.02489e-10
-7.38474e-10
-1.02257e-09
-1.16635e-09
-1.25749e-09
-1.32047e-09
-1.33882e-09
-1.82543e-09
-1.95742e-09
-2.04227e-09
-2.10184e-09
-2.10749e-09
-2.87941e-09
-2.93468e-09
-2.97323e-09
-3.00057e-09
-3.01268e-09
1.46306e-09
1.29101e-09
1.15281e-09
1.04489e-09
9.85565e-10
1.03111e-09
8.41103e-10
6.90781e-10
5.60511e-10
5.0519e-10
3.23082e-10
7.03215e-11
-1.14357e-10
-2.65402e-10
-3.12384e-10
-6.10333e-10
-9.64414e-10
-1.18731e-09
-1.36514e-09
-1.43818e-09
-1.7517e-09
-2.20737e-09
-2.49304e-09
-2.71426e-09
-2.81149e-09
3.66108e-09
3.43362e-09
3.22548e-09
3.05563e-09
2.96836e-09
3.10596e-09
2.84862e-09
2.61687e-09
2.41621e-09
2.3371e-09
2.12899e-09
1.78159e-09
1.49135e-09
1.25243e-09
1.15907e-09
8.26266e-10
3.03821e-10
-6.68312e-11
-3.53333e-10
-4.76785e-10
-6.53105e-10
-1.40329e-09
-1.92104e-09
-2.26797e-09
-2.38022e-09
6.67693e-09
6.35992e-09
6.06443e-09
5.82626e-09
5.70109e-09
5.9093e-09
5.5565e-09
5.21714e-09
4.9362e-09
4.80901e-09
4.48964e-09
4.01873e-09
3.58834e-09
3.25313e-09
3.10599e-09
2.50871e-09
1.84481e-09
1.31739e-09
9.4372e-10
7.83639e-10
2.47272e-10
-6.36564e-10
-1.29921e-09
-1.71077e-09
-1.88033e-09
1.06851e-08
1.02242e-08
9.8005e-09
9.47022e-09
9.29428e-09
9.60303e-09
9.07024e-09
8.57816e-09
8.20159e-09
8.02372e-09
7.52256e-09
6.84491e-09
6.24202e-09
5.81187e-09
5.62015e-09
4.56562e-09
3.72135e-09
3.02296e-09
2.55677e-09
2.34192e-09
1.14861e-09
1.28129e-10
-6.79228e-10
-1.20749e-09
-1.4896e-09
1.59608e-08
1.52793e-08
1.46815e-08
1.42396e-08
1.4017e-08
1.43824e-08
1.36211e-08
1.29524e-08
1.24773e-08
1.22596e-08
1.13745e-08
1.04735e-08
9.69482e-09
9.16927e-09
8.92495e-09
7.19164e-09
6.12809e-09
5.23804e-09
4.63852e-09
4.34599e-09
2.3427e-09
1.07625e-09
4.75802e-11
-6.62532e-10
-1.01934e-09
2.29278e-08
2.19774e-08
2.11655e-08
2.05965e-08
2.03227e-08
2.06916e-08
1.9667e-08
1.87967e-08
1.82013e-08
1.79153e-08
1.64663e-08
1.53072e-08
1.43224e-08
1.36507e-08
1.33091e-08
1.06904e-08
9.32959e-09
8.18737e-09
7.37783e-09
6.97662e-09
3.93727e-09
2.34489e-09
9.94332e-10
2.63281e-11
-4.22399e-10
3.21806e-08
3.08944e-08
2.98403e-08
2.91219e-08
2.87588e-08
2.91019e-08
2.77295e-08
2.66151e-08
2.58391e-08
2.54258e-08
2.32707e-08
2.17305e-08
2.04547e-08
1.95443e-08
1.9061e-08
1.52982e-08
1.34923e-08
1.19818e-08
1.08718e-08
1.03139e-08
5.91785e-09
3.84529e-09
2.03279e-09
7.01012e-10
7.55296e-11
4.42321e-08
4.26535e-08
4.13919e-08
4.05063e-08
4.00212e-08
4.00278e-08
3.8325e-08
3.69449e-08
3.59385e-08
3.5386e-08
3.20852e-08
3.00817e-08
2.84305e-08
2.72275e-08
2.65972e-08
2.11695e-08
1.87485e-08
1.67473e-08
1.52787e-08
1.45262e-08
8.37007e-09
5.48198e-09
3.05736e-09
1.27748e-09
3.92208e-10
5.98938e-08
5.82191e-08
5.68225e-08
5.57926e-08
5.52223e-08
5.42006e-08
5.22739e-08
5.06431e-08
4.9436e-08
4.88048e-08
4.34257e-08
4.09623e-08
3.89056e-08
3.7422e-08
3.66613e-08
2.86059e-08
2.54438e-08
2.28507e-08
2.09688e-08
1.9986e-08
1.13084e-08
7.33164e-09
4.08368e-09
1.69864e-09
4.38276e-10
8.08392e-08
7.91914e-08
7.77553e-08
7.66985e-08
7.61478e-08
7.30848e-08
7.10006e-08
6.92001e-08
6.79031e-08
6.72639e-08
5.83959e-08
5.54941e-08
5.3041e-08
5.12935e-08
5.0398e-08
3.82718e-08
3.42441e-08
3.09052e-08
2.84907e-08
2.72108e-08
1.47902e-08
9.46411e-09
5.00965e-09
1.74823e-09
8.71696e-12
1.09315e-07
1.07868e-07
1.06639e-07
1.05784e-07
1.05372e-07
9.87082e-08
9.6602e-08
9.48203e-08
9.35773e-08
9.2968e-08
7.86423e-08
7.52823e-08
7.24471e-08
7.04293e-08
6.93671e-08
5.11534e-08
4.60181e-08
4.17118e-08
3.85994e-08
3.69269e-08
1.90352e-08
1.18331e-08
5.73015e-09
1.30464e-09
-1.04565e-09
1.48076e-07
1.47383e-07
1.46872e-07
1.46567e-07
1.46445e-07
1.33593e-07
1.31837e-07
1.30423e-07
1.29453e-07
1.28955e-07
1.06091e-07
1.02323e-07
9.91969e-08
9.69548e-08
9.57353e-08
6.82778e-08
6.17971e-08
5.63332e-08
5.23632e-08
5.02177e-08
2.40719e-08
1.44421e-08
6.23715e-09
2.9072e-10
-2.88839e-09
2.00922e-07
2.02028e-07
2.03132e-07
2.04006e-07
2.04503e-07
1.80988e-07
1.80384e-07
1.80019e-07
1.79813e-07
1.797e-07
1.43103e-07
1.39313e-07
1.36217e-07
1.33976e-07
1.32757e-07
9.10355e-08
8.30807e-08
7.6305e-08
7.13594e-08
6.87335e-08
3.02814e-08
1.75e-08
6.49616e-09
-1.49016e-09
-5.71062e-09
2.73197e-07
2.77908e-07
2.82229e-07
2.85519e-07
2.87308e-07
2.45563e-07
2.47575e-07
2.49572e-07
2.51135e-07
2.51971e-07
1.93261e-07
1.90257e-07
1.87889e-07
1.86211e-07
1.8536e-07
1.21698e-07
1.12097e-07
1.03907e-07
9.79806e-08
9.49028e-08
3.84624e-08
2.12367e-08
6.44548e-09
-4.27653e-09
-9.86421e-09
3.7244e-07
3.83915e-07
3.94354e-07
4.02304e-07
4.06563e-07
3.34077e-07
3.41235e-07
3.47938e-07
3.5308e-07
3.55853e-07
2.61737e-07
2.60905e-07
2.60598e-07
2.60587e-07
2.60691e-07
1.63266e-07
1.51881e-07
1.42358e-07
1.35576e-07
1.32067e-07
4.9047e-08
2.5702e-08
5.83278e-09
-8.5436e-09
-1.60637e-08
5.09125e-07
5.3293e-07
5.54609e-07
5.71135e-07
5.79913e-07
4.55687e-07
4.72489e-07
4.88006e-07
4.99953e-07
5.06354e-07
3.55333e-07
3.59217e-07
3.63412e-07
3.67026e-07
3.69036e-07
2.19504e-07
2.06482e-07
1.95943e-07
1.88617e-07
1.84843e-07
6.2614e-08
3.08133e-08
3.99116e-09
-1.53198e-08
-2.54869e-08
6.97795e-07
7.43612e-07
7.85461e-07
8.17632e-07
8.34472e-07
6.22839e-07
6.57116e-07
6.88724e-07
7.13304e-07
7.26189e-07
4.82938e-07
4.96108e-07
5.09191e-07
5.19942e-07
5.25616e-07
2.95108e-07
2.81068e-07
2.70269e-07
2.63258e-07
2.59699e-07
7.96865e-08
3.6027e-08
-5.81707e-10
-2.67743e-08
-4.05407e-08
9.58705e-07
1.0433e-06
1.12107e-06
1.18206e-06
1.21265e-06
8.52543e-07
9.17854e-07
9.78378e-07
1.02631e-06
1.0503e-06
6.5606e-07
6.86527e-07
7.16186e-07
7.40666e-07
7.52947e-07
3.95687e-07
3.81966e-07
3.72557e-07
3.67793e-07
3.65224e-07
1.00283e-07
3.95517e-08
-1.13632e-08
-4.73547e-08
-6.61335e-08
1.31941e-06
1.47296e-06
1.61406e-06
1.72983e-06
1.78161e-06
1.16759e-06
1.28797e-06
1.3992e-06
1.49154e-06
1.53258e-06
8.89185e-07
9.50624e-07
1.00977e-06
1.06068e-06
1.08324e-06
5.27739e-07
5.16403e-07
5.11102e-07
5.125e-07
5.11761e-07
1.23737e-07
3.69365e-08
-3.60164e-08
-8.64545e-08
-1.12826e-07
1.81514e-06
2.09621e-06
2.34492e-06
2.5727e-06
2.64928e-06
1.59707e-06
1.81742e-06
2.01288e-06
2.1964e-06
2.25594e-06
1.19849e-06
1.3143e-06
1.42256e-06
1.52645e-06
1.56003e-06
6.97402e-07
6.90866e-07
6.92715e-07
7.09547e-07
7.1095e-07
1.46287e-07
1.73699e-08
-9.28174e-08
-1.66486e-07
-2.05951e-07
2.47552e-06
3.02199e-06
3.43155e-06
3.91107e-06
3.99513e-06
2.16905e-06
2.5894e-06
2.9014e-06
3.29339e-06
3.35017e-06
1.59433e-06
1.80877e-06
1.98756e-06
2.20566e-06
2.23642e-06
9.07218e-07
9.08338e-07
9.17472e-07
9.76739e-07
9.77817e-07
1.56362e-07
-4.55977e-08
-2.31042e-07
-3.50863e-07
-4.18358e-07
3.26756e-06
4.47457e-06
5.03888e-06
6.11459e-06
6.13186e-06
2.87856e-06
3.77778e-06
4.1527e-06
5.05314e-06
5.02403e-06
2.05643e-06
2.47008e-06
2.71318e-06
3.17697e-06
3.15361e-06
1.14603e-06
1.16989e-06
1.1748e-06
1.36012e-06
1.36016e-06
1.06118e-07
-2.178e-07
-5.87447e-07
-8.13728e-07
-9.39753e-07
4.05865e-06
6.83254e-06
7.46142e-06
9.9033e-06
9.63999e-06
3.69316e-06
5.69318e-06
5.86798e-06
7.96531e-06
7.61422e-06
2.49852e-06
3.29172e-06
3.53407e-06
4.42059e-06
4.24473e-06
1.39962e-06
1.50133e-06
1.46155e-06
1.99613e-06
1.99356e-06
-1.81635e-07
-6.09237e-07
-1.44802e-06
-1.87196e-06
-2.02955e-06
4.59308e-06
1.03207e-05
1.11711e-05
1.66293e-05
1.54407e-05
4.70682e-06
8.59759e-06
7.98584e-06
1.28716e-05
1.1447e-05
2.78083e-06
3.89392e-06
4.23118e-06
5.71115e-06
5.20902e-06
1.8681e-06
1.8773e-06
1.73304e-06
2.96888e-06
2.78224e-06
-9.60358e-07
-1.43781e-06
-3.15773e-06
-4.04669e-06
-3.77872e-06
3.82018e-06
1.00525e-05
9.5407e-06
1.87186e-05
1.57687e-05
3.82908e-06
9.11975e-06
6.06867e-06
1.5313e-05
1.14126e-05
2.08661e-06
2.98225e-06
4.33119e-06
6.22557e-06
4.92353e-06
3.04853e-06
2.03463e-06
1.7218e-06
4.174e-06
3.048e-06
-2.09879e-06
-2.83932e-06
-5.90829e-06
-8.21335e-06
-8.35508e-06
2.38481e-05
5.48259e-05
6.2057e-05
0.000102157
8.20837e-05
3.72053e-05
4.79843e-05
4.04244e-05
7.22629e-05
5.53787e-05
2.31454e-05
1.63926e-05
1.21455e-05
1.88713e-05
1.84671e-05
1.26467e-05
8.75874e-06
6.93525e-06
1.14549e-05
1.13456e-05
3.98377e-06
-2.52795e-06
3.69047e-06
2.56151e-06
1.49686e-05
-3.32514e-06
-3.4188e-05
-3.01118e-05
4.81259e-05
2.70089e-06
-1.99521e-05
-3.8628e-05
-3.65128e-05
-1.89446e-05
-1.33527e-05
-2.99976e-05
-2.86445e-05
-4.52338e-06
-7.99281e-06
-2.08134e-05
1.07843e-06
-1.79768e-05
-1.78648e-05
-1.03515e-05
-1.85234e-05
-1.808e-05
9.38765e-07
-2.94313e-05
-3.49226e-05
-4.14005e-05
5.91573e-05
8.04364e-05
5.92592e-05
0.000503359
0.000106266
0.000140961
9.38836e-05
-1.36669e-05
0.000195686
4.19253e-05
9.18499e-05
-4.95209e-05
-0.000123577
-5.57888e-05
-5.98315e-05
-7.79871e-05
-1.98688e-05
-6.17196e-05
-5.4051e-05
-4.62577e-05
-7.9099e-05
-0.000136213
-2.24447e-05
-4.24679e-05
9.76001e-05
0.00078049
0.00076407
0.000783351
0.000468738
0.000635642
0.000738108
0.00066253
0.000642531
0.000559786
0.000585164
0.000502963
0.000610374
0.000502388
0.000696714
0.000509997
0.000866229
0.000458014
0.000392775
0.000479099
0.000316227
0.000335821
0.000479307
0.000914129
0.000606043
0.000660619
0.000891616
0.00139631
0.00112855
0.00135167
0.00176418
0.00149249
0.00095247
0.00116275
0.000719754
0.00078519
0.000974944
0.001214
0.00133896
0.00131622
0.00237111
0.00139366
0.00119159
0.0011557
0.00142418
0.000773806
0.0017384
0.00142565
0.00163901
0.00114847
0.00135697
0.00210028
0.00237963
0.00210511
0.002133
0.00207382
0.00229845
0.0019919
0.00206295
0.00212276
0.00223712
0.00266283
0.00189473
0.00181582
0.00205789
0.00223931
0.00152263
0.00202205
0.00183257
0.00201432
0.00241204
0.00199173
0.00170329
0.00173656
0.00188804
0.0023008
0.00292281
0.00265144
0.00301547
0.00265571
0.0026253
0.00238412
0.00268589
0.00271292
0.00261508
0.00259956
0.00299919
0.00267846
0.00272935
0.00257368
0.00271483
0.00267533
0.00247385
0.00289577
0.00241111
0.00268081
0.00232482
0.0023168
0.00202724
0.00295221
0.0028052
0.0034162
0.00319171
0.00336646
0.00333428
0.00370256
0.00291326
0.00319822
0.00343654
0.00343518
0.00344377
0.00320923
0.00332435
0.00324181
0.00322521
0.00320917
0.00323133
0.00315016
0.00336067
0.00284023
0.00318774
0.00308125
0.00378253
0.00319761
0.00319136
0.00315054
0.00391827
0.00400087
0.00412558
0.00368366
0.00367078
0.00390669
0.00396413
0.00389098
0.00385994
0.00382333
0.00343609
0.00360621
0.00409796
0.00400901
0.00342898
0.00352538
0.00372202
0.00364253
0.0038625
0.00361415
0.00335371
0.00370939
0.00362352
0.00330962
0.00370511
0.00436812
0.00440437
0.00457139
0.0050128
0.00450698
0.00428515
0.00438852
0.00453387
0.00414603
0.00426785
0.00397144
0.004292
0.00440631
0.00442775
0.00459622
0.00389581
0.00389229
0.00429706
0.00432427
0.00443409
0.00410581
0.00392241
0.00423619
0.00410992
0.004298
0.00530987
0.00472658
0.0047635
0.00501561
0.00508238
0.004391
0.0047612
0.00475804
0.0049886
0.00493135
0.00461794
0.00493879
0.00464491
0.00551796
0.00493406
0.00461955
0.00522859
0.00478575
0.00452821
0.00462286
0.00458469
0.00467507
0.00469764
0.00505387
0.0043255
0.00581437
0.00524117
0.00540754
0.00509478
0.00467449
0.00540837
0.00543527
0.00479707
0.00522727
0.00499977
0.00523643
0.00515512
0.00529558
0.00530168
0.00544094
0.00521266
0.00525925
0.00524418
0.00506855
0.00450882
0.00532293
0.00489429
0.00531723
0.00558016
0.0052905
0.0057406
0.00544319
0.0055452
0.0054913
0.00551141
0.00589243
0.00572036
0.00605383
0.00542985
0.00557646
0.0057389
0.00548947
0.00579713
0.00556369
0.00575471
0.00572569
0.00542864
0.00576027
0.00572559
0.00569433
0.00560559
0.00589559
0.00564054
0.00565442
0.0057118
0.00569294
0.00589321
0.00562172
0.00575572
0.0057323
0.00579752
0.00577645
0.00570633
0.00567202
0.00578521
0.00576348
0.00581635
0.00579951
0.00581438
0.00573932
0.00583403
0.00579984
0.00581037
0.00581781
0.00576234
0.00581389
0.00583344
0.0057584
0.00574952
0.00578871
0.00577831
0.00578832
0.0057858
0.00576204
0.00574585
0.0057862
0.00579154
0.00576251
0.00576466
0.00576284
0.00579073
0.0057979
0.00577724
0.0057442
0.00576016
0.00577964
0.00577236
0.0057833
0.0057813
0.00578275
0.00580591
0.0058049
0.00579597
0.00578781
0.00577006
0.00575939
0.00578374
0.00574846
0.0057666
0.00576324
0.00578437
0.00578337
0.00577472
0.00577846
0.00577413
0.00577945
0.00578795
0.00577596
0.00576947
0.00576781
0.0057869
0.00578996
0.00578112
0.00578234
0.00577983
0.00578863
0.00579723
0.00577836
0.00577235
0.00577675
0.00578527
0.00578911
0.00577719
0.00577785
0.00577558
0.00579034
0.00578981
0.00578308
0.00578334
0.00578085
0.00579016
0.00579165
0.0057838
0.00577984
0.00577858
0.00579357
0.00579338
0.00578745
0.00578644
0.00578537
0.00580056
0.00579799
0.00579126
0.00578672
0.00578578
0.00579193
0.00579186
0.0057857
0.00578509
0.00578388
0.00579429
0.00579281
0.00578869
0.00578764
0.00578633
0.00579532
0.0057941
0.00578968
0.00578724
0.00578622
0.0057976
0.00579595
0.00579222
0.00579047
0.00578959
0.00580128
0.00579875
0.00579498
0.00579222
0.00579128
0.00579638
0.00579477
0.00579164
0.00579043
0.00578964
0.00579742
0.0057955
0.00579294
0.00579162
0.0057908
0.0057985
0.00579656
0.00579394
0.00579228
0.00579149
0.00580011
0.00579806
0.00579567
0.00579413
0.00579339
0.00580227
0.0058
0.00579765
0.00579586
0.00579507
0.00579904
0.00579731
0.00579545
0.00579435
0.00579376
0.0057996
0.00579783
0.0057961
0.00579498
0.00579438
0.00580045
0.00579866
0.00579694
0.00579575
0.00579515
0.0058016
0.00579982
0.00579816
0.00579699
0.00579641
0.00580302
0.00580122
0.00579959
0.00579836
0.00579777
0.00580074
0.00579933
0.00579807
0.00579721
0.00579676
0.00580109
0.00579969
0.00579846
0.0057976
0.00579715
0.00580171
0.00580031
0.00579909
0.00579822
0.00579777
0.00580256
0.00580117
0.00579998
0.00579911
0.00579867
0.00580356
0.0058022
0.00580102
0.00580015
0.0057997
0.0058019
0.00580084
0.00579993
0.00579929
0.00579895
0.00580214
0.00580109
0.00580019
0.00579955
0.00579922
0.00580259
0.00580155
0.00580066
0.00580002
0.00579969
0.00580321
0.00580218
0.00580131
0.00580067
0.00580034
0.00580395
0.00580293
0.00580207
0.00580144
0.00580111
0.00580272
0.00580194
0.00580128
0.0058008
0.00580056
0.0058029
0.00580212
0.00580146
0.00580099
0.00580074
0.00580323
0.00580246
0.00580181
0.00580134
0.00580109
0.00580368
0.00580292
0.00580228
0.00580181
0.00580157
0.00580422
0.00580347
0.00580284
0.00580238
0.00580213
0.00580332
0.00580275
0.00580226
0.00580191
0.00580173
0.00580345
0.00580288
0.0058024
0.00580205
0.00580187
0.00580369
0.00580312
0.00580265
0.0058023
0.00580212
0.00580402
0.00580346
0.00580299
0.00580265
0.00580247
0.00580441
0.00580386
0.0058034
0.00580306
0.00580288
0.00580375
0.00580333
0.00580298
0.00580272
0.00580259
0.00580385
0.00580343
0.00580308
0.00580282
0.00580269
0.00580402
0.00580361
0.00580326
0.00580301
0.00580287
0.00580427
0.00580386
0.00580351
0.00580326
0.00580313
0.00580455
0.00580415
0.00580381
0.00580356
0.00580343
0.00580407
0.00580376
0.0058035
0.00580332
0.00580322
0.00580414
0.00580383
0.00580357
0.00580339
0.00580329
0.00580427
0.00580396
0.00580371
0.00580352
0.00580342
0.00580445
0.00580415
0.00580389
0.00580371
0.00580361
0.00580465
0.00580436
0.00580411
0.00580393
0.00580383
0.0058043
0.00580408
0.00580389
0.00580375
0.00580368
0.00580435
0.00580413
0.00580394
0.0058038
0.00580373
0.00580444
0.00580422
0.00580403
0.0058039
0.00580383
0.00580458
0.00580436
0.00580417
0.00580403
0.00580396
0.00580473
0.00580451
0.00580433
0.00580419
0.00580412
0.00580447
0.0058043
0.00580417
0.00580406
0.00580401
0.0058045
0.00580434
0.0058042
0.0058041
0.00580405
0.00580457
0.00580441
0.00580427
0.00580417
0.00580412
0.00580467
0.00580451
0.00580437
0.00580427
0.00580422
0.00580478
0.00580462
0.00580449
0.00580439
0.00580434
0.00580459
0.00580447
0.00580437
0.0058043
0.00580426
0.00580462
0.0058045
0.0058044
0.00580432
0.00580429
0.00580467
0.00580455
0.00580445
0.00580438
0.00580434
0.00580474
0.00580462
0.00580452
0.00580445
0.00580441
0.00580482
0.0058047
0.0058046
0.00580453
0.00580449
0.00580468
0.00580459
0.00580452
0.00580447
0.00580444
0.0058047
0.00580461
0.00580454
0.00580449
0.00580446
0.00580474
0.00580465
0.00580458
0.00580452
0.0058045
0.00580479
0.0058047
0.00580463
0.00580458
0.00580455
0.00580485
0.00580476
0.00580469
0.00580464
0.00580461
0.00580475
0.00580468
0.00580463
0.00580459
0.00580457
0.00580476
0.0058047
0.00580464
0.0058046
0.00580458
0.00580479
0.00580472
0.00580467
0.00580463
0.00580461
0.00580482
0.00580476
0.00580471
0.00580467
0.00580465
0.00580487
0.00580481
0.00580475
0.00580471
0.00580469
0.00580479
0.00580475
0.00580471
0.00580468
0.00580467
0.00580481
0.00580476
0.00580472
0.00580469
0.00580468
0.00580482
0.00580478
0.00580474
0.00580471
0.0058047
0.00580485
0.00580481
0.00580477
0.00580474
0.00580472
0.00580488
0.00580484
0.0058048
0.00580477
0.00580476
0.00580483
0.0058048
0.00580477
0.00580475
0.00580474
0.00580484
0.0058048
0.00580478
0.00580475
0.00580474
0.00580485
0.00580482
0.00580479
0.00580477
0.00580476
0.00580487
0.00580484
0.00580481
0.00580479
0.00580478
0.0058049
0.00580486
0.00580483
0.00580481
0.0058048
0.00580486
0.00580483
0.00580481
0.0058048
0.00580479
0.00580486
0.00580484
0.00580482
0.0058048
0.00580479
0.00580487
0.00580485
0.00580483
0.00580481
0.0058048
0.00580489
0.00580486
0.00580484
0.00580483
0.00580482
0.0058049
0.00580488
0.00580486
0.00580484
0.00580484
0.00580488
0.00580486
0.00580484
0.00580483
0.00580482
0.00580488
0.00580486
0.00580485
0.00580483
0.00580483
0.00580489
0.00580487
0.00580485
0.00580484
0.00580484
0.0058049
0.00580488
0.00580486
0.00580485
0.00580485
0.00580491
0.00580489
0.00580488
0.00580487
0.00580486
0.00580489
0.00580488
0.00580486
0.00580486
0.00580485
0.00580489
0.00580488
0.00580487
0.00580486
0.00580486
0.0058049
0.00580489
0.00580487
0.00580487
0.00580486
0.00580491
0.00580489
0.00580488
0.00580487
0.00580487
0.00580492
0.0058049
0.00580489
0.00580488
0.00580488
0.0058049
0.00580489
0.00580488
0.00580488
0.00580487
0.0058049
0.00580489
0.00580488
0.00580488
0.00580487
0.00580491
0.0058049
0.00580489
0.00580488
0.00580488
0.00580491
0.0058049
0.00580489
0.00580489
0.00580488
0.00580492
0.00580491
0.0058049
0.00580489
0.00580489
0.00580491
0.0058049
0.00580489
0.00580489
0.00580489
0.00580491
0.0058049
0.0058049
0.00580489
0.00580489
0.00580491
0.0058049
0.0058049
0.00580489
0.00580489
0.00580492
0.00580491
0.0058049
0.0058049
0.0058049
0.00580492
0.00580491
0.00580491
0.0058049
0.0058049
0.00580491
0.00580491
0.0058049
0.0058049
0.0058049
0.00580491
0.00580491
0.0058049
0.0058049
0.0058049
0.00580492
0.00580491
0.00580491
0.0058049
0.0058049
0.00580492
0.00580491
0.00580491
0.00580491
0.0058049
0.00580492
0.00580492
0.00580491
0.00580491
0.00580491
0.00580492
0.00580491
0.00580491
0.00580491
0.00580491
0.00580492
0.00580491
0.00580491
0.00580491
0.00580491
0.00580492
0.00580491
0.00580491
0.00580491
0.00580491
0.00580492
0.00580492
0.00580491
0.00580491
0.00580491
0.00580492
0.00580492
0.00580492
0.00580491
0.00580491
0.00580492
0.00580492
0.00580491
0.00580491
0.00580491
0.00580492
0.00580492
0.00580491
0.00580491
0.00580491
0.00580492
0.00580492
0.00580492
0.00580491
0.00580491
0.00580492
0.00580492
0.00580492
0.00580492
0.00580491
0.00580492
0.00580492
0.00580492
0.00580492
0.00580492
0.00580492
0.00580492
0.00580492
0.00580492
0.00580492
0.00580492
0.00580492
0.00580492
0.00580492
0.00580492
0.00580492
0.00580492
0.00580492
0.00580492
0.00580492
0.00580492
0.00580492
0.00580492
0.00580492
0.00580492
0.00580493
0.00580492
0.00580492
0.00580492
0.00580492
0.00580492
0.00580492
0.00580492
0.00580492
0.00580492
0.00580492
0.00580492
0.00580492
0.00580492
0.00580492
0.00580492
0.00580492
0.00580492
0.00580492
0.00580492
0.00580492
0.00580492
0.00580492
0.00580492
0.00580492
0.00580493
0.00580492
0.00580492
0.00580492
0.00580492
0.00580492
0.00580492
0.00580492
0.00580492
0.00580492
0.00580492
0.00580492
0.00580492
0.00580492
0.00580492
0.00580492
0.00580492
0.00580492
0.00580492
0.00580492
0.00580493
0.00580492
0.00580492
0.00580492
0.00580492
0.00580493
0.00580493
0.00580492
0.00580492
0.00580492
0.00580492
0.00580492
0.00580492
0.00580492
0.00580492
0.00580492
0.00580492
0.00580492
0.00580492
0.00580492
0.00580493
0.00580492
0.00580492
0.00580492
0.00580492
0.00580493
0.00580493
0.00580492
0.00580492
0.00580492
0.00580493
0.00580493
0.00580493
0.00580492
0.00580492
0.00580492
0.00580492
0.00580492
0.00580492
0.00580492
0.00580492
0.00580492
0.00580492
0.00580492
0.00580492
0.00580493
0.00580492
0.00580492
0.00580492
0.00580492
0.00580493
0.00580493
0.00580492
0.00580492
0.00580492
0.00580493
0.00580493
0.00580493
0.00580493
0.00580493
0.00580492
0.00580492
0.00580492
0.00580492
0.00580492
0.00580492
0.00580492
0.00580492
0.00580492
0.00580492
0.00580493
0.00580492
0.00580492
0.00580492
0.00580492
0.00580493
0.00580493
0.00580492
0.00580492
0.00580492
0.00580493
0.00580493
0.00580493
0.00580493
0.00580492
0.00580492
0.00580492
0.00580492
0.00580492
0.00580492
0.00580492
0.00580492
0.00580492
0.00580492
0.00580492
0.00580492
0.00580492
0.00580492
0.00580492
0.00580492
0.00580493
0.00580492
0.00580492
0.00580492
0.00580492
0.00580493
0.00580493
0.00580492
0.00580492
0.00580492
0.00580492
0.00580492
0.00580492
0.00580492
0.00580492
0.00580492
0.00580492
0.00580492
0.00580492
0.00580492
0.00580492
0.00580492
0.00580492
0.00580492
0.00580492
0.00580492
0.00580492
0.00580492
0.00580492
0.00580492
0.00580492
0.00580492
0.00580492
0.00580492
0.00580492
0.00580492
0.00580492
0.00580492
0.00580492
0.00580492
0.00580492
0.00580492
0.00580492
0.00580492
0.00580492
0.00580492
0.00580492
0.00580492
0.00580492
0.00580492
0.00580492
0.00580492
0.00580492
0.00580492
0.00580492
0.00580492
0.00580492
0.00580492
0.00580492
0.00580492
0.00580492
0.00580492
0.00580492
0.00580492
0.00580492
0.00580492
0.00580492
0.00580492
0.00580492
0.00580492
0.00580492
0.00580492
0.00580492
0.00580492
0.00580492
0.00580492
0.00580492
0.00580492
0.00580492
0.00580492
0.00580492
0.00580492
0.00580492
0.00580492
0.00580492
0.00580492
0.00580492
0.00580492
0.00580492
0.00580492
0.00580492
0.00580492
0.00580492
0.00580492
0.00580492
0.00580492
0.00580492
0.00580492
0.00580492
0.00580492
0.00580492
0.00580492
0.00580492
0.00580492
0.00580492
0.00580492
0.00580492
0.00580492
0.00580492
0.00580492
)
;

boundaryField
{
    inlet
    {
        type            zeroGradient;
    }
    outlet
    {
        type            fixedValue;
        value           uniform 0;
    }
    repeat_boundary
    {
        type            zeroGradient;
    }
    procBoundary1to0
    {
        type            processor;
        value           nonuniform List<scalar> 
450
(
-9.47691e-11
-6.89087e-11
-5.7008e-11
-4.91477e-11
-1.57215e-11
-3.24744e-10
-2.61302e-10
-2.1637e-10
-1.64072e-10
-8.76375e-12
-6.65543e-10
-5.7817e-10
-4.79834e-10
-3.42576e-10
-1.11312e-10
-1.18535e-09
-1.09103e-09
-9.08764e-10
-6.35057e-10
-3.43732e-10
-1.87364e-09
-1.7705e-09
-1.47985e-09
-1.05173e-09
-6.37233e-10
-2.50143e-09
-2.36153e-09
-2.01518e-09
-1.53265e-09
-1.01461e-09
-2.75121e-09
-2.61705e-09
-2.36699e-09
-2.03762e-09
-1.58049e-09
-2.64536e-09
-2.62352e-09
-2.59213e-09
-2.54748e-09
-2.3303e-09
-2.45265e-09
-2.5626e-09
-2.7257e-09
-2.92803e-09
-3.04044e-09
-2.18167e-09
-2.34719e-09
-2.64068e-09
-3.01075e-09
-3.39849e-09
-1.63354e-09
-1.85145e-09
-2.28372e-09
-2.78784e-09
-3.32421e-09
-8.13886e-10
-1.13788e-09
-1.6936e-09
-2.30176e-09
-2.88829e-09
2.48262e-10
-1.4642e-10
-7.71148e-10
-1.50949e-09
-2.22847e-09
1.80005e-09
1.36402e-09
6.19673e-10
-3.85866e-10
-1.53364e-09
4.07316e-09
3.52247e-09
2.53295e-09
1.10349e-09
-7.72587e-10
7.16793e-09
6.43309e-09
5.07188e-09
3.05589e-09
3.30947e-10
1.13018e-08
1.02849e-08
8.32799e-09
5.48226e-09
1.87725e-09
1.67744e-08
1.52921e-08
1.24337e-08
8.4404e-09
3.72055e-09
2.39864e-08
2.18754e-08
1.78159e-08
1.22536e-08
5.79786e-09
3.34873e-08
3.05503e-08
2.49363e-08
1.72583e-08
8.28905e-09
4.57571e-08
4.17121e-08
3.4078e-08
2.36199e-08
1.13516e-08
6.15739e-08
5.613e-08
4.58185e-08
3.16579e-08
1.4959e-08
8.25358e-08
7.5247e-08
6.13376e-08
4.2206e-08
1.95401e-08
1.10765e-07
1.0092e-07
8.21823e-08
5.63593e-08
2.58375e-08
1.48809e-07
1.35442e-07
1.10043e-07
7.50443e-08
3.39203e-08
1.99978e-07
1.81747e-07
1.47091e-07
9.95602e-08
4.4006e-08
2.68699e-07
2.43829e-07
1.96607e-07
1.32164e-07
5.70713e-08
3.61181e-07
3.27262e-07
2.63087e-07
1.75769e-07
7.41304e-08
4.85821e-07
4.39447e-07
3.52228e-07
2.3396e-07
9.6676e-08
6.53483e-07
5.89965e-07
4.71209e-07
3.11123e-07
1.26405e-07
8.78454e-07
7.90985e-07
6.28707e-07
4.12401e-07
1.64818e-07
1.18016e-06
1.05826e-06
8.35067e-07
5.4418e-07
2.14048e-07
1.5882e-06
1.41421e-06
1.10233e-06
7.15115e-07
2.76926e-07
2.16269e-06
1.89917e-06
1.44336e-06
9.434e-07
3.59212e-07
3.05481e-06
2.60817e-06
1.86604e-06
1.29598e-06
4.8294e-07
4.56204e-06
3.71689e-06
2.2879e-06
1.98444e-06
7.24112e-07
7.08741e-06
5.34389e-06
2.31062e-06
3.19306e-06
1.20806e-06
9.13936e-06
6.70911e-06
1.05157e-06
4.09157e-06
2.51065e-06
4.83443e-05
2.69668e-05
1.3727e-05
2.57759e-05
1.26517e-05
-2.50068e-05
-1.12087e-05
-2.43706e-05
-2.47137e-05
7.23017e-06
0.000205787
-4.07727e-05
-9.41851e-06
8.5254e-05
-2.94521e-05
0.000690404
0.000749545
0.000783113
0.000441433
0.000518573
0.000944709
0.001199
0.00140214
0.000876339
0.00145507
0.00192544
0.0017372
0.00163713
0.00196901
0.00171149
0.00322689
0.00315993
0.00261289
0.00261533
0.00241182
0.00349893
0.00356874
0.00336187
0.00322725