/*--------------------------------*- C++ -*----------------------------------*\
| =========                 |                                                 |
| \\      /  F ield         | OpenFOAM: The Open Source CFD Toolbox           |
|  \\    /   O peration     | Version:  5.x                                   |
|   \\  /    A nd           | Web:      www.OpenFOAM.org                      |
|    \\/     M anipulation  |                                                 |
\*---------------------------------------------------------------------------*/
FoamFile
{
    version     2.0;
    format      ascii;
    class       surfaceScalarField;
    location    "20000";
    object      phi;
}
// * * * * * * * * * * * * * * * * * * * * * * * * * * * * * * * * * * * * * //

dimensions      [0 3 -1 0 0 0 0];

internalField   nonuniform List<scalar> 
5825
(
-7.72154e-05
2.91157e-05
-1000
-6.22585e-05
3.17406e-05
-1000
-4.41205e-05
3.58014e-05
-1000
-1.96016e-05
4.16962e-05
-1000
3.50846e-05
-1000
-7.77756e-05
6.16408e-05
-1000
-5.93172e-05
6.02654e-05
-1000
-4.25492e-05
6.31335e-05
-1000
-2.615e-05
5.62373e-05
-1000
5.6323e-05
-1000
-7.55278e-05
0.000112761
-1000
-5.80097e-05
8.91051e-05
-1000
-4.40993e-05
8.18755e-05
-1000
-2.4746e-05
8.16645e-05
-1000
8.71916e-05
-1000
-0.000106272
0.000167157
-1000
-6.25941e-05
0.000125237
-1000
-3.85157e-05
0.000115031
-1000
-1.86839e-05
0.000123876
-1000
0.000129888
-1000
-0.000149774
-1000
-6.48427e-05
-1000
-3.34386e-05
-1000
-7.62244e-06
-1000
-1000
-0.000220583
8.91117e-05
-1000
-0.000169976
0.000102618
-1000
-0.000130206
0.000110561
-1000
-7.39304e-05
0.000109895
-1000
0.000101374
-1000
-0.000210654
0.000183482
-1000
-0.00017275
0.000181847
-1000
-0.000137454
0.000182884
-1000
-8.31015e-05
0.00016877
-1000
0.000173647
-1000
-0.000204266
0.000308412
-1000
-0.00018116
0.000274494
-1000
-0.000132684
0.000248418
-1000
-7.00385e-05
0.00025711
-1000
0.000273269
-1000
-0.000270337
0.000429904
-1000
-0.00018815
0.000354838
-1000
-0.000112036
0.000334235
-1000
-5.4454e-05
0.000362344
-1000
0.00038308
-1000
-0.000326814
-1000
-0.000207159
-1000
-9.74219e-05
-1000
-3.54958e-05
-1000
-1000
-0.000364039
0.000173642
-1000
-0.000300268
0.000198954
-1000
-0.00023846
0.000193345
-1000
-0.000147336
0.000185928
-1000
0.000179984
-1000
-0.000337939
0.000334514
-1000
-0.000308084
0.000335404
-1000
-0.000248053
0.000314648
-1000
-0.000152054
0.000313881
-1000
0.000329799
-1000
-0.000338621
0.000479339
-1000
-0.000324523
0.000463009
-1000
-0.000246023
0.000457431
-1000
-0.000138032
0.000482686
-1000
0.00050329
-1000
-0.0003718
0.000564462
-1000
-0.000318999
0.000571672
-1000
-0.000215528
0.000608401
-1000
-0.000111928
0.000647732
-1000
0.000666057
-1000
-0.000350324
-1000
-0.000321404
-1000
-0.000196084
-1000
-9.59168e-05
-1000
-1000
-0.000550452
0.000305401
-1000
-0.000488379
0.000313244
-1000
-0.00039328
0.000300032
-1000
-0.000239248
0.000286057
-1000
0.000283793
-1000
-0.000543881
0.000531767
-1000
-0.000508342
0.0005252
-1000
-0.000410188
0.000507749
-1000
-0.00024045
0.000528273
-1000
0.000548983
-1000
-0.00054391
0.00067637
-1000
-0.000515886
0.000712112
-1000
-0.00039642
0.000745893
-1000
-0.000223389
0.000782665
-1000
0.000810562
-1000
-0.000524678
0.000763413
-1000
-0.000497062
0.000871064
-1000
-0.00036494
0.000949
-1000
-0.000191776
0.000990369
-1000
0.00100652
-1000
-0.00046861
-1000
-0.000451926
-1000
-0.000326775
-1000
-0.000173092
-1000
-1000
-0.000848126
0.000485761
-1000
-0.000763016
0.000463423
-1000
-0.000597448
0.000444038
-1000
-0.000344975
0.000431595
-1000
0.000439907
-1000
-0.000880388
0.000806553
-1000
-0.00078947
0.000795542
-1000
-0.000612115
0.000805521
-1000
-0.000335391
0.000840138
-1000
0.0008657
-1000
-0.000890735
0.00103088
-1000
-0.000780615
0.00109542
-1000
-0.000578157
0.00116108
-1000
-0.000310644
0.00120774
-1000
0.00124096
-1000
-0.000826608
0.00117151
-1000
-0.000723493
0.00133647
-1000
-0.000535805
0.00142138
-1000
-0.00027508
0.00146283
-1000
0.00148797
-1000
-0.000714928
-1000
-0.000654558
-1000
-0.000497772
-1000
-0.000242273
-1000
-1000
-0.00125768
0.000686933
-1000
-0.00109863
0.000651635
-1000
-0.000821415
0.000648703
-1000
-0.000444333
0.000655762
-1000
0.000676606
-1000
-0.00129519
0.00120529
-1000
-0.00110846
0.00120515
-1000
-0.000817061
0.00124158
-1000
-0.000421308
0.00128814
-1000
0.00131267
-1000
-0.00129113
0.00164567
-1000
-0.0010718
0.00169501
-1000
-0.000769876
0.00176381
-1000
-0.00039538
0.00180916
-1000
0.00183961
-1000
-0.00122061
0.00195889
-1000
-0.00100269
0.00206076
-1000
-0.000724291
0.00210908
-1000
-0.000360609
0.00215224
-1000
0.00219002
-1000
-0.00117919
-1000
-0.000976397
-1000
-0.000684733
-1000
-0.000318461
-1000
-1000
-0.00170165
0.000946155
-1000
-0.00144605
0.000949015
-1000
-0.00104746
0.00097014
-1000.01
-0.000541954
0.000993431
-1000.01
0.00101231
-1000.01
-0.00170159
0.00179999
-1000
-0.00143061
0.00181414
-1000
-0.00102689
0.00185943
-1000
-0.000522924
0.00189373
-1000.01
0.00190471
-1000.01
-0.00167832
0.00255082
-1000
-0.0013875
0.00254658
-1000
-0.000992238
0.00258885
-1000
-0.000508946
0.00261814
-1000
0.00263448
-1000
-0.0016457
0.00306117
-1000
-0.00134022
0.00306958
-1000
-0.000958052
0.00307842
-1000
-0.000485317
0.0031055
-1000
0.00312897
-1000
-0.00169985
-1000
-0.00140569
-1000
-0.000947375
-1000
-0.000462523
-1000
-1000
-0.00218521
0.00137437
-1000.01
-0.00184713
0.00139725
-1000.01
-0.00133027
0.00141799
-1000.01
-0.000688128
0.00143495
-1000.01
0.00143037
-1000.01
-0.00216687
0.0026479
-1000.01
-0.00183084
0.00265138
-1000.01
-0.00131597
0.002671
-1000.01
-0.00069145
0.00267436
-1000.01
0.00266738
-1000.01
-0.00215913
0.00371694
-1000
-0.00181219
0.00367013
-1000
-0.00131275
0.00366864
-1000.01
-0.000693581
0.0036734
-1000.01
0.0036675
-1000.01
-0.0021891
0.00446141
-1000
-0.00180704
0.00437092
-1000
-0.00130376
0.004347
-1000
-0.000689033
0.00433717
-1000
0.00431853
-1000
-0.00229054
-1000
-0.00190978
-1000
-0.00133106
-1000
-0.000705556
-1000
-1000
-0.00287956
0.00198055
-1000.01
-0.00243185
0.00198584
-1000.01
-0.00176105
0.00198767
-1000.01
-0.000930367
0.0019855
-1000.01
0.00196006
-1000.01
-0.00288277
0.00373551
-1000.01
-0.00243424
0.00373351
-1000.01
-0.00176697
0.00372291
-1000.01
-0.000954004
0.00370073
-1000.01
0.00368401
-1000.01
-0.00288999
0.00516109
-1000.01
-0.00244187
0.00512919
-1000.01
-0.00178975
0.00509726
-1000.01
-0.000962904
0.00508064
-1000.01
0.00505718
-1000.01
-0.00293095
0.00617699
-1000
-0.00246719
0.00607068
-1000
-0.00180558
0.00601024
-1000.01
-0.000972831
0.00596744
-1000.01
0.00592301
-1000.01
-0.0030295
-1000
-0.0025316
-1000
-0.00185285
-1000
-0.00100437
-1000
-1000
-0.00391179
0.00273943
-1000.01
-0.00329189
0.00273982
-1000.01
-0.00239672
0.0027285
-1000.01
-0.00128135
0.002712
-1000.01
0.00268386
-1000.01
-0.00392499
0.00515992
-1000.01
-0.00330944
0.00516664
-1000.01
-0.00241843
0.00513981
-1000.01
-0.00130522
0.00510952
-1000.01
0.00509256
-1000.01
-0.00392873
0.00708301
-1000.01
-0.0033314
0.00709332
-1000.01
-0.00244925
0.00704846
-1000.01
-0.00131063
0.00702285
-1000.01
0.00699239
-1000.01
-0.00397271
0.00846343
-1000.01
-0.00337003
0.00834593
-1000.01
-0.00247676
0.00827977
-1000.01
-0.0013246
0.00823389
-1000.01
0.008195
-1000.01
-0.00408624
-1000
-0.00339178
-1000
-0.00251829
-1000
-0.00134347
-1000.01
-1000.01
-0.00529555
0.0037639
-1000.02
-0.00448123
0.00376063
-1000.02
-0.00327284
0.00374054
-1000.02
-0.00174411
0.00372142
-1000.02
0.0037053
-1000.02
-0.0053137
0.00713999
-1000.01
-0.00451043
0.00711959
-1000.02
-0.00329873
0.00708641
-1000.02
-0.001754
0.00706164
-1000.02
0.00704137
-1000.02
-0.00534113
0.00979876
-1000.01
-0.00454197
0.00977405
-1000.01
-0.00332356
0.00973235
-1000.01
-0.00175813
0.00970559
-1000.02
0.00966496
-1000.02
-0.00538718
0.0115378
-1000.01
-0.00458342
0.0114818
-1000.01
-0.00335214
0.0114238
-1000.01
-0.00177789
0.0113815
-1000.01
0.0113395
-1000.01
-0.00546978
-1000
-0.00461426
-1000
-0.00338679
-1000.01
-0.00179231
-1000.01
-1000.01
-0.00716421
0.00518826
-1000.02
-0.00611005
0.00515724
-1000.02
-0.00445492
0.00513277
-1000.03
-0.00235319
0.00512134
-1000.03
0.00511109
-1000.03
-0.00721128
0.00983147
-1000.02
-0.00614706
0.0097716
-1000.02
-0.00447571
0.00973829
-1000.02
-0.00235638
0.00971871
-1000.03
0.00968013
-1000.03
-0.00727197
0.0134962
-1000.02
-0.00618102
0.0134213
-1000.02
-0.00449532
0.0133779
-1000.02
-0.00237331
0.0133436
-1000.02
0.0132871
-1000.02
-0.00734516
0.0158817
-1000.01
-0.00622513
0.0157856
-1000.01
-0.00453031
0.0157121
-1000.02
-0.00240178
0.0156587
-1000.02
0.0156057
-1000.02
-0.00744999
-1000
-0.00629185
-1000.01
-0.00457771
-1000.01
-0.00241798
-1000.01
-1000.01
-0.00977957
0.00707847
-1000.03
-0.0083395
0.00704204
-1000.03
-0.00605717
0.00702299
-1000.04
-0.00318643
0.0070165
-1000.04
0.00699061
-1000.04
-0.00983732
0.0134086
-1000.03
-0.00837583
0.0133532
-1000.03
-0.00607724
0.01332
-1000.03
-0.00320388
0.0132934
-1000.03
0.0132349
-1000.04
-0.00989328
0.018423
-1000.02
-0.00841008
0.018348
-1000.02
-0.00610445
0.0182987
-1000.03
-0.00323322
0.0182588
-1000.03
0.018204
-1000.03
-0.00995598
0.0216915
-1000.01
-0.00845998
0.0215899
-1000.02
-0.00614434
0.0215097
-1000.02
-0.00324884
0.0214677
-1000.02
0.0214242
-1000.02
-0.0100426
-1000.01
-0.00854124
-1000.01
-0.00618233
-1000.01
-0.003243
-1000.02
-1000.02
-0.0133702
0.00961562
-1000.04
-0.0113717
0.00959463
-1000.04
-0.00824939
0.009573
-1000.05
-0.00434467
0.00955931
-1000.05
0.00951449
-1000.05
-0.0134214
0.0182564
-1000.04
-0.0114178
0.0182162
-1000.04
-0.0082826
0.0181727
-1000.04
-0.00437859
0.0181384
-1000.05
0.0180809
-1000.05
-0.0134661
0.0250849
-1000.03
-0.0114619
0.0250445
-1000.03
-0.00831789
0.024992
-1000.04
-0.00439593
0.024964
-1000.04
0.024916
-1000.04
-0.0135051
0.0294833
-1000.02
-0.0115152
0.0294382
-1000.02
-0.00834641
0.0293955
-1000.03
-0.00438955
0.0293867
-1000.03
0.0293226
-1000.03
-0.013538
-1000.01
-0.0115551
-1000.01
-0.00834952
-1000.02
-0.00438567
-1000.02
-1000.02
-0.0182318
0.0131022
-1000.05
-0.015493
0.0130661
-1000.06
-0.0112433
0.0130328
-1000.07
-0.00592167
0.0130156
-1000.07
0.012973
-1000.07
-0.0183098
0.0249026
-1000.05
-0.0155615
0.0248505
-1000.05
-0.0112875
0.0247997
-1000.06
-0.0059496
0.0247696
-1000.06
0.0247109
-1000.07
-0.0183672
0.0342342
-1000.04
-0.0156135
0.0342074
-1000.05
-0.0113183
0.0341516
-1000.05
-0.00595273
0.0341191
-1000.06
0.0340275
-1000.06
-0.0184021
0.0402028
-1000.03
-0.015671
0.0401738
-1000.03
-0.0113516
0.0401459
-1000.04
-0.00596882
0.0401052
-1000.04
0.039956
-1000.05
-0.0184233
-1000.01
-0.0156873
-1000.02
-0.0113838
-1000.02
-0.00602408
-1000.03
-1000.03
-0.0248008
0.0178604
-1000.07
-0.0210653
0.0178079
-1000.08
-0.0152854
0.0177751
-1000.09
-0.00803203
0.0177628
-1000.09
0.0177182
-1000.1
-0.0249103
0.0339967
-1000.07
-0.0211482
0.0339225
-1000.07
-0.015334
0.0338628
-1000.08
-0.00805649
0.0338179
-1000.09
0.0337111
-1000.09
-0.0249863
0.0468084
-1000.05
-0.02121
0.046729
-1000.06
-0.0153785
0.0466312
-1000.07
-0.00808658
0.0465361
-1000.08
0.0463602
-1000.08
-0.0250674
0.0549751
-1000.04
-0.0213094
0.0548668
-1000.04
-0.0154735
0.054752
-1000.05
-0.00815758
0.0546147
-1000.06
0.0544076
-1000.06
-0.025178
-1000.02
-0.0214133
-1000.02
-0.0156032
-1000.03
-0.00823741
-1000.04
-1000.04
-0.0336325
0.0243787
-1000.1
-0.0285727
0.0243118
-1000.11
-0.0207332
0.0242699
-1000.12
-0.0108891
0.0242353
-1000.13
0.0241448
-1000.13
-0.0337774
0.0464359
-1000.09
-0.0286835
0.0462992
-1000.1
-0.0208164
0.046183
-1000.11
-0.0109513
0.0460728
-1000.12
0.0458919
-1000.12
-0.0339124
0.0639608
-1000.07
-0.0288017
0.063744
-1000.08
-0.020925
0.063544
-1000.1
-0.0110272
0.0633644
-1000.1
0.0631295
-1000.11
-0.034123
0.075125
-1000.05
-0.0290026
0.0748635
-1000.06
-0.0211028
0.0746058
-1000.07
-0.011118
0.074406
-1000.08
0.0741865
-1000.08
-0.0343879
-1000.02
-0.0292598
-1000.03
-0.0212987
-1000.04
-0.0111669
-1000.05
-1000.06
-0.0455779
0.0333088
-1000.13
-0.0387353
0.0331781
-1000.15
-0.0281263
0.0330791
-1000.16
-0.0148017
0.0329774
-1000.17
0.0328265
-1000.18
-0.0458164
0.0633748
-1000.12
-0.038927
0.0631088
-1000.14
-0.0282933
0.0628718
-1000.15
-0.0149124
0.0626764
-1000.16
0.0624434
-1000.17
-0.0460799
0.087233
-1000.1
-0.0391646
0.0868314
-1000.12
-0.0284864
0.0864942
-1000.13
-0.0150023
0.0862538
-1000.14
0.0859588
-1000.15
-0.0464737
0.102515
-1000.07
-0.0395023
0.10205
-1000.08
-0.0287233
0.101647
-1000.1
-0.0151001
0.101395
-1000.11
0.101073
-1000.11
-0.0469391
-1000.03
-0.0399102
-1000.05
-0.0289737
-1000.06
-0.0151912
-1000.07
-1000.08
-0.061802
0.0454146
-1000.18
-0.0525167
0.0451955
-1000.21
-0.0381634
0.0449936
-1000.22
-0.0201026
0.0448219
-1000.24
0.0446446
-1000.24
-0.0621681
0.0863852
-1000.17
-0.0528428
0.0859369
-1000.19
-0.038423
0.0855435
-1000.21
-0.0202238
0.0852741
-1000.22
0.0849711
-1000.23
-0.0626148
0.118873
-1000.13
-0.053236
0.118248
-1000.16
-0.0386894
0.117741
-1000.18
-0.020332
0.117407
-1000.19
0.116965
-1000.2
-0.0632338
0.13979
-1000.09
-0.0537437
0.139051
-1000.11
-0.0390166
0.138454
-1000.13
-0.0205046
0.13805
-1000.15
0.137496
-1000.16
-0.0639731
-1000.04
-0.054346
-1000.06
-0.0394182
-1000.08
-0.0207441
-1000.1
-1000.1
-0.0837504
0.0618542
-1000.25
-0.0711755
0.0615143
-1000.28
-0.0517184
0.0611917
-1000.3
-0.027201
0.0609782
-1000.32
0.0607644
-1000.33
-0.0842881
0.117697
-1000.23
-0.0716644
0.117005
-1000.26
-0.05205
0.116432
-1000.28
-0.0273379
0.11605
-1000.3
0.115586
-1000.31
-0.0849785
0.161989
-1000.18
-0.072237
0.161058
-1000.21
-0.0524278
0.160294
-1000.24
-0.0275367
0.159753
-1000.26
0.159079
-1000.27
-0.0859006
0.190513
-1000.12
-0.0729993
0.189418
-1000.16
-0.0529602
0.188499
-1000.18
-0.0278439
0.187824
-1000.2
0.186989
-1000.21
-0.0869964
-1000.05
-0.0739258
-1000.09
-0.0536324
-1000.11
-0.0282501
-1000.13
-1000.14
-0.1135
0.0842462
-1000.34
-0.0964209
0.0837213
-1000.38
-0.0699766
0.0832825
-1000.41
-0.036746
0.0830044
-1000.44
0.0826697
-1000.45
-0.114291
0.160289
-1000.31
-0.0970837
0.159304
-1000.35
-0.0704146
0.158487
-1000.38
-0.0369758
0.157885
-1000.41
0.157185
-1000.42
-0.115271
0.220704
-1000.25
-0.0979012
0.219342
-1000.29
-0.0710112
0.218168
-1000.33
-0.0373136
0.217296
-1000.35
0.216337
-1000.37
-0.116615
0.259562
-1000.17
-0.0990708
0.257955
-1000.21
-0.0718724
0.256523
-1000.25
-0.0377746
0.255466
-1000.27
0.254304
-1000.29
-0.11822
-1000.07
-0.100514
-1000.12
-0.072925
-1000.15
-0.0383517
-1000.18
-1000.19
-0.153838
0.114689
-1000.46
-0.130506
0.113962
-1000.52
-0.094597
0.113363
-1000.56
-0.0496699
0.112927
-1000.6
0.112405
-1000.61
-0.154926
0.218255
-1000.42
-0.131408
0.216874
-1000.48
-0.0952508
0.215661
-1000.52
-0.0500488
0.214732
-1000.56
0.213756
-1000.57
-0.1563
0.300661
-1000.34
-0.132619
0.298631
-1000.4
-0.0961707
0.296843
-1000.44
-0.0505326
0.295522
-1000.48
0.294171
-1000.5
-0.158308
0.353709
-1000.23
-0.134398
0.351196
-1000.29
-0.0974777
0.348997
-1000.34
-0.0512045
0.347392
-1000.37
0.345766
-1000.39
-0.160814
-1000.1
-0.136603
-1000.16
-0.0990717
-1000.21
-0.0520334
-1000.25
-1000.26
-0.208238
0.156158
-1000.63
-0.176427
0.155137
-1000.7
-0.127803
0.154245
-1000.77
-0.0671168
0.153564
-1000.81
0.152836
-1000.83
-0.209746
0.297237
-1000.57
-0.177728
0.295193
-1000.65
-0.128775
0.293387
-1000.71
-0.0676503
0.292037
-1000.76
0.290685
-1000.78
-0.211778
0.409517
-1000.46
-0.179526
0.40647
-1000.54
-0.13011
0.40382
-1000.6
-0.0683302
0.401863
-1000.65
0.399937
-1000.67
-0.214803
0.481949
-1000.32
-0.182158
0.478046
-1000.39
-0.132044
0.474739
-1000.46
-0.0693278
0.472306
-1000.5
0.469959
-1000.53
-0.218694
-1000.14
-0.185462
-1000.22
-0.134458
-1000.28
-0.0705879
-1000.33
-1000.36
-0.281485
0.212634
-1000.86
-0.238218
0.211146
-1000.96
-0.172428
0.209838
-1001.04
-0.0904919
0.208868
-1001.1
0.207888
-1001.13
-0.283625
0.404737
-1000.78
-0.240076
0.401746
-1000.88
-0.17379
0.399137
-1000.97
-0.0912025
0.397201
-1001.03
0.395298
-1001.06
-0.286593
0.557655
-1000.63
-0.242664
0.553167
-1000.74
-0.175697
0.549273
-1000.82
-0.0921848
0.546373
-1000.88
0.54362
-1000.91
-0.291048
0.656469
-1000.43
-0.246525
0.650636
-1000.53
-0.178557
0.645627
-1000.62
-0.0936702
0.641896
-1000.68
0.638471
-1000.72
-0.29686
-1000.19
-0.251518
-1000.3
-0.182254
-1000.39
-0.0956139
-1000.45
-1000.49
-0.380127
0.289424
-1001.17
-0.321141
0.287397
-1001.3
-0.232102
0.2856
-1001.42
-0.121657
0.284261
-1001.5
0.282926
-1001.54
-0.383023
0.550989
-1001.07
-0.32367
0.546793
-1001.2
-0.23396
0.543085
-1001.31
-0.122616
0.540311
-1001.39
0.53763
-1001.43
-0.387172
0.759283
-1000.87
-0.327329
0.752715
-1001
-0.236682
0.746975
-1001.12
-0.124034
0.742689
-1001.2
0.738738
-1001.24
-0.39368
0.894072
-1000.59
-0.333008
0.885269
-1000.73
-0.240899
0.877611
-1000.84
-0.126252
0.871896
-1000.93
0.866903
-1000.97
-0.40244
-1000.26
-0.340629
-1000.41
-0.246558
-1000.53
-0.129221
-1000.61
-1000.66
-0.512689
0.394035
-1001.6
-0.432049
0.391415
-1001.78
-0.311616
0.389031
-1001.93
-0.163098
0.387208
-1002.03
0.385371
-1002.09
-0.516458
0.750055
-1001.45
-0.435396
0.744325
-1001.63
-0.314121
0.739171
-1001.78
-0.164404
0.735271
-1001.89
0.731511
-1001.94
-0.522085
1.03353
-1001.18
-0.440449
1.02405
-1001.36
-0.317922
1.0157
-1001.51
-0.166429
1.00942
-1001.62
1.00374
-1001.68
-0.531452
1.21717
-1000.8
-0.448684
1.2039
-1000.99
-0.324086
1.19231
-1001.15
-0.169724
1.18362
-1001.26
1.17631
-1001.31
-0.544636
-1000.36
-0.460198
-1000.55
-0.332676
-1000.71
-0.174271
-1000.83
-1000.89
-0.69055
0.536749
-1002.18
-0.58001
0.533591
-1002.42
-0.417252
0.530595
-1002.62
-0.217981
0.528241
-1002.76
0.525749
-1002.83
-0.695206
1.02112
-1001.98
-0.584254
1.01368
-1002.23
-0.420483
1.00684
-1002.42
-0.219717
1.00153
-1002.57
0.996301
-1002.64
-0.702422
1.40637
-1001.61
-0.590892
1.39314
-1001.85
-0.425605
1.38126
-1002.05
-0.222541
1.37214
-1002.2
1.36407
-1002.27
-0.715426
1.65609
-1001.1
-0.602547
1.63647
-1001.35
-0.434504
1.61905
-1001.55
-0.227345
1.60587
-1001.7
1.59509
-1001.77
-0.734902
-1000.5
-0.619805
-1000.75
-0.447513
-1000.97
-0.234336
-1001.12
-1001.2
-0.928981
0.731756
-1002.98
-0.776913
0.728665
-1003.3
-0.55698
0.72543
-1003.56
-0.29013
0.722712
-1003.75
0.719437
-1003.84
-0.933978
1.39078
-1002.71
-0.781724
1.3821
-1003.03
-0.560794
1.37368
-1003.29
-0.292304
1.36679
-1003.48
1.35969
-1003.57
-0.942196
1.91351
-1002.2
-0.789728
1.89577
-1002.52
-0.567323
1.8793
-1002.78
-0.296043
1.86635
-1002.97
1.8549
-1003.06
-0.959473
2.25236
-1001.5
-0.805774
2.22346
-1001.83
-0.579877
2.19735
-1002.09
-0.302953
2.17729
-1002.28
2.16131
-1002.38
-0.988106
-1000.69
-0.831596
-1001.02
-0.599622
-1001.31
-0.313725
-1001.51
-1001.61
-1.24838
0.999554
-1004.08
-1.03823
0.998334
-1004.51
-0.740862
0.996157
-1004.86
-0.383912
0.993721
-1005.1
0.989641
-1005.21
-1.25193
1.89641
-1003.71
-1.04231
1.88855
-1004.13
-0.7446
1.87969
-1004.47
-0.386331
1.87165
-1004.71
1.86228
-1004.83
-1.25886
2.60369
-1003
-1.05032
2.58137
-1003.42
-0.751924
2.55956
-1003.76
-0.390934
2.54171
-1004
2.52539
-1004.11
-1.28027
3.06109
-1002.05
-1.07131
3.01892
-1002.47
-0.769028
2.98001
-1002.82
-0.400908
2.94946
-1003.06
2.92551
-1003.18
-1.32195
-1000.95
-1.1097
-1001.39
-0.799016
-1001.75
-0.417668
-1002.01
-1002.14
-1.67622
1.37051
-1005.6
-1.38435
1.37565
-1006.18
-0.982053
1.37786
-1006.64
-0.503277
1.3777
-1006.96
1.37298
-1007.09
-1.67375
2.59171
-1005.08
-1.38425
2.59046
-1005.63
-0.983619
2.58508
-1006.08
-0.505382
2.57804
-1006.39
2.56575
-1006.52
-1.6731
3.54373
-1004.1
-1.38793
3.51914
-1004.63
-0.989255
3.49267
-1005.07
-0.510747
3.4691
-1005.37
3.44541
-1005.5
-1.69595
4.15499
-1002.8
-1.4128
4.09464
-1003.33
-1.01144
4.03731
-1003.76
-0.525419
3.99087
-1004.07
3.95416
-1004.22
-1.75541
-1001.32
-1.46918
-1001.87
-1.05685
-1002.33
-0.552066
-1002.66
-1002.83
-2.25036
1.89137
-1007.72
-1.84324
1.91329
-1008.5
-1.29961
1.92817
-1009.11
-0.646985
1.93576
-1009.54
1.93035
-1009.67
-2.23102
3.55687
-1006.96
-1.83026
3.57671
-1007.7
-1.29324
3.58527
-1008.28
-0.648101
3.58584
-1008.69
3.56863
-1008.81
-2.20728
4.82659
-1005.58
-1.81821
4.80806
-1006.25
-1.28995
4.78132
-1006.79
-0.655063
4.75286
-1007.17
4.71644
-1007.31
-2.22246
5.6291
-1003.81
-1.84192
5.54485
-1004.45
-1.31595
5.4619
-1004.97
-0.678436
5.39184
-1005.35
5.33331
-1005.51
-2.30519
-1001.82
-1.92312
-1002.49
-1.3841
-1003.04
-0.722502
-1003.45
-1003.66
-3.02684
2.63682
-1010.68
-2.4544
2.69994
-1011.77
-1.73042
2.74742
-1012.58
-0.793838
2.77745
-1013.26
2.76838
-1013.23
-2.96538
4.91751
-1009.57
-2.40731
4.99381
-1010.55
-1.70109
5.0404
-1011.28
-0.792952
5.06935
-1011.89
5.03697
-1011.87
-2.88107
6.58273
-1007.56
-2.35331
6.59332
-1008.38
-1.66719
6.57946
-1009.02
-0.807026
6.55358
-1009.51
6.48747
-1009.56
-2.86412
7.60366
-1005.12
-2.36151
7.49026
-1005.85
-1.68965
7.37417
-1006.44
-0.854044
7.2722
-1006.9
7.17239
-1007.05
-2.97504
-1002.49
-2.47408
-1003.24
-1.78796
-1003.86
-0.931889
-1004.34
-1004.57
-4.10707
3.72648
-1014.77
-3.26789
3.89209
-1016.5
-2.37362
4.01857
-1017.49
-0.884142
4.11135
-1018.86
4.08303
-1018.19
-3.94209
6.88051
-1013.14
-3.13589
7.10341
-1014.57
-2.28402
7.23383
-1015.34
-0.876946
7.36364
-1016.55
7.26532
-1015.93
-3.70346
8.99497
-1010.12
-2.98923
9.09493
-1011.09
-2.1516
9.12328
-1011.74
-0.909888
9.13304
-1012.53
8.96939
-1012.18
-3.59185
10.2244
-1006.78
-2.9505
10.0816
-1007.48
-2.14439
9.93325
-1008.05
-1.02348
9.80846
-1008.7
9.62053
-1008.72
-3.73077
-1003.32
-3.08948
-1004.02
-2.2616
-1004.53
-1.17229
-1005.02
-1005.21
-5.75842
5.32114
-1020
-4.29657
5.77464
-1023.74
-3.46569
6.08965
-1024.41
-0.807862
6.348
-1027.86
6.2545
-1025.26
-5.32705
9.78804
-1017.82
-3.95324
10.4303
-1020.6
-3.23545
10.677
-1020.65
-0.783733
11.1718
-1023.82
10.8124
-1021.27
-4.66891
12.3072
-1013.16
-3.65546
12.6597
-1014.33
-2.82007
12.765
-1014.67
-0.852725
12.9276
-1016.25
12.4083
-1014.63
-4.29898
13.6618
-1008.65
-3.53197
13.5134
-1009.1
-2.73643
13.3911
-1009.47
-1.13226
13.3726
-1010.74
12.9692
-1010.42
-4.44109
-1004.05
-3.61192
-1004.42
-2.73151
-1004.17
-1.3855
-1004.37
-1004.33
-8.66475
7.46503
-1025.38
-5.60164
8.86402
-1035.66
-5.46747
9.67143
-1034.22
-0.38088
10.2904
-1043.24
10.0605
-1035.7
-7.59461
14.1393
-1023.44
-4.73299
16.2096
-1030.81
-4.91962
16.2676
-1027.06
-0.322702
18.05
-1036.18
16.8166
-1028.35
-5.79567
16.7953
-1016.09
-4.13314
17.8484
-1017.63
-3.71316
17.9243
-1016.74
-0.443235
18.4695
-1019.94
16.7736
-1015.03
-4.75086
18.1655
-1010.28
-3.94269
18.1095
-1010.17
-3.68845
18.2798
-1010.08
-1.18604
18.8539
-1013.63
17.7407
-1012.57
-4.79414
-1003.27
-3.43644
-1003.44
-2.86994
-1000.18
-1.37481
-999.523
-999.145
-13.4621
9.53936
-1028.4
-8.19243
13.8494
-1054.78
-9.33701
16.3534
-1049.43
2.10187
17.3596
-1072.04
17.1859
-1050.78
-11.0636
20.5536
-1030.67
-5.83154
27.4718
-1049.66
-8.11365
25.5828
-1034.01
2.29071
31.5555
-1060.78
27.6961
-1036.57
-6.94999
22.6304
-1018.03
-4.31762
25.3588
-1018.15
-4.44684
24.7861
-1015.82
1.64046
26.3878
-1020.86
22.101
-1007.79
-4.30682
24.2911
-1011.56
-4.24377
24.2906
-1009.16
-5.82098
25.1386
-1008.86
-1.38306
27.1703
-1018.85
23.4556
-1015.31
-4.08471
-996.905
-1.32251
-999.68
-1.81681
-987.806
-1.06656
-985.44
-986.824
-19.9028
10.1338
-1024.5
-14.6485
22.0015
-1082.04
-17.0579
29.9422
-1076.96
9.74346
30.3572
-1129.2
31.1239
-1072.16
-14.8695
29.9861
-1043.15
-7.59185
50.7243
-1085.66
-14.7808
40.9636
-1037.84
10.6113
59.5337
-1115.35
47.0272
-1041.86
-6.72103
29.8234
-1019.59
-4.26122
36.1941
-1006.08
-3.40115
34.7033
-1010.42
8.15581
40.3466
-1013.23
29.2104
-981.818
1.04864
32.4203
-1015.94
-5.35398
31.4876
-998.053
-11.2496
33.1569
-1001.42
-1.76257
38.795
-1026.79
26.4362
-1014.3
1.94866
-980.233
5.24265
-990.487
2.32785
-960.596
-1.65545
-953.462
-967.766
-12.4833
8.52514
-1012.42
-21.1379
30.6159
-1104
-20.9079
45.9237
-1123.12
29.8393
39.6563
-1219.6
42.4098
-1084.73
-12.068
38.3217
-1063.3
-8.36584
90.5521
-1149.3
-23.8419
52.5544
-1028.99
35.2056
99.9119
-1234.65
63.7644
-1028.01
-2.83071
38.9659
-1030.22
-5.08932
53.8423
-967.113
1.5947
51.4499
-1016
25.4626
64.4353
-1001.62
34.1119
-926.704
17.0509
44.2589
-1025.36
-8.41101
34.9361
-953.685
-24.6799
40.0191
-973.718
-1.57215
54.2763
-1039.74
17.9301
-999.688
14.6137
-945.965
22.0076
-982.734
13.0864
-899.57
-3.15858
-882.167
-935.475
-167.239
-56.8785
-781.423
-161.97
122.945
-1232.22
-146.455
238.293
-1376.92
89.7687
245.527
-1701.35
241.134
-1236.1
-76.3887
123.162
-1234.46
-37.9002
342.257
-1407.1
-112.438
304.559
-1020.72
89.8386
468.682
-1660.08
332.045
-1029.09
33.0806
154.838
-1139.76
34.3479
171.062
-797.186
2.91259
124.247
-804.25
40.1798
173.698
-743.902
74.8163
-629.296
78.3109
-1.19852
-825.346
-18.5155
1.52303
-687.319
-64.4059
0.779513
-804.36
-11.9896
12.3639
-930.819
-85.1293
-851.732
45.8439
-640.47
-19.5367
-824.877
-32.2417
-805.761
-97.7799
-758.243
-1122.55
302.038
95.0842
-1022.29
121.777
-99.5929
-952.362
13.7111
-147.203
-1121.66
158.941
-172.01
-1674.57
-126.841
-950.316
152.698
-90.055
-929.911
43.2236
-99.7539
-1297.46
-0.899274
-395.229
-728.573
144.638
-266.896
-1710.73
-294.33
-716.959
-89.9902
-217.922
-944.861
-208.483
-147.265
-631.182
82.9727
65.8557
-1556.79
220.846
46.0701
-1194.74
-74.7749
-628.005
89.5853
207.433
-1510.74
-43.6444
-87.4302
-613.924
-94.3585
136.826
-824.616
82.1921
233.71
-1295.01
-4.92669
-839.388
112.009
-902.032
379.727
-1483.26
239.68
-407.37
107.264
-395.862
-790.792
28.5207
-92.9234
-829.508
-2.57327
16.0863
-937.355
-30.571
14.6012
-1108.26
0.155303
84.0395
-1789.34
0.463712
-950.625
18.1744
28.3152
-1149.29
27.701
119.465
-1410.37
-26.6243
192.759
-852.406
18.6419
385.976
-2057.94
43.2698
-741.123
91.739
264.007
-1319.76
171.124
59.9456
-651.047
-15.4576
53.2837
-1230.73
-52.4651
147.206
-918.965
-65.1964
-572.004
81.0649
-52.9117
-1003.84
-7.88577
-94.3698
-370.658
-33.3222
-40.8081
-705.087
-19.7879
-30.0902
-1131.25
-112.561
-811.811
62.2665
-575.66
-117.388
-1138.21
-0.386859
-520.241
-0.750046
-411.184
-1051.95
-164.441
141.527
-766.254
-186.526
385.198
-1300.47
298.883
440.197
-2033.87
67.1107
603.856
-2161.42
345.601
-1229.11
6.0226
138.676
-1166.51
1.61624
227.344
-1248.11
166.541
197.869
-775.003
101.294
200.955
-1589.79
241.609
-535.837
21.0449
-176.35
-910.964
3.90495
58.5851
-465.149
-3.76054
-28.1795
-997.02
19.6819
17.2986
-758.751
52.2471
-362.96
-0.412491
1.83219
-1588.72
-8.00753
-0.715653
-303.762
-10.6532
-163.769
-566.853
117.978
-78.113
-1164.47
-365.256
-276.33
-3.20126
-46.4483
-109.36
-941.284
149.309
-1174.26
53.5955
-391.239
-1270.74
-285.057
-136.995
-540.894
91.0869
286.685
-1963.3
-240.656
29.1917
-1731.31
-158.068
288.886
-2532.9
9.2739
-1396.46
123.758
4.57467
-1816.64
7.10655
-34.6901
-810.084
101.583
-25.27
-815.018
14.8908
-374.643
-839.567
-7.39995
-504.272
-40.3714
-786.874
-28.5261
-185.159
-28.0761
-326.975
-378.816
41.8701
-870.503
-421.501
-92.5943
-998.114
11.0674
-802.929
-416.662
-863.123
-1820.22
20.252
1.73001
-770.483
24.5307
-139.404
-389.857
209.689
146.325
-1588.54
-7.2739
-48.2993
68.4156
-2257.85
22.6613
-1221.64
168.029
-1589.44
-6.48414
-30.8934
-1314.37
-79.2629
-484.744
-61.2853
101.415
486.204
-2630.18
-157.728
96.6678
-1568.84
-212.637
41.2734
-2519.26
-238.66
-1370.43
-272.721
-542.333
-2274.84
-71.7815
76.6211
-601.441
-98.8595
140.506
-831.778
-119.874
52.0582
-829.337
46.6266
-909.433
98.7993
263.972
-1354.6
35.2965
13.6141
-200.465
-108.272
1.70934
-588.139
-479.815
146.417
-720.93
-9.70803
-1226.41
-298.638
181.244
-1397.71
-28.1947
342.058
-1369.37
-288.674
98.519
-226.188
-311.048
116.115
-1535.87
311.774
-680.829
110.895
-2671.93
-299.535
-577.995
-318.955
-1466.69
-287.292
-93.0547
-1720.26
9.30497
60.0442
-52.4055
-316.24
-20.1093
-2284.52
275.034
277.819
-2437.93
51.9572
51.6154
-2347.8
-3.68063
-1314.8
60.9168
-1054.38
-803.203
-52.9945
-2.29833
-505.34
56.4757
-21.6465
-641.782
12.4885
61.1848
-794.919
-36.1828
-864.442
-3.84724
25.012
-2672.05
-1.32657
281.35
-486.633
74.0019
-38.5104
-646.603
-30.3872
-57.7878
-497.568
-19.7714
-1273.21
-1.7004
318.421
-1682.66
-246.333
322.576
-1165.96
93.1673
204.968
-809.167
-367.565
-277.317
-855.607
13.161
-1081.33
14.5388
-2285.13
-10.2104
-184.202
-210.778
-992.935
39.2441
-1321.84
-1938.73
68.8753
9.30059
-53.5024
-38.0435
-15.6454
-2161.96
-221.826
-72.6525
-2181.5
-972.001
-132.921
-1464.7
239.105
-2525.9
-67.7755
-322.402
-67.4802
-129.851
33.3594
-492.269
-23.3074
86.3152
-907.293
-6.74192
28.4093
-972.815
310.713
-942.793
39.6689
-179.116
-2629.2
67.1706
101.424
-582.2
23.2595
-51.2136
-465.163
-43.6727
68.5517
-470.778
227.865
-1234.03
274.805
361.716
-2354.01
-52.713
-109.782
-627.238
233.368
67.7553
-1214.22
-222.742
290.947
-621.892
114.809
-1191.01
-265.26
-1805.78
189.145
-1072.13
233.552
-987.233
364.541
-1848.41
-1506
-47.3266
0.312508
-131.452
32.5509
52.9808
-2294.82
386.412
167.336
-2702.69
116.369
-476.33
-718.33
-451.14
-1958.39
2.59008
437.801
-645.758
138.817
137.922
-713.436
92.7591
-46.7912
-647.109
51.0886
-429.299
-978.176
224.44
-1567.28
-259.372
368.526
-2233.54
-137.907
10.4453
-576.188
92.2208
195.222
-937.304
323.4
70.1865
-1201.44
-206.291
-479.901
91.7811
35.007
-1853.24
-20.087
-22.9256
-481.999
-51.5684
6.03167
-993.545
243.435
237.523
-1084.23
-154.028
-999.839
-667.997
-386.219
-145.803
-1633.6
404.228
-1294.42
-82.6396
-1049.91
-1665.74
-117.877
151.117
-211.653
-877.354
3.76689
-1539.11
-706.483
69.3642
-2942.93
11.255
178.041
-1614.11
9.86082
-1957
-168.734
357.987
-698.079
-78.5379
44.9317
-844.797
81.5473
101.074
-838.904
-41.1945
-123.555
-553.839
-134.56
-1464.06
-185.976
4.52231
-1712.07
-44.8679
90.14
-762.504
74.94
150.638
-1106.68
-48.8474
137.023
-1338.23
7.9275
-671.235
3.61406
-66.7323
-1525.78
-66.585
-9.28012
-312.38
78.8522
38.5877
-1026.93
7.02793
209.449
-1084.83
-89.6934
-895.19
26.5557
-329.612
-78.748
-1285.05
83.8892
-1370.23
-224.413
-441.694
-1351.52
212.929
11.7415
-553.432
-128.106
-77.873
-1120.2
-469.387
51.0603
-2652.71
462.957
134.032
-2680.48
147.378
-1641.42
-96.0405
-161.121
-80.0475
-185.173
-204.86
-628.678
-186.313
135.406
-922.108
80.8597
-12.2135
-674.767
113.046
-1348.86
-28.5714
-190.689
-1465.54
-16.3419
-205.908