/*--------------------------------*- C++ -*----------------------------------*\
| =========                 |                                                 |
| \\      /  F ield         | OpenFOAM: The Open Source CFD Toolbox           |
|  \\    /   O peration     | Version:  5.x                                   |
|   \\  /    A nd           | Web:      www.OpenFOAM.org                      |
|    \\/     M anipulation  |                                                 |
\*---------------------------------------------------------------------------*/
FoamFile
{
    version     2.0;
    format      ascii;
    class       volVectorField;
    location    "20000";
    object      stored_U;
}
// * * * * * * * * * * * * * * * * * * * * * * * * * * * * * * * * * * * * * //

dimensions      [0 1 -1 0 0 0 0];

internalField   nonuniform List<vector> 
2250
(
(-1.02817e-10 2.46864e-11 -0.001)
(-1.16214e-10 1.88907e-11 -0.001)
(-9.47473e-11 2.02386e-11 -0.001)
(-5.9551e-11 2.00213e-11 -0.001)
(-2.21548e-11 2.39859e-11 -0.001)
(-1.07179e-10 5.67376e-11 -0.001)
(-1.20953e-10 5.82888e-11 -0.001)
(-9.38166e-11 6.84327e-11 -0.001)
(-5.58687e-11 7.68359e-11 -0.001)
(-1.81845e-11 8.6695e-11 -0.001)
(-9.1256e-11 8.27776e-11 -0.001)
(-1.04773e-10 1.02076e-10 -0.001)
(-7.63892e-11 1.21648e-10 -0.001)
(-4.12345e-11 1.413e-10 -0.001)
(-1.21819e-11 1.53687e-10 -0.001)
(-8.69918e-11 1.23043e-10 -0.001)
(-8.2024e-11 1.39141e-10 -0.001)
(-5.4591e-11 1.60819e-10 -0.001)
(-2.35237e-11 1.89007e-10 -0.001)
(-5.51839e-12 2.02852e-10 -0.001)
(-4.38161e-11 1.04207e-10 -0.001)
(-6.70433e-11 1.6144e-10 -0.001)
(-2.65147e-11 1.7295e-10 -0.001)
(1.20436e-12 1.95581e-10 -0.001)
(2.02444e-12 2.01846e-10 -0.001)
(-2.96558e-10 6.3841e-11 -0.001)
(-3.23838e-10 5.96978e-11 -0.001)
(-2.55197e-10 6.77654e-11 -0.001)
(-1.51114e-10 7.3883e-11 -0.001)
(-4.99546e-11 8.26185e-11 -0.001)
(-3.01611e-10 1.7451e-10 -0.001)
(-3.20594e-10 1.94093e-10 -0.001)
(-2.4149e-10 2.23194e-10 -0.001)
(-1.36337e-10 2.4671e-10 -0.001)
(-4.11482e-11 2.62167e-10 -0.001)
(-2.60418e-10 2.79384e-10 -0.001)
(-2.75795e-10 3.28625e-10 -0.001)
(-2.03072e-10 3.74881e-10 -0.001)
(-1.11899e-10 4.14261e-10 -0.001)
(-3.41056e-11 4.31024e-10 -0.001)
(-2.44443e-10 4.33371e-10 -0.001)
(-2.25166e-10 4.52795e-10 -0.001)
(-1.55851e-10 4.94894e-10 -0.001)
(-7.93426e-11 5.39873e-10 -0.001)
(-2.3568e-11 5.54162e-10 -0.001)
(-1.31387e-10 3.66811e-10 -0.001)
(-2.1431e-10 4.92186e-10 -0.001)
(-1.15988e-10 5.19606e-10 -0.001)
(-5.15149e-11 5.59076e-10 -0.001)
(-1.87534e-11 5.60151e-10 -0.001)
(-4.73475e-10 1.14733e-10 -0.001)
(-4.92417e-10 1.20121e-10 -0.001)
(-3.7647e-10 1.3001e-10 -0.001)
(-2.22473e-10 1.37776e-10 -0.001)
(-7.11121e-11 1.44048e-10 -0.001)
(-4.74059e-10 3.32926e-10 -0.001)
(-4.78089e-10 3.72694e-10 -0.001)
(-3.59543e-10 4.083e-10 -0.001)
(-2.08541e-10 4.29499e-10 -0.001)
(-6.46836e-11 4.36244e-10 -0.001)
(-4.3066e-10 5.38941e-10 -0.001)
(-4.18e-10 6.05429e-10 -0.001)
(-3.20409e-10 6.54122e-10 -0.001)
(-1.94071e-10 6.87109e-10 -0.001)
(-6.36188e-11 6.91923e-10 -0.001)
(-4.04618e-10 8.15978e-10 -0.001)
(-3.62899e-10 8.14947e-10 -0.001)
(-2.77856e-10 8.38512e-10 -0.001)
(-1.69342e-10 8.64604e-10 -0.001)
(-5.84713e-11 8.60771e-10 -0.001)
(-2.75258e-10 7.49873e-10 -0.001)
(-3.95374e-10 8.53732e-10 -0.001)
(-2.70733e-10 8.8082e-10 -0.001)
(-1.70061e-10 9.0297e-10 -0.001)
(-6.57205e-11 8.91544e-10 -0.001)
(-6.33629e-10 1.89448e-10 -0.001)
(-6.16799e-10 1.97438e-10 -0.001)
(-4.76956e-10 2.03192e-10 -0.001)
(-2.95317e-10 2.06519e-10 -0.001)
(-9.89941e-11 2.07961e-10 -0.001)
(-6.30692e-10 5.59744e-10 -0.001)
(-6.04312e-10 5.93643e-10 -0.001)
(-4.68854e-10 6.1471e-10 -0.001)
(-2.90687e-10 6.20179e-10 -0.001)
(-9.73274e-11 6.17639e-10 -0.001)
(-6.01623e-10 8.88435e-10 -0.001)
(-5.6308e-10 9.38227e-10 -0.001)
(-4.51381e-10 9.6287e-10 -0.001)
(-2.91718e-10 9.72023e-10 -0.001)
(-1.00476e-10 9.65844e-10 -0.001)
(-5.78236e-10 1.19985e-09 -0.001)
(-5.2991e-10 1.20266e-09 -0.001)
(-4.35051e-10 1.20618e-09 -0.001)
(-2.85785e-10 1.20246e-09 -0.001)
(-1.01561e-10 1.18727e-09 -0.001)
(-5.16108e-10 1.23966e-09 -0.001)
(-5.56756e-10 1.2596e-09 -0.001)
(-4.51579e-10 1.27678e-09 -0.001)
(-3.08286e-10 1.27502e-09 -0.001)
(-1.13309e-10 1.25852e-09 -0.001)
(-8.13753e-10 2.88814e-10 -0.001)
(-7.56396e-10 2.89713e-10 -0.001)
(-6.0386e-10 2.9234e-10 -0.001)
(-3.9035e-10 2.89062e-10 -0.001)
(-1.35929e-10 2.86617e-10 -0.001)
(-8.19246e-10 8.43808e-10 -0.001)
(-7.54463e-10 8.57543e-10 -0.001)
(-6.05814e-10 8.60115e-10 -0.001)
(-3.96312e-10 8.51878e-10 -0.001)
(-1.38083e-10 8.44186e-10 -0.001)
(-8.06881e-10 1.29852e-09 -0.001)
(-7.41671e-10 1.33454e-09 -0.001)
(-6.10813e-10 1.33488e-09 -0.001)
(-4.05411e-10 1.32735e-09 -0.001)
(-1.42229e-10 1.31722e-09 -0.001)
(-7.98512e-10 1.62855e-09 -0.001)
(-7.18139e-10 1.65651e-09 -0.001)
(-6.12994e-10 1.6604e-09 -0.001)
(-4.11364e-10 1.64841e-09 -0.001)
(-1.45616e-10 1.63381e-09 -0.001)
(-8.23023e-10 1.8457e-09 -0.001)
(-7.09827e-10 1.78334e-09 -0.001)
(-6.18851e-10 1.77853e-09 -0.001)
(-4.28669e-10 1.767e-09 -0.001)
(-1.53539e-10 1.75371e-09 -0.001)
(-1.07707e-09 4.08972e-10 -0.001)
(-9.80719e-10 4.04622e-10 -0.001)
(-8.00567e-10 4.01753e-10 -0.001)
(-5.31316e-10 3.94535e-10 -0.001)
(-1.87635e-10 3.89751e-10 -0.001)
(-1.08873e-09 1.17911e-09 -0.001)
(-9.89958e-10 1.17527e-09 -0.001)
(-8.12306e-10 1.1657e-09 -0.001)
(-5.43648e-10 1.15184e-09 -0.001)
(-1.92022e-10 1.14386e-09 -0.001)
(-1.0891e-09 1.7862e-09 -0.001)
(-9.96155e-10 1.80787e-09 -0.001)
(-8.25614e-10 1.80623e-09 -0.001)
(-5.51911e-10 1.79863e-09 -0.001)
(-1.93676e-10 1.79185e-09 -0.001)
(-1.10689e-09 2.19681e-09 -0.001)
(-9.69969e-10 2.24314e-09 -0.001)
(-8.21515e-10 2.26332e-09 -0.001)
(-5.54381e-10 2.25705e-09 -0.001)
(-1.95213e-10 2.24861e-09 -0.001)
(-1.16721e-09 2.58537e-09 -0.001)
(-9.29651e-10 2.48228e-09 -0.001)
(-8.11645e-10 2.45351e-09 -0.001)
(-5.62154e-10 2.44173e-09 -0.001)
(-1.97721e-10 2.43039e-09 -0.001)
(-1.49658e-09 5.44973e-10 -0.001)
(-1.3607e-09 5.39785e-10 -0.001)
(-1.11125e-09 5.347e-10 -0.001)
(-7.38769e-10 5.27519e-10 -0.001)
(-2.60599e-10 5.24012e-10 -0.00100001)
(-1.50665e-09 1.57194e-09 -0.001)
(-1.37373e-09 1.56167e-09 -0.001)
(-1.12578e-09 1.5512e-09 -0.001)
(-7.49928e-10 1.54207e-09 -0.001)
(-2.63601e-10 1.54154e-09 -0.001)
(-1.50777e-09 2.40025e-09 -0.001)
(-1.38421e-09 2.40763e-09 -0.001)
(-1.13307e-09 2.4153e-09 -0.001)
(-7.4687e-10 2.41863e-09 -0.001)
(-2.58654e-10 2.42114e-09 -0.001)
(-1.54584e-09 3.01819e-09 -0.001)
(-1.35872e-09 3.02755e-09 -0.001)
(-1.11475e-09 3.04764e-09 -0.001)
(-7.39316e-10 3.05042e-09 -0.001)
(-2.56406e-10 3.04302e-09 -0.001)
(-1.55943e-09 3.44626e-09 -0.001)
(-1.3547e-09 3.38284e-09 -0.001)
(-1.11012e-09 3.34627e-09 -0.001)
(-7.45431e-10 3.33566e-09 -0.001)
(-2.60107e-10 3.31718e-09 -0.001)
(-2.11371e-09 7.11712e-10 -0.001)
(-1.92734e-09 7.10712e-10 -0.00100001)
(-1.55754e-09 7.08398e-10 -0.00100001)
(-1.02303e-09 7.05232e-10 -0.00100001)
(-3.58176e-10 7.09866e-10 -0.00100001)
(-2.11724e-09 2.07092e-09 -0.001)
(-1.9345e-09 2.06467e-09 -0.00100001)
(-1.56612e-09 2.06064e-09 -0.00100001)
(-1.02217e-09 2.06581e-09 -0.00100001)
(-3.52865e-10 2.08014e-09 -0.00100001)
(-2.11719e-09 3.21765e-09 -0.001)
(-1.9415e-09 3.21083e-09 -0.001)
(-1.55948e-09 3.22111e-09 -0.00100001)
(-1.00146e-09 3.24039e-09 -0.00100001)
(-3.4055e-10 3.25019e-09 -0.00100001)
(-2.14192e-09 4.11105e-09 -0.001)
(-1.9311e-09 4.07618e-09 -0.001)
(-1.53651e-09 4.07454e-09 -0.001)
(-9.86686e-10 4.08405e-09 -0.001)
(-3.36784e-10 4.07344e-09 -0.001)
(-2.12152e-09 4.56794e-09 -0.001)
(-1.97781e-09 4.54972e-09 -0.001)
(-1.55148e-09 4.52505e-09 -0.001)
(-9.94435e-10 4.51229e-09 -0.001)
(-3.43164e-10 4.48597e-09 -0.001)
(-2.95664e-09 9.47015e-10 -0.00100001)
(-2.69204e-09 9.5059e-10 -0.00100001)
(-2.15207e-09 9.51587e-10 -0.00100001)
(-1.39264e-09 9.56446e-10 -0.00100001)
(-4.81581e-10 9.70126e-10 -0.00100001)
(-2.96008e-09 2.7623e-09 -0.00100001)
(-2.69278e-09 2.76515e-09 -0.00100001)
(-2.15041e-09 2.76917e-09 -0.00100001)
(-1.37485e-09 2.79359e-09 -0.00100001)
(-4.66949e-10 2.81725e-09 -0.00100001)
(-2.96551e-09 4.33181e-09 -0.00100001)
(-2.69056e-09 4.32101e-09 -0.00100001)
(-2.12785e-09 4.32958e-09 -0.00100001)
(-1.34173e-09 4.36142e-09 -0.00100001)
(-4.53428e-10 4.36782e-09 -0.00100001)
(-2.96341e-09 5.49785e-09 -0.001)
(-2.69509e-09 5.48667e-09 -0.001)
(-2.10994e-09 5.47376e-09 -0.00100001)
(-1.32799e-09 5.48225e-09 -0.00100001)
(-4.52047e-10 5.46403e-09 -0.00100001)
(-2.98988e-09 6.1728e-09 -0.001)
(-2.7149e-09 6.12193e-09 -0.001)
(-2.13211e-09 6.1149e-09 -0.001)
(-1.34055e-09 6.09816e-09 -0.001)
(-4.60875e-10 6.0691e-09 -0.001)
(-4.08294e-09 1.28901e-09 -0.00100001)
(-3.70351e-09 1.29178e-09 -0.00100001)
(-2.93502e-09 1.297e-09 -0.00100001)
(-1.87569e-09 1.31115e-09 -0.00100001)
(-6.41547e-10 1.32476e-09 -0.00100001)
(-4.09659e-09 3.74431e-09 -0.00100001)
(-3.7028e-09 3.75747e-09 -0.00100001)
(-2.92131e-09 3.77218e-09 -0.00100001)
(-1.84888e-09 3.80891e-09 -0.00100001)
(-6.266e-10 3.82392e-09 -0.00100001)
(-4.10799e-09 5.8645e-09 -0.00100001)
(-3.68302e-09 5.87677e-09 -0.00100001)
(-2.8893e-09 5.88906e-09 -0.00100001)
(-1.82006e-09 5.91793e-09 -0.00100001)
(-6.20349e-10 5.91163e-09 -0.00100001)
(-4.10266e-09 7.37271e-09 -0.001)
(-3.67836e-09 7.4539e-09 -0.00100001)
(-2.88008e-09 7.43429e-09 -0.00100001)
(-1.81459e-09 7.43278e-09 -0.00100001)
(-6.21306e-10 7.4123e-09 -0.00100001)
(-4.20787e-09 8.45123e-09 -0.001)
(-3.62144e-09 8.30595e-09 -0.001)
(-2.9102e-09 8.30891e-09 -0.001)
(-1.82726e-09 8.28725e-09 -0.00100001)
(-6.26222e-10 8.26538e-09 -0.00100001)
(-5.59298e-09 1.76812e-09 -0.00100001)
(-5.05291e-09 1.77017e-09 -0.00100001)
(-3.97868e-09 1.78137e-09 -0.00100002)
(-2.52874e-09 1.79842e-09 -0.00100002)
(-8.62567e-10 1.80074e-09 -0.00100002)
(-5.61593e-09 5.13581e-09 -0.00100001)
(-5.04953e-09 5.15683e-09 -0.00100001)
(-3.95809e-09 5.17973e-09 -0.00100001)
(-2.5107e-09 5.20996e-09 -0.00100002)
(-8.58422e-10 5.20328e-09 -0.00100002)
(-5.62849e-09 8.02055e-09 -0.00100001)
(-5.01905e-09 8.06117e-09 -0.00100001)
(-3.93331e-09 8.07786e-09 -0.00100001)
(-2.49986e-09 8.08821e-09 -0.00100001)
(-8.60746e-10 8.0711e-09 -0.00100001)
(-5.64603e-09 1.00978e-08 -0.00100001)
(-4.99238e-09 1.01874e-08 -0.00100001)
(-3.93094e-09 1.01871e-08 -0.00100001)
(-2.50145e-09 1.01819e-08 -0.00100001)
(-8.59696e-10 1.01711e-08 -0.00100001)
(-5.7982e-09 1.1558e-08 -0.001)
(-4.92974e-09 1.13851e-08 -0.001)
(-3.93855e-09 1.13651e-08 -0.00100001)
(-2.49561e-09 1.13418e-08 -0.00100001)
(-8.5153e-10 1.13303e-08 -0.00100001)
(-7.61811e-09 2.43298e-09 -0.00100002)
(-6.85365e-09 2.43773e-09 -0.00100002)
(-5.39214e-09 2.449e-09 -0.00100002)
(-3.43581e-09 2.45813e-09 -0.00100002)
(-1.17685e-09 2.44654e-09 -0.00100002)
(-7.64385e-09 7.09627e-09 -0.00100002)
(-6.85099e-09 7.11067e-09 -0.00100002)
(-5.38218e-09 7.12286e-09 -0.00100002)
(-3.44017e-09 7.12886e-09 -0.00100002)
(-1.18598e-09 7.10219e-09 -0.00100002)
(-7.66247e-09 1.10882e-08 -0.00100001)
(-6.84071e-09 1.11078e-08 -0.00100001)
(-5.38449e-09 1.11056e-08 -0.00100002)
(-3.44921e-09 1.10919e-08 -0.00100002)
(-1.19191e-09 1.10675e-08 -0.00100002)
(-7.71361e-09 1.39657e-08 -0.00100001)
(-6.83375e-09 1.40034e-08 -0.00100001)
(-5.39788e-09 1.40013e-08 -0.00100001)
(-3.45637e-09 1.39963e-08 -0.00100001)
(-1.18871e-09 1.39845e-08 -0.00100001)
(-7.85192e-09 1.5765e-08 -0.001)
(-6.80516e-09 1.56245e-08 -0.00100001)
(-5.39125e-09 1.55768e-08 -0.00100001)
(-3.43821e-09 1.55538e-08 -0.00100001)
(-1.17636e-09 1.55332e-08 -0.00100001)
(-1.03476e-08 3.35907e-09 -0.00100002)
(-9.28545e-09 3.35801e-09 -0.00100003)
(-7.33678e-09 3.35784e-09 -0.00100003)
(-4.70058e-09 3.35259e-09 -0.00100003)
(-1.6177e-09 3.3329e-09 -0.00100003)
(-1.03859e-08 9.81068e-09 -0.00100002)
(-9.30487e-09 9.78834e-09 -0.00100002)
(-7.35652e-09 9.76821e-09 -0.00100003)
(-4.72822e-09 9.74449e-09 -0.00100003)
(-1.63407e-09 9.7069e-09 -0.00100003)
(-1.04307e-08 1.5323e-08 -0.00100002)
(-9.34644e-09 1.52701e-08 -0.00100002)
(-7.395e-09 1.52276e-08 -0.00100002)
(-4.75199e-09 1.51905e-08 -0.00100002)
(-1.63946e-09 1.51548e-08 -0.00100003)
(-1.05116e-08 1.92863e-08 -0.00100001)
(-9.40054e-09 1.92303e-08 -0.00100001)
(-7.43592e-09 1.91909e-08 -0.00100002)
(-4.77102e-09 1.91685e-08 -0.00100002)
(-1.64008e-09 1.91314e-08 -0.00100002)
(-1.06558e-08 2.14884e-08 -0.001)
(-9.44181e-09 2.13686e-08 -0.00100001)
(-7.45623e-09 2.12996e-08 -0.00100001)
(-4.77354e-09 2.12634e-08 -0.00100001)
(-1.63916e-09 2.12084e-08 -0.00100001)
(-1.40697e-08 4.62292e-09 -0.00100003)
(-1.26322e-08 4.60445e-09 -0.00100004)
(-1.00191e-08 4.58814e-09 -0.00100004)
(-6.44001e-09 4.57008e-09 -0.00100004)
(-2.22058e-09 4.55037e-09 -0.00100004)
(-1.41383e-08 1.34748e-08 -0.00100003)
(-1.26919e-08 1.34034e-08 -0.00100003)
(-1.00732e-08 1.33469e-08 -0.00100004)
(-6.48153e-09 1.33005e-08 -0.00100004)
(-2.23578e-09 1.32599e-08 -0.00100004)
(-1.42225e-08 2.10119e-08 -0.00100002)
(-1.27854e-08 2.08874e-08 -0.00100003)
(-1.01417e-08 2.08002e-08 -0.00100003)
(-6.51353e-09 2.07439e-08 -0.00100003)
(-2.23964e-09 2.06906e-08 -0.00100004)
(-1.43352e-08 2.64515e-08 -0.00100002)
(-1.2904e-08 2.63024e-08 -0.00100002)
(-1.02164e-08 2.62046e-08 -0.00100002)
(-6.55015e-09 2.61521e-08 -0.00100003)
(-2.24857e-09 2.6083e-08 -0.00100003)
(-1.44893e-08 2.92653e-08 -0.00100001)
(-1.30323e-08 2.91423e-08 -0.00100001)
(-1.02912e-08 2.9046e-08 -0.00100001)
(-6.58331e-09 2.89832e-08 -0.00100002)
(-2.25762e-09 2.88896e-08 -0.00100002)
(-1.91492e-08 6.31615e-09 -0.00100004)
(-1.72264e-08 6.28357e-09 -0.00100005)
(-1.36743e-08 6.25527e-09 -0.00100005)
(-8.79173e-09 6.23082e-09 -0.00100006)
(-3.02955e-09 6.21496e-09 -0.00100006)
(-1.9253e-08 1.83852e-08 -0.00100004)
(-1.73213e-08 1.82794e-08 -0.00100004)
(-1.37539e-08 1.81949e-08 -0.00100005)
(-8.83715e-09 1.81357e-08 -0.00100005)
(-3.03923e-09 1.80886e-08 -0.00100006)
(-1.9379e-08 2.8652e-08 -0.00100003)
(-1.74512e-08 2.84758e-08 -0.00100004)
(-1.38449e-08 2.83491e-08 -0.00100004)
(-8.87973e-09 2.82732e-08 -0.00100005)
(-3.04721e-09 2.81876e-08 -0.00100005)
(-1.95381e-08 3.60925e-08 -0.00100002)
(-1.76248e-08 3.58689e-08 -0.00100003)
(-1.39561e-08 3.57162e-08 -0.00100003)
(-8.94282e-09 3.56273e-08 -0.00100004)
(-3.06964e-09 3.55132e-08 -0.00100004)
(-1.97157e-08 3.98553e-08 -0.00100001)
(-1.78275e-08 3.97045e-08 -0.00100001)
(-1.40854e-08 3.95663e-08 -0.00100002)
(-9.01211e-09 3.94655e-08 -0.00100002)
(-3.09163e-09 3.93282e-08 -0.00100003)
(-2.60274e-08 8.60424e-09 -0.00100006)
(-2.3441e-08 8.55978e-09 -0.00100007)
(-1.86023e-08 8.52117e-09 -0.00100007)
(-1.19494e-08 8.49288e-09 -0.00100008)
(-4.11193e-09 8.47227e-09 -0.00100008)
(-2.61743e-08 2.50372e-08 -0.00100005)
(-2.35706e-08 2.4894e-08 -0.00100006)
(-1.87058e-08 2.47787e-08 -0.00100007)
(-1.20052e-08 2.47005e-08 -0.00100007)
(-4.1241e-09 2.46238e-08 -0.00100008)
(-2.63569e-08 3.90052e-08 -0.00100004)
(-2.37466e-08 3.87682e-08 -0.00100005)
(-1.88324e-08 3.85922e-08 -0.00100006)
(-1.20793e-08 3.84745e-08 -0.00100006)
(-4.14856e-09 3.83328e-08 -0.00100007)
(-2.65915e-08 4.91383e-08 -0.00100003)
(-2.39844e-08 4.88406e-08 -0.00100004)
(-1.89991e-08 4.86205e-08 -0.00100004)
(-1.21886e-08 4.84669e-08 -0.00100005)
(-4.19056e-09 4.82845e-08 -0.00100005)
(-2.68147e-08 5.42857e-08 -0.00100001)
(-2.42645e-08 5.4076e-08 -0.00100002)
(-1.92046e-08 5.38629e-08 -0.00100003)
(-1.2319e-08 5.36987e-08 -0.00100003)
(-4.23597e-09 5.35008e-08 -0.00100004)
(-3.53259e-08 1.17264e-08 -0.00100008)
(-3.1821e-08 1.16562e-08 -0.00100009)
(-2.52482e-08 1.16003e-08 -0.0010001)
(-1.62111e-08 1.1559e-08 -0.00100011)
(-5.57626e-09 1.15175e-08 -0.00100011)
(-3.55419e-08 3.40992e-08 -0.00100007)
(-3.20103e-08 3.38864e-08 -0.00100008)
(-2.53952e-08 3.37161e-08 -0.00100009)
(-1.63033e-08 3.35929e-08 -0.0010001)
(-5.60621e-09 3.34634e-08 -0.0010001)
(-3.58116e-08 5.30875e-08 -0.00100006)
(-3.22682e-08 5.27515e-08 -0.00100007)
(-2.55915e-08 5.24884e-08 -0.00100008)
(-1.64298e-08 5.22978e-08 -0.00100009)
(-5.65111e-09 5.20928e-08 -0.00100009)
(-3.61668e-08 6.68758e-08 -0.00100004)
(-3.26105e-08 6.64559e-08 -0.00100005)
(-2.58482e-08 6.61224e-08 -0.00100006)
(-1.65955e-08 6.5882e-08 -0.00100007)
(-5.70878e-09 6.56366e-08 -0.00100007)
(-3.65083e-08 7.39692e-08 -0.00100002)
(-3.30216e-08 7.36338e-08 -0.00100003)
(-2.61634e-08 7.32933e-08 -0.00100004)
(-1.67845e-08 7.30405e-08 -0.00100004)
(-5.76721e-09 7.27723e-08 -0.00100005)
(-4.793e-08 1.59709e-08 -0.00100011)
(-4.31718e-08 1.58643e-08 -0.00100012)
(-3.42466e-08 1.57782e-08 -0.00100014)
(-2.19936e-08 1.57101e-08 -0.00100015)
(-7.56953e-09 1.56444e-08 -0.00100015)
(-4.82407e-08 4.64182e-08 -0.0010001)
(-4.34507e-08 4.61079e-08 -0.00100011)
(-3.44686e-08 4.58476e-08 -0.00100013)
(-2.21401e-08 4.56564e-08 -0.00100014)
(-7.61957e-09 4.54729e-08 -0.00100014)
(-4.86372e-08 7.226e-08 -0.00100008)
(-4.38294e-08 7.17723e-08 -0.0010001)
(-3.47658e-08 7.13731e-08 -0.00100011)
(-2.23219e-08 7.10917e-08 -0.00100012)
(-7.6786e-09 7.08192e-08 -0.00100012)
(-4.91824e-08 9.10722e-08 -0.00100005)
(-4.43389e-08 9.04401e-08 -0.00100007)
(-3.51483e-08 8.99394e-08 -0.00100008)
(-2.25533e-08 8.95971e-08 -0.00100009)
(-7.75257e-09 8.92687e-08 -0.0010001)
(-4.9749e-08 1.00834e-07 -0.00100002)
(-4.49622e-08 1.00266e-07 -0.00100004)
(-3.56062e-08 9.97408e-08 -0.00100005)
(-2.28142e-08 9.93658e-08 -0.00100006)
(-7.83083e-09 9.89884e-08 -0.00100007)
(-6.5004e-08 2.17323e-08 -0.00100015)
(-5.85502e-08 2.15841e-08 -0.00100017)
(-4.64296e-08 2.14526e-08 -0.00100019)
(-2.98191e-08 2.13535e-08 -0.0010002)
(-1.02642e-08 2.12687e-08 -0.0010002)
(-6.54391e-08 6.31706e-08 -0.00100014)
(-5.8947e-08 6.27306e-08 -0.00100016)
(-4.67523e-08 6.23441e-08 -0.00100017)
(-3.00202e-08 6.20711e-08 -0.00100019)
(-1.03276e-08 6.18231e-08 -0.00100019)
(-6.60291e-08 9.83786e-08 -0.00100011)
(-5.94951e-08 9.76699e-08 -0.00100013)
(-4.7181e-08 9.70811e-08 -0.00100015)
(-3.02767e-08 9.66703e-08 -0.00100016)
(-1.04108e-08 9.62796e-08 -0.00100017)
(-6.68629e-08 1.24035e-07 -0.00100007)
(-6.02464e-08 1.23118e-07 -0.0010001)
(-4.77505e-08 1.22375e-07 -0.00100011)
(-3.063e-08 1.21852e-07 -0.00100012)
(-1.05283e-08 1.2135e-07 -0.00100013)
(-6.77767e-08 1.37473e-07 -0.00100003)
(-6.11555e-08 1.36537e-07 -0.00100005)
(-4.84428e-08 1.35726e-07 -0.00100007)
(-3.10586e-08 1.35137e-07 -0.00100008)
(-1.06733e-08 1.34565e-07 -0.00100009)
(-8.80752e-08 2.9581e-08 -0.0010002)
(-7.93212e-08 2.93672e-08 -0.00100023)
(-6.28693e-08 2.91749e-08 -0.00100025)
(-4.03551e-08 2.90396e-08 -0.00100027)
(-1.38837e-08 2.89206e-08 -0.00100028)
(-8.86968e-08 8.60024e-08 -0.00100019)
(-7.98863e-08 8.5357e-08 -0.00100021)
(-6.3322e-08 8.47956e-08 -0.00100024)
(-4.06326e-08 8.44001e-08 -0.00100025)
(-1.39736e-08 8.40361e-08 -0.00100026)
(-8.95849e-08 1.33962e-07 -0.00100015)
(-8.06887e-08 1.32927e-07 -0.00100018)
(-6.39511e-08 1.32056e-07 -0.0010002)
(-4.10282e-08 1.31424e-07 -0.00100022)
(-1.41097e-08 1.30836e-07 -0.00100023)
(-9.08433e-08 1.68893e-07 -0.0010001)
(-8.17944e-08 1.67586e-07 -0.00100013)
(-6.4823e-08 1.66464e-07 -0.00100015)
(-4.15921e-08 1.65637e-07 -0.00100017)
(-1.43027e-08 1.64879e-07 -0.00100018)
(-9.2283e-08 1.87394e-07 -0.00100004)
(-8.31173e-08 1.85918e-07 -0.00100007)
(-6.58956e-08 1.84635e-07 -0.0010001)
(-4.2283e-08 1.83697e-07 -0.00100011)
(-1.45411e-08 1.82847e-07 -0.00100012)
(-1.19202e-07 4.02832e-08 -0.00100028)
(-1.07304e-07 3.99592e-08 -0.00100031)
(-8.49916e-08 3.96799e-08 -0.00100034)
(-5.45222e-08 3.94804e-08 -0.00100037)
(-1.87524e-08 3.92965e-08 -0.00100038)
(-1.20106e-07 1.17122e-07 -0.00100025)
(-1.08123e-07 1.16152e-07 -0.00100029)
(-8.56402e-08 1.15325e-07 -0.00100032)
(-5.49369e-08 1.14722e-07 -0.00100034)
(-1.88964e-08 1.1418e-07 -0.00100035)
(-1.21431e-07 1.82455e-07 -0.00100021)
(-1.09319e-07 1.80913e-07 -0.00100024)
(-8.65903e-08 1.796e-07 -0.00100027)
(-5.55488e-08 1.78625e-07 -0.0010003)
(-1.91067e-08 1.77768e-07 -0.00100031)
(-1.23307e-07 2.30068e-07 -0.00100014)
(-1.10982e-07 2.28105e-07 -0.00100018)
(-8.79257e-08 2.26395e-07 -0.00100021)
(-5.64136e-08 2.25131e-07 -0.00100023)
(-1.94011e-08 2.24035e-07 -0.00100024)
(-1.2555e-07 2.55389e-07 -0.00100006)
(-1.12992e-07 2.53122e-07 -0.0010001)
(-8.95578e-08 2.51121e-07 -0.00100013)
(-5.74592e-08 2.49666e-07 -0.00100016)
(-1.97576e-08 2.48428e-07 -0.00100017)
(-1.61153e-07 5.48556e-08 -0.00100038)
(-1.44944e-07 5.43664e-08 -0.00100043)
(-1.14727e-07 5.39492e-08 -0.00100047)
(-7.357e-08 5.36416e-08 -0.0010005)
(-2.53037e-08 5.33729e-08 -0.00100051)
(-1.62471e-07 1.59501e-07 -0.00100035)
(-1.46143e-07 1.58047e-07 -0.0010004)
(-1.15682e-07 1.56804e-07 -0.00100044)
(-7.41884e-08 1.55889e-07 -0.00100047)
(-2.55179e-08 1.55108e-07 -0.00100048)
(-1.64434e-07 2.48548e-07 -0.00100028)
(-1.47937e-07 2.4621e-07 -0.00100033)
(-1.17114e-07 2.44216e-07 -0.00100037)
(-7.51043e-08 2.42744e-07 -0.0010004)
(-2.5828e-08 2.41503e-07 -0.00100042)
(-1.67231e-07 3.1355e-07 -0.00100019)
(-1.5048e-07 3.10481e-07 -0.00100024)
(-1.19145e-07 3.07865e-07 -0.00100028)
(-7.6418e-08 3.05937e-07 -0.00100031)
(-2.62787e-08 3.04323e-07 -0.00100033)
(-1.70641e-07 3.47962e-07 -0.00100008)
(-1.53622e-07 3.44512e-07 -0.00100014)
(-1.21649e-07 3.4145e-07 -0.00100018)
(-7.80339e-08 3.3921e-07 -0.00100021)
(-2.6836e-08 3.37373e-07 -0.00100023)
(-2.17638e-07 7.46883e-08 -0.00100052)
(-1.95527e-07 7.39588e-08 -0.00100058)
(-1.54643e-07 7.33297e-08 -0.00100064)
(-9.91108e-08 7.28686e-08 -0.00100068)
(-3.40779e-08 7.24905e-08 -0.0010007)
(-2.19555e-07 2.17192e-07 -0.00100047)
(-1.97282e-07 2.15022e-07 -0.00100054)
(-1.56045e-07 2.13156e-07 -0.00100059)
(-1.00006e-07 2.11789e-07 -0.00100063)
(-3.43815e-08 2.10663e-07 -0.00100065)
(-2.22477e-07 3.38535e-07 -0.00100038)
(-1.99963e-07 3.34997e-07 -0.00100045)
(-1.58187e-07 3.31982e-07 -0.00100051)
(-1.01383e-07 3.29756e-07 -0.00100055)
(-3.48539e-08 3.27934e-07 -0.00100057)
(-2.2668e-07 4.27207e-07 -0.00100026)
(-2.03842e-07 4.22473e-07 -0.00100033)
(-1.61281e-07 4.1846e-07 -0.00100039)
(-1.03397e-07 4.15487e-07 -0.00100043)
(-3.55512e-08 4.13097e-07 -0.00100045)
(-2.31827e-07 4.74009e-07 -0.00100012)
(-2.08709e-07 4.68701e-07 -0.00100019)
(-1.65161e-07 4.64014e-07 -0.00100025)
(-1.05913e-07 4.60558e-07 -0.00100029)
(-3.64192e-08 4.57823e-07 -0.00100031)
(-2.93603e-07 1.01674e-07 -0.00100071)
(-2.63389e-07 1.006e-07 -0.00100079)
(-2.08061e-07 9.96694e-08 -0.00100087)
(-1.33212e-07 9.89894e-08 -0.00100092)
(-4.57727e-08 9.8444e-08 -0.00100094)
(-2.9637e-07 2.95677e-07 -0.00100065)
(-2.65931e-07 2.9247e-07 -0.00100073)
(-2.10093e-07 2.89698e-07 -0.00100081)
(-1.34512e-07 2.87656e-07 -0.00100086)
(-4.62159e-08 2.86012e-07 -0.00100088)
(-3.007e-07 4.60897e-07 -0.00100052)
(-2.69909e-07 4.55617e-07 -0.00100061)
(-2.13295e-07 4.5108e-07 -0.00100069)
(-1.36596e-07 4.47711e-07 -0.00100074)
(-4.69405e-08 4.4504e-07 -0.00100077)
(-3.07021e-07 5.81695e-07 -0.00100036)
(-2.75757e-07 5.74559e-07 -0.00100045)
(-2.17993e-07 5.68429e-07 -0.00100053)
(-1.39657e-07 5.63877e-07 -0.00100058)
(-4.79991e-08 5.60374e-07 -0.00100061)
(-3.14891e-07 6.45709e-07 -0.00100016)
(-2.83175e-07 6.37425e-07 -0.00100025)
(-2.2396e-07 6.30197e-07 -0.00100033)
(-1.43517e-07 6.24859e-07 -0.00100039)
(-4.93221e-08 6.20809e-07 -0.00100042)
(-3.95581e-07 1.38367e-07 -0.00100097)
(-3.54143e-07 1.36825e-07 -0.00100108)
(-2.79255e-07 1.35476e-07 -0.00100118)
(-1.78552e-07 1.34476e-07 -0.00100125)
(-6.13036e-08 1.33682e-07 -0.00100128)
(-3.99494e-07 4.02369e-07 -0.00100088)
(-3.5776e-07 3.97714e-07 -0.001001)
(-2.82173e-07 3.93648e-07 -0.00100109)
(-1.80443e-07 3.90619e-07 -0.00100116)
(-6.19569e-08 3.88233e-07 -0.0010012)
(-4.05798e-07 6.27189e-07 -0.00100072)
(-3.63596e-07 6.19418e-07 -0.00100083)
(-2.86917e-07 6.12645e-07 -0.00100093)
(-1.83552e-07 6.07596e-07 -0.00100101)
(-6.30396e-08 6.03715e-07 -0.00100104)
(-4.15217e-07 7.91675e-07 -0.00100049)
(-3.72316e-07 7.80992e-07 -0.00100061)
(-2.93986e-07 7.71691e-07 -0.00100071)
(-1.88156e-07 7.64793e-07 -0.00100079)
(-6.46287e-08 7.59658e-07 -0.00100083)
(-4.27336e-07 8.79484e-07 -0.00100022)
(-3.83579e-07 8.66549e-07 -0.00100035)
(-3.03093e-07 8.55362e-07 -0.00100046)
(-1.94046e-07 8.47098e-07 -0.00100053)
(-6.66491e-08 8.4107e-07 -0.00100057)
(-5.32201e-07 1.88268e-07 -0.00100132)
(-4.75076e-07 1.86117e-07 -0.00100147)
(-3.73729e-07 1.842e-07 -0.0010016)
(-2.38546e-07 1.82757e-07 -0.00100169)
(-8.18241e-08 1.8162e-07 -0.00100173)
(-5.37591e-07 5.47416e-07 -0.0010012)
(-4.80122e-07 5.40808e-07 -0.00100136)
(-3.77854e-07 5.34948e-07 -0.00100149)
(-2.41253e-07 5.30535e-07 -0.00100158)
(-8.27673e-08 5.27118e-07 -0.00100162)
(-5.46549e-07 8.53194e-07 -0.00100098)
(-4.8853e-07 8.41899e-07 -0.00100113)
(-3.84764e-07 8.31922e-07 -0.00100127)
(-2.45804e-07 8.24446e-07 -0.00100136)
(-8.43532e-08 8.18835e-07 -0.00100141)
(-5.60383e-07 1.07705e-06 -0.00100067)
(-5.01409e-07 1.0611e-06 -0.00100083)
(-3.95296e-07 1.0471e-06 -0.00100097)
(-2.52685e-07 1.03668e-06 -0.00100107)
(-8.67325e-08 1.02912e-06 -0.00100112)
(-5.78878e-07 1.19737e-06 -0.0010003)
(-5.18481e-07 1.17738e-06 -0.00100047)
(-4.09153e-07 1.1601e-06 -0.00100062)
(-2.61686e-07 1.14728e-06 -0.00100072)
(-8.98361e-08 1.13823e-06 -0.00100078)
(-7.14947e-07 2.56221e-07 -0.0010018)
(-6.35704e-07 2.5333e-07 -0.001002)
(-4.985e-07 2.50701e-07 -0.00100217)
(-3.17433e-07 2.48682e-07 -0.00100229)
(-1.08739e-07 2.47084e-07 -0.00100235)
(-7.22107e-07 7.44789e-07 -0.00100164)
(-6.42539e-07 7.35704e-07 -0.00100184)
(-5.04176e-07 7.27491e-07 -0.00100202)
(-3.21211e-07 7.21208e-07 -0.00100214)
(-1.10068e-07 7.16374e-07 -0.0010022)
(-7.34422e-07 1.16044e-06 -0.00100133)
(-6.54329e-07 1.14433e-06 -0.00100154)
(-5.14017e-07 1.12989e-06 -0.00100172)
(-3.27759e-07 1.11894e-06 -0.00100184)
(-1.12358e-07 1.11084e-06 -0.0010019)
(-7.54354e-07 1.46475e-06 -0.00100091)
(-6.73114e-07 1.44113e-06 -0.00100113)
(-5.29554e-07 1.42019e-06 -0.00100131)
(-3.38005e-07 1.40445e-06 -0.00100144)
(-1.15923e-07 1.39325e-06 -0.00100151)
(-7.82149e-07 1.62918e-06 -0.00100042)
(-6.98891e-07 1.59859e-06 -0.00100065)
(-5.50657e-07 1.57192e-06 -0.00100084)
(-3.5185e-07 1.55198e-06 -0.00100098)
(-1.20734e-07 1.53826e-06 -0.00100105)
(-9.59087e-07 3.48995e-07 -0.00100245)
(-8.4829e-07 3.45388e-07 -0.00100272)
(-6.62326e-07 3.41979e-07 -0.00100295)
(-4.20319e-07 3.39269e-07 -0.0010031)
(-1.43684e-07 3.37075e-07 -0.00100318)
(-9.67986e-07 1.01389e-06 -0.00100224)
(-8.57066e-07 1.00206e-06 -0.00100251)
(-6.69815e-07 9.91013e-07 -0.00100273)
(-4.25419e-07 9.82332e-07 -0.00100289)
(-1.45501e-07 9.75581e-07 -0.00100297)
(-9.84065e-07 1.57844e-06 -0.00100182)
(-8.72947e-07 1.55611e-06 -0.0010021)
(-6.83415e-07 1.53566e-06 -0.00100232)
(-4.34649e-07 1.51984e-06 -0.00100249)
(-1.48768e-07 1.50817e-06 -0.00100256)
(-1.01206e-06 1.99126e-06 -0.00100125)
(-8.99883e-07 1.95662e-06 -0.00100154)
(-7.06067e-07 1.92547e-06 -0.00100177)
(-4.49838e-07 1.90172e-06 -0.00100194)
(-1.54119e-07 1.88503e-06 -0.00100203)
(-1.05336e-06 2.21519e-06 -0.00100058)
(-9.38734e-07 2.16854e-06 -0.00100088)
(-7.3826e-07 2.12731e-06 -0.00100113)
(-4.71225e-07 2.09619e-06 -0.00100132)
(-1.61619e-07 2.0752e-06 -0.00100141)
(-1.28481e-06 4.76312e-07 -0.00100336)
(-1.12841e-06 4.72424e-07 -0.00100371)
(-8.75958e-07 4.68435e-07 -0.001004)
(-5.53041e-07 4.65054e-07 -0.0010042)
(-1.88337e-07 4.62118e-07 -0.0010043)
(-1.29451e-06 1.38218e-06 -0.00100306)
(-1.13863e-06 1.36818e-06 -0.00100341)
(-8.85144e-07 1.35432e-06 -0.0010037)
(-5.59581e-07 1.3429e-06 -0.00100391)
(-1.9074e-07 1.33359e-06 -0.001004)
(-1.31364e-06 2.14791e-06 -0.00100248)
(-1.15864e-06 2.11834e-06 -0.00100284)
(-9.03043e-07 2.09031e-06 -0.00100314)
(-5.72225e-07 2.06795e-06 -0.00100334)
(-1.95355e-07 2.05111e-06 -0.00100344)
(-1.35156e-06 2.70566e-06 -0.00100171)
(-1.19627e-06 2.65559e-06 -0.00100208)
(-9.35505e-07 2.6097e-06 -0.00100239)
(-5.94586e-07 2.57401e-06 -0.0010026)
(-2.03403e-07 2.54897e-06 -0.00100271)
(-1.4124e-06 3.00911e-06 -0.0010008)
(-1.25459e-06 2.9379e-06 -0.0010012)
(-9.84547e-07 2.87407e-06 -0.00100153)
(-6.27713e-07 2.8252e-06 -0.00100176)
(-2.15181e-07 2.7927e-06 -0.00100188)
(-1.71883e-06 6.52581e-07 -0.0010046)
(-1.49594e-06 6.49877e-07 -0.00100507)
(-1.15259e-06 6.46281e-07 -0.00100545)
(-7.21609e-07 6.42697e-07 -0.0010057)
(-2.43759e-07 6.38841e-07 -0.00100581)
(-1.72619e-06 1.88955e-06 -0.00100418)
(-1.50533e-06 1.87634e-06 -0.00100465)
(-1.16216e-06 1.86134e-06 -0.00100502)
(-7.29271e-07 1.8477e-06 -0.00100528)
(-2.46844e-07 1.83488e-06 -0.00100539)
(-1.74462e-06 2.92586e-06 -0.00100339)
(-1.52729e-06 2.88986e-06 -0.00100385)
(-1.18362e-06 2.85359e-06 -0.00100423)
(-7.45846e-07 2.82308e-06 -0.00100449)
(-2.53369e-07 2.79854e-06 -0.0010046)
(-1.79298e-06 3.67381e-06 -0.00100233)
(-1.57764e-06 3.6032e-06 -0.00100281)
(-1.2289e-06 3.53663e-06 -0.00100319)
(-7.78588e-07 3.48325e-06 -0.00100347)
(-2.6566e-07 3.44502e-06 -0.0010036)
(-1.88173e-06 4.08117e-06 -0.00100111)
(-1.66447e-06 3.97243e-06 -0.00100162)
(-1.30347e-06 3.87331e-06 -0.00100204)
(-8.30322e-07 3.79596e-06 -0.00100235)
(-2.84486e-07 3.74456e-06 -0.0010025)
(-2.29598e-06 9.00143e-07 -0.00100633)
(-1.97662e-06 9.02554e-07 -0.00100695)
(-1.50928e-06 9.02344e-07 -0.00100743)
(-9.30592e-07 9.00286e-07 -0.00100777)
(-3.07955e-07 8.95121e-07 -0.00100788)
(-2.29314e-06 2.59661e-06 -0.00100573)
(-1.97845e-06 2.5931e-06 -0.00100633)
(-1.51464e-06 2.58302e-06 -0.00100681)
(-9.37952e-07 2.57047e-06 -0.00100713)
(-3.11967e-07 2.55215e-06 -0.00100725)
(-2.29999e-06 3.9944e-06 -0.00100462)
(-1.99433e-06 3.95812e-06 -0.0010052)
(-1.53502e-06 3.91611e-06 -0.00100567)
(-9.58223e-07 3.87723e-06 -0.00100599)
(-3.21731e-07 3.83974e-06 -0.00100611)
(-2.35508e-06 4.98429e-06 -0.00100318)
(-2.0568e-06 4.8882e-06 -0.00100376)
(-1.59547e-06 4.79377e-06 -0.00100424)
(-1.0064e-06 4.71471e-06 -0.00100457)
(-3.41544e-07 4.65419e-06 -0.00100473)
(-2.48311e-06 5.52057e-06 -0.00100154)
(-2.18484e-06 5.35442e-06 -0.00100218)
(-1.70838e-06 5.19959e-06 -0.0010027)
(-1.08809e-06 5.07576e-06 -0.00100308)
(-3.72537e-07 4.99174e-06 -0.00100327)
(-3.05913e-06 1.25528e-06 -0.00100874)
(-2.60552e-06 1.27263e-06 -0.00100957)
(-1.9731e-06 1.28375e-06 -0.0010102)