/*--------------------------------*- C++ -*----------------------------------*\
| =========                 |                                                 |
| \\      /  F ield         | OpenFOAM: The Open Source CFD Toolbox           |
|  \\    /   O peration     | Version:  5.x                                   |
|   \\  /    A nd           | Web:      www.OpenFOAM.org                      |
|    \\/     M anipulation  |                                                 |
\*---------------------------------------------------------------------------*/
FoamFile
{
    version     2.0;
    format      ascii;
    class       volVectorField;
    location    "80000";
    object      stored_U;
}
// * * * * * * * * * * * * * * * * * * * * * * * * * * * * * * * * * * * * * //

dimensions      [0 1 -1 0 0 0 0];

internalField   nonuniform List<vector> 
2250
(
(-1.77837e-11 2.85411e-11 -0.001)
(-2.34432e-11 3.34291e-11 -0.001)
(-2.08828e-11 3.95194e-11 -0.001)
(-1.20643e-11 4.45921e-11 -0.001)
(-4.52765e-11 3.99912e-11 -0.001)
(-1.29707e-11 9.96799e-11 -0.001)
(-1.25318e-11 1.06082e-10 -0.001)
(-9.70474e-12 1.13718e-10 -0.001)
(-1.17505e-11 1.17755e-10 -0.001)
(-4.64745e-11 1.09017e-10 -0.001)
(-1.15593e-11 1.73536e-10 -0.001)
(-9.62467e-12 1.77748e-10 -0.001)
(-9.25326e-12 1.81423e-10 -0.001)
(-1.69142e-11 1.79238e-10 -0.001)
(-4.78015e-11 1.75021e-10 -0.001)
(-9.07404e-12 2.25554e-10 -0.001)
(-5.00618e-12 2.36575e-10 -0.001)
(-8.24402e-12 2.42802e-10 -0.001)
(-1.81708e-11 2.43669e-10 -0.001)
(-3.25727e-11 2.39726e-10 -0.001)
(-1.13133e-12 2.5197e-10 -0.001)
(7.04224e-12 2.62478e-10 -0.001)
(-2.19177e-12 2.64413e-10 -0.001)
(-2.00011e-11 2.6905e-10 -0.001)
(-3.75166e-11 2.54942e-10 -0.001)
(-3.81419e-11 8.59562e-11 -0.001)
(-5.28862e-11 9.79147e-11 -0.001)
(-5.66852e-11 1.10128e-10 -0.001)
(-6.3675e-11 1.16481e-10 -0.001)
(-1.45839e-10 1.00118e-10 -0.001)
(-2.6384e-11 2.80835e-10 -0.001)
(-2.89117e-11 2.968e-10 -0.001)
(-3.8166e-11 3.12551e-10 -0.001)
(-7.41777e-11 3.18481e-10 -0.001)
(-1.55489e-10 3.02474e-10 -0.001)
(-2.26626e-11 4.70004e-10 -0.001)
(-2.17403e-11 4.79764e-10 -0.001)
(-3.51616e-11 4.90298e-10 -0.001)
(-7.41678e-11 4.9499e-10 -0.001)
(-1.45073e-10 5.07249e-10 -0.001)
(-1.74682e-11 6.01631e-10 -0.001)
(-9.54045e-12 6.24102e-10 -0.001)
(-2.30163e-11 6.43051e-10 -0.001)
(-5.72679e-11 6.59602e-10 -0.001)
(-8.27904e-11 6.86793e-10 -0.001)
(-1.56851e-12 6.73128e-10 -0.001)
(1.8328e-11 6.93895e-10 -0.001)
(2.60094e-13 7.04327e-10 -0.001)
(-3.04266e-11 7.35736e-10 -0.001)
(-2.69398e-11 7.62976e-10 -0.001)
(-4.54857e-11 1.69102e-10 -0.001)
(-9.23398e-11 1.80028e-10 -0.001)
(-1.4851e-10 1.88603e-10 -0.001)
(-2.21914e-10 1.89964e-10 -0.001)
(-3.2739e-10 1.73647e-10 -0.001)
(-3.49267e-11 5.04472e-10 -0.001)
(-7.34842e-11 5.19273e-10 -0.001)
(-1.39108e-10 5.34065e-10 -0.001)
(-2.37793e-10 5.45554e-10 -0.001)
(-3.39465e-10 5.40193e-10 -0.001)
(-3.15759e-11 7.98393e-10 -0.001)
(-6.39512e-11 8.09751e-10 -0.001)
(-1.22753e-10 8.3137e-10 -0.001)
(-2.16572e-10 8.63958e-10 -0.001)
(-3.12867e-10 9.0016e-10 -0.001)
(-2.49599e-11 1.00876e-09 -0.001)
(-4.20504e-11 1.03498e-09 -0.001)
(-8.50461e-11 1.06936e-09 -0.001)
(-1.69108e-10 1.10889e-09 -0.001)
(-2.20344e-10 1.16798e-09 -0.001)
(-7.30241e-12 1.13078e-09 -0.001)
(-5.37006e-12 1.15172e-09 -0.001)
(-4.90291e-11 1.16527e-09 -0.001)
(-1.17983e-10 1.23213e-09 -0.001)
(-2.28586e-11 1.36896e-09 -0.001)
(-5.56281e-11 2.73965e-10 -0.001)
(-1.74395e-10 2.76009e-10 -0.001)
(-3.23246e-10 2.78027e-10 -0.001)
(-4.64132e-10 2.75268e-10 -0.001)
(-5.67493e-10 2.67934e-10 -0.001)
(-5.41735e-11 7.73081e-10 -0.001)
(-1.71361e-10 7.75819e-10 -0.001)
(-3.2488e-10 7.87941e-10 -0.001)
(-4.75553e-10 8.01357e-10 -0.001)
(-5.72226e-10 8.14607e-10 -0.001)
(-5.41886e-11 1.18089e-09 -0.001)
(-1.61349e-10 1.18893e-09 -0.001)
(-2.98599e-10 1.22164e-09 -0.001)
(-4.38635e-10 1.2679e-09 -0.001)
(-5.37086e-10 1.31291e-09 -0.001)
(-4.81114e-11 1.48807e-09 -0.001)
(-1.32837e-10 1.51169e-09 -0.001)
(-2.46105e-10 1.55949e-09 -0.001)
(-3.84324e-10 1.61299e-09 -0.001)
(-4.40589e-10 1.62298e-09 -0.001)
(-3.30729e-11 1.66548e-09 -0.000999999)
(-9.26765e-11 1.68158e-09 -0.000999999)
(-1.97461e-10 1.69313e-09 -0.001)
(-3.75093e-10 1.76374e-09 -0.001)
(-2.21956e-10 1.92261e-09 -0.001)
(-8.59528e-11 3.98686e-10 -0.001)
(-3.08602e-10 3.90345e-10 -0.001)
(-5.63652e-10 3.87159e-10 -0.001)
(-7.56334e-10 3.82151e-10 -0.001)
(-8.4749e-10 3.78496e-10 -0.001)
(-9.51237e-11 1.10391e-09 -0.001)
(-3.21589e-10 1.09467e-09 -0.001)
(-5.73063e-10 1.10238e-09 -0.001)
(-7.66564e-10 1.11222e-09 -0.001)
(-8.50365e-10 1.1255e-09 -0.001)
(-9.70779e-11 1.66976e-09 -0.001)
(-3.1277e-10 1.6768e-09 -0.001)
(-5.47381e-10 1.70966e-09 -0.001)
(-7.34737e-10 1.74795e-09 -0.001)
(-8.27188e-10 1.77671e-09 -0.001)
(-9.09432e-11 2.11729e-09 -0.001)
(-2.84857e-10 2.1356e-09 -0.001)
(-5.02183e-10 2.17862e-09 -0.001)
(-6.99597e-10 2.2099e-09 -0.001)
(-7.64216e-10 2.17229e-09 -0.001)
(-8.22415e-11 2.35385e-09 -0.000999999)
(-2.55244e-10 2.36482e-09 -0.000999999)
(-4.73273e-10 2.37206e-09 -0.001)
(-7.41112e-10 2.41341e-09 -0.001)
(-6.21381e-10 2.50616e-09 -0.001)
(-1.45702e-10 5.46092e-10 -0.001)
(-4.94218e-10 5.33138e-10 -0.001)
(-8.4966e-10 5.27712e-10 -0.001)
(-1.09083e-09 5.23349e-10 -0.001)
(-1.17836e-09 5.20663e-10 -0.001)
(-1.59847e-10 1.52543e-09 -0.001)
(-5.14605e-10 1.51378e-09 -0.001)
(-8.61062e-10 1.51787e-09 -0.001)
(-1.09988e-09 1.52451e-09 -0.001)
(-1.18198e-09 1.53184e-09 -0.001)
(-1.60162e-10 2.32356e-09 -0.001)
(-5.05563e-10 2.33528e-09 -0.001)
(-8.40731e-10 2.36402e-09 -0.001)
(-1.07893e-09 2.39056e-09 -0.001)
(-1.17426e-09 2.4091e-09 -0.001)
(-1.52284e-10 2.9621e-09 -0.001)
(-4.7864e-10 2.97876e-09 -0.001)
(-8.06167e-10 3.01364e-09 -0.001)
(-1.05494e-09 3.02748e-09 -0.001)
(-1.15878e-09 3e-09 -0.001)
(-1.48524e-10 3.27295e-09 -0.000999999)
(-4.5947e-10 3.28376e-09 -0.000999999)
(-7.92365e-10 3.29265e-09 -0.001)
(-1.09259e-09 3.30609e-09 -0.001)
(-1.10349e-09 3.31935e-09 -0.001)
(-2.32087e-10 7.32067e-10 -0.001)
(-7.26258e-10 7.22282e-10 -0.001)
(-1.18131e-09 7.18321e-10 -0.001)
(-1.48744e-09 7.17443e-10 -0.001)
(-1.59193e-09 7.20788e-10 -0.001)
(-2.43541e-10 2.08333e-09 -0.001)
(-7.42713e-10 2.07832e-09 -0.001)
(-1.18834e-09 2.08387e-09 -0.001)
(-1.48764e-09 2.09323e-09 -0.001)
(-1.59228e-09 2.10696e-09 -0.001)
(-2.4115e-10 3.20608e-09 -0.001)
(-7.3102e-10 3.22397e-09 -0.001)
(-1.16889e-09 3.25247e-09 -0.001)
(-1.4672e-09 3.27824e-09 -0.001)
(-1.58851e-09 3.30501e-09 -0.001)
(-2.31449e-10 4.07644e-09 -0.001)
(-7.02544e-10 4.09821e-09 -0.001)
(-1.1346e-09 4.13533e-09 -0.001)
(-1.43529e-09 4.15745e-09 -0.001)
(-1.60716e-09 4.15998e-09 -0.001)
(-2.26418e-10 4.49873e-09 -0.000999999)
(-6.79706e-10 4.51711e-09 -0.000999999)
(-1.11015e-09 4.53721e-09 -0.001)
(-1.44257e-09 4.53334e-09 -0.001)
(-1.61738e-09 4.48807e-09 -0.001)
(-3.38418e-10 9.84941e-10 -0.001)
(-1.00696e-09 9.81897e-10 -0.001)
(-1.5866e-09 9.80946e-10 -0.00100001)
(-1.98769e-09 9.84216e-10 -0.00100001)
(-2.13114e-09 9.96983e-10 -0.00100001)
(-3.43754e-10 2.83959e-09 -0.001)
(-1.01459e-09 2.84347e-09 -0.001)
(-1.58722e-09 2.85297e-09 -0.001)
(-1.97512e-09 2.86881e-09 -0.001)
(-2.12472e-09 2.89961e-09 -0.00100001)
(-3.40161e-10 4.39512e-09 -0.001)
(-1.00084e-09 4.41565e-09 -0.001)
(-1.56462e-09 4.44585e-09 -0.001)
(-1.94481e-09 4.47744e-09 -0.001)
(-2.11643e-09 4.51535e-09 -0.001)
(-3.31124e-10 5.55122e-09 -0.001)
(-9.72375e-10 5.58181e-09 -0.001)
(-1.52618e-09 5.62855e-09 -0.001)
(-1.9059e-09 5.6743e-09 -0.001)
(-2.14678e-09 5.68379e-09 -0.001)
(-3.19356e-10 6.1441e-09 -0.000999999)
(-9.34008e-10 6.17275e-09 -0.000999999)
(-1.47282e-09 6.20417e-09 -0.001)
(-1.88962e-09 6.19498e-09 -0.001)
(-2.20009e-09 6.12851e-09 -0.001)
(-4.62645e-10 1.33911e-09 -0.00100001)
(-1.35629e-09 1.34012e-09 -0.00100001)
(-2.11749e-09 1.3395e-09 -0.00100001)
(-2.64737e-09 1.34459e-09 -0.00100001)
(-2.84624e-09 1.36447e-09 -0.00100001)
(-4.64754e-10 3.87259e-09 -0.00100001)
(-1.36082e-09 3.87948e-09 -0.00100001)
(-2.11698e-09 3.89001e-09 -0.00100001)
(-2.62697e-09 3.9113e-09 -0.00100001)
(-2.83348e-09 3.95713e-09 -0.00100001)
(-4.6343e-10 6.00114e-09 -0.001)
(-1.34875e-09 6.01925e-09 -0.001)
(-2.09019e-09 6.0504e-09 -0.001)
(-2.58524e-09 6.08702e-09 -0.00100001)
(-2.82028e-09 6.133e-09 -0.00100001)
(-4.5743e-10 7.55141e-09 -0.001)
(-1.32318e-09 7.58882e-09 -0.001)
(-2.05022e-09 7.64365e-09 -0.001)
(-2.54475e-09 7.70868e-09 -0.001)
(-2.84061e-09 7.76803e-09 -0.001)
(-4.39618e-10 8.3853e-09 -0.000999999)
(-1.27102e-09 8.42313e-09 -0.000999999)
(-1.97127e-09 8.46171e-09 -0.001)
(-2.46089e-09 8.4707e-09 -0.001)
(-2.94021e-09 8.3912e-09 -0.001)
(-6.15511e-10 1.82992e-09 -0.00100001)
(-1.81451e-09 1.82642e-09 -0.00100001)
(-2.83554e-09 1.82315e-09 -0.00100001)
(-3.53048e-09 1.82777e-09 -0.00100001)
(-3.80201e-09 1.84713e-09 -0.00100001)
(-6.23241e-10 5.28106e-09 -0.00100001)
(-1.82796e-09 5.28115e-09 -0.00100001)
(-2.83955e-09 5.28902e-09 -0.00100001)
(-3.51272e-09 5.31092e-09 -0.00100001)
(-3.78855e-09 5.35454e-09 -0.00100001)
(-6.25836e-10 8.18411e-09 -0.001)
(-1.81997e-09 8.1989e-09 -0.00100001)
(-2.81189e-09 8.22689e-09 -0.00100001)
(-3.47171e-09 8.25939e-09 -0.00100001)
(-3.77548e-09 8.29618e-09 -0.00100001)
(-6.23153e-10 1.03087e-08 -0.001)
(-1.80104e-09 1.03441e-08 -0.001)
(-2.78045e-09 1.03903e-08 -0.001)
(-3.44394e-09 1.0444e-08 -0.001)
(-3.78297e-09 1.05564e-08 -0.00100001)
(-6.09024e-10 1.14642e-08 -0.000999998)
(-1.7582e-09 1.15048e-08 -0.000999999)
(-2.71331e-09 1.15413e-08 -0.001)
(-3.30565e-09 1.15715e-08 -0.001)
(-3.91177e-09 1.14703e-08 -0.001)
(-8.2391e-10 2.49349e-09 -0.00100001)
(-2.43533e-09 2.48196e-09 -0.00100001)
(-3.79909e-09 2.4765e-09 -0.00100001)
(-4.71504e-09 2.47988e-09 -0.00100001)
(-5.09274e-09 2.49255e-09 -0.00100002)
(-8.41188e-10 7.19388e-09 -0.00100001)
(-2.46139e-09 7.18665e-09 -0.00100001)
(-3.80839e-09 7.19071e-09 -0.00100001)
(-4.70748e-09 7.20678e-09 -0.00100001)
(-5.08608e-09 7.23038e-09 -0.00100001)
(-8.45274e-10 1.11649e-08 -0.00100001)
(-2.45671e-09 1.118e-08 -0.00100001)
(-3.78723e-09 1.11971e-08 -0.00100001)
(-4.68455e-09 1.12122e-08 -0.00100001)
(-5.08099e-09 1.1216e-08 -0.00100001)
(-8.46124e-10 1.40995e-08 -0.001)
(-2.45081e-09 1.41207e-08 -0.001)
(-3.7781e-09 1.41345e-08 -0.001)
(-4.68923e-09 1.41455e-08 -0.00100001)
(-5.09457e-09 1.42195e-08 -0.00100001)
(-8.49169e-10 1.56775e-08 -0.000999998)
(-2.44849e-09 1.57108e-08 -0.000999998)
(-3.76419e-09 1.57297e-08 -0.000999999)
(-4.59958e-09 1.57549e-08 -0.001)
(-5.21331e-09 1.56499e-08 -0.001)
(-1.11514e-09 3.38587e-09 -0.00100002)
(-3.27217e-09 3.37282e-09 -0.00100002)
(-5.07583e-09 3.36894e-09 -0.00100002)
(-6.30223e-09 3.37197e-09 -0.00100002)
(-6.84922e-09 3.3799e-09 -0.00100002)
(-1.13597e-09 9.79645e-09 -0.00100001)
(-3.3013e-09 9.79299e-09 -0.00100001)
(-5.08634e-09 9.79518e-09 -0.00100001)
(-6.30271e-09 9.802e-09 -0.00100002)
(-6.8512e-09 9.80522e-09 -0.00100002)
(-1.13782e-09 1.52397e-08 -0.00100001)
(-3.29812e-09 1.52606e-08 -0.00100001)
(-5.07794e-09 1.52631e-08 -0.00100001)
(-6.30456e-09 1.52554e-08 -0.00100001)
(-6.85799e-09 1.52274e-08 -0.00100001)
(-1.14216e-09 1.92655e-08 -0.001)
(-3.30715e-09 1.92745e-08 -0.001)
(-5.09419e-09 1.92552e-08 -0.00100001)
(-6.33934e-09 1.92286e-08 -0.00100001)
(-6.88369e-09 1.92187e-08 -0.00100001)
(-1.16271e-09 2.14033e-08 -0.000999997)
(-3.34477e-09 2.14301e-08 -0.000999997)
(-5.12627e-09 2.1428e-08 -0.000999999)
(-6.34115e-09 2.14317e-08 -0.001)
(-6.96732e-09 2.13628e-08 -0.001)
(-1.51034e-09 4.59807e-09 -0.00100002)
(-4.38891e-09 4.59414e-09 -0.00100002)
(-6.7792e-09 4.59489e-09 -0.00100002)
(-8.44378e-09 4.59778e-09 -0.00100003)
(-9.25194e-09 4.60139e-09 -0.00100003)
(-1.52482e-09 1.33489e-08 -0.00100002)
(-4.40845e-09 1.33619e-08 -0.00100002)
(-6.78843e-09 1.3364e-08 -0.00100002)
(-8.45268e-09 1.33602e-08 -0.00100002)
(-9.2652e-09 1.33476e-08 -0.00100003)
(-1.52352e-09 2.07992e-08 -0.00100001)
(-4.40729e-09 2.08319e-08 -0.00100001)
(-6.79584e-09 2.08229e-08 -0.00100001)
(-8.47681e-09 2.07946e-08 -0.00100002)
(-9.28357e-09 2.0744e-08 -0.00100002)
(-1.52907e-09 2.6279e-08 -0.001)
(-4.42465e-09 2.62968e-08 -0.00100001)
(-6.82925e-09 2.62659e-08 -0.00100001)
(-8.53291e-09 2.62176e-08 -0.00100001)
(-9.31289e-09 2.61486e-08 -0.00100001)
(-1.55184e-09 2.91665e-08 -0.000999995)
(-4.46982e-09 2.92018e-08 -0.000999996)
(-6.87836e-09 2.91888e-08 -0.000999998)
(-8.59433e-09 2.91819e-08 -0.001)
(-9.3552e-09 2.91556e-08 -0.001)
(-2.03658e-09 6.25597e-09 -0.00100003)
(-5.89066e-09 6.26553e-09 -0.00100003)
(-9.10278e-09 6.26928e-09 -0.00100003)
(-1.13883e-08 6.26852e-09 -0.00100003)
(-1.25584e-08 6.26059e-09 -0.00100004)
(-2.04131e-09 1.8192e-08 -0.00100002)
(-5.89935e-09 1.82239e-08 -0.00100002)
(-9.11706e-09 1.82228e-08 -0.00100003)
(-1.14178e-08 1.82053e-08 -0.00100003)
(-1.25915e-08 1.81727e-08 -0.00100003)
(-2.04036e-09 2.83543e-08 -0.00100002)
(-5.90522e-09 2.84e-08 -0.00100002)
(-9.14137e-09 2.83811e-08 -0.00100002)
(-1.14609e-08 2.8335e-08 -0.00100002)
(-1.26232e-08 2.82674e-08 -0.00100003)
(-2.04599e-09 3.57886e-08 -0.00100001)
(-5.92691e-09 3.58312e-08 -0.00100001)
(-9.18683e-09 3.57981e-08 -0.00100001)
(-1.15333e-08 3.57331e-08 -0.00100001)
(-1.26561e-08 3.56243e-08 -0.00100002)
(-2.06087e-09 3.96932e-08 -0.000999994)
(-5.96322e-09 3.9747e-08 -0.000999995)
(-9.24392e-09 3.97252e-08 -0.000999997)
(-1.16349e-08 3.97102e-08 -0.001)
(-1.26851e-08 3.97005e-08 -0.001)
(-2.74349e-09 8.51834e-09 -0.00100004)
(-7.94217e-09 8.53627e-09 -0.00100004)
(-1.23153e-08 8.53798e-09 -0.00100004)
(-1.54715e-08 8.52981e-09 -0.00100005)
(-1.7102e-08 8.50941e-09 -0.00100005)
(-2.74495e-09 2.47679e-08 -0.00100003)
(-7.9523e-09 2.48102e-08 -0.00100003)
(-1.23451e-08 2.48003e-08 -0.00100004)
(-1.55283e-08 2.47698e-08 -0.00100004)
(-1.71555e-08 2.47233e-08 -0.00100005)
(-2.74972e-09 3.85852e-08 -0.00100002)
(-7.97138e-09 3.86392e-08 -0.00100002)
(-1.23829e-08 3.86085e-08 -0.00100003)
(-1.5579e-08 3.85537e-08 -0.00100003)
(-1.71932e-08 3.84894e-08 -0.00100004)
(-2.75943e-09 4.86628e-08 -0.00100001)
(-8.00288e-09 4.87251e-08 -0.00100001)
(-1.24371e-08 4.8683e-08 -0.00100001)
(-1.56499e-08 4.86148e-08 -0.00100002)
(-1.72218e-08 4.8528e-08 -0.00100002)
(-2.77334e-09 5.39689e-08 -0.000999991)
(-8.043e-09 5.40385e-08 -0.000999993)
(-1.24991e-08 5.40037e-08 -0.000999996)
(-1.57342e-08 5.39832e-08 -0.001)
(-1.724e-08 5.39833e-08 -0.00100001)
(-3.7073e-09 1.15917e-08 -0.00100005)
(-1.07605e-08 1.16107e-08 -0.00100005)
(-1.67335e-08 1.16075e-08 -0.00100006)
(-2.10684e-08 1.15946e-08 -0.00100006)
(-2.3289e-08 1.15734e-08 -0.00100007)
(-3.71463e-09 3.36803e-08 -0.00100004)
(-1.07851e-08 3.37257e-08 -0.00100005)
(-1.67815e-08 3.37068e-08 -0.00100005)
(-2.11411e-08 3.36732e-08 -0.00100006)
(-2.33513e-08 3.36322e-08 -0.00100006)
(-3.72771e-09 5.24406e-08 -0.00100003)
(-1.08176e-08 5.25016e-08 -0.00100003)
(-1.6823e-08 5.2462e-08 -0.00100004)
(-2.11846e-08 5.24129e-08 -0.00100004)
(-2.33775e-08 5.2369e-08 -0.00100005)
(-3.74653e-09 6.61085e-08 -0.00100001)
(-1.08639e-08 6.61826e-08 -0.00100001)
(-1.68791e-08 6.61281e-08 -0.00100002)
(-2.12375e-08 6.60732e-08 -0.00100002)
(-2.3378e-08 6.60373e-08 -0.00100003)
(-3.76997e-09 7.33513e-08 -0.000999988)
(-1.09225e-08 7.34353e-08 -0.000999991)
(-1.69405e-08 7.33906e-08 -0.000999995)
(-2.12758e-08 7.33784e-08 -0.001)
(-2.3348e-08 7.34169e-08 -0.00100001)
(-5.02759e-09 1.57613e-08 -0.00100007)
(-1.46162e-08 1.57801e-08 -0.00100007)
(-2.27474e-08 1.57747e-08 -0.00100008)
(-2.86424e-08 1.57645e-08 -0.00100009)
(-3.16625e-08 1.57548e-08 -0.0010001)
(-5.0446e-09 4.57758e-08 -0.00100006)
(-1.4658e-08 4.58293e-08 -0.00100006)
(-2.28065e-08 4.58099e-08 -0.00100007)
(-2.87148e-08 4.57853e-08 -0.00100008)
(-3.1728e-08 4.57628e-08 -0.00100009)
(-5.06331e-09 7.12595e-08 -0.00100004)
(-1.46957e-08 7.13402e-08 -0.00100004)
(-2.28419e-08 7.1302e-08 -0.00100005)
(-2.87463e-08 7.12647e-08 -0.00100006)
(-3.17389e-08 7.12314e-08 -0.00100007)
(-5.08972e-09 8.98353e-08 -0.00100001)
(-1.47514e-08 8.99338e-08 -0.00100002)
(-2.28941e-08 8.98725e-08 -0.00100002)
(-2.87899e-08 8.9822e-08 -0.00100003)
(-3.17179e-08 8.97743e-08 -0.00100004)
(-5.12246e-09 9.97254e-08 -0.000999984)
(-1.48271e-08 9.9832e-08 -0.000999987)
(-2.29648e-08 9.97741e-08 -0.000999993)
(-2.88451e-08 9.97539e-08 -0.001)
(-3.1657e-08 9.98027e-08 -0.00100001)
(-6.83472e-09 2.14228e-08 -0.00100009)
(-1.98731e-08 2.14477e-08 -0.0010001)
(-3.09114e-08 2.14462e-08 -0.00100011)
(-3.8886e-08 2.14441e-08 -0.00100012)
(-4.3006e-08 2.1448e-08 -0.00100013)
(-6.85843e-09 6.22204e-08 -0.00100008)
(-1.99248e-08 6.22998e-08 -0.00100008)
(-3.09744e-08 6.229e-08 -0.00100009)
(-3.89558e-08 6.22772e-08 -0.0010001)
(-4.30819e-08 6.2269e-08 -0.00100012)
(-6.87647e-09 9.68763e-08 -0.00100005)
(-1.99579e-08 9.70012e-08 -0.00100006)
(-3.10029e-08 9.69705e-08 -0.00100007)
(-3.89844e-08 9.6937e-08 -0.00100008)
(-4.30908e-08 9.68954e-08 -0.00100009)
(-6.90432e-09 1.22177e-07 -0.00100002)
(-2.00151e-08 1.22326e-07 -0.00100002)
(-3.1055e-08 1.22262e-07 -0.00100003)
(-3.90371e-08 1.22196e-07 -0.00100004)
(-4.30926e-08 1.22099e-07 -0.00100006)
(-6.94134e-09 1.35659e-07 -0.000999978)
(-2.01015e-08 1.35804e-07 -0.000999982)
(-3.1148e-08 1.35719e-07 -0.00099999)
(-3.91485e-08 1.35641e-07 -0.001)
(-4.30757e-08 1.35626e-07 -0.00100001)
(-9.30757e-09 2.91121e-08 -0.00100013)
(-2.7047e-08 2.91545e-08 -0.00100013)
(-4.20365e-08 2.91618e-08 -0.00100014)
(-5.28343e-08 2.91663e-08 -0.00100016)
(-5.84364e-08 2.91707e-08 -0.00100018)
(-9.33123e-09 8.45787e-08 -0.00100011)
(-2.70995e-08 8.47066e-08 -0.00100011)
(-4.21056e-08 8.47092e-08 -0.00100013)
(-5.29229e-08 8.46975e-08 -0.00100014)
(-5.85371e-08 8.46751e-08 -0.00100016)
(-9.34421e-09 1.31734e-07 -0.00100007)
(-2.71265e-08 1.31924e-07 -0.00100008)
(-4.21394e-08 1.31893e-07 -0.00100009)
(-5.29739e-08 1.31838e-07 -0.00100011)
(-5.85577e-08 1.31756e-07 -0.00100012)
(-9.37251e-09 1.66214e-07 -0.00100003)
(-2.7191e-08 1.66431e-07 -0.00100003)
(-4.22143e-08 1.6635e-07 -0.00100004)
(-5.30685e-08 1.66229e-07 -0.00100006)
(-5.86097e-08 1.66046e-07 -0.00100008)
(-9.41727e-09 1.84579e-07 -0.000999969)
(-2.7301e-08 1.84786e-07 -0.000999976)
(-4.23619e-08 1.84663e-07 -0.000999987)
(-5.32787e-08 1.84495e-07 -0.001)
(-5.86701e-08 1.84384e-07 -0.00100002)
(-1.26934e-08 3.95473e-08 -0.00100017)
(-3.68626e-08 3.96188e-08 -0.00100018)
(-5.72598e-08 3.96355e-08 -0.0010002)
(-7.19283e-08 3.9642e-08 -0.00100022)
(-7.94911e-08 3.96336e-08 -0.00100024)
(-1.27117e-08 1.14932e-07 -0.00100015)
(-3.69135e-08 1.15128e-07 -0.00100016)
(-5.7347e-08 1.1514e-07 -0.00100017)
(-7.20633e-08 1.15122e-07 -0.00100019)
(-7.96305e-08 1.1507e-07 -0.00100022)
(-1.2721e-08 1.79071e-07 -0.0010001)
(-3.69402e-08 1.79342e-07 -0.00100011)
(-5.73939e-08 1.793e-07 -0.00100012)
(-7.21428e-08 1.79209e-07 -0.00100014)
(-7.96664e-08 1.79074e-07 -0.00100017)
(-1.27559e-08 2.26036e-07 -0.00100004)
(-3.70252e-08 2.26332e-07 -0.00100004)
(-5.75106e-08 2.26212e-07 -0.00100006)
(-7.23007e-08 2.25996e-07 -0.00100008)
(-7.97666e-08 2.25669e-07 -0.0010001)
(-1.28183e-08 2.51094e-07 -0.000999959)
(-3.7186e-08 2.51379e-07 -0.000999967)
(-5.77586e-08 2.51197e-07 -0.000999982)
(-7.26866e-08 2.50913e-07 -0.001)
(-7.98987e-08 2.50699e-07 -0.00100003)
(-1.73348e-08 5.36882e-08 -0.00100023)
(-5.03228e-08 5.37974e-08 -0.00100024)
(-7.81301e-08 5.3826e-08 -0.00100027)
(-9.80784e-08 5.3844e-08 -0.00100029)
(-1.08217e-07 5.38445e-08 -0.00100033)
(-1.73477e-08 1.56062e-07 -0.0010002)
(-5.03742e-08 1.56345e-07 -0.00100021)
(-7.82343e-08 1.5638e-07 -0.00100023)
(-9.82416e-08 1.56391e-07 -0.00100026)
(-1.08371e-07 1.56374e-07 -0.00100029)
(-1.73549e-08 2.43234e-07 -0.00100014)
(-5.03922e-08 2.4361e-07 -0.00100015)
(-7.82594e-08 2.4358e-07 -0.00100017)
(-9.82811e-08 2.43497e-07 -0.0010002)
(-1.0838e-07 2.43399e-07 -0.00100023)
(-1.73986e-08 3.0718e-07 -0.00100005)
(-5.04901e-08 3.07583e-07 -0.00100006)
(-7.83886e-08 3.07429e-07 -0.00100008)
(-9.8438e-08 3.07157e-07 -0.00100011)
(-1.0849e-07 3.06786e-07 -0.00100014)
(-1.74873e-08 3.41484e-07 -0.000999945)
(-5.07155e-08 3.41861e-07 -0.000999956)
(-7.87232e-08 3.41578e-07 -0.000999977)
(-9.89258e-08 3.41148e-07 -0.00100001)
(-1.08707e-07 3.40784e-07 -0.00100004)
(-2.3714e-08 7.28147e-08 -0.00100032)
(-6.88184e-08 7.29746e-08 -0.00100033)
(-1.06753e-07 7.30391e-08 -0.00100036)
(-1.33817e-07 7.31108e-08 -0.0010004)
(-1.47349e-07 7.31808e-08 -0.00100045)
(-2.372e-08 2.117e-07 -0.00100027)
(-6.88514e-08 2.12114e-07 -0.00100029)
(-1.06822e-07 2.12238e-07 -0.00100032)
(-1.33923e-07 2.12379e-07 -0.00100035)
(-1.47435e-07 2.12536e-07 -0.0010004)
(-2.37118e-08 3.30103e-07 -0.00100018)
(-6.88072e-08 3.3065e-07 -0.0010002)
(-1.06727e-07 3.30705e-07 -0.00100023)
(-1.33787e-07 3.30741e-07 -0.00100027)
(-1.47284e-07 3.30816e-07 -0.00100031)
(-2.37514e-08 4.17198e-07 -0.00100007)
(-6.8875e-08 4.17761e-07 -0.00100008)
(-1.06788e-07 4.17617e-07 -0.00100011)
(-1.33833e-07 4.17375e-07 -0.00100015)
(-1.47287e-07 4.17094e-07 -0.00100019)
(-2.38733e-08 4.64318e-07 -0.000999925)
(-6.91633e-08 4.64803e-07 -0.000999941)
(-1.07164e-07 4.64389e-07 -0.000999969)
(-1.34313e-07 4.63803e-07 -0.00100001)
(-1.47592e-07 4.63243e-07 -0.00100005)
(-3.25177e-08 9.86297e-08 -0.00100043)
(-9.43082e-08 9.88768e-08 -0.00100045)
(-1.46074e-07 9.9038e-08 -0.00100049)
(-1.82697e-07 9.92435e-08 -0.00100054)
(-2.00699e-07 9.94712e-08 -0.00100061)
(-3.24957e-08 2.86841e-07 -0.00100037)
(-9.42492e-08 2.87488e-07 -0.00100039)
(-1.45986e-07 2.87845e-07 -0.00100043)
(-1.82599e-07 2.88302e-07 -0.00100048)
(-2.00581e-07 2.88832e-07 -0.00100054)
(-3.24299e-08 4.47588e-07 -0.00100025)
(-9.40202e-08 4.48433e-07 -0.00100027)
(-1.45586e-07 4.48719e-07 -0.00100031)
(-1.82075e-07 4.49061e-07 -0.00100036)
(-2.00033e-07 4.49481e-07 -0.00100043)
(-3.24351e-08 5.66296e-07 -0.00100009)
(-9.39663e-08 5.67123e-07 -0.00100011)
(-1.45436e-07 5.67071e-07 -0.00100015)
(-1.81866e-07 5.66944e-07 -0.0010002)
(-1.99746e-07 5.66767e-07 -0.00100026)
(-3.25846e-08 6.31202e-07 -0.0009999)
(-9.42966e-08 6.31831e-07 -0.000999921)
(-1.45836e-07 6.31251e-07 -0.00099996)
(-1.82382e-07 6.30457e-07 -0.00100001)
(-2.00146e-07 6.29612e-07 -0.00100007)
(-4.47363e-08 1.33379e-07 -0.00100058)
(-1.29624e-07 1.3379e-07 -0.00100061)
(-2.00359e-07 1.3416e-07 -0.00100067)
(-2.49893e-07 1.34642e-07 -0.00100074)
(-2.73678e-07 1.35194e-07 -0.00100083)
(-4.46311e-08 3.88085e-07 -0.0010005)
(-1.29317e-07 3.89158e-07 -0.00100053)
(-1.99883e-07 3.90022e-07 -0.00100058)
(-2.4931e-07 3.91147e-07 -0.00100066)
(-2.73082e-07 3.92451e-07 -0.00100074)
(-4.44236e-08 6.06177e-07 -0.00100034)
(-1.28659e-07 6.07545e-07 -0.00100037)
(-1.9881e-07 6.08357e-07 -0.00100042)
(-2.47957e-07 6.09386e-07 -0.0010005)
(-2.71679e-07 6.10567e-07 -0.00100058)
(-4.43277e-08 7.68115e-07 -0.00100012)
(-1.28286e-07 7.69388e-07 -0.00100015)
(-1.98145e-07 7.69593e-07 -0.00100021)
(-2.47139e-07 7.69777e-07 -0.00100028)
(-2.7076e-07 7.69916e-07 -0.00100036)
(-4.44807e-08 8.57815e-07 -0.000999866)
(-1.28605e-07 8.58653e-07 -0.000999895)
(-1.98517e-07 8.5785e-07 -0.000999948)
(-2.47639e-07 8.56716e-07 -0.00100002)
(-2.71229e-07 8.55434e-07 -0.0010001)
(-6.18251e-08 1.79976e-07 -0.00100078)
(-1.78959e-07 1.80688e-07 -0.00100083)
(-2.75854e-07 1.81493e-07 -0.0010009)
(-3.42863e-07 1.82542e-07 -0.00100101)
(-3.73923e-07 1.83763e-07 -0.00100113)
(-6.15274e-08 5.23998e-07 -0.00100067)
(-1.7808e-07 5.25853e-07 -0.00100071)
(-2.74503e-07 5.27795e-07 -0.00100079)
(-3.41195e-07 5.30307e-07 -0.00100089)
(-3.72233e-07 5.33227e-07 -0.00100101)
(-6.1002e-08 8.19566e-07 -0.00100046)
(-1.7648e-07 8.21881e-07 -0.0010005)
(-2.71995e-07 8.2384e-07 -0.00100058)
(-3.38095e-07 8.2634e-07 -0.00100068)
(-3.69003e-07 8.29199e-07 -0.00100079)
(-6.0658e-08 1.04068e-06 -0.00100017)
(-1.75366e-07 1.0427e-06 -0.00100021)
(-2.70186e-07 1.04351e-06 -0.00100028)
(-3.3589e-07 1.04447e-06 -0.00100038)
(-3.66621e-07 1.04553e-06 -0.00100049)
(-6.07825e-08 1.16521e-06 -0.000999822)
(-1.75575e-07 1.16634e-06 -0.000999862)
(-2.70353e-07 1.16526e-06 -0.000999935)
(-3.36081e-07 1.16369e-06 -0.00100003)
(-3.6685e-07 1.16196e-06 -0.00100014)
(-8.59375e-08 2.42117e-07 -0.00100105)
(-2.48623e-07 2.43397e-07 -0.00100111)
(-3.81785e-07 2.45125e-07 -0.00100122)
(-4.72467e-07 2.47311e-07 -0.00100137)
(-5.12275e-07 2.49912e-07 -0.00100154)
(-8.5218e-08 7.05484e-07 -0.0010009)
(-2.46473e-07 7.08822e-07 -0.00100096)
(-3.78536e-07 7.13042e-07 -0.00100107)
(-4.68473e-07 7.18389e-07 -0.00100121)
(-5.08224e-07 7.24688e-07 -0.00100138)
(-8.40041e-08 1.10534e-06 -0.00100062)
(-2.42851e-07 1.10941e-06 -0.00100068)
(-3.73014e-07 1.11382e-06 -0.00100079)
(-4.61708e-07 1.1194e-06 -0.00100092)
(-5.01191e-07 1.1259e-06 -0.00100108)
(-8.31157e-08 1.40752e-06 -0.00100024)
(-2.40114e-07 1.41081e-06 -0.00100029)
(-3.68734e-07 1.41301e-06 -0.00100039)
(-4.56465e-07 1.41572e-06 -0.00100053)
(-4.95627e-07 1.41895e-06 -0.00100068)
(-8.31514e-08 1.58145e-06 -0.000999766)
(-2.39965e-07 1.58295e-06 -0.000999821)
(-3.68277e-07 1.58154e-06 -0.000999921)
(-4.55784e-07 1.57941e-06 -0.00100005)
(-4.9495e-07 1.57741e-06 -0.0010002)
(-1.20192e-07 3.24394e-07 -0.0010014)
(-3.4843e-07 3.26736e-07 -0.00100149)
(-5.32053e-07 3.30423e-07 -0.00100165)
(-6.55206e-07 3.34815e-07 -0.00100186)
(-7.04337e-07 3.40388e-07 -0.0010021)
(-1.18608e-07 9.46057e-07 -0.00100121)
(-3.43542e-07 9.5219e-07 -0.00100129)
(-5.24833e-07 9.61282e-07 -0.00100145)
(-6.46261e-07 9.72283e-07 -0.00100165)
(-6.95376e-07 9.85912e-07 -0.00100188)
(-1.15973e-07 1.48542e-06 -0.00100084)
(-3.35622e-07 1.49275e-06 -0.00100092)
(-5.13011e-07 1.50243e-06 -0.00100107)
(-6.31738e-07 1.51435e-06 -0.00100126)
(-6.80598e-07 1.52892e-06 -0.00100148)
(-1.13948e-07 1.89896e-06 -0.00100033)
(-3.29408e-07 1.90444e-06 -0.0010004)
(-5.03501e-07 1.9098e-06 -0.00100054)
(-6.19874e-07 1.91615e-06 -0.00100072)
(-6.68488e-07 1.92452e-06 -0.00100093)
(-1.13789e-07 2.14372e-06 -0.000999697)
(-3.28313e-07 2.14554e-06 -0.000999771)
(-5.01547e-07 2.14387e-06 -0.000999909)
(-6.17029e-07 2.14086e-06 -0.00100009)
(-6.65721e-07 2.13916e-06 -0.00100029)
(-1.68704e-07 4.32329e-07 -0.00100186)
(-4.94584e-07 4.36478e-07 -0.00100198)
(-7.4777e-07 4.44547e-07 -0.00100224)
(-9.1755e-07 4.52817e-07 -0.00100251)
(-9.72554e-07 4.65389e-07 -0.00100289)
(-1.65575e-07 1.26174e-06 -0.00100161)
(-4.83865e-07 1.27298e-06 -0.00100173)
(-7.32499e-07 1.29297e-06 -0.00100197)
(-8.97967e-07 1.31449e-06 -0.00100223)
(-9.53757e-07 1.34518e-06 -0.00100258)
(-1.60077e-07 1.98571e-06 -0.00100113)
(-4.66622e-07 1.99918e-06 -0.00100124)
(-7.07617e-07 2.02048e-06 -0.00100146)
(-8.66827e-07 2.04468e-06 -0.00100171)
(-9.23592e-07 2.07802e-06 -0.00100202)
(-1.55756e-07 2.55337e-06 -0.00100046)
(-4.53015e-07 2.56252e-06 -0.00100056)
(-6.87352e-07 2.57502e-06 -0.00100076)
(-8.40557e-07 2.58794e-06 -0.00100099)
(-8.98344e-07 2.60896e-06 -0.00100128)
(-1.55396e-07 2.90066e-06 -0.000999613)
(-4.49753e-07 2.90239e-06 -0.000999713)
(-6.8252e-07 2.9012e-06 -0.000999906)
(-8.32898e-07 2.89599e-06 -0.00100014)
(-8.91316e-07 2.89726e-06 -0.00100041)
(-2.34481e-07 5.72428e-07 -0.00100245)
(-7.16845e-07 5.78805e-07 -0.0010026)
(-1.05949e-06 5.97857e-07 -0.00100305)
(-1.30613e-06 6.106e-07 -0.00100336)
(-1.34745e-06 6.42211e-07 -0.00100404)
(-2.29456e-07 1.67055e-06 -0.00100213)
(-6.93339e-07 1.6901e-06 -0.00100227)
(-1.02893e-06 1.73678e-06 -0.00100268)
(-1.26322e-06 1.77368e-06 -0.00100299)
(-1.31002e-06 1.8493e-06 -0.0010036)
(-2.18486e-07 2.63343e-06 -0.00100152)
(-6.55011e-07 2.65815e-06 -0.00100165)
(-9.77577e-07 2.70651e-06 -0.00100199)
(-1.19543e-06 2.75153e-06 -0.00100229)
(-1.25101e-06 2.83304e-06 -0.00100279)
(-2.09738e-07 3.41857e-06 -0.00100066)
(-6.25615e-07 3.43281e-06 -0.00100078)
(-9.36019e-07 3.46248e-06 -0.00100109)
(-1.13686e-06 3.4834e-06 -0.00100136)
(-1.20067e-06 3.53835e-06 -0.00100178)
(-2.10285e-07 3.9151e-06 -0.000999515)
(-6.17578e-07 3.91437e-06 -0.000999639)
(-9.27425e-07 3.91758e-06 -0.000999922)
(-1.11958e-06 3.90322e-06 -0.00100021)
(-1.18683e-06 3.91895e-06 -0.00100059)
(-3.06873e-07 7.52908e-07 -0.00100321)
(-1.07909e-06 7.57608e-07 -0.00100331)
(-1.50373e-06 8.08003e-07 -0.00100423)
(-1.9112e-06 8.14915e-07 -0.00100437)
(-1.86715e-06 9.03968e-07 -0.00100583)
(-3.03889e-07 2.19246e-06 -0.00100278)
(-1.02635e-06 2.22022e-06 -0.00100291)
(-1.44768e-06 2.34038e-06 -0.00100371)
(-1.81662e-06 2.38129e-06 -0.00100391)
(-1.79546e-06 2.58771e-06 -0.00100515)
(-2.83852e-07 3.44699e-06 -0.00100201)
(-9.37042e-07 3.49104e-06 -0.00100212)
(-1.34456e-06 3.60731e-06 -0.00100276)
(-1.66591e-06 3.67626e-06 -0.00100296)
(-1.68677e-06 3.89467e-06 -0.00100393)
(-2.66698e-07 4.55513e-06 -0.00100102)
(-8.73393e-07 4.57106e-06 -0.00100109)
(-1.2631e-06 4.64739e-06 -0.00100166)
(-1.52948e-06 4.65884e-06 -0.00100182)
(-1.59198e-06 4.81758e-06 -0.00100255)
(-2.75981e-07 5.26799e-06 -0.000999385)
(-8.53502e-07 5.25325e-06 -0.000999511)
(-1.25737e-06 5.28048e-06 -0.000999972)
(-1.49575e-06 5.22208e-06 -0.00100028)
(-1.57303e-06 5.30204e-06 -0.00100084)
(-3.26409e-07 9.85626e-07 -0.00100415)
(-1.72452e-06 9.66107e-07 -0.00100399)
(-2.11498e-06 1.10661e-06 -0.00100602)
(-2.90384e-06 1.05888e-06 -0.00100543)
(-2.59055e-06 1.31302e-06 -0.00100871)
(-3.47832e-07 2.855e-06 -0.0010036)
(-1.60614e-06 2.87222e-06 -0.00100358)
(-2.02322e-06 3.19946e-06 -0.00100527)
(-2.69818e-06 3.17152e-06 -0.00100495)
(-2.45148e-06 3.73786e-06 -0.00100761)
(-3.14985e-07 4.40011e-06 -0.00100261)
(-1.38776e-06 4.48046e-06 -0.00100255)
(-1.81753e-06 4.76146e-06 -0.00100381)
(-2.36735e-06 4.84498e-06 -0.00100359)
(-2.26161e-06 5.4314e-06 -0.00100561)
(-2.76578e-07 6.04798e-06 -0.00100174)
(-1.25468e-06 6.04211e-06 -0.00100157)
(-1.65953e-06 6.2476e-06 -0.00100277)
(-2.02851e-06 6.1605e-06 -0.00100237)
(-2.08663e-06 6.63027e-06 -0.00100383)
(-3.31275e-07 7.06458e-06 -0.000999121)
(-1.19976e-06 6.99257e-06 -0.000999168)
(-1.69991e-06 7.12314e-06 -0.00100001)
(-1.98471e-06 6.87859e-06 -0.0010002)
(-2.08893e-06 7.2131e-06 -0.00100116)
(-1.39175e-07 1.28872e-06 -0.00100529)
(-2.93394e-06 1.15934e-06 -0.00100437)
(-2.93743e-06 1.54475e-06 -0.00100879)
(-4.5955e-06 1.28052e-06 -0.00100631)