/*--------------------------------*- C++ -*----------------------------------*\
| =========                 |                                                 |
| \\      /  F ield         | OpenFOAM: The Open Source CFD Toolbox           |
|  \\    /   O peration     | Version:  5.x                                   |
|   \\  /    A nd           | Web:      www.OpenFOAM.org                      |
|    \\/     M anipulation  |                                                 |
\*---------------------------------------------------------------------------*/
FoamFile
{
    version     2.0;
    format      ascii;
    class       volScalarField;
    location    "0.01";
    object      p;
}
// * * * * * * * * * * * * * * * * * * * * * * * * * * * * * * * * * * * * * //

dimensions      [0 2 -2 0 0 0 0];

internalField   nonuniform List<scalar> 
180
(
8.51462e-10
2.59224e-09
4.41518e-09
6.2661e-09
8.13075e-09
1.00161e-08
1.19154e-08
1.38195e-08
1.57136e-08
1.7578e-08
1.93874e-08
2.11108e-08
2.27117e-08
2.41481e-08
2.53727e-08
2.63336e-08
2.69742e-08
2.72338e-08
2.70485e-08
2.63506e-08
2.507e-08
2.31335e-08
2.04653e-08
1.69865e-08
1.26151e-08
7.26456e-09
8.43228e-10
-6.74734e-09
-1.56143e-08
-2.58757e-08
-3.76638e-08
-5.11279e-08
-6.64387e-08
-8.37932e-08
-1.0342e-07
-1.25584e-07
-1.50597e-07
-1.78823e-07
-2.10684e-07
-2.46665e-07
-2.87323e-07
-3.33292e-07
-3.85292e-07
-4.44139e-07
-5.10753e-07
-5.86164e-07
-6.71536e-07
-7.68187e-07
-8.77626e-07
-1.00161e-06
-1.1422e-06
-1.30188e-06
-1.48361e-06
-1.69094e-06
-1.92803e-06
-2.19963e-06
-2.51103e-06
-2.86805e-06
-3.27696e-06
-3.74505e-06
-4.28151e-06
-4.89697e-06
-5.60365e-06
-6.41564e-06
-7.34912e-06
-8.42272e-06
-9.65781e-06
-1.10792e-05
-1.27155e-05
-1.46006e-05
-1.67736e-05
-1.92798e-05
-2.21712e-05
-2.55119e-05
-2.93963e-05
-3.39603e-05
-3.92337e-05
-4.46974e-05
-4.98003e-05
-5.99296e-05
-0.000147031
0.000472811
0.000898417
0.000803152
0.00427929
0.00556367
0.00669795
0.00747458
0.00795632
0.00928026
0.011795
0.0142028
0.0160044
0.0165013
0.0170924
0.0179949
0.0183965
0.0192602
0.0198972
0.0209432
0.0224971
0.0228786
0.0230601
0.0231724
0.0232068
0.0232138
0.0232137
0.0232151
0.0232171
0.023219
0.0232205
0.0232217
0.0232228
0.0232237
0.0232245
0.0232252
0.0232258
0.0232263
0.0232267
0.0232271
0.0232274
0.0232277
0.023228
0.0232282
0.0232283
0.0232285
0.0232286
0.0232288
0.0232289
0.023229
0.023229
0.0232291
0.0232292
0.0232292
0.0232293
0.0232293
0.0232294
0.0232294
0.0232294
0.0232294
0.0232295
0.0232295
0.0232295
0.0232295
0.0232295
0.0232295
0.0232296
0.0232296
0.0232296
0.0232296
0.0232296
0.0232296
0.0232296
0.0232296
0.0232296
0.0232296
0.0232296
0.0232297
0.0232297
0.0232297
0.0232297
0.0232297
0.0232297
0.0232297
0.0232297
0.0232297
0.0232297
0.0232297
0.0232297
0.0232297
0.0232297
0.0232297
0.0232297
0.0232297
0.0232297
0.0232297
0.0232297
0.0232297
0.0232297
0.0232297
)
;

boundaryField
{
    inlet
    {
        type            zeroGradient;
    }
    outlet
    {
        type            fixedValue;
        value           uniform 0;
    }
    repeat_boundary
    {
        type            zeroGradient;
    }
    procBoundary1to0
    {
        type            processor;
        value           nonuniform List<scalar> 
180
(
1.49464e-09
4.5755e-09
7.76589e-09
1.09506e-08
1.41213e-08
1.72647e-08
2.03685e-08
2.34206e-08
2.64078e-08
2.93161e-08
3.21312e-08
3.48382e-08
3.74229e-08
3.98714e-08
4.21714e-08
4.43125e-08
4.62871e-08
4.80907e-08
4.97233e-08
5.11893e-08
5.24986e-08
5.36671e-08
5.47172e-08
5.56782e-08
5.65869e-08
5.74879e-08
5.84339e-08
5.94863e-08
6.07156e-08
6.22017e-08
6.40349e-08
6.63166e-08
6.91601e-08
7.26921e-08
7.70544e-08
8.24058e-08
8.89248e-08
9.68126e-08
1.06292e-07
1.17608e-07
1.31025e-07
1.46831e-07
1.65332e-07
1.86857e-07
2.11751e-07
2.40376e-07
2.73114e-07
3.10375e-07
3.52623e-07
4.00402e-07
4.54389e-07
5.15459e-07
5.84749e-07
6.63706e-07
7.54087e-07
8.57883e-07
9.77235e-07
1.11435e-06
1.27137e-06
1.45082e-06
1.65647e-06
1.89268e-06
2.16448e-06
2.47768e-06
2.83895e-06
3.25593e-06
3.73739e-06
4.29351e-06
4.93629e-06
5.6798e-06
6.54073e-06
7.53964e-06
8.70198e-06
1.00547e-05
1.16123e-05
1.33667e-05
1.53318e-05
1.78683e-05
2.25906e-05
2.6953e-05
-4.3108e-05
0.000794147
0.00114193
0.00136765
0.00245079
0.00258814
0.00390677
0.00613729
0.00878144
0.0126559
0.0138002
0.0141951
0.015036
0.0156858
0.0158925
0.0173104
0.0177343
0.0180727
0.0192398
0.0200519
0.0210187
0.0219144
0.0229896
0.0232198
0.0232214
0.0232308
0.0232286
0.0232278
0.023228
0.0232282
0.0232284
0.0232285
0.0232286
0.0232288
0.0232289
0.023229
0.0232291
0.0232291
0.0232292
0.0232293
0.0232293
0.0232294
0.0232294
0.0232295
0.0232295
0.0232295
0.0232295
0.0232296
0.0232296
0.0232296
0.0232296
0.0232296
0.0232296
0.0232296
0.0232296
0.0232296
0.0232296
0.0232296
0.0232296
0.0232296
0.0232296
0.0232296
0.0232297
0.0232297
0.0232297
0.0232297
0.0232297
0.0232297
0.0232297
0.0232297
0.0232297
0.0232297
0.0232297
0.0232297
0.0232297
0.0232297
0.0232297
0.0232297
0.0232297
0.0232297
0.0232297
0.0232297
0.0232297
0.0232297
0.0232297
0.0232297
0.0232297
0.0232297
0.0232297
0.0232297
0.0232297
0.0232297
0.0232297
0.0232297
0.0232297
0.0232297
0.0232297
0.0232297
0.0232297
0.0232297
)
;
    }
    procBoundary1to3
    {
        type            processor;
        value           nonuniform List<scalar> 
180
(
1.54731e-09
4.78552e-09
8.15051e-09
1.14994e-08
1.48204e-08
1.81003e-08
2.13241e-08
2.44752e-08
2.75347e-08
3.04823e-08
3.32954e-08
3.59503e-08
3.84217e-08
4.0683e-08
4.27073e-08
4.44671e-08
4.59351e-08
4.70842e-08
4.78881e-08
4.83214e-08
4.83596e-08
4.79791e-08
4.71572e-08
4.58713e-08
4.40991e-08
4.18169e-08
3.89997e-08
3.56193e-08
3.16438e-08
2.70353e-08
2.17489e-08
1.57309e-08
8.91609e-09
1.22616e-09
-7.43331e-09
-1.71757e-08
-2.81367e-08
-4.04784e-08
-5.43941e-08
-7.01089e-08
-8.78825e-08
-1.08013e-07
-1.3084e-07
-1.56749e-07
-1.86173e-07
-2.19599e-07
-2.5757e-07
-3.00685e-07
-3.49608e-07
-4.05075e-07
-4.679e-07
-5.38983e-07
-6.1932e-07
-7.10015e-07
-8.12299e-07
-9.27545e-07
-1.0573e-06
-1.20328e-06
-1.36743e-06
-1.55189e-06
-1.75903e-06
-1.99142e-06
-2.25199e-06
-2.54466e-06
-2.8759e-06
-3.25462e-06
-3.68643e-06
-4.17778e-06
-4.73613e-06
-5.37019e-06
-6.08991e-06
-6.90581e-06
-7.82782e-06
-8.86975e-06
-1.00688e-05
-1.14954e-05
-1.30896e-05
-1.41084e-05
-1.36122e-05
-1.7306e-05
-0.000124969
0.00081901
0.00122209
0.00151771
0.00287897
0.00410288
0.00528642
0.00645853
0.00943215
0.0108227
0.01141
0.0134332
0.0139719
0.014291
0.0153632
0.0162286
0.0172547
0.0177647
0.0186501
0.0220279
0.0230093
0.0231398
0.0232123
0.0232391
0.02325
0.0232445
0.0232409
0.023239
0.0232377
0.0232365
0.0232354
0.0232345
0.0232337
0.0232331
0.0232325
0.0232321
0.0232317
0.0232314
0.0232311
0.0232308
0.0232306
0.0232305
0.0232303
0.0232302
0.0232301
0.02323
0.02323
0.0232299
0.0232299
0.0232298
0.0232298
0.0232297
0.0232297
0.0232297
0.0232297
0.0232297
0.0232297
0.0232296
0.0232296
0.0232296
0.0232296
0.0232296
0.0232296
0.0232296
0.0232296
0.0232296
0.0232296
0.0232296
0.0232296
0.0232296
0.0232296
0.0232297
0.0232297
0.0232297
0.0232297
0.0232297
0.0232297
0.0232297
0.0232297
0.0232297
0.0232297
0.0232297
0.0232297
0.0232297
0.0232297
0.0232297
0.0232297
0.0232297
0.0232297
0.0232297
0.0232297
0.0232297
0.0232297
0.0232297
0.0232297
0.0232297
0.0232297
0.0232297
0.0232297
0.0232297
)
;
    }
}


// ************************************************************************* //
