/*--------------------------------*- C++ -*----------------------------------*\
| =========                 |                                                 |
| \\      /  F ield         | OpenFOAM: The Open Source CFD Toolbox           |
|  \\    /   O peration     | Version:  5.x                                   |
|   \\  /    A nd           | Web:      www.OpenFOAM.org                      |
|    \\/     M anipulation  |                                                 |
\*---------------------------------------------------------------------------*/
FoamFile
{
    version     2.0;
    format      ascii;
    class       surfaceScalarField;
    location    "0.01";
    object      phi;
}
// * * * * * * * * * * * * * * * * * * * * * * * * * * * * * * * * * * * * * //

dimensions      [0 3 -1 0 0 0 0];

internalField   nonuniform List<scalar> 
179
(
-2.49983e-10
-2.49983e-10
-2.49983e-10
-2.49982e-10
-2.49981e-10
-2.4998e-10
-2.49979e-10
-2.49978e-10
-2.49976e-10
-2.49975e-10
-2.49973e-10
-2.4997e-10
-2.49968e-10
-2.49965e-10
-2.49961e-10
-2.49958e-10
-2.49954e-10
-2.49949e-10
-2.49944e-10
-2.49938e-10
-2.49932e-10
-2.49925e-10
-2.49917e-10
-2.49908e-10
-2.49899e-10
-2.49888e-10
-2.49876e-10
-2.49863e-10
-2.49849e-10
-2.49833e-10
-2.49815e-10
-2.49796e-10
-2.49774e-10
-2.4975e-10
-2.49723e-10
-2.49694e-10
-2.49662e-10
-2.49625e-10
-2.49585e-10
-2.49541e-10
-2.49492e-10
-2.49437e-10
-2.49377e-10
-2.4931e-10
-2.49236e-10
-2.49153e-10
-2.49062e-10
-2.48961e-10
-2.48849e-10
-2.48725e-10
-2.48588e-10
-2.48435e-10
-2.48267e-10
-2.4808e-10
-2.47874e-10
-2.47645e-10
-2.47392e-10
-2.47112e-10
-2.46801e-10
-2.46456e-10
-2.46075e-10
-2.45653e-10
-2.45186e-10
-2.4467e-10
-2.44098e-10
-2.43465e-10
-2.42766e-10
-2.41992e-10
-2.41136e-10
-2.4019e-10
-2.39146e-10
-2.37994e-10
-2.3673e-10
-2.35352e-10
-2.33873e-10
-2.3233e-10
-2.308e-10
-2.29412e-10
-2.28299e-10
-2.27427e-10
-2.27314e-10
-2.27432e-10
-2.16914e-10
-2.17357e-10
-2.23714e-10
-2.35854e-10
-2.39765e-10
-2.46462e-10
-2.43926e-10
-2.37949e-10
-2.36405e-10
-2.3652e-10
-2.46094e-10
-2.54807e-10
-2.60011e-10
-2.66474e-10
-2.76987e-10
-2.83356e-10
-2.89352e-10
-2.90069e-10
-2.91796e-10
-2.94058e-10
-2.92508e-10
-2.91065e-10
-2.89888e-10
-2.87874e-10
-2.85254e-10
-2.82355e-10
-2.79433e-10
-2.76641e-10
-2.74051e-10
-2.71687e-10
-2.69546e-10
-2.67615e-10
-2.65875e-10
-2.6431e-10
-2.629e-10
-2.61631e-10
-2.60489e-10
-2.5946e-10
-2.58533e-10
-2.57697e-10
-2.56945e-10
-2.56267e-10
-2.55655e-10
-2.55104e-10
-2.54607e-10
-2.54159e-10
-2.53754e-10
-2.5339e-10
-2.53061e-10
-2.52764e-10
-2.52496e-10
-2.52254e-10
-2.52036e-10
-2.51839e-10
-2.51661e-10
-2.51501e-10
-2.51356e-10
-2.51225e-10
-2.51107e-10
-2.51001e-10
-2.50904e-10
-2.50818e-10
-2.50739e-10
-2.50668e-10
-2.50604e-10
-2.50546e-10
-2.50494e-10
-2.50447e-10
-2.50404e-10
-2.50365e-10
-2.5033e-10
-2.50299e-10
-2.5027e-10
-2.50244e-10
-2.50221e-10
-2.502e-10
-2.50181e-10
-2.50163e-10
-2.50148e-10
-2.50133e-10
-2.5012e-10
-2.50109e-10
-2.50098e-10
-2.50089e-10
-2.5008e-10
-2.50072e-10
-2.50065e-10
-2.50058e-10
-2.50052e-10
-2.50047e-10
-2.50042e-10
-2.50037e-10
-2.50033e-10
-2.50029e-10
-2.50026e-10
-2.50022e-10
-2.50019e-10
)
;

boundaryField
{
    inlet
    {
        type            calculated;
        value           uniform -2.50016e-10;
    }
    outlet
    {
        type            calculated;
        value           uniform 2.49984e-10;
    }
    repeat_boundary
    {
        type            calculated;
        value           uniform 0;
    }
    procBoundary1to0
    {
        type            processor;
        value           nonuniform List<scalar> 
180
(
-7.09818e-18
1.03542e-18
1.13524e-17
2.148e-17
3.13452e-17
4.13089e-17
5.181e-17
6.32403e-17
7.59025e-17
9.00189e-17
1.05754e-16
1.23233e-16
1.42561e-16
1.63819e-16
1.87071e-16
2.1237e-16
2.39754e-16
2.69246e-16
3.00857e-16
3.34587e-16
3.7042e-16
4.08325e-16
4.48251e-16
4.90124e-16
5.33838e-16
5.79244e-16
6.26137e-16
6.7424e-16
7.23183e-16
7.72473e-16
8.21454e-16
8.69266e-16
9.1478e-16
9.5652e-16
9.92563e-16
1.0204e-15
1.03684e-15
1.04009e-15
1.02769e-15
9.96302e-16
9.4504e-16
8.7165e-16
7.734e-16
6.47551e-16
4.9179e-16
3.05637e-16
8.72332e-17
-1.68631e-16
-4.69864e-16
-8.27471e-16
-1.25334e-15
-1.75525e-15
-2.33025e-15
-2.96562e-15
-3.66597e-15
-4.51964e-15
-5.74498e-15
-7.50636e-15
-9.46365e-15
-1.13887e-14
-1.3601e-14
-1.61384e-14
-1.90472e-14
-2.23846e-14
-2.62177e-14
-3.06215e-14
-3.57404e-14
-4.16956e-14
-4.85651e-14
-5.64054e-14
-6.5225e-14
-7.48976e-14
-8.49278e-14
-9.41141e-14
-1.00161e-13
-9.98134e-14
-8.6984e-14
-5.51022e-14
-3.07351e-14
-1.80279e-13
-1.43999e-13
8.9004e-14
-4.75278e-12
1.55005e-13
3.81953e-12
9.53832e-12
7.19529e-13
4.01043e-12
-2.98601e-13
-4.10183e-12
-2.10191e-12
-5.69961e-13
5.5825e-13
3.23617e-12
1.92459e-12
2.01649e-12
5.56855e-12
1.88029e-12
2.5916e-12
1.19783e-12
3.57032e-12
4.60425e-12
8.60217e-13
1.89275e-13
1.04501e-13
-1.27237e-12
-2.11353e-12
-2.48907e-12
-2.56785e-12
-2.48069e-12
-2.31504e-12
-2.12202e-12
-1.92813e-12
-1.74511e-12
-1.57695e-12
-1.4242e-12
-1.28606e-12
-1.16134e-12
-1.04878e-12
-9.47216e-13
-8.55558e-13
-7.72833e-13
-6.98163e-13
-6.30756e-13
-5.69898e-13
-5.14948e-13
-4.65326e-13
-4.20512e-13
-3.80036e-13
-3.43475e-13
-3.10447e-13
-2.8061e-13
-2.53652e-13
-2.29295e-13
-2.07286e-13
-1.87397e-13
-1.69424e-13
-1.53181e-13
-1.385e-13
-1.25231e-13
-1.13238e-13
-1.02397e-13
-9.25977e-14
-8.37395e-14
-7.57318e-14
-6.84926e-14
-6.19482e-14
-5.60316e-14
-5.06826e-14
-4.58466e-14
-4.14744e-14
-3.75216e-14
-3.39478e-14
-3.07168e-14
-2.77957e-14
-2.51548e-14
-2.27674e-14
-2.06091e-14
-1.86582e-14
-1.68948e-14
-1.5301e-14
-1.38608e-14
-1.25596e-14
-1.13843e-14
-1.03229e-14
-9.36476e-15
-8.50028e-15
-7.72072e-15
-7.01824e-15
-6.38578e-15
-5.81697e-15
-5.30609e-15
-4.84805e-15
-4.43836e-15
-4.0733e-15
-3.75008e-15
-3.46747e-15
-3.22771e-15
-3.0411e-15
-2.96073e-15
)
;
    }
    procBoundary1to3
    {
        type            processor;
        value           nonuniform List<scalar> 
180
(
-3.27069e-16
-4.017e-16
-5.26535e-16
-6.83032e-16
-8.61009e-16
-1.05476e-15
-1.26195e-15
-1.48246e-15
-1.71749e-15
-1.96893e-15
-2.2391e-15
-2.53065e-15
-2.84647e-15
-3.18973e-15
-3.5639e-15
-3.97279e-15
-4.42058e-15
-4.91184e-15
-5.4516e-15
-6.04538e-15
-6.69927e-15
-7.41995e-15
-8.21476e-15
-9.0918e-15
-1.006e-14
-1.11291e-14
-1.23099e-14
-1.36144e-14
-1.50556e-14
-1.6648e-14
-1.84076e-14
-2.03518e-14
-2.25002e-14
-2.48741e-14
-2.74971e-14
-3.03955e-14
-3.35981e-14
-3.71368e-14
-4.10468e-14
-4.53671e-14
-5.01407e-14
-5.54151e-14
-6.12427e-14
-6.76813e-14
-7.47948e-14
-8.26534e-14
-9.13347e-14
-1.00924e-13
-1.11516e-13
-1.23213e-13
-1.3613e-13
-1.50394e-13
-1.66142e-13
-1.83529e-13
-2.02721e-13
-2.23904e-13
-2.47279e-13
-2.73073e-13
-3.01536e-13
-3.32943e-13
-3.6759e-13
-4.05803e-13
-4.47936e-13
-4.94375e-13
-5.45538e-13
-6.01876e-13
-6.6389e-13
-7.32108e-13
-8.07081e-13
-8.8933e-13
-9.79195e-13
-1.07648e-12
-1.17959e-12
-1.28382e-12
-1.37846e-12
-1.44257e-12
-1.44262e-12
-1.33319e-12
-1.08171e-12
-6.91175e-13
3.08466e-14
2.93265e-14
-5.76481e-12
2.87708e-13
2.5374e-12
2.60147e-12
3.19106e-12
2.68676e-12
-2.23664e-12
-1.87571e-12
5.58713e-13
6.84829e-13
9.01651e-12
5.47653e-12
3.28031e-12
4.44641e-12
4.94344e-12
4.48886e-12
3.40432e-12
-4.79956e-13
-1.84374e-12
-2.34258e-12
-2.4104e-12
-1.63291e-12
-1.28098e-12
-7.4229e-13
-5.06388e-13
-4.10054e-13
-3.5393e-13
-3.11313e-13
-2.74972e-13
-2.42327e-13
-2.12642e-13
-1.85932e-13
-1.6225e-13
-1.41468e-13
-1.23328e-13
-1.07528e-13
-9.37755e-14
-8.18057e-14
-7.13851e-14
-6.23103e-14
-5.44049e-14
-4.75158e-14
-4.15102e-14
-3.6273e-14
-3.17045e-14
-2.7718e-14
-2.42382e-14
-2.11998e-14
-1.85461e-14
-1.62278e-14
-1.4202e-14
-1.24313e-14
-1.08819e-14
-9.51102e-15
-8.3158e-15
-7.27434e-15
-6.36682e-15
-5.57528e-15
-4.88424e-15
-4.28086e-15
-3.754e-15
-3.29397e-15
-2.8923e-15
-2.5416e-15
-2.23538e-15
-1.96796e-15
-1.73425e-15
-1.52977e-15
-1.35072e-15
-1.19377e-15
-1.05603e-15
-9.34814e-16
-8.27936e-16
-7.33588e-16
-6.50168e-16
-5.76259e-16
-5.10615e-16
-4.52142e-16
-3.99891e-16
-3.53028e-16
-3.10817e-16
-2.72628e-16
-2.37919e-16
-2.06253e-16
-1.77243e-16
-1.5056e-16
-1.25926e-16
-1.03127e-16
-8.19956e-17
-6.23937e-17
-4.42072e-17
-2.73697e-17
-1.19491e-17
1.88879e-18
1.38439e-17
2.33341e-17
2.9745e-17
3.74059e-17
)
;
    }
}


// ************************************************************************* //
