/*--------------------------------*- C++ -*----------------------------------*\
| =========                 |                                                 |
| \\      /  F ield         | OpenFOAM: The Open Source CFD Toolbox           |
|  \\    /   O peration     | Version:  5.x                                   |
|   \\  /    A nd           | Web:      www.OpenFOAM.org                      |
|    \\/     M anipulation  |                                                 |
\*---------------------------------------------------------------------------*/
FoamFile
{
    version     2.0;
    format      ascii;
    class       volVectorField;
    location    "0.01";
    object      stored_U;
}
// * * * * * * * * * * * * * * * * * * * * * * * * * * * * * * * * * * * * * //

dimensions      [0 1 -1 0 0 0 0];

internalField   nonuniform List<vector> 
180
(
(3.47289e-10 -1.26164e-08 -0.000999931)
(-2.17533e-11 -1.52141e-08 -0.000999929)
(-4.46177e-10 -1.96942e-08 -0.000999928)
(-8.61794e-10 -2.54544e-08 -0.000999925)
(-1.26413e-09 -3.20792e-08 -0.000999923)
(-1.66269e-09 -3.93371e-08 -0.000999919)
(-2.0727e-09 -4.71337e-08 -0.000999915)
(-2.5085e-09 -5.54641e-08 -0.00099991)
(-2.98198e-09 -6.43744e-08 -0.000999905)
(-3.50304e-09 -7.39384e-08 -0.000999898)
(-4.08054e-09 -8.42464e-08 -0.000999891)
(-4.72315e-09 -9.53994e-08 -0.000999882)
(-5.4399e-09 -1.07508e-07 -0.000999873)
(-6.24039e-09 -1.20694e-07 -0.000999862)
(-7.135e-09 -1.35088e-07 -0.00099985)
(-8.13498e-09 -1.50834e-07 -0.000999837)
(-9.25256e-09 -1.6809e-07 -0.000999822)
(-1.0501e-08 -1.87028e-07 -0.000999805)
(-1.18947e-08 -2.07837e-07 -0.000999787)
(-1.34495e-08 -2.30725e-07 -0.000999766)
(-1.51822e-08 -2.55921e-07 -0.000999743)
(-1.71113e-08 -2.83675e-07 -0.000999718)
(-1.9257e-08 -3.14266e-07 -0.00099969)
(-2.16409e-08 -3.47998e-07 -0.000999659)
(-2.42865e-08 -3.85209e-07 -0.000999624)
(-2.72193e-08 -4.2627e-07 -0.000999586)
(-3.04667e-08 -4.71591e-07 -0.000999543)
(-3.40585e-08 -5.21626e-07 -0.000999496)
(-3.80265e-08 -5.76873e-07 -0.000999444)
(-4.24052e-08 -6.37885e-07 -0.000999387)
(-4.72314e-08 -7.05271e-07 -0.000999323)
(-5.25446e-08 -7.79705e-07 -0.000999252)
(-5.83869e-08 -8.61929e-07 -0.000999174)
(-6.48029e-08 -9.52766e-07 -0.000999087)
(-7.18401e-08 -1.05312e-06 -0.000998991)
(-7.95482e-08 -1.164e-06 -0.000998885)
(-8.79791e-08 -1.28651e-06 -0.000998768)
(-9.71865e-08 -1.42186e-06 -0.000998638)
(-1.07225e-07 -1.57142e-06 -0.000998494)
(-1.18151e-07 -1.73668e-06 -0.000998334)
(-1.30017e-07 -1.91929e-06 -0.000998158)
(-1.42878e-07 -2.12106e-06 -0.000997962)
(-1.56788e-07 -2.34401e-06 -0.000997746)
(-1.71797e-07 -2.59036e-06 -0.000997506)
(-1.87956e-07 -2.86256e-06 -0.000997241)
(-2.0531e-07 -3.16333e-06 -0.000996947)
(-2.23906e-07 -3.49564e-06 -0.000996622)
(-2.43791e-07 -3.8628e-06 -0.000996262)
(-2.65017e-07 -4.26843e-06 -0.000995865)
(-2.87647e-07 -4.71653e-06 -0.000995425)
(-3.11762e-07 -5.21152e-06 -0.000994939)
(-3.37472e-07 -5.75824e-06 -0.000994402)
(-3.64929e-07 -6.36201e-06 -0.00099381)
(-3.94343e-07 -7.0287e-06 -0.000993157)
(-4.25989e-07 -7.76472e-06 -0.000992437)
(-4.60201e-07 -8.57715e-06 -0.000991644)
(-4.97322e-07 -9.47378e-06 -0.000990769)
(-5.37604e-07 -1.04633e-05 -0.000989801)
(-5.81123e-07 -1.15553e-05 -0.000988732)
(-6.28011e-07 -1.27604e-05 -0.000987552)
(-6.78755e-07 -1.40901e-05 -0.000986252)
(-7.33927e-07 -1.55569e-05 -0.000984819)
(-7.94213e-07 -1.71747e-05 -0.000983242)
(-8.60428e-07 -1.89588e-05 -0.000981506)
(-9.33541e-07 -2.09261e-05 -0.000979596)
(-1.01472e-06 -2.30953e-05 -0.000977494)
(-1.1054e-06 -2.54863e-05 -0.000975184)
(-1.20745e-06 -2.81207e-05 -0.000972645)
(-1.32368e-06 -3.10208e-05 -0.000969856)
(-1.45901e-06 -3.42078e-05 -0.000966798)
(-1.62311e-06 -3.76952e-05 -0.000963453)
(-1.83618e-06 -4.14725e-05 -0.000959797)
(-2.13977e-06 -4.54682e-05 -0.000955763)
(-2.61301e-06 -4.94745e-05 -0.000951252)
(-3.38891e-06 -5.30217e-05 -0.000946535)
(-4.64976e-06 -5.51969e-05 -0.000943296)
(-6.65981e-06 -5.46161e-05 -0.000943428)
(-9.62812e-06 -4.94015e-05 -0.000935597)
(-1.28334e-05 -3.76153e-05 -0.000887097)
(-1.0358e-05 -1.84405e-05 -0.000680354)
(-1.00026e-05 1.06234e-05 -0.00262967)
(4.56305e-05 -3.07529e-05 -4.65189e-05)
(0.000217003 -0.000245273 -0.00270697)
(7.78371e-05 -7.71033e-05 -0.00331161)
(9.96898e-06 2.61421e-05 -0.000740754)
(-0.000531101 0.000294829 -0.0043329)
(-6.32952e-06 3.22553e-05 -0.000379469)
(-0.000291577 0.000237249 -0.00317106)
(9.09127e-05 -0.000127556 -0.00170128)
(0.000364649 -0.000162774 -0.00372602)
(6.09041e-05 1.27659e-05 -0.00146969)
(2.78671e-05 6.20982e-05 -0.00408668)
(-4.23277e-05 7.97868e-05 -0.00108647)
(-9.56616e-05 0.000536256 -0.00418373)
(-2.75131e-05 -3.11762e-05 -3.57536e-05)
(-0.00026111 0.000509424 -0.0044186)
(-0.00017821 0.000269474 -0.00194782)
(-0.000214063 0.000265974 -0.00204947)
(-0.000215487 0.00034612 -0.00372971)
(-0.000102343 -6.28153e-05 -0.00181303)
(-0.000262954 -7.43331e-05 -0.00290851)
(-0.00040708 -9.39254e-05 -0.0025277)
(-0.000118411 -7.41299e-05 -0.00178759)
(-1.68718e-05 -5.06569e-05 -0.00171646)
(1.00218e-05 -3.01083e-05 -0.00137853)
(5.74378e-05 -1.39613e-05 -0.00124096)
(8.59868e-05 -8.80994e-06 -0.00114128)
(9.85591e-05 -8.00724e-06 -0.00112226)
(0.000100601 -8.04512e-06 -0.00111777)
(9.6636e-05 -7.90726e-06 -0.00110925)
(8.98932e-05 -7.47661e-06 -0.00109883)
(8.22584e-05 -6.84851e-06 -0.00108902)
(7.46821e-05 -6.13808e-06 -0.00108027)
(6.75689e-05 -5.4302e-06 -0.00107243)
(6.10489e-05 -4.77141e-06 -0.00106535)
(5.51316e-05 -4.17946e-06 -0.00105896)
(4.97818e-05 -3.6563e-06 -0.0010532)
(4.49518e-05 -3.19717e-06 -0.00104801)
(4.05925e-05 -2.79535e-06 -0.00104332)
(3.66585e-05 -2.44401e-06 -0.0010391)
(3.31079e-05 -2.13692e-06 -0.00103529)
(2.99033e-05 -1.86852e-06 -0.00103186)
(2.70107e-05 -1.63393e-06 -0.00102876)
(2.43994e-05 -1.42887e-06 -0.00102597)
(2.20419e-05 -1.24964e-06 -0.00102345)
(1.99134e-05 -1.09296e-06 -0.00102117)
(1.79914e-05 -9.55989e-07 -0.00101912)
(1.62559e-05 -8.36252e-07 -0.00101727)
(1.46885e-05 -7.31573e-07 -0.00101559)
(1.3273e-05 -6.40053e-07 -0.00101408)
(1.19944e-05 -5.60034e-07 -0.00101272)
(1.08396e-05 -4.90068e-07 -0.00101149)
(9.7964e-06 -4.28889e-07 -0.00101038)
(8.854e-06 -3.75391e-07 -0.00100938)
(8.00261e-06 -3.28609e-07 -0.00100847)
(7.2334e-06 -2.87694e-07 -0.00100765)
(6.53838e-06 -2.519e-07 -0.00100692)
(5.91038e-06 -2.20574e-07 -0.00100625)
(5.34289e-06 -1.93149e-07 -0.00100565)
(4.83006e-06 -1.69131e-07 -0.0010051)
(4.36659e-06 -1.48092e-07 -0.00100461)
(3.94773e-06 -1.29656e-07 -0.00100417)
(3.56916e-06 -1.13496e-07 -0.00100377)
(3.227e-06 -9.93276e-08 -0.0010034)
(2.91772e-06 -8.69029e-08 -0.00100308)
(2.63817e-06 -7.60049e-08 -0.00100278)
(2.38549e-06 -6.64447e-08 -0.00100251)
(2.15708e-06 -5.80574e-08 -0.00100227)
(1.95061e-06 -5.06988e-08 -0.00100205)
(1.76397e-06 -4.42431e-08 -0.00100186)
(1.59527e-06 -3.858e-08 -0.00100168)
(1.44277e-06 -3.3613e-08 -0.00100152)
(1.30493e-06 -2.92571e-08 -0.00100137)
(1.18033e-06 -2.5438e-08 -0.00100124)
(1.06772e-06 -2.20899e-08 -0.00100112)
(9.65937e-07 -1.91549e-08 -0.00100101)
(8.73953e-07 -1.65821e-08 -0.00100092)
(7.9083e-07 -1.43263e-08 -0.00100083)
(7.15722e-07 -1.23478e-08 -0.00100075)
(6.47865e-07 -1.06114e-08 -0.00100068)
(5.86569e-07 -9.08599e-09 -0.00100061)
(5.3121e-07 -7.74416e-09 -0.00100055)
(4.81227e-07 -6.56154e-09 -0.0010005)
(4.3611e-07 -5.51657e-09 -0.00100045)
(3.95402e-07 -4.59005e-09 -0.00100041)
(3.5869e-07 -3.76491e-09 -0.00100037)
(3.256e-07 -3.02591e-09 -0.00100033)
(2.95796e-07 -2.35944e-09 -0.0010003)
(2.68976e-07 -1.75329e-09 -0.00100027)
(2.44867e-07 -1.19654e-09 -0.00100024)
(2.23224e-07 -6.79473e-10 -0.00100022)
(2.03827e-07 -1.9375e-10 -0.00100019)
(1.86482e-07 2.6716e-10 -0.00100017)
(1.71017e-07 7.07031e-10 -0.00100016)
(1.5729e-07 1.12547e-09 -0.00100014)
(1.452e-07 1.51654e-09 -0.00100012)
(1.34711e-07 1.86855e-09 -0.00100011)
(1.25942e-07 2.15829e-09 -0.00100009)
(1.19302e-07 2.36185e-09 -0.00100008)
(1.15691e-07 2.45785e-09 -0.00100007)
)
;

boundaryField
{
    inlet
    {
        type            calculated;
        value           uniform (1.15691e-07 2.45785e-09 -0.00100007);
    }
    outlet
    {
        type            calculated;
        value           uniform (3.47289e-10 -1.26164e-08 -0.000999931);
    }
    repeat_boundary
    {
        type            calculated;
        value           nonuniform List<vector> 
360
(
(3.47289e-10 0 -0.000999931)
(-2.17533e-11 0 -0.000999929)
(-4.46177e-10 0 -0.000999928)
(-8.61794e-10 0 -0.000999925)
(-1.26413e-09 0 -0.000999923)
(-1.66269e-09 0 -0.000999919)
(-2.0727e-09 0 -0.000999915)
(-2.5085e-09 0 -0.00099991)
(-2.98198e-09 0 -0.000999905)
(-3.50304e-09 0 -0.000999898)
(-4.08054e-09 0 -0.000999891)
(-4.72315e-09 0 -0.000999882)
(-5.4399e-09 0 -0.000999873)
(-6.24039e-09 0 -0.000999862)
(-7.135e-09 0 -0.00099985)
(-8.13498e-09 0 -0.000999837)
(-9.25256e-09 0 -0.000999822)
(-1.0501e-08 0 -0.000999805)
(-1.18947e-08 0 -0.000999787)
(-1.34495e-08 0 -0.000999766)
(-1.51822e-08 0 -0.000999743)
(-1.71113e-08 0 -0.000999718)
(-1.9257e-08 0 -0.00099969)
(-2.16409e-08 0 -0.000999659)
(-2.42865e-08 0 -0.000999624)
(-2.72193e-08 0 -0.000999586)
(-3.04667e-08 0 -0.000999543)
(-3.40585e-08 0 -0.000999496)
(-3.80265e-08 0 -0.000999444)
(-4.24052e-08 0 -0.000999387)
(-4.72314e-08 0 -0.000999323)
(-5.25446e-08 0 -0.000999252)
(-5.83869e-08 0 -0.000999174)
(-6.48029e-08 0 -0.000999087)
(-7.18401e-08 0 -0.000998991)
(-7.95482e-08 0 -0.000998885)
(-8.79791e-08 0 -0.000998768)
(-9.71865e-08 0 -0.000998638)
(-1.07225e-07 0 -0.000998494)
(-1.18151e-07 0 -0.000998334)
(-1.30017e-07 0 -0.000998158)
(-1.42878e-07 0 -0.000997962)
(-1.56788e-07 0 -0.000997746)
(-1.71797e-07 0 -0.000997506)
(-1.87956e-07 0 -0.000997241)
(-2.0531e-07 0 -0.000996947)
(-2.23906e-07 0 -0.000996622)
(-2.43791e-07 0 -0.000996262)
(-2.65017e-07 0 -0.000995865)
(-2.87647e-07 0 -0.000995425)
(-3.11762e-07 0 -0.000994939)
(-3.37472e-07 0 -0.000994402)
(-3.64929e-07 0 -0.00099381)
(-3.94343e-07 0 -0.000993157)
(-4.25989e-07 0 -0.000992437)
(-4.60201e-07 0 -0.000991644)
(-4.97322e-07 0 -0.000990769)
(-5.37604e-07 0 -0.000989801)
(-5.81123e-07 0 -0.000988732)
(-6.28011e-07 0 -0.000987552)
(-6.78755e-07 0 -0.000986252)
(-7.33927e-07 0 -0.000984819)
(-7.94213e-07 0 -0.000983242)
(-8.60428e-07 0 -0.000981506)
(-9.33541e-07 0 -0.000979596)
(-1.01472e-06 0 -0.000977494)
(-1.1054e-06 0 -0.000975184)
(-1.20745e-06 0 -0.000972645)
(-1.32368e-06 0 -0.000969856)
(-1.45901e-06 0 -0.000966798)
(-1.62311e-06 0 -0.000963453)
(-1.83618e-06 0 -0.000959797)
(-2.13977e-06 0 -0.000955763)
(-2.61301e-06 0 -0.000951252)
(-3.38891e-06 0 -0.000946535)
(-4.64976e-06 0 -0.000943296)
(-6.65981e-06 0 -0.000943428)
(-9.62812e-06 0 -0.000935597)
(-1.28334e-05 0 -0.000887097)
(-1.0358e-05 0 -0.000680354)
(-1.00026e-05 0 -0.00262967)
(4.56305e-05 0 -4.65189e-05)
(0.000217003 0 -0.00270697)
(7.78371e-05 0 -0.00331161)
(9.96898e-06 0 -0.000740754)
(-0.000531101 0 -0.0043329)
(-6.32952e-06 0 -0.000379469)
(-0.000291577 0 -0.00317106)
(9.09127e-05 0 -0.00170128)
(0.000364649 0 -0.00372602)
(6.09041e-05 0 -0.00146969)
(2.78671e-05 0 -0.00408668)
(-4.23277e-05 0 -0.00108647)
(-9.56616e-05 0 -0.00418373)
(-2.75131e-05 0 -3.57536e-05)
(-0.00026111 0 -0.0044186)
(-0.00017821 0 -0.00194782)
(-0.000214063 0 -0.00204947)
(-0.000215487 0 -0.00372971)
(-0.000102343 0 -0.00181303)
(-0.000262954 0 -0.00290851)
(-0.00040708 0 -0.0025277)
(-0.000118411 0 -0.00178759)
(-1.68718e-05 0 -0.00171646)
(1.00218e-05 0 -0.00137853)
(5.74378e-05 0 -0.00124096)
(8.59868e-05 0 -0.00114128)
(9.85591e-05 0 -0.00112226)
(0.000100601 0 -0.00111777)
(9.6636e-05 0 -0.00110925)
(8.98932e-05 0 -0.00109883)
(8.22584e-05 0 -0.00108902)
(7.46821e-05 0 -0.00108027)
(6.75689e-05 0 -0.00107243)
(6.10489e-05 0 -0.00106535)
(5.51316e-05 0 -0.00105896)
(4.97818e-05 0 -0.0010532)
(4.49518e-05 0 -0.00104801)
(4.05925e-05 0 -0.00104332)
(3.66585e-05 0 -0.0010391)
(3.31079e-05 0 -0.00103529)
(2.99033e-05 0 -0.00103186)
(2.70107e-05 0 -0.00102876)
(2.43994e-05 0 -0.00102597)
(2.20419e-05 0 -0.00102345)
(1.99134e-05 0 -0.00102117)
(1.79914e-05 0 -0.00101912)
(1.62559e-05 0 -0.00101727)
(1.46885e-05 0 -0.00101559)
(1.3273e-05 0 -0.00101408)
(1.19944e-05 0 -0.00101272)
(1.08396e-05 0 -0.00101149)
(9.7964e-06 0 -0.00101038)
(8.854e-06 0 -0.00100938)
(8.00261e-06 0 -0.00100847)
(7.2334e-06 0 -0.00100765)
(6.53838e-06 0 -0.00100692)
(5.91038e-06 0 -0.00100625)
(5.34289e-06 0 -0.00100565)
(4.83006e-06 0 -0.0010051)
(4.36659e-06 0 -0.00100461)
(3.94773e-06 0 -0.00100417)
(3.56916e-06 0 -0.00100377)
(3.227e-06 0 -0.0010034)
(2.91772e-06 0 -0.00100308)
(2.63817e-06 0 -0.00100278)
(2.38549e-06 0 -0.00100251)
(2.15708e-06 0 -0.00100227)
(1.95061e-06 0 -0.00100205)
(1.76397e-06 0 -0.00100186)
(1.59527e-06 0 -0.00100168)
(1.44277e-06 0 -0.00100152)
(1.30493e-06 0 -0.00100137)
(1.18033e-06 0 -0.00100124)
(1.06772e-06 0 -0.00100112)
(9.65937e-07 0 -0.00100101)
(8.73953e-07 0 -0.00100092)
(7.9083e-07 0 -0.00100083)
(7.15722e-07 0 -0.00100075)
(6.47865e-07 0 -0.00100068)
(5.86569e-07 0 -0.00100061)
(5.3121e-07 0 -0.00100055)
(4.81227e-07 0 -0.0010005)
(4.3611e-07 0 -0.00100045)
(3.95402e-07 0 -0.00100041)
(3.5869e-07 0 -0.00100037)
(3.256e-07 0 -0.00100033)
(2.95796e-07 0 -0.0010003)
(2.68976e-07 0 -0.00100027)
(2.44867e-07 0 -0.00100024)
(2.23224e-07 0 -0.00100022)
(2.03827e-07 0 -0.00100019)
(1.86482e-07 0 -0.00100017)
(1.71017e-07 0 -0.00100016)
(1.5729e-07 0 -0.00100014)
(1.452e-07 0 -0.00100012)
(1.34711e-07 0 -0.00100011)
(1.25942e-07 0 -0.00100009)
(1.19302e-07 0 -0.00100008)
(1.15691e-07 0 -0.00100007)
(0 -1.26164e-08 -0.000999931)
(0 -1.52141e-08 -0.000999929)
(0 -1.96942e-08 -0.000999928)
(0 -2.54544e-08 -0.000999925)
(0 -3.20792e-08 -0.000999923)
(0 -3.93371e-08 -0.000999919)
(0 -4.71337e-08 -0.000999915)
(0 -5.54641e-08 -0.00099991)
(0 -6.43744e-08 -0.000999905)
(0 -7.39384e-08 -0.000999898)
(0 -8.42464e-08 -0.000999891)
(0 -9.53994e-08 -0.000999882)
(0 -1.07508e-07 -0.000999873)
(0 -1.20694e-07 -0.000999862)
(0 -1.35088e-07 -0.00099985)
(0 -1.50834e-07 -0.000999837)
(0 -1.6809e-07 -0.000999822)
(0 -1.87028e-07 -0.000999805)
(0 -2.07837e-07 -0.000999787)
(0 -2.30725e-07 -0.000999766)
(0 -2.55921e-07 -0.000999743)
(0 -2.83675e-07 -0.000999718)
(0 -3.14266e-07 -0.00099969)
(0 -3.47998e-07 -0.000999659)
(0 -3.85209e-07 -0.000999624)
(0 -4.2627e-07 -0.000999586)
(0 -4.71591e-07 -0.000999543)
(0 -5.21626e-07 -0.000999496)
(0 -5.76873e-07 -0.000999444)
(0 -6.37885e-07 -0.000999387)
(0 -7.05271e-07 -0.000999323)
(0 -7.79705e-07 -0.000999252)
(0 -8.61929e-07 -0.000999174)
(0 -9.52766e-07 -0.000999087)
(0 -1.05312e-06 -0.000998991)
(0 -1.164e-06 -0.000998885)
(0 -1.28651e-06 -0.000998768)
(0 -1.42186e-06 -0.000998638)
(0 -1.57142e-06 -0.000998494)
(0 -1.73668e-06 -0.000998334)
(0 -1.91929e-06 -0.000998158)
(0 -2.12106e-06 -0.000997962)
(0 -2.34401e-06 -0.000997746)
(0 -2.59036e-06 -0.000997506)
(0 -2.86256e-06 -0.000997241)
(0 -3.16333e-06 -0.000996947)
(0 -3.49564e-06 -0.000996622)
(0 -3.8628e-06 -0.000996262)
(0 -4.26843e-06 -0.000995865)
(0 -4.71653e-06 -0.000995425)
(0 -5.21152e-06 -0.000994939)
(0 -5.75824e-06 -0.000994402)
(0 -6.36201e-06 -0.00099381)
(0 -7.0287e-06 -0.000993157)
(0 -7.76472e-06 -0.000992437)
(0 -8.57715e-06 -0.000991644)
(0 -9.47378e-06 -0.000990769)
(0 -1.04633e-05 -0.000989801)
(0 -1.15553e-05 -0.000988732)
(0 -1.27604e-05 -0.000987552)
(0 -1.40901e-05 -0.000986252)
(0 -1.55569e-05 -0.000984819)
(0 -1.71747e-05 -0.000983242)
(0 -1.89588e-05 -0.000981506)
(0 -2.09261e-05 -0.000979596)
(0 -2.30953e-05 -0.000977494)
(0 -2.54863e-05 -0.000975184)
(0 -2.81207e-05 -0.000972645)
(0 -3.10208e-05 -0.000969856)
(0 -3.42078e-05 -0.000966798)
(0 -3.76952e-05 -0.000963453)
(0 -4.14725e-05 -0.000959797)
(0 -4.54682e-05 -0.000955763)
(0 -4.94745e-05 -0.000951252)
(0 -5.30217e-05 -0.000946535)
(0 -5.51969e-05 -0.000943296)
(0 -5.46161e-05 -0.000943428)
(0 -4.94015e-05 -0.000935597)
(0 -3.76153e-05 -0.000887097)
(0 -1.84405e-05 -0.000680354)
(0 1.06234e-05 -0.00262967)
(0 -3.07529e-05 -4.65189e-05)
(0 -0.000245273 -0.00270697)
(0 -7.71033e-05 -0.00331161)
(0 2.61421e-05 -0.000740754)
(0 0.000294829 -0.0043329)
(0 3.22553e-05 -0.000379469)
(0 0.000237249 -0.00317106)
(0 -0.000127556 -0.00170128)
(0 -0.000162774 -0.00372602)
(0 1.27659e-05 -0.00146969)
(0 6.20982e-05 -0.00408668)
(0 7.97868e-05 -0.00108647)
(0 0.000536256 -0.00418373)
(0 -3.11762e-05 -3.57536e-05)
(0 0.000509424 -0.0044186)
(0 0.000269474 -0.00194782)
(0 0.000265974 -0.00204947)
(0 0.00034612 -0.00372971)
(0 -6.28153e-05 -0.00181303)
(0 -7.43331e-05 -0.00290851)
(0 -9.39254e-05 -0.0025277)
(0 -7.41299e-05 -0.00178759)
(0 -5.06569e-05 -0.00171646)
(0 -3.01083e-05 -0.00137853)
(0 -1.39613e-05 -0.00124096)
(0 -8.80994e-06 -0.00114128)
(0 -8.00724e-06 -0.00112226)
(0 -8.04512e-06 -0.00111777)
(0 -7.90726e-06 -0.00110925)
(0 -7.47661e-06 -0.00109883)
(0 -6.84851e-06 -0.00108902)
(0 -6.13808e-06 -0.00108027)
(0 -5.4302e-06 -0.00107243)
(0 -4.77141e-06 -0.00106535)
(0 -4.17946e-06 -0.00105896)
(0 -3.6563e-06 -0.0010532)
(0 -3.19717e-06 -0.00104801)
(0 -2.79535e-06 -0.00104332)
(0 -2.44401e-06 -0.0010391)
(0 -2.13692e-06 -0.00103529)
(0 -1.86852e-06 -0.00103186)
(0 -1.63393e-06 -0.00102876)
(0 -1.42887e-06 -0.00102597)
(0 -1.24964e-06 -0.00102345)
(0 -1.09296e-06 -0.00102117)
(0 -9.55989e-07 -0.00101912)
(0 -8.36252e-07 -0.00101727)
(0 -7.31573e-07 -0.00101559)
(0 -6.40053e-07 -0.00101408)
(0 -5.60034e-07 -0.00101272)
(0 -4.90068e-07 -0.00101149)
(0 -4.28889e-07 -0.00101038)
(0 -3.75391e-07 -0.00100938)
(0 -3.28609e-07 -0.00100847)
(0 -2.87694e-07 -0.00100765)
(0 -2.519e-07 -0.00100692)
(0 -2.20574e-07 -0.00100625)
(0 -1.93149e-07 -0.00100565)
(0 -1.69131e-07 -0.0010051)
(0 -1.48092e-07 -0.00100461)
(0 -1.29656e-07 -0.00100417)
(0 -1.13496e-07 -0.00100377)
(0 -9.93276e-08 -0.0010034)
(0 -8.69029e-08 -0.00100308)
(0 -7.60049e-08 -0.00100278)
(0 -6.64447e-08 -0.00100251)
(0 -5.80574e-08 -0.00100227)
(0 -5.06988e-08 -0.00100205)
(0 -4.42431e-08 -0.00100186)
(0 -3.858e-08 -0.00100168)
(0 -3.3613e-08 -0.00100152)
(0 -2.92571e-08 -0.00100137)
(0 -2.5438e-08 -0.00100124)
(0 -2.20899e-08 -0.00100112)
(0 -1.91549e-08 -0.00100101)
(0 -1.65821e-08 -0.00100092)
(0 -1.43263e-08 -0.00100083)
(0 -1.23478e-08 -0.00100075)
(0 -1.06114e-08 -0.00100068)
(0 -9.08599e-09 -0.00100061)
(0 -7.74416e-09 -0.00100055)
(0 -6.56154e-09 -0.0010005)
(0 -5.51657e-09 -0.00100045)
(0 -4.59005e-09 -0.00100041)
(0 -3.76491e-09 -0.00100037)
(0 -3.02591e-09 -0.00100033)
(0 -2.35944e-09 -0.0010003)
(0 -1.75329e-09 -0.00100027)
(0 -1.19654e-09 -0.00100024)
(0 -6.79473e-10 -0.00100022)
(0 -1.9375e-10 -0.00100019)
(0 2.6716e-10 -0.00100017)
(0 7.07031e-10 -0.00100016)
(0 1.12547e-09 -0.00100014)
(0 1.51654e-09 -0.00100012)
(0 1.86855e-09 -0.00100011)
(0 2.15829e-09 -0.00100009)
(0 2.36185e-09 -0.00100008)
(0 2.45785e-09 -0.00100007)
)
;
    }
    procBoundary1to0
    {
        type            processor;
        value           nonuniform List<vector> 
180
(
(3.47292e-10 -1.25091e-08 -0.000999925)
(-2.17499e-11 -1.51014e-08 -0.000999924)
(-4.46174e-10 -1.95573e-08 -0.000999922)
(-8.6179e-10 -2.52783e-08 -0.000999919)
(-1.26412e-09 -3.18565e-08 -0.000999916)
(-1.66269e-09 -3.90605e-08 -0.000999912)
(-2.0727e-09 -4.67958e-08 -0.000999908)
(-2.50849e-09 -5.50558e-08 -0.000999902)
(-2.98198e-09 -6.3885e-08 -0.000999895)
(-3.50304e-09 -7.33555e-08 -0.000999888)
(-4.08053e-09 -8.35552e-08 -0.000999879)
(-4.72315e-09 -9.4583e-08 -0.00099987)
(-5.43989e-09 -1.06547e-07 -0.000999858)
(-6.24038e-09 -1.19565e-07 -0.000999846)
(-7.13499e-09 -1.33765e-07 -0.000999832)
(-8.13497e-09 -1.49287e-07 -0.000999817)
(-9.25255e-09 -1.66284e-07 -0.000999799)
(-1.0501e-08 -1.84923e-07 -0.00099978)
(-1.18947e-08 -2.05388e-07 -0.000999759)
(-1.34494e-08 -2.27879e-07 -0.000999735)
(-1.51821e-08 -2.52618e-07 -0.000999708)
(-1.71113e-08 -2.79848e-07 -0.000999679)
(-1.9257e-08 -3.09835e-07 -0.000999646)
(-2.16408e-08 -3.42874e-07 -0.000999611)
(-2.42864e-08 -3.79289e-07 -0.000999571)
(-2.72192e-08 -4.19436e-07 -0.000999527)
(-3.04666e-08 -4.63708e-07 -0.000999478)
(-3.40583e-08 -5.12538e-07 -0.000999424)
(-3.80264e-08 -5.66403e-07 -0.000999364)
(-4.2405e-08 -6.2583e-07 -0.000999299)
(-4.72312e-08 -6.91397e-07 -0.000999226)
(-5.25443e-08 -7.63744e-07 -0.000999146)
(-5.83865e-08 -8.43577e-07 -0.000999057)
(-6.48025e-08 -9.31671e-07 -0.000998959)
(-7.18396e-08 -1.02888e-06 -0.000998851)
(-7.95475e-08 -1.13616e-06 -0.000998731)
(-8.79783e-08 -1.25455e-06 -0.0009986)
(-9.71855e-08 -1.38518e-06 -0.000998455)
(-1.07224e-07 -1.52934e-06 -0.000998295)
(-1.18149e-07 -1.68842e-06 -0.000998118)
(-1.30015e-07 -1.86395e-06 -0.000997924)
(-1.42876e-07 -2.05763e-06 -0.000997709)
(-1.56785e-07 -2.27134e-06 -0.000997473)
(-1.71794e-07 -2.50715e-06 -0.000997213)
(-1.87951e-07 -2.76731e-06 -0.000996926)
(-2.05305e-07 -3.05436e-06 -0.000996611)
(-2.23899e-07 -3.37106e-06 -0.000996263)
(-2.43782e-07 -3.72046e-06 -0.00099588)
(-2.65006e-07 -4.10596e-06 -0.000995459)
(-2.87633e-07 -4.53127e-06 -0.000994994)
(-3.11745e-07 -5.00054e-06 -0.000994482)
(-3.3745e-07 -5.51831e-06 -0.000993917)
(-3.64902e-07 -6.08965e-06 -0.000993293)
(-3.94309e-07 -6.72015e-06 -0.000992605)
(-4.25947e-07 -7.41601e-06 -0.000991845)
(-4.60148e-07 -8.18409e-06 -0.000991005)
(-4.97255e-07 -9.03192e-06 -0.000990078)
(-5.37519e-07 -9.96777e-06 -0.000989058)
(-5.81015e-07 -1.10007e-05 -0.000987935)
(-6.27874e-07 -1.21406e-05 -0.000986696)
(-6.7858e-07 -1.33986e-05 -0.000985328)
(-7.33705e-07 -1.47872e-05 -0.000983818)
(-7.93929e-07 -1.632e-05 -0.000982151)
(-8.60062e-07 -1.80119e-05 -0.000980309)
(-9.33066e-07 -1.98794e-05 -0.000978275)
(-1.01409e-06 -2.19404e-05 -0.000976029)
(-1.10449e-06 -2.42148e-05 -0.000973548)
(-1.20596e-06 -2.67247e-05 -0.000970807)
(-1.32071e-06 -2.94933e-05 -0.000967778)
(-1.45195e-06 -3.25435e-05 -0.000964431)
(-1.60476e-06 -3.58928e-05 -0.000960737)
(-1.78815e-06 -3.95397e-05 -0.000956652)
(-2.01927e-06 -4.34353e-05 -0.00095208)
(-2.33104e-06 -4.74271e-05 -0.000946897)
(-2.78427e-06 -5.11694e-05 -0.000941368)
(-3.47428e-06 -5.40088e-05 -0.000936961)
(-4.59544e-06 -5.50937e-05 -0.000935281)
(-6.42167e-06 -5.34141e-05 -0.000930895)
(-8.47354e-06 -4.73319e-05 -0.000928094)
(-5.0083e-06 -3.18734e-05 -0.000553422)
(-7.7872e-06 -9.14942e-06 -0.00299448)
(-6.60928e-06 1.77783e-05 -1.37807e-06)
(0.000201255 5.47215e-05 -0.00360376)
(5.96804e-06 2.42742e-05 -6.44815e-05)
(-0.000434809 -0.000254499 -0.00292419)
(-0.000517992 -0.000287718 -0.00262243)
(-2.85854e-05 -1.58023e-05 -0.000498035)
(-0.000132749 -0.000188641 -0.00506718)
(1.61653e-05 1.66715e-05 -0.000281297)
(0.000304645 0.000309082 -0.0044551)
(0.000204867 0.000452151 -0.00178884)
(9.45009e-05 0.000907315 -0.00325944)
(-6.50688e-05 0.000115948 -0.000414019)
(-0.000128081 0.00137248 -0.003198)
(-0.000177516 0.000436415 -0.00296787)
(-0.000104135 -4.84667e-05 -0.00106356)
(-0.000481404 -0.00103215 -0.00373121)
(-0.000100332 -0.000180876 -0.000782712)
(-0.000158646 -0.000390598 -0.00370072)
(-9.1633e-05 -0.000176153 -0.00174998)
(-0.000225923 -0.000176093 -0.00290618)
(-0.00012798 -7.27532e-05 -0.00239847)
(-3.17073e-05 9.42973e-06 -0.00154535)
(-3.3896e-05 2.9415e-05 -0.00173938)
(-3.38512e-05 -2.4176e-05 -0.000812419)
(3.67944e-05 -1.14095e-05 -0.00094411)
(7.58395e-05 1.44043e-06 -0.000857966)
(9.34483e-05 7.55371e-06 -0.000860627)
(9.81287e-05 9.18723e-06 -0.000877373)
(9.55925e-05 8.94055e-06 -0.000890935)
(8.95621e-05 8.08031e-06 -0.00090156)
(8.22374e-05 7.09478e-06 -0.00091103)
(7.4771e-05 6.16041e-06 -0.000919752)
(6.76816e-05 5.33045e-06 -0.000927684)
(6.11541e-05 4.6095e-06 -0.000934831)
(5.52211e-05 3.98658e-06 -0.000941259)
(4.98554e-05 3.44827e-06 -0.000947044)
(4.50115e-05 2.98265e-06 -0.000952253)
(4.06408e-05 2.57964e-06 -0.000956944)
(3.66975e-05 2.23077e-06 -0.000961168)
(3.31395e-05 1.92874e-06 -0.000964974)
(2.99288e-05 1.6673e-06 -0.000968403)
(2.70313e-05 1.44101e-06 -0.000971493)
(2.44161e-05 1.24518e-06 -0.000974278)
(2.20554e-05 1.07575e-06 -0.000976788)
(1.99243e-05 9.29172e-07 -0.000979052)
(1.80003e-05 8.02401e-07 -0.000981092)
(1.6263e-05 6.92783e-07 -0.000982932)
(1.46943e-05 5.98019e-07 -0.000984592)
(1.32777e-05 5.16117e-07 -0.000986089)
(1.19983e-05 4.45348e-07 -0.00098744)
(1.08427e-05 3.84214e-07 -0.000988658)
(9.79891e-06 3.31416e-07 -0.000989757)
(8.85603e-06 2.85829e-07 -0.00099075)
(8.00426e-06 2.46476e-07 -0.000991645)
(7.23473e-06 2.12513e-07 -0.000992453)
(6.53947e-06 1.83208e-07 -0.000993183)
(5.91126e-06 1.57927e-07 -0.000993842)
(5.3436e-06 1.36122e-07 -0.000994436)
(4.83064e-06 1.17319e-07 -0.000994973)
(4.36707e-06 1.01108e-07 -0.000995458)
(3.94812e-06 8.71337e-08 -0.000995896)
(3.56947e-06 7.5091e-08 -0.000996292)
(3.22725e-06 6.47155e-08 -0.000996649)
(2.91793e-06 5.57791e-08 -0.000996972)
(2.63834e-06 4.80848e-08 -0.000997263)
(2.38562e-06 4.14627e-08 -0.000997527)
(2.15719e-06 3.5766e-08 -0.000997765)
(1.9507e-06 3.08679e-08 -0.00099798)
(1.76404e-06 2.6659e-08 -0.000998175)
(1.59533e-06 2.30446e-08 -0.00099835)
(1.44282e-06 1.99428e-08 -0.000998509)
(1.30496e-06 1.72827e-08 -0.000998653)
(1.18036e-06 1.50031e-08 -0.000998783)
(1.06774e-06 1.30507e-08 -0.0009989)
(9.65958e-07 1.13795e-08 -0.000999006)
(8.7397e-07 9.94992e-09 -0.000999102)
(7.90844e-07 8.72765e-09 -0.000999189)
(7.15733e-07 7.68335e-09 -0.000999268)
(6.47874e-07 6.79187e-09 -0.000999339)
(5.86576e-07 6.03175e-09 -0.000999403)
(5.31216e-07 5.38478e-09 -0.000999462)
(4.81232e-07 4.8356e-09 -0.000999514)
(4.36114e-07 4.37134e-09 -0.000999562)
(3.95406e-07 3.98132e-09 -0.000999606)
(3.58693e-07 3.65679e-09 -0.000999645)
(3.25602e-07 3.39063e-09 -0.000999681)
(2.95798e-07 3.17715e-09 -0.000999713)
(2.68978e-07 3.01188e-09 -0.000999742)
(2.44868e-07 2.89138e-09 -0.000999769)
(2.23225e-07 2.81312e-09 -0.000999793)
(2.03828e-07 2.77538e-09 -0.000999815)
(1.86482e-07 2.77703e-09 -0.000999835)
(1.71017e-07 2.81702e-09 -0.000999854)
(1.5729e-07 2.89291e-09 -0.000999871)
(1.452e-07 2.99734e-09 -0.000999886)
(1.34711e-07 3.11192e-09 -0.000999901)
(1.25942e-07 3.21122e-09 -0.000999914)
(1.19302e-07 3.26884e-09 -0.000999928)
(1.15692e-07 3.2931e-09 -0.000999938)
)
;
    }
    procBoundary1to3
    {
        type            processor;
        value           nonuniform List<vector> 
180
(
(2.39947e-10 -1.26165e-08 -0.00100007)
(-1.34434e-10 -1.52142e-08 -0.00100007)
(-5.831e-10 -1.96943e-08 -0.00100007)
(-1.03782e-09 -2.54545e-08 -0.00100007)
(-1.48678e-09 -3.20793e-08 -0.00100007)
(-1.93923e-09 -3.93372e-08 -0.00100008)
(-2.41065e-09 -4.71339e-08 -0.00100008)
(-2.9168e-09 -5.54643e-08 -0.00100009)
(-3.47132e-09 -6.43746e-08 -0.0010001)
(-4.08596e-09 -7.39387e-08 -0.0010001)
(-4.77169e-09 -8.42467e-08 -0.00100011)
(-5.53958e-09 -9.53997e-08 -0.00100012)
(-6.40131e-09 -1.07509e-07 -0.00100014)
(-7.36958e-09 -1.20694e-07 -0.00100015)
(-8.45823e-09 -1.35089e-07 -0.00100016)
(-9.68245e-09 -1.50835e-07 -0.00100018)
(-1.1059e-08 -1.68091e-07 -0.0010002)
(-1.26061e-08 -1.87029e-07 -0.00100022)
(-1.43442e-08 -2.07839e-07 -0.00100024)
(-1.62954e-08 -2.30727e-07 -0.00100027)
(-1.84845e-08 -2.55922e-07 -0.00100029)
(-2.09385e-08 -2.83677e-07 -0.00100032)
(-2.36875e-08 -3.14268e-07 -0.00100036)
(-2.67645e-08 -3.48001e-07 -0.0010004)
(-3.02063e-08 -3.85213e-07 -0.00100044)
(-3.40531e-08 -4.26275e-07 -0.00100048)
(-3.83499e-08 -4.71597e-07 -0.00100053)
(-4.31461e-08 -5.21633e-07 -0.00100059)
(-4.84962e-08 -5.76882e-07 -0.00100065)
(-5.44606e-08 -6.37896e-07 -0.00100072)
(-6.11058e-08 -7.05285e-07 -0.0010008)
(-6.85053e-08 -7.79721e-07 -0.00100088)
(-7.67397e-08 -8.61949e-07 -0.00100097)
(-8.58981e-08 -9.52791e-07 -0.00100108)
(-9.60779e-08 -1.05315e-06 -0.00100119)
(-1.07386e-07 -1.16404e-06 -0.00100131)
(-1.1994e-07 -1.28655e-06 -0.00100145)
(-1.33868e-07 -1.42192e-06 -0.0010016)
(-1.4931e-07 -1.57149e-06 -0.00100177)
(-1.66418e-07 -1.73677e-06 -0.00100196)
(-1.85357e-07 -1.91939e-06 -0.00100216)
(-2.06305e-07 -2.12118e-06 -0.00100239)
(-2.29456e-07 -2.34416e-06 -0.00100263)
(-2.55017e-07 -2.59055e-06 -0.00100291)
(-2.83214e-07 -2.8628e-06 -0.00100321)
(-3.1429e-07 -3.16362e-06 -0.00100354)
(-3.48507e-07 -3.49599e-06 -0.00100391)
(-3.86146e-07 -3.86323e-06 -0.00100432)
(-4.27513e-07 -4.26896e-06 -0.00100476)
(-4.72941e-07 -4.71719e-06 -0.00100526)
(-5.22791e-07 -5.21233e-06 -0.0010058)
(-5.77456e-07 -5.75923e-06 -0.0010064)
(-6.37363e-07 -6.36323e-06 -0.00100706)
(-7.02979e-07 -7.03019e-06 -0.00100779)
(-7.74811e-07 -7.76655e-06 -0.00100859)
(-8.53411e-07 -8.5794e-06 -0.00100948)
(-9.3938e-07 -9.47655e-06 -0.00101046)
(-1.03337e-06 -1.04667e-05 -0.00101153)
(-1.13607e-06 -1.15595e-05 -0.00101272)
(-1.24824e-06 -1.27655e-05 -0.00101403)
(-1.37067e-06 -1.40964e-05 -0.00101547)
(-1.50421e-06 -1.55647e-05 -0.00101705)
(-1.64974e-06 -1.71843e-05 -0.0010188)
(-1.80835e-06 -1.89706e-05 -0.00102073)
(-1.98154e-06 -2.09407e-05 -0.00102286)
(-2.17133e-06 -2.31132e-05 -0.00102521)
(-2.37903e-06 -2.55085e-05 -0.00102779)
(-2.60613e-06 -2.81484e-05 -0.00103063)
(-2.85463e-06 -3.10561e-05 -0.00103376)
(-3.12756e-06 -3.42549e-05 -0.00103719)
(-3.43041e-06 -3.77636e-05 -0.00104098)
(-3.77293e-06 -4.15851e-05 -0.00104513)
(-4.16937e-06 -4.56774e-05 -0.00104962)
(-4.6304e-06 -4.98937e-05 -0.00105434)
(-5.13143e-06 -5.38703e-05 -0.00105958)
(-5.53124e-06 -5.68608e-05 -0.00106708)
(-5.42076e-06 -5.75479e-05 -0.00107882)
(-4.0419e-06 -5.41624e-05 -0.00108165)
(-3.29555e-07 -4.44715e-05 -0.00103688)
(7.45923e-06 -2.76391e-05 -0.000757368)
(1.65231e-05 -2.42142e-06 -0.00342163)
(-1.34373e-05 -1.99702e-05 -4.52629e-06)
(-7.72781e-05 -0.000241349 -0.00431846)
(-7.51088e-07 -4.61785e-05 -4.67548e-05)
(0.000149172 0.000286069 -0.00509991)
(2.03704e-05 -5.49884e-05 -0.000185995)
(0.000339303 0.000306481 -0.00520283)
(7.52596e-06 -3.82146e-05 -0.000397611)
(-7.93138e-05 -0.000187788 -0.00484349)
(-9.18239e-05 -0.000122687 -0.00132479)
(-0.00032453 3.80717e-05 -0.00554825)
(-5.02972e-05 2.18849e-05 -2.15686e-05)
(-0.00134132 0.000846389 -0.00471651)
(-0.000106995 5.43666e-05 -0.000426742)
(-0.00030738 0.00037015 -0.00465582)