/*--------------------------------*- C++ -*----------------------------------*\
  =========                 |
  \\      /  F ield         | OpenFOAM: The Open Source CFD Toolbox
   \\    /   O peration     | Website:  https://openfoam.org
    \\  /    A nd           | Version:  9
     \\/     M anipulation  |
\*---------------------------------------------------------------------------*/
FoamFile
{
    format      ascii;
    class       surfaceScalarField;
    location    "200";
    object      phi;
}
// * * * * * * * * * * * * * * * * * * * * * * * * * * * * * * * * * * * * * //

dimensions      [0 3 -1 0 0 0 0];

internalField   nonuniform List<scalar> 
716
(
8.16771e-09
-4.58578e-09
-0.025
-7.84223e-09
-0.0249995
4.92871e-09
-0.0250004
-0.025
2.06134e-08
-1.07259e-08
-0.025
-2.00439e-08
-0.0249995
1.13686e-08
-0.0250005
-0.025
3.34802e-08
-1.88223e-08
-0.025
-3.26027e-08
-0.0249995
1.98084e-08
-0.0250005
-0.025
4.62668e-08
-2.94867e-08
-0.025
-4.50698e-08
-0.0249994
3.08014e-08
-0.0250006
-0.025
5.90461e-08
-4.36863e-08
-0.025
-5.75679e-08
-0.0249994
4.52885e-08
-0.0250008
-0.0249999
7.19523e-08
-6.24188e-08
-0.0249999
-7.03587e-08
-0.0249993
6.42522e-08
-0.025001
-0.0249999
8.5264e-08
-8.67281e-08
-0.0249999
-8.37097e-08
-0.0249992
8.87007e-08
-0.0250012
-0.0249998
9.93952e-08
-1.17792e-07
-0.0249998
-9.80208e-08
-0.024999
1.19751e-07
-0.0250015
-0.0249998
1.14876e-07
-1.56939e-07
-0.0249998
-1.13934e-07
-0.0249988
1.58662e-07
-0.0250018
-0.0249997
1.32364e-07
-2.05822e-07
-0.0249997
-1.32239e-07
-0.0249985
2.06972e-07
-0.0250022
-0.0249996
1.52552e-07
-2.66543e-07
-0.0249996
-1.53817e-07
-0.0249982
2.6663e-07
-0.0250027
-0.0249995
1.76068e-07
-3.41855e-07
-0.0249994
-1.7956e-07
-0.0249978
3.40173e-07
-0.0250034
-0.0249994
2.03339e-07
-4.35416e-07
-0.0249992
-2.10273e-07
-0.0249974
4.30958e-07
-0.0250042
-0.0249992
2.34398e-07
-5.52113e-07
-0.0249989
-2.46528e-07
-0.0249968
5.43456e-07
-0.0250053
-0.0249989
2.68608e-07
-6.98466e-07
-0.0249985
-2.88474e-07
-0.0249962
6.83615e-07
-0.0250066
-0.0249985
3.04244e-07
-8.83149e-07
-0.024998
-3.35553e-07
-0.0249955
8.59321e-07
-0.0250082
-0.024998
3.38062e-07
-1.11765e-06
-0.0249972
-3.8607e-07
-0.0249947
1.08098e-06
-0.0250104
-0.0249974
3.6614e-07
-1.41712e-06
-0.0249962
-4.36434e-07
-0.0249939
1.36226e-06
-0.0250131
-0.0249965
3.82761e-07
-1.80145e-06
-0.0249948
-4.79536e-07
-0.024993
1.72107e-06
-0.0250166
-0.0249953
3.82548e-07
-2.29659e-06
-0.0249929
-5.03669e-07
-0.0249921
2.18086e-06
-0.0250211
-0.0249936
3.6025e-07
-2.93627e-06
-0.0249903
-5.09381e-07
-0.0249912
2.77245e-06
-0.0250268
-0.0249914
3.07964e-07
-3.76412e-06
-0.0249869
-4.95244e-07
-0.0249904
3.53576e-06
-0.0250341
-0.0249883
2.10259e-07
-4.8365e-06
-0.0249823
-4.46716e-07
-0.0249898
4.52236e-06
-0.0250435
-0.0249842
5.72925e-08
-6.2264e-06
-0.0249761
-3.43842e-07
-0.0249895
5.79909e-06
-0.0250556
-0.0249788
-2.58749e-07
-8.02831e-06
-0.0249678
-1.71558e-07
-0.0249896
7.45289e-06
-0.0250711
-0.0249715
-7.72588e-07
-1.03673e-05
-0.0249566
2.3459e-07
-0.0249907
9.59672e-06
-0.0250911
-0.0249616
-1.72096e-06
-1.34074e-05
-0.0249415
9.40452e-07
-0.0249934
1.23815e-05
-0.025117
-0.0249483
-3.09921e-06
-1.73691e-05
-0.024921
2.00262e-06
-0.0249985
1.60064e-05
-0.0251504
-0.0249302
-5.1024e-06
-2.25411e-05
-0.0248933
3.59089e-06
-0.0250073
2.0733e-05
-0.0251937
-0.0249059
-7.98809e-06
-2.93039e-05
-0.024856
5.92843e-06
-0.0250212
2.69066e-05
-0.0252499
-0.024873
-1.2107e-05
-3.81594e-05
-0.0248057
9.32175e-06
-0.0250426
3.49835e-05
-0.0253231
-0.0248287
-1.79383e-05
-4.97712e-05
-0.0247379
1.41927e-05
-0.0250748
4.55677e-05
-0.0254184
-0.0247689
-2.61382e-05
-6.50196e-05
-0.0246467
2.11218e-05
-0.025122
5.94614e-05
-0.0255429
-0.0246883
-3.76095e-05
-8.50846e-05
-0.024524
3.09119e-05
-0.0251905
7.77432e-05
-0.0257057
-0.0245796
-5.35862e-05
-0.00011156
-0.0243589
4.47029e-05
-0.0252888
0.000101947
-0.0259192
-0.024433
-7.52968e-05
-0.000145799
-0.0241378
6.34904e-05
-0.0254275
0.000132973
-0.0261979
-0.0242365
-0.000104212
-0.000189569
-0.0238441
8.97629e-05
-0.0256214
0.000174069
-0.0265615
-0.0239727
-0.000145744
-0.000247794
-0.0234506
0.000126253
-0.0258933
0.000227072
-0.0270362
-0.0236195
-0.000269873
-0.000415347
-0.0227655
0.000207949
-0.026371
0.000351849
-0.0278032
-0.0230597
0.000167359
0.000211668
-0.0231446
-5.65191e-05
-0.0261468
-0.00010218
-0.0274892
-0.0232185
-2.54625e-05
-2.65598e-05
-0.0230926
1.74016e-05
-0.0261897
1.66274e-05
-0.0275323
-0.0231845
-0.000186539
-0.000313484
-0.0225926
7.67294e-05
-0.0264529
0.000209512
-0.0280553
-0.0228982
-8.19579e-05
-0.000187047
-0.0223236
0.000121872
-0.0266567
0.000231064
-0.0284734
-0.0225453
-0.000274866
-0.000215987
-0.0218327
9.99732e-05
-0.0270315
4.33425e-05
-0.0287327
-0.022402
-0.000286253
-0.000208827
-0.0213376
-0.000105068
-0.0272126
-0.000192885
-0.0287486
-0.0226999
-0.000209095
-6.58965e-05
-0.0210627
-6.49476e-06
-0.0274152
-0.000230175
-0.0285842
-0.0229366
-0.00016752
0.000218083
-0.0211133
0.000296794
-0.0278794
-0.000168217
-0.0281978
-0.0228081
-2.77395e-05
0.000518871
-0.0216044
0.000454882
-0.0283619
-0.000180659
-0.0274982
-0.0225339
0.000138726
0.000391484
-0.0221346
0.000179542
-0.0284027
-9.44128e-05
-0.0270123
-0.0224487
-0.000123825
8.4005e-05
-0.0220948
-1.55002e-05
-0.028511
-0.00018758
-0.0267407
-0.0226518
3.63407e-05
6.8953e-05
-0.0222
-0.000172185
-0.0283024
-0.000285076
-0.0263866
-0.023109
6.05852e-05
0.000132025
-0.0223926
-3.54707e-05
-0.0282063
5.16699e-05
-0.0263062
-0.0230927
0.000171709
5.37845e-05
-0.022618
0.000111816
-0.0281463
4.6129e-05
-0.0262985
-0.0229346
0.000368083
2.09039e-05
-0.023007
-0.000187656
-0.0275907
-0.00017681
-0.026101
-0.0232992
0.000332505
0.000152508
-0.0234922
-0.000295456
-0.0269629
-0.000170441
-0.0257782
-0.0237652
0.000249066
0.00012539
-0.0238667
-0.000229723
-0.0264843
-0.000111413
-0.0255416
-0.0241064
0.000189035
9.09392e-05
-0.0241467
-0.0001717
-0.0261237
-7.65055e-05
-0.0253743
-0.0243546
0.000144065
6.56813e-05
-0.0243564
-0.000128308
-0.0258514
-5.26071e-05
-0.025256
-0.0245355
0.000109942
4.73466e-05
-0.0245137
-9.58719e-05
-0.0256456
-3.57778e-05
-0.0251729
-0.0246671
8.40204e-05
3.40273e-05
-0.0246318
-7.15969e-05
-0.02549
-2.39212e-05
-0.025115
-0.0247627
6.43115e-05
2.4365e-05
-0.0247206
-5.34377e-05
-0.0253722
-1.56191e-05
-0.025075
-0.0248318
4.93078e-05
1.74006e-05
-0.0247873
-3.98585e-05
-0.025283
-9.86903e-06
-0.0250477
-0.0248816
3.78696e-05
1.24163e-05
-0.0248377
-2.97064e-05
-0.0252154
-5.95879e-06
-0.0250293
-0.0249174
2.91361e-05
8.87163e-06
-0.0248757
-2.21193e-05
-0.0251641
-3.41621e-06
-0.0250169
-0.0249429
2.24568e-05
6.35096e-06
-0.0249046
-1.64518e-05
-0.0251252
-1.96873e-06
-0.0250086
-0.0249614
1.73395e-05
4.56785e-06
-0.0249265
-1.22314e-05
-0.0250955
-7.50556e-07
-0.0250032
-0.0249744
1.3412e-05
3.30277e-06
-0.0249432
-9.08981e-06
-0.025073
1.3774e-07
-0.025
-0.0249834
1.03925e-05
2.39888e-06
-0.024956
-6.74957e-06
-0.0250558
5.63129e-07
-0.0249982
-0.0249895
8.06704e-06
1.74968e-06
-0.0249658
-5.00658e-06
-0.0250428
7.84358e-07
-0.0249972
-0.0249937
6.27296e-06
1.2811e-06
-0.0249734
-3.70856e-06
-0.0250328
8.48783e-07
-0.0249967
-0.0249966
4.88649e-06
9.41573e-07
-0.0249792
-2.7424e-06
-0.0250252
8.509e-07
-0.0249966
-0.0249985
3.81341e-06
6.94743e-07
-0.0249837
-2.02409e-06
-0.0250193
8.10255e-07
-0.0249968
-0.0249997
2.98171e-06
5.14923e-07
-0.0249872
-1.49064e-06
-0.0250149
7.39242e-07
-0.024997
-0.0250004
2.3363e-06
3.83885e-07
-0.0249899
-1.09533e-06
-0.0250114
6.58587e-07
-0.0249973
-0.0250009
1.83497e-06
2.88546e-07
-0.0249921
-8.03263e-07
-0.0250088
5.78288e-07
-0.0249976
-0.0250011
1.44514e-06
2.19356e-07
-0.0249938
-5.88145e-07
-0.0250068
5.01189e-07
-0.0249979
-0.0250013
1.14168e-06
1.69228e-07
-0.0249951
-4.30299e-07
-0.0250053
4.29958e-07
-0.0249982
-0.0250013
9.05063e-07
1.3282e-07
-0.0249962
-3.14875e-07
-0.0250041
3.66029e-07
-0.0249985
-0.0250013
7.20114e-07
1.06056e-07
-0.024997
-2.30424e-07
-0.0250033
3.09992e-07
-0.0249988
-0.0250012
5.75024e-07
8.58375e-08
-0.0249977
-1.68562e-07
-0.0250026
2.61891e-07
-0.0249991
-0.0250011
4.60642e-07
6.98611e-08
-0.0249982
-1.23185e-07
-0.0250021
2.21419e-07
-0.0249993
-0.025001
3.69927e-07
5.65169e-08
-0.0249987
-8.88217e-08
-0.0250018
1.87977e-07
-0.0249995
-0.0250009
2.97536e-07
4.47979e-08
-0.024999
-6.27619e-08
-0.0250015
1.60595e-07
-0.0249997
-0.0250009
2.39486e-07
3.41815e-08
-0.0249993
-4.21645e-08
-0.0250012
1.38594e-07
-0.0249999
-0.0250007
1.92885e-07
2.44899e-08
-0.0249995
-2.58082e-08
-0.025001
1.21577e-07
-0.025
-0.0250006
1.55695e-07
1.57651e-08
-0.0249996
-1.4346e-08
-0.0250008
1.08882e-07
-0.025
-0.0250005
1.26584e-07
8.281e-09
-0.0249998
-5.29037e-09
-0.0250006
9.9718e-08
-0.025
-0.0250004
1.04602e-07
2.4365e-09
-0.0249998
1.40202e-09
-0.0250004
9.32234e-08
-0.025
-0.0250003
8.85916e-08
-1.59455e-09
-0.0249999
5.53225e-09
-0.0250002
8.81849e-08
-0.025
-0.0250002
7.9859e-08
-3.01811e-09
7.86918e-09
8.50754e-08
)
;

boundaryField
{
    inlet
    {
        type            calculated;
        value           nonuniform List<scalar> 4(-0.0249999 -0.025 -0.025 -0.0250001);
    }
    outlet
    {
        type            calculated;
        value           nonuniform List<scalar> 4(0.025 0.0250004 0.0249995 0.025);
    }
    repeat_boundary
    {
        type            calculated;
        value           uniform 0;
    }
}


// ************************************************************************* //
