/*--------------------------------*- C++ -*----------------------------------*\
| =========                 |                                                 |
| \\      /  F ield         | OpenFOAM: The Open Source CFD Toolbox           |
|  \\    /   O peration     | Version:  5.x                                   |
|   \\  /    A nd           | Web:      www.OpenFOAM.org                      |
|    \\/     M anipulation  |                                                 |
\*---------------------------------------------------------------------------*/
FoamFile
{
    version     2.0;
    format      ascii;
    class       surfaceScalarField;
    location    "0.009";
    object      phi;
}
// * * * * * * * * * * * * * * * * * * * * * * * * * * * * * * * * * * * * * //

dimensions      [0 3 -1 0 0 0 0];

internalField   nonuniform List<scalar> 
179
(
-2.50015e-10
-2.50015e-10
-2.50015e-10
-2.50016e-10
-2.50017e-10
-2.50018e-10
-2.50019e-10
-2.50021e-10
-2.50023e-10
-2.50025e-10
-2.50027e-10
-2.5003e-10
-2.50032e-10
-2.50036e-10
-2.50039e-10
-2.50043e-10
-2.50047e-10
-2.50052e-10
-2.50057e-10
-2.50063e-10
-2.50069e-10
-2.50076e-10
-2.50083e-10
-2.50092e-10
-2.50101e-10
-2.50111e-10
-2.50122e-10
-2.50135e-10
-2.50149e-10
-2.50164e-10
-2.5018e-10
-2.50199e-10
-2.50219e-10
-2.50242e-10
-2.50266e-10
-2.50294e-10
-2.50324e-10
-2.50357e-10
-2.50393e-10
-2.50433e-10
-2.50478e-10
-2.50526e-10
-2.5058e-10
-2.50639e-10
-2.50703e-10
-2.50775e-10
-2.50853e-10
-2.50939e-10
-2.51034e-10
-2.51138e-10
-2.51253e-10
-2.5138e-10
-2.51519e-10
-2.51672e-10
-2.5184e-10
-2.52026e-10
-2.5223e-10
-2.52455e-10
-2.52702e-10
-2.52975e-10
-2.53276e-10
-2.53607e-10
-2.53973e-10
-2.54376e-10
-2.54821e-10
-2.55313e-10
-2.55857e-10
-2.56458e-10
-2.57123e-10
-2.5786e-10
-2.58677e-10
-2.59581e-10
-2.6058e-10
-2.61679e-10
-2.62871e-10
-2.64138e-10
-2.65443e-10
-2.66728e-10
-2.67954e-10
-2.6897e-10
-2.69211e-10
-2.69266e-10
-2.65419e-10
-2.65609e-10
-2.7044e-10
-2.74879e-10
-2.77902e-10
-2.84281e-10
-2.81639e-10
-2.65648e-10
-2.42042e-10
-2.27971e-10
-1.79101e-10
-1.56431e-10
-1.5281e-10
-1.56124e-10
-1.75115e-10
-1.98722e-10
-2.16669e-10
-2.21641e-10
-2.22692e-10
-2.20565e-10
-2.16889e-10
-2.15544e-10
-2.16418e-10
-2.18814e-10
-2.21465e-10
-2.24061e-10
-2.26502e-10
-2.2875e-10
-2.30793e-10
-2.32638e-10
-2.343e-10
-2.35797e-10
-2.37147e-10
-2.38364e-10
-2.39464e-10
-2.40458e-10
-2.41356e-10
-2.42169e-10
-2.42904e-10
-2.4357e-10
-2.44174e-10
-2.4472e-10
-2.45215e-10
-2.45664e-10
-2.4607e-10
-2.46439e-10
-2.46773e-10
-2.47076e-10
-2.4735e-10
-2.47599e-10
-2.47825e-10
-2.4803e-10
-2.48215e-10
-2.48384e-10
-2.48536e-10
-2.48674e-10
-2.488e-10
-2.48913e-10
-2.49016e-10
-2.49109e-10
-2.49193e-10
-2.49269e-10
-2.49338e-10
-2.49401e-10
-2.49457e-10
-2.49509e-10
-2.49555e-10
-2.49597e-10
-2.49635e-10
-2.4967e-10
-2.49701e-10
-2.49729e-10
-2.49755e-10
-2.49778e-10
-2.49799e-10
-2.49819e-10
-2.49836e-10
-2.49852e-10
-2.49866e-10
-2.49879e-10
-2.49891e-10
-2.49902e-10
-2.49911e-10
-2.4992e-10
-2.49928e-10
-2.49935e-10
-2.49942e-10
-2.49948e-10
-2.49954e-10
-2.49959e-10
-2.49963e-10
-2.49967e-10
-2.49971e-10
-2.49974e-10
-2.49978e-10
-2.49981e-10
-2.49983e-10
)
;

boundaryField
{
    inlet
    {
        type            calculated;
        value           uniform -2.49986e-10;
    }
    outlet
    {
        type            calculated;
        value           uniform 2.50014e-10;
    }
    repeat_boundary
    {
        type            calculated;
        value           uniform 0;
    }
    procBoundary2to0
    {
        type            processor;
        value           nonuniform List<scalar> 
180
(
2.93803e-16
3.58271e-16
4.7168e-16
6.15019e-16
7.78058e-16
9.55266e-16
1.14458e-15
1.34607e-15
1.56093e-15
1.79097e-15
2.03829e-15
2.30526e-15
2.59442e-15
2.90856e-15
3.25068e-15
3.62406e-15
4.03228e-15
4.47924e-15
4.96922e-15
5.50691e-15
6.09743e-15
6.74641e-15
7.46004e-15
8.24511e-15
9.10908e-15
1.00601e-14
1.11073e-14
1.22605e-14
1.35306e-14
1.49295e-14
1.64705e-14
1.81679e-14
2.00378e-14
2.20975e-14
2.43665e-14
2.68658e-14
2.96188e-14
3.26513e-14
3.59917e-14
3.96714e-14
4.37248e-14
4.819e-14
5.31088e-14
5.85277e-14
6.44979e-14
7.10758e-14
7.83238e-14
8.63111e-14
9.51141e-14
1.04817e-13
1.15515e-13
1.27311e-13
1.40321e-13
1.54674e-13
1.70512e-13
1.87994e-13
2.07296e-13
2.28614e-13
2.52166e-13
2.78196e-13
3.06972e-13
3.38796e-13
3.74001e-13
4.12959e-13
4.56081e-13
5.03818e-13
5.56692e-13
6.15317e-13
6.80422e-13
7.52772e-13
8.32598e-13
9.18961e-13
1.01223e-12
1.10947e-12
1.20284e-12
1.27588e-12
1.30296e-12
1.25624e-12
1.11161e-12
8.35365e-13
4.72227e-14
-6.88147e-15
-8.96029e-13
4.84537e-14
3.39173e-12
4.17548e-12
8.66113e-13
4.24471e-12
-4.22316e-13
-1.07607e-11
-1.55213e-11
-1.26254e-11
-1.6947e-11
-1.89213e-11
-2.18897e-12
9.89182e-13
1.14365e-11
8.7007e-12
9.23087e-12
5.09856e-12
5.93846e-12
1.85277e-12
2.04676e-13
2.42467e-14
8.95364e-13
5.69398e-13
2.24291e-13
1.15247e-13
7.50312e-14
5.07571e-14
3.65685e-14
2.68762e-14
1.94017e-14
1.33586e-14
8.5026e-15
4.70982e-15
1.8397e-15
-2.80391e-16
-1.8001e-15
-2.84926e-15
-3.5362e-15
-3.94874e-15
-4.15672e-15
-4.21498e-15
-4.16597e-15
-4.04215e-15
-3.86803e-15
-3.66188e-15
-3.43712e-15
-3.2034e-15
-2.96683e-15
-2.73049e-15
-2.49863e-15
-2.27417e-15
-2.05891e-15
-1.85391e-15
-1.67958e-15
-1.53238e-15
-1.3992e-15
-1.27354e-15
-1.15167e-15
-1.03225e-15
-9.1558e-16
-8.02916e-16
-6.95871e-16
-5.96051e-16
-5.04848e-16
-4.23369e-16
-3.52343e-16
-2.92666e-16
-2.44587e-16
-2.06927e-16
-1.78283e-16
-1.57189e-16
-1.42234e-16
-1.32096e-16
-1.25562e-16
-1.21639e-16
-1.19506e-16
-1.18505e-16
-1.18116e-16
-1.17948e-16
-1.1772e-16
-1.17243e-16
-1.16316e-16
-1.14787e-16
-1.12748e-16
-1.10225e-16
-1.07352e-16
-1.04392e-16
-1.01589e-16
-9.91703e-17
-9.73535e-17
-9.63417e-17
-9.62976e-17
-9.72653e-17
-9.8976e-17
-1.00663e-16
-1.00959e-16
-1.14628e-16
)
;
    }
    procBoundary2to3
    {
        type            processor;
        value           nonuniform List<scalar> 
180
(
1.43347e-17
1.62378e-17
1.78652e-17
2.01959e-17
2.36492e-17
2.80899e-17
3.32734e-17
3.90158e-17
4.52257e-17
5.18808e-17
5.89969e-17
6.66034e-17
7.47352e-17
8.34302e-17
9.27273e-17
1.02666e-16
1.13287e-16
1.24632e-16
1.36746e-16
1.49677e-16
1.63476e-16
1.78193e-16
1.93894e-16
2.10644e-16
2.28527e-16
2.4761e-16
2.67889e-16
2.89241e-16
3.11458e-16
3.34228e-16
3.57179e-16
3.7988e-16
4.0186e-16
4.22606e-16
4.41555e-16
4.58095e-16
4.71474e-16
4.80821e-16
4.85095e-16
4.8306e-16
4.73406e-16
4.54487e-16
4.24042e-16
3.79511e-16
3.17785e-16
2.3503e-16
1.27062e-16
-1.04607e-17
-1.81261e-16
-3.8217e-16
-6.05162e-16
-8.78544e-16
-1.20247e-15
-1.58502e-15
-2.03476e-15
-2.56081e-15
-3.17136e-15
-3.86586e-15
-4.64699e-15
-5.51632e-15
-6.47248e-15
-7.51014e-15
-8.6189e-15
-9.78141e-15
-1.09718e-14
-1.21536e-14
-1.32765e-14
-1.42765e-14
-1.50715e-14
-1.55601e-14
-1.56182e-14
-1.50626e-14
-1.34233e-14
-1.02905e-14
-1.03892e-14
-8.87873e-15
1.73079e-15
2.92147e-14
1.14449e-13
1.80424e-13
1.94051e-13
6.17734e-14
-2.9517e-12
1.41511e-13
1.4393e-12
2.63906e-13
2.15692e-12
2.13411e-12
-2.21963e-12
-5.22847e-12
-8.08557e-12
-1.44532e-12
-3.19226e-11
-3.74999e-12
-1.43124e-12
2.32478e-12
7.55433e-12
1.4906e-11
8.71555e-12
-1.26173e-13
-4.88833e-12
-3.97911e-12
-3.88029e-12
-1.37048e-12
-2.06848e-14
1.82546e-12
2.42718e-12
2.47949e-12
2.3657e-12
2.19735e-12
2.00602e-12
1.81714e-12
1.642e-12
1.48343e-12
1.34086e-12
1.21276e-12
1.09754e-12
9.93746e-13
9.00118e-13
8.15561e-13
7.39122e-13
6.69969e-13
6.07366e-13
5.50665e-13
4.99286e-13
4.52715e-13
4.1049e-13
3.72195e-13
3.37463e-13
3.05959e-13
2.77384e-13
2.51464e-13
2.27953e-13
2.06628e-13
1.87287e-13
1.69746e-13
1.53839e-13
1.39414e-13
1.26333e-13
1.14471e-13
1.03715e-13
9.3964e-14
8.51246e-14
7.71123e-14
6.98504e-14
6.32691e-14
5.73053e-14
5.19014e-14
4.70052e-14
4.25695e-14
3.85514e-14
3.49119e-14
3.16157e-14
2.86308e-14
2.59282e-14
2.34814e-14
2.12668e-14
1.92626e-14
1.74493e-14
1.58092e-14
1.43262e-14
1.29857e-14
1.17747e-14
1.06811e-14
9.69405e-15
8.80386e-15
8.0016e-15
7.27924e-15
6.62947e-15
6.04572e-15
5.52201e-15
5.05295e-15
4.63368e-15
4.25984e-15
3.92765e-15
3.63412e-15
3.3776e-15
3.1597e-15
2.98975e-15
2.91948e-15
)
;
    }
}


// ************************************************************************* //
