/*--------------------------------*- C++ -*----------------------------------*\
| =========                 |                                                 |
| \\      /  F ield         | OpenFOAM: The Open Source CFD Toolbox           |
|  \\    /   O peration     | Version:  5.x                                   |
|   \\  /    A nd           | Web:      www.OpenFOAM.org                      |
|    \\/     M anipulation  |                                                 |
\*---------------------------------------------------------------------------*/
FoamFile
{
    version     2.0;
    format      ascii;
    class       volScalarField;
    location    "0.006";
    object      p;
}
// * * * * * * * * * * * * * * * * * * * * * * * * * * * * * * * * * * * * * //

dimensions      [0 2 -2 0 0 0 0];

internalField   nonuniform List<scalar> 
180
(
-1.19284e-08
-3.55597e-08
-5.89876e-08
-8.24762e-08
-1.06049e-07
-1.29717e-07
-1.53499e-07
-1.77409e-07
-2.0146e-07
-2.25662e-07
-2.50022e-07
-2.74542e-07
-2.9922e-07
-3.24046e-07
-3.49005e-07
-3.74074e-07
-3.99222e-07
-4.24407e-07
-4.49579e-07
-4.74676e-07
-4.99624e-07
-5.24336e-07
-5.48711e-07
-5.7263e-07
-5.95961e-07
-6.1855e-07
-6.40224e-07
-6.60782e-07
-6.79998e-07
-6.97611e-07
-7.13323e-07
-7.26789e-07
-7.37611e-07
-7.45329e-07
-7.49408e-07
-7.49228e-07
-7.44069e-07
-7.33093e-07
-7.15329e-07
-6.89651e-07
-6.54751e-07
-6.09119e-07
-5.5101e-07
-4.78409e-07
-3.8899e-07
-2.80074e-07
-1.48578e-07
9.05492e-09
1.96918e-07
4.19747e-07
6.83051e-07
9.93191e-07
1.35752e-06
1.78455e-06
2.28411e-06
2.86758e-06
3.54814e-06
4.34095e-06
5.26417e-06
6.33921e-06
7.59121e-06
9.04966e-06
1.07492e-05
1.27308e-05
1.50433e-05
1.77459e-05
2.09078e-05
2.46098e-05
2.89463e-05
3.40279e-05
3.99852e-05
4.69745e-05
5.51825e-05
6.48279e-05
7.61467e-05
8.93993e-05
0.000105093
0.000124519
0.000149038
0.000171657
6.85032e-05
0.000943696
0.00126366
0.00125055
0.00181999
0.00259016
0.0032073
0.00401451
0.00659661
0.00808839
0.00865945
0.0105254
0.0111294
0.0115688
0.0130141
0.0141727
0.0154382
0.016097
0.0173589
0.022276
0.0238225
0.0241307
0.0242561
0.0243062
0.0243296
0.0243274
0.0243263
0.0243268
0.0243275
0.0243281
0.0243287
0.0243292
0.0243297
0.0243302
0.0243307
0.0243311
0.0243316
0.0243319
0.0243323
0.0243326
0.0243329
0.0243332
0.0243334
0.0243336
0.0243338
0.024334
0.0243342
0.0243343
0.0243344
0.0243346
0.0243347
0.0243347
0.0243348
0.0243349
0.024335
0.024335
0.0243351
0.0243351
0.0243352
0.0243352
0.0243353
0.0243353
0.0243353
0.0243354
0.0243354
0.0243354
0.0243354
0.0243355
0.0243355
0.0243355
0.0243355
0.0243355
0.0243355
0.0243356
0.0243356
0.0243356
0.0243356
0.0243356
0.0243356
0.0243356
0.0243356
0.0243356
0.0243356
0.0243356
0.0243356
0.0243356
0.0243356
0.0243357
0.0243357
0.0243357
0.0243357
0.0243357
0.0243357
0.0243357
0.0243357
0.0243357
0.0243357
0.0243357
0.0243357
0.0243357
)
;

boundaryField
{
    inlet
    {
        type            zeroGradient;
    }
    outlet
    {
        type            fixedValue;
        value           uniform 0;
    }
    repeat_boundary
    {
        type            zeroGradient;
    }
    procBoundary3to1
    {
        type            processor;
        value           nonuniform List<scalar> 
180
(
-1.11692e-08
-3.33897e-08
-5.55574e-08
-7.79114e-08
-1.00508e-07
-1.23415e-07
-1.46688e-07
-1.70377e-07
-1.94522e-07
-2.19156e-07
-2.44304e-07
-2.69982e-07
-2.96197e-07
-3.22947e-07
-3.50223e-07
-3.7801e-07
-4.06283e-07
-4.35015e-07
-4.64168e-07
-4.93705e-07
-5.23581e-07
-5.53747e-07
-5.84151e-07
-6.14738e-07
-6.45446e-07
-6.76213e-07
-7.06968e-07
-7.37638e-07
-7.68142e-07
-7.98393e-07
-8.28294e-07
-8.5774e-07
-8.86616e-07
-9.14793e-07
-9.42126e-07
-9.68456e-07
-9.93604e-07
-1.01737e-06
-1.03952e-06
-1.05981e-06
-1.07794e-06
-1.0936e-06
-1.10641e-06
-1.11596e-06
-1.12179e-06
-1.12337e-06
-1.12011e-06
-1.11136e-06
-1.09639e-06
-1.07439e-06
-1.04447e-06
-1.00567e-06
-9.56941e-07
-8.97151e-07
-8.25096e-07
-7.39513e-07
-6.39098e-07
-5.22535e-07
-3.88533e-07
-2.35891e-07
-6.35722e-08
1.29184e-07
3.42721e-07
5.76779e-07
8.30237e-07
1.10065e-06
1.38388e-06
1.67353e-06
1.96021e-06
2.23062e-06
2.46655e-06
2.64405e-06
2.73221e-06
2.68603e-06
2.42644e-06
1.82936e-06
8.57352e-07
-2.65434e-08
-2.56723e-07
-5.31683e-06
-0.000108972
0.000320589
0.000569258
0.000390581
0.00344247
0.00440284
0.00510768
0.00561334
0.00600746
0.00716023
0.00943879
0.0116824
0.0134012
0.0139706
0.0151708
0.0174285
0.0180179
0.0190073
0.019864
0.0212626
0.0231764
0.0237422
0.024025
0.0241999
0.0242618
0.0242797
0.0242854
0.0242916
0.0242978
0.0243032
0.0243078
0.0243117
0.024315
0.0243179
0.0243203
0.0243225
0.0243243
0.0243258
0.0243272
0.0243283
0.0243293
0.0243302
0.0243309
0.0243315
0.0243321
0.0243325
0.024333
0.0243333
0.0243336
0.0243339
0.0243341
0.0243343
0.0243345
0.0243346
0.0243347
0.0243349
0.024335
0.024335
0.0243351
0.0243352
0.0243352
0.0243353
0.0243353
0.0243353
0.0243354
0.0243354
0.0243354
0.0243355
0.0243355
0.0243355
0.0243355
0.0243355
0.0243355
0.0243355
0.0243356
0.0243356
0.0243356
0.0243356
0.0243356
0.0243356
0.0243356
0.0243356
0.0243356
0.0243356
0.0243356
0.0243356
0.0243356
0.0243356
0.0243356
0.0243356
0.0243357
0.0243357
0.0243357
0.0243357
0.0243357
0.0243357
0.0243357
0.0243357
0.0243357
0.0243357
)
;
    }
    procBoundary3to2
    {
        type            processor;
        value           nonuniform List<scalar> 
180
(
-1.11574e-08
-3.3316e-08
-5.54108e-08
-7.77006e-08
-1.00243e-07
-1.23104e-07
-1.46343e-07
-1.70011e-07
-1.94153e-07
-2.18805e-07
-2.43997e-07
-2.69751e-07
-2.96081e-07
-3.22994e-07
-3.5049e-07
-3.78565e-07
-4.07208e-07
-4.36407e-07
-4.66145e-07
-4.96405e-07
-5.27171e-07
-5.58428e-07
-5.90167e-07
-6.2238e-07
-6.55069e-07
-6.88242e-07
-7.21916e-07
-7.56122e-07
-7.90902e-07
-8.26312e-07
-8.62429e-07
-8.99346e-07
-9.37182e-07
-9.76078e-07
-1.01621e-06
-1.05777e-06
-1.10102e-06
-1.14624e-06
-1.19377e-06
-1.24401e-06
-1.29741e-06
-1.35453e-06
-1.416e-06
-1.48256e-06
-1.55508e-06
-1.63455e-06
-1.72216e-06
-1.81928e-06
-1.92752e-06
-2.04876e-06
-2.18528e-06
-2.33972e-06
-2.5152e-06
-2.71537e-06
-2.94449e-06
-3.20759e-06
-3.51049e-06
-3.85996e-06
-4.26447e-06
-4.73433e-06
-5.28187e-06
-5.92186e-06
-6.67211e-06
-7.5541e-06
-8.59449e-06
-9.8272e-06
-1.12923e-05
-1.30381e-05
-1.51216e-05
-1.76116e-05
-2.05925e-05
-2.41667e-05
-2.84585e-05
-3.36227e-05
-3.98704e-05
-4.74818e-05
-5.66422e-05
-6.69165e-05
-7.76017e-05
-9.58688e-05
-0.000268373
0.000392032
0.000539445
0.000531877
0.00230625
0.00286723
0.00482644
0.00561607
0.00616809
0.00691122
0.00718484
0.0081296
0.00862001
0.00868026
0.0118724
0.0169338
0.019945
0.0212876
0.0217439
0.0223615
0.0228387
0.023301
0.0239303
0.0242614
0.0243554
0.0243591
0.0243527
0.0243504
0.0243495
0.0243484
0.0243473
0.0243463
0.0243452
0.0243443
0.0243434
0.0243426
0.0243419
0.0243412
0.0243406
0.0243401
0.0243396
0.0243391
0.0243387
0.0243384
0.024338
0.0243377
0.0243375
0.0243373
0.0243371
0.0243369
0.0243367
0.0243366
0.0243365
0.0243364
0.0243363
0.0243362
0.0243361
0.024336
0.024336
0.0243359
0.0243359
0.0243359
0.0243358
0.0243358
0.0243358
0.0243358
0.0243357
0.0243357
0.0243357
0.0243357
0.0243357
0.0243357
0.0243357
0.0243357
0.0243357
0.0243357
0.0243357
0.0243357
0.0243357
0.0243357
0.0243357
0.0243357
0.0243357
0.0243357
0.0243357
0.0243357
0.0243357
0.0243357
0.0243357
0.0243357
0.0243357
0.0243357
0.0243357
0.0243357
0.0243357
0.0243357
0.0243357
0.0243357
0.0243357
0.0243357
)
;
    }
}


// ************************************************************************* //
