/*--------------------------------*- C++ -*----------------------------------*\
| =========                 |                                                 |
| \\      /  F ield         | OpenFOAM: The Open Source CFD Toolbox           |
|  \\    /   O peration     | Version:  5.x                                   |
|   \\  /    A nd           | Web:      www.OpenFOAM.org                      |
|    \\/     M anipulation  |                                                 |
\*---------------------------------------------------------------------------*/
FoamFile
{
    version     2.0;
    format      ascii;
    class       surfaceScalarField;
    location    "0.006";
    object      phi;
}
// * * * * * * * * * * * * * * * * * * * * * * * * * * * * * * * * * * * * * //

dimensions      [0 3 -1 0 0 0 0];

internalField   nonuniform List<scalar> 
179
(
-2.50012e-10
-2.50012e-10
-2.50012e-10
-2.50013e-10
-2.50014e-10
-2.50014e-10
-2.50015e-10
-2.50016e-10
-2.50018e-10
-2.50019e-10
-2.50021e-10
-2.50023e-10
-2.50025e-10
-2.50028e-10
-2.50031e-10
-2.50034e-10
-2.50037e-10
-2.50041e-10
-2.50046e-10
-2.50051e-10
-2.50057e-10
-2.50063e-10
-2.5007e-10
-2.50078e-10
-2.50087e-10
-2.50096e-10
-2.50107e-10
-2.50119e-10
-2.50132e-10
-2.50146e-10
-2.50162e-10
-2.5018e-10
-2.502e-10
-2.50222e-10
-2.50246e-10
-2.50273e-10
-2.50303e-10
-2.50337e-10
-2.50374e-10
-2.50415e-10
-2.5046e-10
-2.50511e-10
-2.50568e-10
-2.50631e-10
-2.50701e-10
-2.50779e-10
-2.50865e-10
-2.50962e-10
-2.5107e-10
-2.51189e-10
-2.51323e-10
-2.51472e-10
-2.51638e-10
-2.51824e-10
-2.52031e-10
-2.52262e-10
-2.5252e-10
-2.52809e-10
-2.53131e-10
-2.53492e-10
-2.53896e-10
-2.54349e-10
-2.54856e-10
-2.55425e-10
-2.56064e-10
-2.56782e-10
-2.57588e-10
-2.58495e-10
-2.59516e-10
-2.60664e-10
-2.61959e-10
-2.63419e-10
-2.65068e-10
-2.66931e-10
-2.69037e-10
-2.7141e-10
-2.74059e-10
-2.76949e-10
-2.79918e-10
-2.82505e-10
-2.83445e-10
-2.83412e-10
-2.93882e-10
-2.94695e-10
-2.90736e-10
-2.88172e-10
-2.82272e-10
-2.77043e-10
-2.79293e-10
-2.84407e-10
-2.89981e-10
-2.9043e-10
-3.08093e-10
-3.05652e-10
-3.0363e-10
-2.95545e-10
-2.82227e-10
-2.62424e-10
-2.50033e-10
-2.5094e-10
-2.58326e-10
-2.65159e-10
-2.71629e-10
-2.7467e-10
-2.75595e-10
-2.744e-10
-2.72633e-10
-2.70791e-10
-2.69025e-10
-2.67378e-10
-2.65857e-10
-2.64459e-10
-2.63175e-10
-2.61998e-10
-2.60921e-10
-2.59934e-10
-2.59033e-10
-2.58209e-10
-2.57458e-10
-2.56773e-10
-2.56148e-10
-2.55579e-10
-2.55062e-10
-2.54591e-10
-2.54163e-10
-2.53773e-10
-2.5342e-10
-2.53099e-10
-2.52808e-10
-2.52542e-10
-2.52302e-10
-2.52083e-10
-2.51885e-10
-2.51705e-10
-2.51543e-10
-2.51396e-10
-2.51262e-10
-2.51142e-10
-2.51032e-10
-2.50933e-10
-2.50844e-10
-2.50763e-10
-2.50689e-10
-2.50623e-10
-2.50563e-10
-2.50509e-10
-2.5046e-10
-2.50415e-10
-2.50375e-10
-2.50339e-10
-2.50306e-10
-2.50276e-10
-2.50249e-10
-2.50225e-10
-2.50203e-10
-2.50183e-10
-2.50165e-10
-2.50149e-10
-2.50134e-10
-2.50121e-10
-2.50109e-10
-2.50098e-10
-2.50088e-10
-2.50079e-10
-2.50071e-10
-2.50064e-10
-2.50057e-10
-2.50051e-10
-2.50045e-10
-2.5004e-10
-2.50036e-10
-2.50031e-10
-2.50027e-10
-2.50024e-10
-2.5002e-10
-2.50017e-10
-2.50014e-10
-2.50011e-10
-2.50009e-10
)
;

boundaryField
{
    inlet
    {
        type            calculated;
        value           uniform -2.50006e-10;
    }
    outlet
    {
        type            calculated;
        value           uniform 2.50011e-10;
    }
    repeat_boundary
    {
        type            calculated;
        value           uniform 0;
    }
    procBoundary3to1
    {
        type            processor;
        value           nonuniform List<scalar> 
180
(
2.2012e-16
2.924e-16
4.13111e-16
5.57698e-16
7.16065e-16
8.84669e-16
1.06319e-15
1.25275e-15
1.45508e-15
1.67216e-15
1.90617e-15
2.15946e-15
2.43457e-15
2.73427e-15
3.0616e-15
3.41987e-15
3.81273e-15
4.24419e-15
4.71868e-15
5.24106e-15
5.81672e-15
6.45159e-15
7.15222e-15
7.92584e-15
8.7804e-15
9.72471e-15
1.07685e-14
1.19224e-14
1.31983e-14
1.46092e-14
1.61697e-14
1.78958e-14
1.98051e-14
2.19173e-14
2.42543e-14
2.68405e-14
2.97028e-14
3.2871e-14
3.63785e-14
4.02621e-14
4.45631e-14
4.93271e-14
5.46049e-14
6.0453e-14
6.69342e-14
7.41183e-14
8.2083e-14
9.09143e-14
1.00708e-13
1.11571e-13
1.23622e-13
1.36991e-13
1.51826e-13
1.6829e-13
1.86565e-13
2.06855e-13
2.29386e-13
2.5441e-13
2.8221e-13
3.13099e-13
3.47431e-13
3.85602e-13
4.28054e-13
4.75286e-13
5.27878e-13
5.86485e-13
6.51847e-13
7.2481e-13
8.06338e-13
8.97529e-13
9.99627e-13
1.114e-12
1.24204e-12
1.38458e-12
1.54016e-12
1.70154e-12
1.84779e-12
1.93764e-12
1.88331e-12
1.54595e-12
3.89108e-13
-2.5745e-14
6.74428e-12
6.45255e-13
-2.39311e-12
-2.38971e-12
-3.13772e-12
-2.0926e-12
1.61338e-12
1.79531e-12
-3.88542e-13
-1.73044e-13
-8.56204e-12
-5.32668e-12
-3.08359e-12
-5.80057e-12
-6.56506e-12
-6.25992e-12
-4.08447e-12
8.0359e-13
2.03221e-12
2.42957e-12
2.21449e-12
1.33766e-12
1.02007e-12
6.44413e-13
5.18583e-13
4.77395e-13
4.35479e-13
3.85717e-13
3.36013e-13
2.90672e-13
2.50792e-13
2.16234e-13
1.86478e-13
1.60918e-13
1.38973e-13
1.20126e-13
1.03932e-13
9.00131e-14
7.80427e-14
6.77437e-14
5.88788e-14
5.12452e-14
4.46696e-14
3.90037e-14
3.41219e-14
2.99268e-14
2.60088e-14
2.21339e-14
1.91114e-14
1.66744e-14
1.4655e-14
1.29461e-14
1.1478e-14
1.02039e-14
9.09069e-15
8.11375e-15
7.25381e-15
6.49512e-15
5.82451e-15
5.23069e-15
4.70397e-15
4.23593e-15
3.81927e-15
3.44768e-15
3.11568e-15
2.81851e-15
2.5521e-15
2.31289e-15
2.09782e-15
1.90421e-15
1.72974e-15
1.57237e-15
1.43027e-15
1.30182e-15
1.18556e-15
1.08019e-15
9.84508e-16
8.97454e-16
8.18061e-16
7.4546e-16
6.78877e-16
6.17627e-16
5.61112e-16
5.08826e-16
4.60346e-16
4.15315e-16
3.73423e-16
3.3442e-16
2.98111e-16
2.64338e-16
2.32995e-16
2.04024e-16
1.77425e-16
1.53334e-16
1.32177e-16
1.14984e-16
1.02573e-16
8.23057e-17
)
;
    }
    procBoundary3to2
    {
        type            processor;
        value           nonuniform List<scalar> 
180
(
-1.51224e-17
-1.13782e-17
-7.04557e-18
-5.04538e-18
-4.86985e-18
-5.62369e-18
-6.81433e-18
-8.21221e-18
-9.73975e-18
-1.13913e-17
-1.31962e-17
-1.52058e-17
-1.74886e-17
-2.01176e-17
-2.32164e-17
-2.68664e-17
-3.11529e-17
-3.58245e-17
-4.0645e-17
-4.54405e-17
-4.99983e-17
-5.40473e-17
-5.72493e-17
-5.91894e-17
-5.93646e-17
-5.71703e-17
-5.18785e-17
-4.26178e-17
-2.83702e-17
-7.92557e-18
2.01577e-17
5.75713e-17
1.063e-16
1.68709e-16
2.47621e-16
3.46406e-16
4.69081e-16
6.20439e-16
8.0618e-16
1.03309e-15
1.3092e-15
1.64403e-15
2.04883e-15
2.53683e-15
3.12363e-15
3.82751e-15
4.66992e-15
5.67602e-15
6.8714e-15
8.28188e-15
9.95891e-15
1.19503e-14
1.43125e-14
1.71118e-14
2.04273e-14
2.4353e-14
2.90035e-14
3.44027e-14
4.07405e-14
4.82174e-14
5.70387e-14
6.7447e-14
7.97282e-14
9.42051e-14
1.11281e-13
1.31428e-13
1.55128e-13
1.82432e-13
2.14145e-13
2.51357e-13
2.95035e-13
3.46361e-13
4.06866e-13
4.78708e-13
5.65237e-13
6.71261e-13
8.01336e-13
9.5199e-13
1.08594e-12
1.04155e-12
5.50444e-13
-6.33937e-15
3.72588e-12
1.67511e-13
-1.56627e-12
-1.74183e-13
-2.76233e-12
-3.13618e-12
6.36509e-13
3.31828e-12
5.96265e-12
6.22128e-13
2.6226e-11
2.88558e-12
1.06147e-12
-2.28395e-12
-6.75275e-12
-1.35436e-11
-8.30681e-12
1.03896e-13
5.35387e-12
4.40322e-12
4.25635e-12
1.70249e-12
-9.4951e-14
-1.84034e-12
-2.28564e-12
-2.31993e-12
-2.2018e-12
-2.03319e-12
-1.85685e-12
-1.68909e-12
-1.53449e-12
-1.39328e-12
-1.26457e-12
-1.14737e-12
-1.04071e-12
-9.43699e-13
-8.55515e-13
-7.75389e-13
-7.02615e-13
-6.36542e-13
-5.76576e-13
-5.22169e-13
-4.72819e-13
-4.2807e-13
-3.875e-13
-3.50729e-13
-3.17406e-13
-2.87215e-13
-2.59873e-13
-2.35117e-13
-2.12708e-13
-1.92427e-13
-1.74073e-13
-1.57464e-13
-1.42436e-13
-1.28838e-13
-1.16536e-13
-1.05405e-13
-9.53362e-14
-8.62278e-14
-7.79884e-14
-7.05351e-14
-6.37932e-14
-5.76949e-14
-5.21787e-14
-4.71892e-14
-4.26763e-14
-3.85945e-14
-3.4903e-14
-3.15646e-14
-2.85458e-14
-2.58164e-14
-2.33489e-14
-2.11186e-14
-1.91031e-14
-1.72822e-14
-1.56376e-14
-1.41527e-14
-1.28128e-14
-1.16043e-14
-1.05152e-14
-9.53434e-15
-8.65192e-15
-7.85897e-15
-7.14738e-15
-6.50987e-15
-5.93984e-15
-5.43132e-15
-4.97895e-15
-4.57791e-15
-4.22386e-15
-3.91293e-15
-3.64164e-15
-3.40688e-15
-3.20594e-15
-3.03748e-15
-2.90584e-15
-2.87968e-15
)
;
    }
}


// ************************************************************************* //
