/*--------------------------------*- C++ -*----------------------------------*\
| =========                 |                                                 |
| \\      /  F ield         | OpenFOAM: The Open Source CFD Toolbox           |
|  \\    /   O peration     | Version:  5.x                                   |
|   \\  /    A nd           | Web:      www.OpenFOAM.org                      |
|    \\/     M anipulation  |                                                 |
\*---------------------------------------------------------------------------*/
FoamFile
{
    version     2.0;
    format      ascii;
    class       volVectorField;
    location    "0.006";
    object      stored_U;
}
// * * * * * * * * * * * * * * * * * * * * * * * * * * * * * * * * * * * * * //

dimensions      [0 1 -1 0 0 0 0];

internalField   nonuniform List<vector> 
180
(
(6.48535e-10 -8.36267e-09 -0.00100009)
(4.03616e-10 -1.12834e-08 -0.00100009)
(1.97017e-10 -1.59425e-08 -0.0010001)
(8.51401e-11 -2.1551e-08 -0.0010001)
(5.04654e-11 -2.7693e-08 -0.0010001)
(6.55203e-11 -3.42158e-08 -0.0010001)
(1.16383e-10 -4.11002e-08 -0.00100011)
(1.98742e-10 -4.83856e-08 -0.00100011)
(3.13203e-10 -5.61351e-08 -0.00100012)
(4.62025e-10 -6.44234e-08 -0.00100012)
(6.47772e-10 -7.33325e-08 -0.00100013)
(8.72846e-10 -8.29524e-08 -0.00100014)
(1.13939e-09 -9.33806e-08 -0.00100015)
(1.44929e-09 -1.04724e-07 -0.00100015)
(1.80427e-09 -1.17099e-07 -0.00100017)
(2.20595e-09 -1.30635e-07 -0.00100018)
(2.65595e-09 -1.4547e-07 -0.00100019)
(3.156e-09 -1.61759e-07 -0.00100021)
(3.7081e-09 -1.79671e-07 -0.00100022)
(4.31464e-09 -1.99392e-07 -0.00100024)
(4.97853e-09 -2.21126e-07 -0.00100026)
(5.7034e-09 -2.45099e-07 -0.00100029)
(6.4937e-09 -2.71556e-07 -0.00100031)
(7.35488e-09 -3.00772e-07 -0.00100034)
(8.2935e-09 -3.33045e-07 -0.00100037)
(9.31739e-09 -3.68708e-07 -0.00100041)
(1.04357e-08 -4.08124e-07 -0.00100045)
(1.16591e-08 -4.51696e-07 -0.00100049)
(1.29994e-08 -4.99867e-07 -0.00100054)
(1.44702e-08 -5.53128e-07 -0.00100059)
(1.60863e-08 -6.12019e-07 -0.00100064)
(1.78637e-08 -6.77137e-07 -0.00100071)
(1.98197e-08 -7.49143e-07 -0.00100078)
(2.19723e-08 -8.28765e-07 -0.00100085)
(2.43404e-08 -9.16812e-07 -0.00100094)
(2.6943e-08 -1.01417e-06 -0.00100103)
(2.97989e-08 -1.12184e-06 -0.00100113)
(3.29261e-08 -1.2409e-06 -0.00100125)
(3.63414e-08 -1.37256e-06 -0.00100137)
(4.00592e-08 -1.51817e-06 -0.00100151)
(4.4091e-08 -1.6792e-06 -0.00100167)
(4.8444e-08 -1.85729e-06 -0.00100183)
(5.31199e-08 -2.05426e-06 -0.00100202)
(5.81133e-08 -2.27212e-06 -0.00100223)
(6.34101e-08 -2.5131e-06 -0.00100246)
(6.89854e-08 -2.77967e-06 -0.00100271)
(7.48015e-08 -3.07456e-06 -0.00100299)
(8.08037e-08 -3.4008e-06 -0.0010033)
(8.69188e-08 -3.76174e-06 -0.00100364)
(9.30558e-08 -4.16109e-06 -0.00100402)
(9.91122e-08 -4.60295e-06 -0.00100444)
(1.04959e-07 -5.09187e-06 -0.0010049)
(1.10433e-07 -5.63286e-06 -0.00100541)
(1.15336e-07 -6.23149e-06 -0.00100598)
(1.19423e-07 -6.89393e-06 -0.00100661)
(1.22391e-07 -7.62698e-06 -0.0010073)
(1.23872e-07 -8.4382e-06 -0.00100807)
(1.23399e-07 -9.33596e-06 -0.00100892)
(1.20571e-07 -1.03294e-05 -0.00100985)
(1.15e-07 -1.14288e-05 -0.00101089)
(1.06278e-07 -1.26451e-05 -0.00101203)
(9.39983e-08 -1.39907e-05 -0.0010133)
(7.77756e-08 -1.54791e-05 -0.00101469)
(5.72882e-08 -1.71254e-05 -0.00101622)
(3.24828e-08 -1.89456e-05 -0.00101791)
(3.82627e-09 -2.09577e-05 -0.00101977)
(-2.80486e-08 -2.31809e-05 -0.00102181)
(-6.21731e-08 -2.56367e-05 -0.00102406)
(-9.70598e-08 -2.83484e-05 -0.00102653)
(-1.3058e-07 -3.13412e-05 -0.00102924)
(-1.60091e-07 -3.46424e-05 -0.00103221)
(-1.83148e-07 -3.82799e-05 -0.00103548)
(-2.0073e-07 -4.22766e-05 -0.00103898)
(-2.26278e-07 -4.6631e-05 -0.00104264)
(-3.05315e-07 -5.12616e-05 -0.0010468)
(-5.32177e-07 -5.58785e-05 -0.00105341)
(-9.51374e-07 -5.96345e-05 -0.00106383)
(-1.22755e-06 -6.08769e-05 -0.00106161)
(3.52649e-07 -5.56794e-05 -0.00100252)
(8.21278e-06 -3.68872e-05 -0.00078889)
(2.28847e-05 -1.29368e-06 -0.0034645)
(2.68763e-05 -7.85586e-06 6.14204e-05)
(-5.93688e-05 -0.000224904 -0.00444801)
(1.02671e-05 1.80692e-05 -8.48167e-05)
(0.000122597 0.000278087 -0.00513156)
(-4.00626e-06 8.712e-05 -0.000328804)
(0.000314944 0.000316642 -0.00517773)
(1.53165e-05 4.93224e-05 -0.000481296)
(-0.000113563 -0.000165128 -0.0048223)
(-9.48028e-05 -8.46095e-05 -0.00125053)
(-0.000353698 -1.56805e-06 -0.00568758)
(1.0437e-05 -4.93178e-05 0.000159437)
(-0.00139242 0.000775347 -0.00447658)
(-9.02311e-05 2.39351e-05 -0.000432918)
(-0.000302552 0.000368947 -0.00432381)
(8.46871e-05 0.000115338 -0.00126894)
(0.000629002 0.000329348 -0.0034659)
(0.000520914 0.000282544 -0.00260021)
(0.000338243 0.000192432 -0.00523412)
(-4.18027e-05 -2.4829e-05 -0.000799218)
(-0.000261819 -9.75904e-05 -0.00321925)
(-0.000244367 -6.94407e-05 -0.00125396)
(-0.00032779 -0.00011375 -0.00171646)
(-0.000124097 -5.64481e-05 -0.00122335)
(-7.52002e-06 -3.76741e-05 -0.00125209)
(5.93166e-05 -2.10371e-05 -0.00111257)
(8.16669e-05 -1.4366e-05 -0.00108295)
(8.51917e-05 -1.16756e-05 -0.00108194)
(8.14349e-05 -1.0021e-05 -0.00107851)
(7.53313e-05 -8.70338e-06 -0.00107198)
(6.88079e-05 -7.60795e-06 -0.00106536)
(6.25623e-05 -6.68358e-06 -0.00105946)
(5.67984e-05 -5.88797e-06 -0.00105415)
(5.1539e-05 -5.1952e-06 -0.0010493)
(4.67545e-05 -4.58974e-06 -0.00104486)
(4.24058e-05 -4.0599e-06 -0.0010408)
(3.84548e-05 -3.59569e-06 -0.00103709)
(3.48662e-05 -3.18844e-06 -0.0010337)
(3.16076e-05 -2.83068e-06 -0.00103061)
(2.86492e-05 -2.51599e-06 -0.0010278)
(2.59639e-05 -2.23885e-06 -0.00102524)
(2.3527e-05 -1.9945e-06 -0.0010229)
(2.13159e-05 -1.77882e-06 -0.00102078)
(1.93101e-05 -1.58827e-06 -0.00101885)
(1.74908e-05 -1.41976e-06 -0.0010171)
(1.58409e-05 -1.27064e-06 -0.0010155)
(1.43448e-05 -1.13862e-06 -0.00101405)
(1.29884e-05 -1.02169e-06 -0.00101274)
(1.17588e-05 -9.18143e-07 -0.00101155)
(1.06443e-05 -8.26328e-07 -0.00101046)
(9.63443e-06 -7.44551e-07 -0.00100947)
(8.71962e-06 -6.71455e-07 -0.00100858)
(7.89111e-06 -6.05936e-07 -0.00100776)
(7.14091e-06 -5.47082e-07 -0.00100702)
(6.46168e-06 -4.94126e-07 -0.00100635)
(5.84677e-06 -4.46412e-07 -0.00100575)
(5.29013e-06 -4.03379e-07 -0.0010052)
(4.78628e-06 -3.64537e-07 -0.0010047)
(4.33024e-06 -3.29459e-07 -0.00100425)
(3.91753e-06 -2.97767e-07 -0.00100384)
(3.54404e-06 -2.69125e-07 -0.00100347)
(3.20609e-06 -2.43236e-07 -0.00100314)
(2.90028e-06 -2.19832e-07 -0.00100284)
(2.62354e-06 -1.98671e-07 -0.00100256)
(2.3731e-06 -1.7954e-07 -0.00100232)
(2.14648e-06 -1.62243e-07 -0.00100209)
(1.94142e-06 -1.46605e-07 -0.00100189)
(1.75588e-06 -1.32471e-07 -0.00100171)
(1.58802e-06 -1.19696e-07 -0.00100154)
(1.43617e-06 -1.08152e-07 -0.00100139)
(1.29881e-06 -9.77225e-08 -0.00100126)
(1.17459e-06 -8.83003e-08 -0.00100113)
(1.06225e-06 -7.97891e-08 -0.00100102)
(9.60681e-07 -7.21008e-08 -0.00100092)
(8.68865e-07 -6.51554e-08 -0.00100083)
(7.85884e-07 -5.88802e-08 -0.00100075)
(7.10905e-07 -5.32089e-08 -0.00100068)
(6.43178e-07 -4.80813e-08 -0.00100061)
(5.8202e-07 -4.34429e-08 -0.00100055)
(5.26818e-07 -3.92443e-08 -0.0010005)
(4.77015e-07 -3.54409e-08 -0.00100045)
(4.32108e-07 -3.19923e-08 -0.0010004)
(3.91642e-07 -2.88625e-08 -0.00100036)
(3.55207e-07 -2.6019e-08 -0.00100032)
(3.22431e-07 -2.34329e-08 -0.00100029)
(2.92981e-07 -2.10784e-08 -0.00100026)
(2.66553e-07 -1.89326e-08 -0.00100023)
(2.42877e-07 -1.69752e-08 -0.00100021)
(2.21708e-07 -1.51883e-08 -0.00100018)
(2.02825e-07 -1.35562e-08 -0.00100016)
(1.86033e-07 -1.20649e-08 -0.00100014)
(1.71154e-07 -1.07023e-08 -0.00100013)
(1.58032e-07 -9.45764e-09 -0.00100011)
(1.46528e-07 -8.32219e-09 -0.0010001)
(1.36518e-07 -7.29019e-09 -0.00100008)
(1.27891e-07 -6.36186e-09 -0.00100007)
(1.20555e-07 -5.54981e-09 -0.00100006)
(1.14472e-07 -4.89494e-09 -0.00100005)
(1.09832e-07 -4.42452e-09 -0.00100004)
(1.07392e-07 -4.03144e-09 -0.00100003)
)
;

boundaryField
{
    inlet
    {
        type            calculated;
        value           uniform (1.07392e-07 -4.03144e-09 -0.00100003);
    }
    outlet
    {
        type            calculated;
        value           uniform (6.48535e-10 -8.36267e-09 -0.00100009);
    }
    repeat_boundary
    {
        type            calculated;
        value           nonuniform List<vector> 
360
(
(0 -8.36267e-09 -0.00100009)
(0 -1.12834e-08 -0.00100009)
(0 -1.59425e-08 -0.0010001)
(0 -2.1551e-08 -0.0010001)
(0 -2.7693e-08 -0.0010001)
(0 -3.42158e-08 -0.0010001)
(0 -4.11002e-08 -0.00100011)
(0 -4.83856e-08 -0.00100011)
(0 -5.61351e-08 -0.00100012)
(0 -6.44234e-08 -0.00100012)
(0 -7.33325e-08 -0.00100013)
(0 -8.29524e-08 -0.00100014)
(0 -9.33806e-08 -0.00100015)
(0 -1.04724e-07 -0.00100015)
(0 -1.17099e-07 -0.00100017)
(0 -1.30635e-07 -0.00100018)
(0 -1.4547e-07 -0.00100019)
(0 -1.61759e-07 -0.00100021)
(0 -1.79671e-07 -0.00100022)
(0 -1.99392e-07 -0.00100024)
(0 -2.21126e-07 -0.00100026)
(0 -2.45099e-07 -0.00100029)
(0 -2.71556e-07 -0.00100031)
(0 -3.00772e-07 -0.00100034)
(0 -3.33045e-07 -0.00100037)
(0 -3.68708e-07 -0.00100041)
(0 -4.08124e-07 -0.00100045)
(0 -4.51696e-07 -0.00100049)
(0 -4.99867e-07 -0.00100054)
(0 -5.53128e-07 -0.00100059)
(0 -6.12019e-07 -0.00100064)
(0 -6.77137e-07 -0.00100071)
(0 -7.49143e-07 -0.00100078)
(0 -8.28765e-07 -0.00100085)
(0 -9.16812e-07 -0.00100094)
(0 -1.01417e-06 -0.00100103)
(0 -1.12184e-06 -0.00100113)
(0 -1.2409e-06 -0.00100125)
(0 -1.37256e-06 -0.00100137)
(0 -1.51817e-06 -0.00100151)
(0 -1.6792e-06 -0.00100167)
(0 -1.85729e-06 -0.00100183)
(0 -2.05426e-06 -0.00100202)
(0 -2.27212e-06 -0.00100223)
(0 -2.5131e-06 -0.00100246)
(0 -2.77967e-06 -0.00100271)
(0 -3.07456e-06 -0.00100299)
(0 -3.4008e-06 -0.0010033)
(0 -3.76174e-06 -0.00100364)
(0 -4.16109e-06 -0.00100402)
(0 -4.60295e-06 -0.00100444)
(0 -5.09187e-06 -0.0010049)
(0 -5.63286e-06 -0.00100541)
(0 -6.23149e-06 -0.00100598)
(0 -6.89393e-06 -0.00100661)
(0 -7.62698e-06 -0.0010073)
(0 -8.4382e-06 -0.00100807)
(0 -9.33596e-06 -0.00100892)
(0 -1.03294e-05 -0.00100985)
(0 -1.14288e-05 -0.00101089)
(0 -1.26451e-05 -0.00101203)
(0 -1.39907e-05 -0.0010133)
(0 -1.54791e-05 -0.00101469)
(0 -1.71254e-05 -0.00101622)
(0 -1.89456e-05 -0.00101791)
(0 -2.09577e-05 -0.00101977)
(0 -2.31809e-05 -0.00102181)
(0 -2.56367e-05 -0.00102406)
(0 -2.83484e-05 -0.00102653)
(0 -3.13412e-05 -0.00102924)
(0 -3.46424e-05 -0.00103221)
(0 -3.82799e-05 -0.00103548)
(0 -4.22766e-05 -0.00103898)
(0 -4.6631e-05 -0.00104264)
(0 -5.12616e-05 -0.0010468)
(0 -5.58785e-05 -0.00105341)
(0 -5.96345e-05 -0.00106383)
(0 -6.08769e-05 -0.00106161)
(0 -5.56794e-05 -0.00100252)
(0 -3.68872e-05 -0.00078889)
(0 -1.29368e-06 -0.0034645)
(0 -7.85586e-06 6.14204e-05)
(0 -0.000224904 -0.00444801)
(0 1.80692e-05 -8.48167e-05)
(0 0.000278087 -0.00513156)
(0 8.712e-05 -0.000328804)
(0 0.000316642 -0.00517773)
(0 4.93224e-05 -0.000481296)
(0 -0.000165128 -0.0048223)
(0 -8.46095e-05 -0.00125053)
(0 -1.56805e-06 -0.00568758)
(0 -4.93178e-05 0.000159437)
(0 0.000775347 -0.00447658)
(0 2.39351e-05 -0.000432918)
(0 0.000368947 -0.00432381)
(0 0.000115338 -0.00126894)
(0 0.000329348 -0.0034659)
(0 0.000282544 -0.00260021)
(0 0.000192432 -0.00523412)
(0 -2.4829e-05 -0.000799218)
(0 -9.75904e-05 -0.00321925)
(0 -6.94407e-05 -0.00125396)
(0 -0.00011375 -0.00171646)
(0 -5.64481e-05 -0.00122335)
(0 -3.76741e-05 -0.00125209)
(0 -2.10371e-05 -0.00111257)
(0 -1.4366e-05 -0.00108295)
(0 -1.16756e-05 -0.00108194)
(0 -1.0021e-05 -0.00107851)
(0 -8.70338e-06 -0.00107198)
(0 -7.60795e-06 -0.00106536)
(0 -6.68358e-06 -0.00105946)
(0 -5.88797e-06 -0.00105415)
(0 -5.1952e-06 -0.0010493)
(0 -4.58974e-06 -0.00104486)
(0 -4.0599e-06 -0.0010408)
(0 -3.59569e-06 -0.00103709)
(0 -3.18844e-06 -0.0010337)
(0 -2.83068e-06 -0.00103061)
(0 -2.51599e-06 -0.0010278)
(0 -2.23885e-06 -0.00102524)
(0 -1.9945e-06 -0.0010229)
(0 -1.77882e-06 -0.00102078)
(0 -1.58827e-06 -0.00101885)
(0 -1.41976e-06 -0.0010171)
(0 -1.27064e-06 -0.0010155)
(0 -1.13862e-06 -0.00101405)
(0 -1.02169e-06 -0.00101274)
(0 -9.18143e-07 -0.00101155)
(0 -8.26328e-07 -0.00101046)
(0 -7.44551e-07 -0.00100947)
(0 -6.71455e-07 -0.00100858)
(0 -6.05936e-07 -0.00100776)
(0 -5.47082e-07 -0.00100702)
(0 -4.94126e-07 -0.00100635)
(0 -4.46412e-07 -0.00100575)
(0 -4.03379e-07 -0.0010052)
(0 -3.64537e-07 -0.0010047)
(0 -3.29459e-07 -0.00100425)
(0 -2.97767e-07 -0.00100384)
(0 -2.69125e-07 -0.00100347)
(0 -2.43236e-07 -0.00100314)
(0 -2.19832e-07 -0.00100284)
(0 -1.98671e-07 -0.00100256)
(0 -1.7954e-07 -0.00100232)
(0 -1.62243e-07 -0.00100209)
(0 -1.46605e-07 -0.00100189)
(0 -1.32471e-07 -0.00100171)
(0 -1.19696e-07 -0.00100154)
(0 -1.08152e-07 -0.00100139)
(0 -9.77225e-08 -0.00100126)
(0 -8.83003e-08 -0.00100113)
(0 -7.97891e-08 -0.00100102)
(0 -7.21008e-08 -0.00100092)
(0 -6.51554e-08 -0.00100083)
(0 -5.88802e-08 -0.00100075)
(0 -5.32089e-08 -0.00100068)
(0 -4.80813e-08 -0.00100061)
(0 -4.34429e-08 -0.00100055)
(0 -3.92443e-08 -0.0010005)
(0 -3.54409e-08 -0.00100045)
(0 -3.19923e-08 -0.0010004)
(0 -2.88625e-08 -0.00100036)
(0 -2.6019e-08 -0.00100032)
(0 -2.34329e-08 -0.00100029)
(0 -2.10784e-08 -0.00100026)
(0 -1.89326e-08 -0.00100023)
(0 -1.69752e-08 -0.00100021)
(0 -1.51883e-08 -0.00100018)
(0 -1.35562e-08 -0.00100016)
(0 -1.20649e-08 -0.00100014)
(0 -1.07023e-08 -0.00100013)
(0 -9.45764e-09 -0.00100011)
(0 -8.32219e-09 -0.0010001)
(0 -7.29019e-09 -0.00100008)
(0 -6.36186e-09 -0.00100007)
(0 -5.54981e-09 -0.00100006)
(0 -4.89494e-09 -0.00100005)
(0 -4.42452e-09 -0.00100004)
(0 -4.03144e-09 -0.00100003)
(6.48535e-10 0 -0.00100009)
(4.03616e-10 0 -0.00100009)
(1.97017e-10 0 -0.0010001)
(8.51401e-11 0 -0.0010001)
(5.04654e-11 0 -0.0010001)
(6.55203e-11 0 -0.0010001)
(1.16383e-10 0 -0.00100011)
(1.98742e-10 0 -0.00100011)
(3.13203e-10 0 -0.00100012)
(4.62025e-10 0 -0.00100012)
(6.47772e-10 0 -0.00100013)
(8.72846e-10 0 -0.00100014)
(1.13939e-09 0 -0.00100015)
(1.44929e-09 0 -0.00100015)
(1.80427e-09 0 -0.00100017)
(2.20595e-09 0 -0.00100018)
(2.65595e-09 0 -0.00100019)
(3.156e-09 0 -0.00100021)
(3.7081e-09 0 -0.00100022)
(4.31464e-09 0 -0.00100024)
(4.97853e-09 0 -0.00100026)
(5.7034e-09 0 -0.00100029)
(6.4937e-09 0 -0.00100031)
(7.35488e-09 0 -0.00100034)
(8.2935e-09 0 -0.00100037)
(9.31739e-09 0 -0.00100041)
(1.04357e-08 0 -0.00100045)
(1.16591e-08 0 -0.00100049)
(1.29994e-08 0 -0.00100054)
(1.44702e-08 0 -0.00100059)
(1.60863e-08 0 -0.00100064)
(1.78637e-08 0 -0.00100071)
(1.98197e-08 0 -0.00100078)
(2.19723e-08 0 -0.00100085)
(2.43404e-08 0 -0.00100094)
(2.6943e-08 0 -0.00100103)
(2.97989e-08 0 -0.00100113)
(3.29261e-08 0 -0.00100125)
(3.63414e-08 0 -0.00100137)
(4.00592e-08 0 -0.00100151)
(4.4091e-08 0 -0.00100167)
(4.8444e-08 0 -0.00100183)
(5.31199e-08 0 -0.00100202)
(5.81133e-08 0 -0.00100223)
(6.34101e-08 0 -0.00100246)
(6.89854e-08 0 -0.00100271)
(7.48015e-08 0 -0.00100299)
(8.08037e-08 0 -0.0010033)
(8.69188e-08 0 -0.00100364)
(9.30558e-08 0 -0.00100402)
(9.91122e-08 0 -0.00100444)
(1.04959e-07 0 -0.0010049)
(1.10433e-07 0 -0.00100541)
(1.15336e-07 0 -0.00100598)
(1.19423e-07 0 -0.00100661)
(1.22391e-07 0 -0.0010073)
(1.23872e-07 0 -0.00100807)
(1.23399e-07 0 -0.00100892)
(1.20571e-07 0 -0.00100985)
(1.15e-07 0 -0.00101089)
(1.06278e-07 0 -0.00101203)
(9.39983e-08 0 -0.0010133)
(7.77756e-08 0 -0.00101469)
(5.72882e-08 0 -0.00101622)
(3.24828e-08 0 -0.00101791)
(3.82627e-09 0 -0.00101977)
(-2.80486e-08 0 -0.00102181)
(-6.21731e-08 0 -0.00102406)
(-9.70598e-08 0 -0.00102653)
(-1.3058e-07 0 -0.00102924)
(-1.60091e-07 0 -0.00103221)
(-1.83148e-07 0 -0.00103548)
(-2.0073e-07 0 -0.00103898)
(-2.26278e-07 0 -0.00104264)
(-3.05315e-07 0 -0.0010468)
(-5.32177e-07 0 -0.00105341)
(-9.51374e-07 0 -0.00106383)
(-1.22755e-06 0 -0.00106161)
(3.52649e-07 0 -0.00100252)
(8.21278e-06 0 -0.00078889)
(2.28847e-05 0 -0.0034645)
(2.68763e-05 0 6.14204e-05)
(-5.93688e-05 0 -0.00444801)
(1.02671e-05 0 -8.48167e-05)
(0.000122597 0 -0.00513156)
(-4.00626e-06 0 -0.000328804)
(0.000314944 0 -0.00517773)
(1.53165e-05 0 -0.000481296)
(-0.000113563 0 -0.0048223)
(-9.48028e-05 0 -0.00125053)
(-0.000353698 0 -0.00568758)
(1.0437e-05 0 0.000159437)
(-0.00139242 0 -0.00447658)
(-9.02311e-05 0 -0.000432918)
(-0.000302552 0 -0.00432381)
(8.46871e-05 0 -0.00126894)
(0.000629002 0 -0.0034659)
(0.000520914 0 -0.00260021)
(0.000338243 0 -0.00523412)
(-4.18027e-05 0 -0.000799218)
(-0.000261819 0 -0.00321925)
(-0.000244367 0 -0.00125396)
(-0.00032779 0 -0.00171646)
(-0.000124097 0 -0.00122335)
(-7.52002e-06 0 -0.00125209)
(5.93166e-05 0 -0.00111257)
(8.16669e-05 0 -0.00108295)
(8.51917e-05 0 -0.00108194)
(8.14349e-05 0 -0.00107851)
(7.53313e-05 0 -0.00107198)
(6.88079e-05 0 -0.00106536)
(6.25623e-05 0 -0.00105946)
(5.67984e-05 0 -0.00105415)
(5.1539e-05 0 -0.0010493)
(4.67545e-05 0 -0.00104486)
(4.24058e-05 0 -0.0010408)
(3.84548e-05 0 -0.00103709)
(3.48662e-05 0 -0.0010337)
(3.16076e-05 0 -0.00103061)
(2.86492e-05 0 -0.0010278)
(2.59639e-05 0 -0.00102524)
(2.3527e-05 0 -0.0010229)
(2.13159e-05 0 -0.00102078)
(1.93101e-05 0 -0.00101885)
(1.74908e-05 0 -0.0010171)
(1.58409e-05 0 -0.0010155)
(1.43448e-05 0 -0.00101405)
(1.29884e-05 0 -0.00101274)
(1.17588e-05 0 -0.00101155)
(1.06443e-05 0 -0.00101046)
(9.63443e-06 0 -0.00100947)
(8.71962e-06 0 -0.00100858)
(7.89111e-06 0 -0.00100776)
(7.14091e-06 0 -0.00100702)
(6.46168e-06 0 -0.00100635)
(5.84677e-06 0 -0.00100575)
(5.29013e-06 0 -0.0010052)
(4.78628e-06 0 -0.0010047)
(4.33024e-06 0 -0.00100425)
(3.91753e-06 0 -0.00100384)
(3.54404e-06 0 -0.00100347)
(3.20609e-06 0 -0.00100314)
(2.90028e-06 0 -0.00100284)
(2.62354e-06 0 -0.00100256)
(2.3731e-06 0 -0.00100232)
(2.14648e-06 0 -0.00100209)
(1.94142e-06 0 -0.00100189)
(1.75588e-06 0 -0.00100171)
(1.58802e-06 0 -0.00100154)
(1.43617e-06 0 -0.00100139)
(1.29881e-06 0 -0.00100126)
(1.17459e-06 0 -0.00100113)
(1.06225e-06 0 -0.00100102)
(9.60681e-07 0 -0.00100092)
(8.68865e-07 0 -0.00100083)
(7.85884e-07 0 -0.00100075)
(7.10905e-07 0 -0.00100068)
(6.43178e-07 0 -0.00100061)
(5.8202e-07 0 -0.00100055)
(5.26818e-07 0 -0.0010005)
(4.77015e-07 0 -0.00100045)
(4.32108e-07 0 -0.0010004)
(3.91642e-07 0 -0.00100036)
(3.55207e-07 0 -0.00100032)
(3.22431e-07 0 -0.00100029)
(2.92981e-07 0 -0.00100026)
(2.66553e-07 0 -0.00100023)
(2.42877e-07 0 -0.00100021)
(2.21708e-07 0 -0.00100018)
(2.02825e-07 0 -0.00100016)
(1.86033e-07 0 -0.00100014)
(1.71154e-07 0 -0.00100013)
(1.58032e-07 0 -0.00100011)
(1.46528e-07 0 -0.0010001)
(1.36518e-07 0 -0.00100008)
(1.27891e-07 0 -0.00100007)
(1.20555e-07 0 -0.00100006)
(1.14472e-07 0 -0.00100005)
(1.09832e-07 0 -0.00100004)
(1.07392e-07 0 -0.00100003)
)
;
    }
    procBoundary3to1
    {
        type            processor;
        value           nonuniform List<vector> 
180
(
(8.80037e-10 -8.36264e-09 -0.000999975)
(1.06095e-09 -1.12834e-08 -0.000999974)
(1.29277e-09 -1.59425e-08 -0.000999973)
(1.6007e-09 -2.15509e-08 -0.000999971)
(1.96193e-09 -2.76929e-08 -0.000999968)
(2.34881e-09 -3.42157e-08 -0.000999965)
(2.74345e-09 -4.11001e-08 -0.000999962)
(3.13891e-09 -4.83855e-08 -0.000999957)
(3.53415e-09 -5.61351e-08 -0.000999952)
(3.93106e-09 -6.44233e-08 -0.000999946)
(4.33327e-09 -7.33324e-08 -0.000999939)
(4.74577e-09 -8.29522e-08 -0.000999932)
(5.17486e-09 -9.33804e-08 -0.000999923)
(5.62826e-09 -1.04724e-07 -0.000999913)
(6.11519e-09 -1.17099e-07 -0.000999901)
(6.64648e-09 -1.30634e-07 -0.000999888)
(7.23472e-09 -1.4547e-07 -0.000999874)
(7.89439e-09 -1.61759e-07 -0.000999858)
(8.64203e-09 -1.79671e-07 -0.00099984)
(9.49646e-09 -1.99392e-07 -0.00099982)
(1.0479e-08 -2.21126e-07 -0.000999797)
(1.16136e-08 -2.45098e-07 -0.000999772)
(1.29272e-08 -2.71555e-07 -0.000999744)
(1.44503e-08 -3.0077e-07 -0.000999713)
(1.62168e-08 -3.33044e-07 -0.000999679)
(1.82651e-08 -3.68706e-07 -0.00099964)
(2.06383e-08 -4.08121e-07 -0.000999598)
(2.33847e-08 -4.51693e-07 -0.00099955)
(2.65588e-08 -4.99863e-07 -0.000999498)
(3.02221e-08 -5.53123e-07 -0.00099944)
(3.44438e-08 -6.12013e-07 -0.000999375)
(3.93022e-08 -6.7713e-07 -0.000999304)
(4.48857e-08 -7.49133e-07 -0.000999225)
(5.12945e-08 -8.28754e-07 -0.000999137)
(5.86423e-08 -9.16798e-07 -0.00099904)
(6.7058e-08 -1.01416e-06 -0.000998932)
(7.66886e-08 -1.12182e-06 -0.000998813)
(8.77011e-08 -1.24087e-06 -0.00099868)
(1.00285e-07 -1.37253e-06 -0.000998534)
(1.14658e-07 -1.51813e-06 -0.000998372)
(1.31066e-07 -1.67915e-06 -0.000998192)
(1.4979e-07 -1.85723e-06 -0.000997993)
(1.71151e-07 -2.05419e-06 -0.000997773)
(1.95512e-07 -2.27203e-06 -0.000997528)
(2.23291e-07 -2.51299e-06 -0.000997258)
(2.54961e-07 -2.77953e-06 -0.000996958)
(2.9106e-07 -3.07439e-06 -0.000996626)
(3.32199e-07 -3.40059e-06 -0.000996259)
(3.79072e-07 -3.76148e-06 -0.000995851)
(4.32463e-07 -4.16077e-06 -0.0009954)
(4.93258e-07 -4.60257e-06 -0.0009949)
(5.62458e-07 -5.09139e-06 -0.000994346)
(6.41189e-07 -5.63228e-06 -0.000993733)
(7.3072e-07 -6.23078e-06 -0.000993054)
(8.32474e-07 -6.89304e-06 -0.000992302)
(9.48051e-07 -7.62589e-06 -0.000991468)
(1.07923e-06 -8.43686e-06 -0.000990546)
(1.22801e-06 -9.33431e-06 -0.000989525)
(1.39659e-06 -1.03274e-05 -0.000988395)
(1.58742e-06 -1.14263e-05 -0.000987145)
(1.80318e-06 -1.2642e-05 -0.000985761)
(2.04683e-06 -1.39869e-05 -0.000984231)
(2.32156e-06 -1.54745e-05 -0.00098254)
(2.63085e-06 -1.71196e-05 -0.000980671)
(2.9784e-06 -1.89385e-05 -0.000978606)
(3.36803e-06 -2.09489e-05 -0.000976328)
(3.80366e-06 -2.31701e-05 -0.000973816)
(4.28917e-06 -2.56233e-05 -0.000971048)
(4.82833e-06 -2.83318e-05 -0.000968001)
(5.42445e-06 -3.13205e-05 -0.000964651)
(6.07986e-06 -3.4616e-05 -0.000960975)
(6.79406e-06 -3.82438e-05 -0.000956945)
(7.55844e-06 -4.22198e-05 -0.000952486)
(8.34185e-06 -4.65205e-05 -0.000947482)
(9.05952e-06 -5.10007e-05 -0.00094215)
(9.52573e-06 -5.52032e-05 -0.000937973)
(9.40469e-06 -5.79825e-05 -0.00093668)
(8.20568e-06 -5.69547e-05 -0.000927087)
(5.14806e-06 -4.77043e-05 -0.00087764)
(-1.2958e-06 -2.47786e-05 -0.000678236)
(-1.88608e-05 8.18891e-06 -0.00265988)
(-5.11821e-05 -3.19531e-05 1.3851e-05)
(0.00018561 -0.000231187 -0.00275088)
(3.65108e-05 -0.000103477 -0.00334143)
(-7.43842e-05 -4.8619e-06 -0.000681712)
(-0.000550962 0.000244335 -0.00432494)
(-0.000156805 1.12629e-05 -0.000458308)
(-0.000230484 0.000211677 -0.00316082)
(3.77953e-05 -0.000137916 -0.00174449)
(0.000374215 -0.000176935 -0.0038253)
(8.35161e-05 -5.8599e-06 -0.00141233)
(6.61158e-05 1.96408e-05 -0.00424162)
(-3.80566e-06 6.91095e-05 -0.000968778)
(-0.00017421 0.000528838 -0.0040236)
(-1.92023e-05 4.45899e-05 -0.000130672)
(-0.000247725 0.000468911 -0.00416098)
(-0.000150183 0.000213584 -0.00184723)
(-0.000218157 0.000265562 -0.00216675)
(-0.000222297 0.000312426 -0.00360183)
(-7.76289e-05 -4.26154e-05 -0.00181428)
(-0.000244215 -4.74943e-05 -0.00288885)
(-0.00039698 -7.13431e-05 -0.00247484)
(-0.000102667 -4.45805e-05 -0.00176853)
(-6.41571e-06 -2.71824e-05 -0.00169527)
(2.15077e-05 -1.35335e-05 -0.00136126)
(6.74971e-05 -3.20256e-06 -0.00122345)
(9.09511e-05 -4.04274e-06 -0.00112686)
(9.70139e-05 -6.67107e-06 -0.00110805)
(9.3773e-05 -7.93512e-06 -0.00110384)
(8.6899e-05 -7.93352e-06 -0.00109601)
(7.91887e-05 -7.34721e-06 -0.00108658)
(7.17222e-05 -6.59651e-06 -0.00107785)
(6.4828e-05 -5.85521e-06 -0.00107016)
(5.85611e-05 -5.17923e-06 -0.00106329)
(5.28918e-05 -4.57968e-06 -0.00105711)
(4.77701e-05 -4.05264e-06 -0.00105153)
(4.31444e-05 -3.59018e-06 -0.0010465)
(3.89672e-05 -3.18419e-06 -0.00104197)
(3.51948e-05 -2.82738e-06 -0.00103789)
(3.1788e-05 -2.51343e-06 -0.00103421)
(2.87112e-05 -2.23686e-06 -0.00103088)
(2.59325e-05 -1.99295e-06 -0.00102789)
(2.3423e-05 -1.77761e-06 -0.00102518)
(2.11565e-05 -1.58732e-06 -0.00102274)
(1.91095e-05 -1.41902e-06 -0.00102054)
(1.72608e-05 -1.27006e-06 -0.00101855)
(1.55911e-05 -1.13817e-06 -0.00101675)
(1.40832e-05 -1.02134e-06 -0.00101513)
(1.27213e-05 -9.17866e-07 -0.00101367)
(1.14914e-05 -8.26111e-07 -0.00101234)
(1.03804e-05 -7.4438e-07 -0.00101115)
(9.37665e-06 -6.7132e-07 -0.00101008)
(8.46981e-06 -6.0583e-07 -0.00100911)
(7.65043e-06 -5.46999e-07 -0.00100823)
(6.91007e-06 -4.9406e-07 -0.00100744)
(6.24114e-06 -4.4636e-07 -0.00100673)
(5.63676e-06 -4.03338e-07 -0.00100608)
(5.09071e-06 -3.64505e-07 -0.0010055)
(4.59738e-06 -3.29433e-07 -0.00100497)
(4.15169e-06 -2.97746e-07 -0.00100449)
(3.74904e-06 -2.69109e-07 -0.00100406)
(3.3853e-06 -2.43223e-07 -0.00100367)
(3.05674e-06 -2.19822e-07 -0.00100332)
(2.76001e-06 -1.98663e-07 -0.001003)
(2.49205e-06 -1.79533e-07 -0.00100271)
(2.2501e-06 -1.62237e-07 -0.00100245)
(2.03165e-06 -1.46601e-07 -0.00100221)
(1.83442e-06 -1.32467e-07 -0.001002)
(1.65637e-06 -1.19693e-07 -0.0010018)
(1.49564e-06 -1.0815e-07 -0.00100163)
(1.35055e-06 -9.77208e-08 -0.00100147)
(1.21959e-06 -8.8299e-08 -0.00100133)
(1.1014e-06 -7.9788e-08 -0.0010012)
(9.94729e-07 -7.20999e-08 -0.00100108)
(8.98474e-07 -6.51548e-08 -0.00100097)
(8.11624e-07 -5.88796e-08 -0.00100088)
(7.33272e-07 -5.32084e-08 -0.00100079)
(6.62597e-07 -4.8081e-08 -0.00100071)
(5.98858e-07 -4.34427e-08 -0.00100064)
(5.4139e-07 -3.92441e-08 -0.00100058)
(4.89588e-07 -3.54407e-08 -0.00100052)
(4.42913e-07 -3.19922e-08 -0.00100047)
(4.00874e-07 -2.88624e-08 -0.00100042)
(3.63034e-07 -2.6019e-08 -0.00100038)
(3.28997e-07 -2.34329e-08 -0.00100034)
(2.98408e-07 -2.10784e-08 -0.00100031)
(2.7095e-07 -1.89325e-08 -0.00100028)
(2.46336e-07 -1.69751e-08 -0.00100025)
(2.24311e-07 -1.51883e-08 -0.00100022)
(2.04648e-07 -1.35562e-08 -0.0010002)
(1.87144e-07 -1.20649e-08 -0.00100017)
(1.71617e-07 -1.07023e-08 -0.00100015)
(1.57909e-07 -9.45763e-09 -0.00100014)
(1.45879e-07 -8.32218e-09 -0.00100012)
(1.35405e-07 -7.29019e-09 -0.0010001)
(1.26386e-07 -6.36186e-09 -0.00100009)
(1.18749e-07 -5.54981e-09 -0.00100008)
(1.12497e-07 -4.89494e-09 -0.00100006)
(1.07787e-07 -4.42452e-09 -0.00100005)
(1.05021e-07 -4.03144e-09 -0.00100004)
)
;
    }
    procBoundary3to2
    {
        type            processor;
        value           nonuniform List<vector> 
180
(
(6.48536e-10 -8.13116e-09 -0.00100009)
(4.03617e-10 -1.06261e-08 -0.00100009)
(1.97019e-10 -1.48468e-08 -0.0010001)
(8.51415e-11 -2.00354e-08 -0.0010001)
(5.04669e-11 -2.57815e-08 -0.0010001)
(6.55221e-11 -3.19325e-08 -0.0010001)
(1.16385e-10 -3.84731e-08 -0.00100011)
(1.98745e-10 -4.54454e-08 -0.00100011)
(3.13205e-10 -5.29142e-08 -0.00100012)
(4.62029e-10 -6.09543e-08 -0.00100013)
(6.47776e-10 -6.9647e-08 -0.00100013)
(8.72851e-10 -7.90794e-08 -0.00100014)
(1.13939e-09 -8.93451e-08 -0.00100015)
(1.4493e-09 -1.00545e-07 -0.00100016)
(1.80428e-09 -1.12789e-07 -0.00100017)
(2.20596e-09 -1.26194e-07 -0.00100019)
(2.65596e-09 -1.40891e-07 -0.0010002)
(3.15601e-09 -1.57021e-07 -0.00100022)
(3.70812e-09 -1.74737e-07 -0.00100024)
(4.31466e-09 -1.9421e-07 -0.00100026)
(4.97856e-09 -2.15626e-07 -0.00100028)
(5.70344e-09 -2.39188e-07 -0.0010003)
(6.49374e-09 -2.65123e-07 -0.00100033)
(7.35493e-09 -2.93676e-07 -0.00100036)
(8.29356e-09 -3.25122e-07 -0.0010004)
(9.31747e-09 -3.5976e-07 -0.00100043)
(1.04358e-08 -3.97922e-07 -0.00100047)
(1.16592e-08 -4.3997e-07 -0.00100052)
(1.29996e-08 -4.86308e-07 -0.00100057)
(1.44704e-08 -5.37376e-07 -0.00100062)
(1.60865e-08 -5.93661e-07 -0.00100068)
(1.7864e-08 -6.55698e-07 -0.00100075)
(1.982e-08 -7.24077e-07 -0.00100082)
(2.19727e-08 -7.99443e-07 -0.0010009)
(2.43409e-08 -8.8251e-07 -0.00100099)
(2.69436e-08 -9.74059e-07 -0.00100109)
(2.97996e-08 -1.07495e-06 -0.0010012)
(3.29271e-08 -1.18612e-06 -0.00100132)
(3.63426e-08 -1.30862e-06 -0.00100145)
(4.00607e-08 -1.44357e-06 -0.0010016)
(4.40929e-08 -1.59222e-06 -0.00100176)
(4.84463e-08 -1.75594e-06 -0.00100194)
(5.31228e-08 -1.93623e-06 -0.00100213)
(5.81168e-08 -2.13472e-06 -0.00100235)
(6.34145e-08 -2.35322e-06 -0.00100258)
(6.89909e-08 -2.59369e-06 -0.00100284)
(7.48082e-08 -2.8583e-06 -0.00100313)
(8.08121e-08 -3.14939e-06 -0.00100344)
(8.69292e-08 -3.46957e-06 -0.00100379)
(9.30688e-08 -3.82167e-06 -0.00100417)
(9.91284e-08 -4.20879e-06 -0.00100459)
(1.04979e-07 -4.63434e-06 -0.00100505)
(1.10459e-07 -5.10208e-06 -0.00100555)
(1.15368e-07 -5.61607e-06 -0.00100611)
(1.19462e-07 -6.18083e-06 -0.00100672)
(1.2244e-07 -6.80125e-06 -0.00100739)
(1.23933e-07 -7.48275e-06 -0.00100813)
(1.23476e-07 -8.23123e-06 -0.00100894)
(1.20667e-07 -9.05327e-06 -0.00100983)
(1.1512e-07 -9.95615e-06 -0.00101081)
(1.06429e-07 -1.09479e-05 -0.00101189)
(9.41876e-08 -1.20375e-05 -0.00101309)
(7.80135e-08 -1.32349e-05 -0.0010144)
(5.75877e-08 -1.45512e-05 -0.00101586)
(3.28602e-08 -1.5999e-05 -0.00101748)
(4.3024e-09 -1.75925e-05 -0.00101927)
(-2.74467e-08 -1.9348e-05 -0.00102127)
(-6.14096e-08 -2.12838e-05 -0.00102349)
(-9.60845e-08 -2.34209e-05 -0.00102598)
(-1.29315e-07 -2.57834e-05 -0.00102876)
(-1.58402e-07 -2.83986e-05 -0.00103189)
(-1.80805e-07 -3.12962e-05 -0.00103542)
(-1.97444e-07 -3.4503e-05 -0.00103934)
(-2.22318e-07 -3.80203e-05 -0.00104359)
(-3.04392e-07 -4.17552e-05 -0.00104844)
(-5.50067e-07 -4.53527e-05 -0.00105577)
(-1.03436e-06 -4.7881e-05 -0.00106764)
(-1.51227e-06 -4.77408e-05 -0.00107014)
(-5.89017e-07 -4.26452e-05 -0.00102221)
(5.2274e-06 -3.1795e-05 -0.000780868)
(1.32396e-05 -5.70978e-06 -0.00346799)
(9.00038e-06 5.08666e-05 7.41836e-05)
(-8.9904e-05 4.81967e-05 -0.00410119)
(7.15002e-06 3.95795e-05 -0.000392014)
(7.79477e-05 -0.000128372 -0.00392228)
(2.24884e-05 -0.000222664 -0.0043254)
(1.00107e-05 -3.81238e-05 -0.000522771)
(0.000312146 -0.000344157 -0.00461476)
(-8.53725e-05 -1.36648e-06 -0.00124216)
(-0.00033653 0.000756769 -0.00290795)
(-0.00040769 0.000961371 -0.00318318)
(-0.000172762 0.000158802 -0.000664144)
(-0.00105613 0.00133182 -0.00289026)
(-0.000322808 0.000392333 -0.00250458)
(-6.1813e-06 -9.77157e-05 -8.45391e-05)
(8.70998e-05 -5.93597e-05 -0.00468532)
(2.60182e-05 -0.000128664 -0.000677306)
(0.000619869 -0.000608001 -0.0024523)
(0.000546006 -0.000492024 -0.00185984)
(-2.51367e-05 -0.000307915 -0.00139017)
(-0.000267404 -0.000365579 -0.00229191)
(-0.000146056 -0.000114769 -0.00180518)
(-7.6198e-05 6.70048e-06 -0.00179983)
(-3.57562e-05 1.0103e-05 -0.00151758)
(9.0339e-06 -5.64819e-06 -0.00116289)
(7.21113e-05 -1.03206e-06 -0.00100205)
(8.78453e-05 4.30451e-06 -0.00088043)
(8.79708e-05 5.68466e-06 -0.000892632)
(8.25778e-05 4.92106e-06 -0.00091261)
(7.57722e-05 3.90447e-06 -0.000922902)