/*--------------------------------*- C++ -*----------------------------------*\
| =========                 |                                                 |
| \\      /  F ield         | OpenFOAM: The Open Source CFD Toolbox           |
|  \\    /   O peration     | Version:  5.x                                   |
|   \\  /    A nd           | Web:      www.OpenFOAM.org                      |
|    \\/     M anipulation  |                                                 |
\*---------------------------------------------------------------------------*/
FoamFile
{
    version     2.0;
    format      ascii;
    class       volVectorField;
    location    "0.006";
    object      U;
}
// * * * * * * * * * * * * * * * * * * * * * * * * * * * * * * * * * * * * * //

dimensions      [0 1 -1 0 0 0 0];

internalField   nonuniform List<vector> 
180
(
(7.23405e-10 -8.38846e-09 -0.00100005)
(6.32311e-10 -1.11294e-08 -0.00100005)
(5.63366e-10 -1.56278e-08 -0.00100005)
(5.7276e-10 -2.11006e-08 -0.00100005)
(6.41846e-10 -2.71323e-08 -0.00100005)
(7.38829e-10 -3.35711e-08 -0.00100006)
(8.45489e-10 -4.03988e-08 -0.00100006)
(9.53643e-10 -4.76571e-08 -0.00100006)
(1.06055e-09 -5.54114e-08 -0.00100007)
(1.16567e-09 -6.37384e-08 -0.00100007)
(1.26921e-09 -7.2722e-08 -0.00100008)
(1.3716e-09 -8.24533e-08 -0.00100009)
(1.47322e-09 -9.30312e-08 -0.0010001)
(1.57433e-09 -1.04563e-07 -0.00100011)
(1.67498e-09 -1.17167e-07 -0.00100012)
(1.77496e-09 -1.3097e-07 -0.00100013)
(1.87371e-09 -1.46114e-07 -0.00100014)
(1.97034e-09 -1.62755e-07 -0.00100016)
(2.06346e-09 -1.81062e-07 -0.00100017)
(2.15103e-09 -2.01223e-07 -0.00100019)
(2.23031e-09 -2.23445e-07 -0.00100022)
(2.29775e-09 -2.47958e-07 -0.00100024)
(2.3489e-09 -2.75013e-07 -0.00100027)
(2.37826e-09 -3.04888e-07 -0.0010003)
(2.37914e-09 -3.37891e-07 -0.00100033)
(2.34336e-09 -3.74361e-07 -0.00100036)
(2.26099e-09 -4.14673e-07 -0.0010004)
(2.11991e-09 -4.59242e-07 -0.00100045)
(1.90521e-09 -5.08525e-07 -0.0010005)
(1.59861e-09 -5.6303e-07 -0.00100055)
(1.17755e-09 -6.23318e-07 -0.00100062)
(6.14228e-10 -6.90009e-07 -0.00100068)
(-1.25688e-10 -7.63791e-07 -0.00100076)
(-1.08448e-09 -8.45428e-07 -0.00100084)
(-2.3141e-09 -9.35765e-07 -0.00100093)
(-3.87821e-09 -1.03574e-06 -0.00100104)
(-5.85448e-09 -1.14639e-06 -0.00100115)
(-8.33738e-09 -1.26888e-06 -0.00100128)
(-1.14412e-08 -1.40448e-06 -0.00100142)
(-1.53039e-08 -1.55463e-06 -0.00100157)
(-2.00908e-08 -1.7209e-06 -0.00100175)
(-2.6e-08 -1.90505e-06 -0.00100194)
(-3.32674e-08 -2.10904e-06 -0.00100215)
(-4.21735e-08 -2.33503e-06 -0.00100239)
(-5.30506e-08 -2.58544e-06 -0.00100266)
(-6.62913e-08 -2.86296e-06 -0.00100295)
(-8.23592e-08 -3.17056e-06 -0.00100328)
(-1.01801e-07 -3.51155e-06 -0.00100365)
(-1.25257e-07 -3.88963e-06 -0.00100405)
(-1.53482e-07 -4.3089e-06 -0.00100451)
(-1.87353e-07 -4.77392e-06 -0.00100501)
(-2.27899e-07 -5.28976e-06 -0.00100558)
(-2.76329e-07 -5.86209e-06 -0.00100621)
(-3.34054e-07 -6.49718e-06 -0.00100691)
(-4.0273e-07 -7.20207e-06 -0.00100769)
(-4.84294e-07 -7.98458e-06 -0.00100856)
(-5.81015e-07 -8.85345e-06 -0.00100954)
(-6.95544e-07 -9.81842e-06 -0.00101063)
(-8.30944e-07 -1.08904e-05 -0.00101185)
(-9.90771e-07 -1.20814e-05 -0.00101322)
(-1.17917e-06 -1.34051e-05 -0.00101474)
(-1.40097e-06 -1.48766e-05 -0.00101645)
(-1.6618e-06 -1.65129e-05 -0.00101837)
(-1.9682e-06 -1.8333e-05 -0.00102051)
(-2.32776e-06 -2.03583e-05 -0.00102292)
(-2.74933e-06 -2.26124e-05 -0.00102563)
(-3.24316e-06 -2.51223e-05 -0.00102867)
(-3.82118e-06 -2.7918e-05 -0.00103209)
(-4.49701e-06 -3.1033e-05 -0.00103594)
(-5.28645e-06 -3.45051e-05 -0.00104027)
(-6.20839e-06 -3.83763e-05 -0.00104515)
(-7.28633e-06 -4.26922e-05 -0.00105065)
(-8.55273e-06 -4.74965e-05 -0.00105681)
(-1.00592e-05 -5.28118e-05 -0.0010636)
(-1.18965e-05 -5.85826e-05 -0.00107146)
(-1.42111e-05 -6.45481e-05 -0.00108246)
(-1.70912e-05 -6.98817e-05 -0.0010981)
(-2.02609e-05 -7.298e-05 -0.00110214)
(-2.20289e-05 -6.99326e-05 -0.00104968)
(-1.82362e-05 -5.38186e-05 -0.000807119)
(-6.5602e-06 -1.80286e-05 -0.00340253)
(1.42561e-05 -8.0299e-06 -0.000117726)
(-0.000112653 -0.000256241 -0.00412837)
(-5.32103e-06 -2.30956e-05 -0.00017507)
(0.000114232 0.000294891 -0.00445477)
(-2.1264e-05 -9.9443e-06 -0.000314194)
(0.000334047 0.000349148 -0.0047043)
(9.87786e-06 -7.39245e-06 -0.000443212)
(-5.97051e-05 -0.000129064 -0.00481923)
(-5.37697e-05 -7.85207e-05 -0.00127248)
(-0.000346271 4.39824e-05 -0.00567584)
(-4.35082e-06 -9.33278e-06 -0.000120161)
(-0.0013894 0.00084931 -0.00468111)
(-9.61319e-05 7.60908e-05 -0.000484331)
(-0.000267535 0.000417004 -0.00466499)
(0.000136009 0.000200952 -0.00127902)
(0.0007223 0.00040012 -0.00350778)
(0.000636944 0.000346493 -0.00266891)
(0.000395985 0.000194914 -0.00529314)
(-2.8847e-06 -6.73068e-05 -0.000786636)
(-0.000258488 -0.000144327 -0.00336868)
(-0.000282205 -0.00010124 -0.00128594)
(-0.000338536 -0.000129489 -0.00173201)
(-0.000131223 -6.7337e-05 -0.00121664)
(-7.18524e-06 -4.44913e-05 -0.00125702)
(6.06939e-05 -2.6177e-05 -0.0011138)
(8.34382e-05 -1.86131e-05 -0.00108391)
(8.71704e-05 -1.52198e-05 -0.00108301)
(8.34455e-05 -1.29826e-05 -0.00107961)
(7.72591e-05 -1.11856e-05 -0.00107308)
(7.06036e-05 -9.6905e-06 -0.00106644)
(6.42117e-05 -8.43108e-06 -0.0010605)
(5.83023e-05 -7.35397e-06 -0.00105515)
(5.29042e-05 -6.42457e-06 -0.00105025)
(4.79898e-05 -5.62023e-06 -0.00104575)
(4.35205e-05 -4.92332e-06 -0.00104163)
(3.94584e-05 -4.31884e-06 -0.00103786)
(3.57677e-05 -3.79388e-06 -0.00103442)
(3.24159e-05 -3.33739e-06 -0.00103127)
(2.93727e-05 -2.93991e-06 -0.00102841)
(2.66105e-05 -2.59338e-06 -0.00102579)
(2.41042e-05 -2.29087e-06 -0.00102341)
(2.18305e-05 -2.02645e-06 -0.00102124)
(1.97684e-05 -1.79502e-06 -0.00101927)
(1.78986e-05 -1.59223e-06 -0.00101747)
(1.62036e-05 -1.41431e-06 -0.00101584)
(1.46672e-05 -1.25807e-06 -0.00101436)
(1.32749e-05 -1.12072e-06 -0.00101301)
(1.20133e-05 -9.99894e-07 -0.00101179)
(1.08705e-05 -8.93424e-07 -0.00101068)
(9.83543e-06 -7.99253e-07 -0.00100967)
(8.89824e-06 -7.15729e-07 -0.00100875)
(8.04981e-06 -6.41496e-07 -0.00100792)
(7.28184e-06 -5.75419e-07 -0.00100717)
(6.58676e-06 -5.16523e-07 -0.00100648)
(5.95772e-06 -4.6397e-07 -0.00100586)
(5.38848e-06 -4.17027e-07 -0.0010053)
(4.8734e-06 -3.75056e-07 -0.0010048)
(4.40736e-06 -3.37495e-07 -0.00100434)
(3.98573e-06 -3.03853e-07 -0.00100392)
(3.60429e-06 -2.73694e-07 -0.00100355)
(3.25925e-06 -2.46638e-07 -0.00100321)
(2.94715e-06 -2.22346e-07 -0.0010029)
(2.66484e-06 -2.0052e-07 -0.00100262)
(2.4095e-06 -1.80899e-07 -0.00100237)
(2.17857e-06 -1.63248e-07 -0.00100214)
(1.96972e-06 -1.47362e-07 -0.00100193)
(1.78084e-06 -1.33058e-07 -0.00100175)
(1.61004e-06 -1.20173e-07 -0.00100158)
(1.4556e-06 -1.08565e-07 -0.00100142)
(1.31596e-06 -9.81032e-08 -0.00100129)
(1.18972e-06 -8.86737e-08 -0.00100116)
(1.07559e-06 -8.01734e-08 -0.00100105)
(9.72446e-07 -7.25099e-08 -0.00100095)
(8.79228e-07 -6.56e-08 -0.00100085)
(7.95e-07 -5.93684e-08 -0.00100077)
(7.18911e-07 -5.37474e-08 -0.0010007)
(6.50191e-07 -4.86752e-08 -0.00100063)
(5.88148e-07 -4.4096e-08 -0.00100057)
(5.32152e-07 -3.99592e-08 -0.00100051)
(4.81637e-07 -3.62187e-08 -0.00100046)
(4.36091e-07 -3.2833e-08 -0.00100041)
(3.95052e-07 -2.97645e-08 -0.00100037)
(3.58104e-07 -2.69795e-08 -0.00100033)
(3.24869e-07 -2.44476e-08 -0.0010003)
(2.95008e-07 -2.2142e-08 -0.00100027)
(2.68216e-07 -2.00388e-08 -0.00100024)
(2.44216e-07 -1.81172e-08 -0.00100022)
(2.2276e-07 -1.63589e-08 -0.00100019)
(2.03626e-07 -1.47482e-08 -0.00100017)
(1.86611e-07 -1.32715e-08 -0.00100015)
(1.71538e-07 -1.19173e-08 -0.00100013)
(1.58245e-07 -1.06759e-08 -0.00100012)
(1.46591e-07 -9.54001e-09 -0.0010001)
(1.36448e-07 -8.50522e-09 -0.00100009)
(1.27702e-07 -7.57351e-09 -0.00100007)
(1.2026e-07 -6.75948e-09 -0.00100006)
(1.14086e-07 -6.103e-09 -0.00100005)
(1.09385e-07 -5.62391e-09 -0.00100004)
(1.06903e-07 -5.23697e-09 -0.00100003)
)
;

boundaryField
{
    inlet
    {
        type            zeroGradient;
    }
    outlet
    {
        type            zeroGradient;
    }
    repeat_boundary
    {
        type            slip;
    }
    procBoundary3to1
    {
        type            processor;
        value           nonuniform List<vector> 
180
(
(7.47524e-10 -8.38843e-09 -0.00099993)
(6.84083e-10 -1.11294e-08 -0.00099993)
(6.79223e-10 -1.56278e-08 -0.000999928)
(7.57285e-10 -2.11006e-08 -0.000999926)
(8.98544e-10 -2.71323e-08 -0.000999923)
(1.07914e-09 -3.3571e-08 -0.000999919)
(1.28314e-09 -4.03988e-08 -0.000999915)
(1.5045e-09 -4.7657e-08 -0.00099991)
(1.74232e-09 -5.54113e-08 -0.000999904)
(1.99785e-09 -6.37383e-08 -0.000999897)
(2.27322e-09 -7.27219e-08 -0.000999889)
(2.57104e-09 -8.24532e-08 -0.00099988)
(2.8944e-09 -9.30311e-08 -0.00099987)
(3.24696e-09 -1.04563e-07 -0.000999859)
(3.63305e-09 -1.17166e-07 -0.000999846)
(4.05786e-09 -1.3097e-07 -0.000999832)
(4.52753e-09 -1.46114e-07 -0.000999817)
(5.04935e-09 -1.62754e-07 -0.0009998)
(5.63181e-09 -1.81061e-07 -0.000999781)
(6.28477e-09 -2.01222e-07 -0.00099976)
(7.01956e-09 -2.23444e-07 -0.000999737)
(7.84901e-09 -2.47957e-07 -0.000999712)
(8.78761e-09 -2.75011e-07 -0.000999683)
(9.85151e-09 -3.04886e-07 -0.000999652)
(1.10587e-08 -3.37889e-07 -0.000999617)
(1.24291e-08 -3.74359e-07 -0.000999579)
(1.39846e-08 -4.1467e-07 -0.000999537)
(1.57496e-08 -4.59238e-07 -0.000999489)
(1.77508e-08 -5.08521e-07 -0.000999437)
(2.00178e-08 -5.63025e-07 -0.00099938)
(2.25837e-08 -6.23311e-07 -0.000999316)
(2.5485e-08 -6.90001e-07 -0.000999246)
(2.87629e-08 -7.63782e-07 -0.000999168)
(3.24637e-08 -8.45417e-07 -0.000999082)
(3.66396e-08 -9.35751e-07 -0.000998986)
(4.13499e-08 -1.03572e-06 -0.00099888)
(4.66621e-08 -1.14637e-06 -0.000998764)
(5.26532e-08 -1.26885e-06 -0.000998634)
(5.94109e-08 -1.40445e-06 -0.000998491)
(6.70353e-08 -1.55459e-06 -0.000998333)
(7.56405e-08 -1.72085e-06 -0.000998158)
(8.53562e-08 -1.90499e-06 -0.000997964)
(9.63302e-08 -2.10896e-06 -0.00099775)
(1.0873e-07 -2.33494e-06 -0.000997513)
(1.22747e-07 -2.58533e-06 -0.00099725)
(1.38597e-07 -2.86282e-06 -0.00099696)
(1.56523e-07 -3.17039e-06 -0.000996638)
(1.76801e-07 -3.51134e-06 -0.000996282)
(1.99742e-07 -3.88937e-06 -0.000995888)
(2.25695e-07 -4.30858e-06 -0.000995451)
(2.55051e-07 -4.77353e-06 -0.000994968)
(2.8825e-07 -5.28928e-06 -0.000994433)
(3.25787e-07 -5.86149e-06 -0.00099384)
(3.68215e-07 -6.49645e-06 -0.000993184)
(4.16157e-07 -7.20117e-06 -0.000992458)
(4.70308e-07 -7.98347e-06 -0.000991653)
(5.31448e-07 -8.85208e-06 -0.000990761)
(6.00445e-07 -9.81673e-06 -0.000989774)
(6.78269e-07 -1.08883e-05 -0.000988679)
(7.65991e-07 -1.20788e-05 -0.000987467)
(8.648e-07 -1.34019e-05 -0.000986124)
(9.76002e-07 -1.48727e-05 -0.000984635)
(1.10103e-06 -1.65081e-05 -0.000982984)
(1.24146e-06 -1.83271e-05 -0.000981155)
(1.399e-06 -2.0351e-05 -0.000979127)
(1.5754e-06 -2.26034e-05 -0.000976878)
(1.77252e-06 -2.51112e-05 -0.000974385)
(1.99225e-06 -2.79043e-05 -0.00097162)
(2.2365e-06 -3.1016e-05 -0.000968554)
(2.50708e-06 -3.44839e-05 -0.000965153)
(2.80517e-06 -3.83491e-05 -0.000961385)
(3.12979e-06 -4.26549e-05 -0.000957205)
(3.47247e-06 -4.74375e-05 -0.000952519)
(3.80309e-06 -5.26963e-05 -0.000947185)
(4.03931e-06 -5.83098e-05 -0.000941384)
(4.00134e-06 -6.38435e-05 -0.000936556)
(3.36927e-06 -6.81832e-05 -0.000934367)
(1.67925e-06 -6.89933e-05 -0.000923564)
(-1.81242e-06 -6.19695e-05 -0.000871201)
(-8.585e-06 -4.1879e-05 -0.000644701)
(-2.19401e-05 -5.17677e-06 -0.00251784)
(1.82814e-05 2.43693e-05 -0.000179698)
(0.000169952 -0.000260404 -0.00254243)
(4.32843e-05 -9.25188e-05 -0.00322094)
(-2.38472e-05 2.20978e-05 -0.000650956)
(-0.000556395 0.000290688 -0.0040185)
(-2.12151e-05 4.68549e-05 -0.000431776)
(-0.000243078 0.000256618 -0.00302059)
(7.41392e-05 -8.58038e-05 -0.00169158)
(0.000394722 -0.000153145 -0.00378649)
(0.000105764 -3.14851e-05 -0.00139315)
(7.80267e-05 5.30671e-05 -0.00420369)
(1.30838e-05 5.28999e-05 -0.000962398)
(-0.000112726 0.000559219 -0.00428478)
(8.12607e-07 -1.1956e-05 3.04994e-05)
(-0.000260203 0.00052167 -0.00459557)
(-0.000185417 0.000261769 -0.00190071)
(-0.000250476 0.000308029 -0.00219013)
(-0.000225946 0.000349811 -0.00372092)
(-8.86114e-05 -8.71131e-05 -0.00182015)
(-0.000248319 -8.22924e-05 -0.00291421)
(-0.000404463 -0.000107341 -0.00256922)
(-0.000104817 -7.54615e-05 -0.00179932)
(2.09865e-06 -3.65788e-05 -0.00173229)
(3.39542e-05 -1.5925e-05 -0.00138958)
(7.77951e-05 -7.76113e-06 -0.00124469)
(9.97435e-05 -8.2181e-06 -0.00114236)
(0.000104713 -1.01368e-05 -0.00112128)
(0.000100507 -1.08425e-05 -0.00111522)
(9.27433e-05 -1.0387e-05 -0.00110579)
(8.42289e-05 -9.41737e-06 -0.00109498)
(7.60542e-05 -8.33947e-06 -0.00108506)
(6.85469e-05 -7.31974e-06 -0.00107634)
(6.17534e-05 -6.40816e-06 -0.0010686)
(5.56333e-05 -5.61004e-06 -0.00106166)
(5.01259e-05 -4.91602e-06 -0.00105544)
(4.51703e-05 -4.31331e-06 -0.00104986)
(4.07107e-05 -3.78961e-06 -0.00104486)
(3.66965e-05 -3.33408e-06 -0.00104037)
(3.30824e-05 -2.93734e-06 -0.00103634)
(2.98279e-05 -2.59139e-06 -0.00103272)
(2.68967e-05 -2.28932e-06 -0.00102946)
(2.42561e-05 -2.02524e-06 -0.00102654)
(2.1877e-05 -1.79408e-06 -0.00102391)
(1.97332e-05 -1.59149e-06 -0.00102155)
(1.78009e-05 -1.41374e-06 -0.00101942)
(1.60593e-05 -1.25762e-06 -0.0010175)
(1.44892e-05 -1.12036e-06 -0.00101578)
(1.30736e-05 -9.99616e-07 -0.00101423)
(1.17972e-05 -8.93206e-07 -0.00101283)
(1.06459e-05 -7.99082e-07 -0.00101158)
(9.60743e-06 -7.15594e-07 -0.00101045)
(8.67051e-06 -6.4139e-07 -0.00100943)
(7.82515e-06 -5.75335e-07 -0.00100851)
(7.06237e-06 -5.16457e-07 -0.00100768)
(6.37405e-06 -4.63918e-07 -0.00100693)
(5.75291e-06 -4.16986e-07 -0.00100626)
(5.19237e-06 -3.75023e-07 -0.00100565)
(4.6865e-06 -3.37469e-07 -0.0010051)
(4.22996e-06 -3.03832e-07 -0.00100461)
(3.81792e-06 -2.73678e-07 -0.00100416)
(3.44604e-06 -2.46625e-07 -0.00100376)
(3.11041e-06 -2.22335e-07 -0.00100339)
(2.8075e-06 -2.00512e-07 -0.00100306)
(2.53413e-06 -1.80892e-07 -0.00100277)
(2.28741e-06 -1.63243e-07 -0.0010025)
(2.06476e-06 -1.47357e-07 -0.00100226)
(1.86384e-06 -1.33054e-07 -0.00100204)
(1.68253e-06 -1.20171e-07 -0.00100184)
(1.51892e-06 -1.08563e-07 -0.00100166)
(1.3713e-06 -9.81015e-08 -0.0010015)
(1.23811e-06 -8.86724e-08 -0.00100135)
(1.11795e-06 -8.01724e-08 -0.00100122)
(1.00954e-06 -7.25091e-08 -0.0010011)
(9.11756e-07 -6.55993e-08 -0.00100099)
(8.23559e-07 -5.93679e-08 -0.0010009)
(7.44021e-07 -5.37469e-08 -0.00100081)
(6.72303e-07 -4.86748e-08 -0.00100073)
(6.07648e-07 -4.40957e-08 -0.00100066)
(5.49373e-07 -3.9959e-08 -0.00100059)
(4.96864e-07 -3.62185e-08 -0.00100053)
(4.49566e-07 -3.28329e-08 -0.00100048)
(4.0698e-07 -2.97644e-08 -0.00100043)
(3.68657e-07 -2.69794e-08 -0.00100039)
(3.34192e-07 -2.44475e-08 -0.00100035)
(3.03224e-07 -2.21419e-08 -0.00100032)
(2.75426e-07 -2.00388e-08 -0.00100028)
(2.50508e-07 -1.81172e-08 -0.00100025)
(2.2821e-07 -1.63589e-08 -0.00100023)
(2.08299e-07 -1.47481e-08 -0.0010002)
(1.90569e-07 -1.32714e-08 -0.00100018)
(1.74838e-07 -1.19173e-08 -0.00100016)
(1.60942e-07 -1.06759e-08 -0.00100014)
(1.48742e-07 -9.54e-09 -0.00100012)
(1.38114e-07 -8.50521e-09 -0.00100011)
(1.28958e-07 -7.5735e-09 -0.00100009)
(1.21201e-07 -6.75948e-09 -0.00100008)
(1.14848e-07 -6.103e-09 -0.00100007)
(1.10054e-07 -5.62391e-09 -0.00100005)
(1.07253e-07 -5.23697e-09 -0.00100004)
)
;
    }
    procBoundary3to2
    {
        type            processor;
        value           nonuniform List<vector> 
180
(
(7.23405e-10 -8.36434e-09 -0.00100005)
(6.32312e-10 -1.10776e-08 -0.00100005)
(5.63367e-10 -1.5512e-08 -0.00100005)
(5.72761e-10 -2.09161e-08 -0.00100005)
(6.41847e-10 -2.68756e-08 -0.00100006)
(7.3883e-10 -3.32308e-08 -0.00100006)
(8.45491e-10 -3.99612e-08 -0.00100006)
(9.53645e-10 -4.71063e-08 -0.00100007)
(1.06055e-09 -5.47297e-08 -0.00100007)
(1.16567e-09 -6.29062e-08 -0.00100008)
(1.26922e-09 -7.1718e-08 -0.00100008)
(1.3716e-09 -8.12539e-08 -0.00100009)
(1.47322e-09 -9.161e-08 -0.0010001)
(1.57434e-09 -1.02891e-07 -0.00100011)
(1.67499e-09 -1.15209e-07 -0.00100012)
(1.77497e-09 -1.28687e-07 -0.00100013)
(1.87372e-09 -1.43461e-07 -0.00100015)
(1.97036e-09 -1.59676e-07 -0.00100016)
(2.06348e-09 -1.77493e-07 -0.00100018)
(2.15106e-09 -1.97089e-07 -0.0010002)
(2.23034e-09 -2.18656e-07 -0.00100022)
(2.29779e-09 -2.42407e-07 -0.00100024)
(2.34894e-09 -2.68574e-07 -0.00100027)
(2.37831e-09 -2.97415e-07 -0.0010003)
(2.3792e-09 -3.29211e-07 -0.00100033)
(2.34344e-09 -3.64275e-07 -0.00100037)
(2.26109e-09 -4.02949e-07 -0.00100041)
(2.12002e-09 -4.45612e-07 -0.00100045)
(1.90536e-09 -4.9268e-07 -0.0010005)
(1.59879e-09 -5.44611e-07 -0.00100055)
(1.17778e-09 -6.01911e-07 -0.00100061)
(6.14503e-10 -6.65138e-07 -0.00100067)
(-1.25349e-10 -7.34903e-07 -0.00100075)
(-1.08406e-09 -8.1188e-07 -0.00100083)
(-2.31359e-09 -8.96811e-07 -0.00100091)
(-3.87757e-09 -9.90511e-07 -0.00100101)
(-5.85369e-09 -1.09388e-06 -0.00100111)
(-8.3364e-09 -1.20789e-06 -0.00100123)
(-1.144e-08 -1.33363e-06 -0.00100136)
(-1.53024e-08 -1.47229e-06 -0.0010015)
(-2.0089e-08 -1.62517e-06 -0.00100165)
(-2.59977e-08 -1.79369e-06 -0.00100182)
(-3.32646e-08 -1.97944e-06 -0.001002)
(-4.217e-08 -2.18413e-06 -0.00100221)
(-5.30462e-08 -2.40964e-06 -0.00100243)
(-6.62859e-08 -2.65807e-06 -0.00100268)
(-8.23525e-08 -2.93167e-06 -0.00100294)
(-1.01792e-07 -3.23294e-06 -0.00100324)
(-1.25247e-07 -3.56462e-06 -0.00100356)
(-1.53469e-07 -3.92971e-06 -0.00100391)
(-1.87336e-07 -4.3315e-06 -0.0010043)
(-2.27879e-07 -4.77359e-06 -0.00100472)
(-2.76303e-07 -5.25994e-06 -0.00100518)
(-3.34023e-07 -5.79487e-06 -0.00100568)
(-4.02691e-07 -6.38313e-06 -0.00100623)
(-4.84246e-07 -7.02991e-06 -0.00100682)
(-5.80954e-07 -7.7409e-06 -0.00100748)
(-6.95467e-07 -8.52231e-06 -0.00100818)
(-8.30848e-07 -9.38099e-06 -0.00100896)
(-9.90651e-07 -1.03244e-05 -0.0010098)
(-1.17902e-06 -1.13609e-05 -0.00101071)
(-1.40078e-06 -1.24993e-05 -0.0010117)
(-1.66156e-06 -1.37497e-05 -0.00101278)
(-1.9679e-06 -1.51228e-05 -0.00101394)
(-2.32738e-06 -1.66308e-05 -0.00101521)
(-2.74885e-06 -1.82867e-05 -0.00101658)
(-3.24256e-06 -2.01054e-05 -0.00101807)
(-3.82041e-06 -2.21029e-05 -0.00101968)
(-4.49603e-06 -2.42974e-05 -0.00102142)
(-5.28518e-06 -2.67088e-05 -0.00102331)
(-6.20669e-06 -2.93587e-05 -0.00102535)
(-7.28398e-06 -3.22692e-05 -0.00102757)
(-8.54946e-06 -3.54558e-05 -0.0010299)
(-1.00553e-05 -3.89038e-05 -0.00103221)
(-1.18961e-05 -4.24957e-05 -0.00103472)
(-1.42299e-05 -4.58418e-05 -0.00103919)
(-1.71838e-05 -4.79697e-05 -0.0010476)
(-2.05609e-05 -4.72536e-05 -0.00104599)
(-2.30313e-05 -4.14156e-05 -0.000991035)
(-2.14342e-05 -2.96748e-05 -0.000690172)
(-1.87264e-05 -1.33967e-05 -0.00322688)
(-7.54141e-06 -7.39615e-05 -0.000135706)
(-0.000145021 4.19418e-05 -0.00378064)
(-1.92662e-05 -8.53785e-05 -0.000360558)
(6.67272e-05 -0.000189434 -0.00363442)
(3.83859e-05 -0.000256176 -0.00403829)
(3.45799e-05 -0.000122092 -0.000460513)
(0.000350031 -0.00035478 -0.0043501)
(-1.18095e-05 -2.19389e-05 -0.00116931)
(-0.000307288 0.000787299 -0.00281493)
(-0.000375677 0.000999468 -0.00308844)
(-0.000100821 0.000193032 -0.000634337)
(-0.00102201 0.00141907 -0.00277299)
(-0.000269994 0.000494127 -0.00265419)
(4.70642e-05 5.53729e-05 3.65894e-05)
(0.000187878 -2.18225e-05 -0.00511673)
(0.000114191 -7.56425e-06 -0.000613153)
(0.000741277 -0.000636991 -0.00259773)
(0.000652958 -0.000516081 -0.00187652)
(-1.70474e-05 -0.000313006 -0.00139116)
(-0.000279837 -0.000397103 -0.00232161)
(-0.000173573 -0.000147425 -0.00180048)
(-7.65695e-05 -1.26463e-05 -0.00177861)
(-2.80152e-05 1.71576e-05 -0.00152747)
(1.49969e-05 -6.1038e-07 -0.00116853)
(7.36866e-05 2.3342e-06 -0.0010014)
(8.97181e-05 6.9775e-06 -0.000878275)
(9.0012e-05 7.87734e-06 -0.000890307)
(8.46225e-05 6.72604e-06 -0.000910285)
(7.77174e-05 5.37023e-06 -0.000920635)
(7.07841e-05 4.3233e-06 -0.000927307)
(6.42938e-05 3.54828e-06 -0.000933525)
(5.83501e-05 2.94417e-06 -0.000939518)
(5.29382e-05 2.45137e-06 -0.000945054)
(4.80165e-05 2.04028e-06 -0.000950086)
(4.35423e-05 1.69438e-06 -0.000954664)
(3.94762e-05 1.40256e-06 -0.000958833)
(3.57825e-05 1.15637e-06 -0.000962629)
(3.2428e-05 9.48861e-07 -0.000966083)
(2.93827e-05 7.74202e-07 -0.000969225)
(2.66188e-05 6.2743e-07 -0.000972082)
(2.41109e-05 5.04322e-07 -0.00097468)
(2.18361e-05 4.01274e-07 -0.000977039)
(1.9773e-05 3.15221e-07 -0.000979183)
(1.79024e-05 2.43553e-07 -0.00098113)
(1.62067e-05 1.84036e-07 -0.000982897)
(1.46697e-05 1.34784e-07 -0.000984501)
(1.3277e-05 9.418e-08 -0.000985957)
(1.2015e-05 6.08526e-08 -0.000987278)
(1.08719e-05 3.36333e-08 -0.000988476)
(9.83657e-06 1.15273e-08 -0.000989563)
(8.89917e-06 -6.3171e-09 -0.000990548)
(8.05058e-06 -2.0625e-08 -0.000991442)
(7.28246e-06 -3.19682e-08 -0.000992252)
(6.58727e-06 -4.08121e-08 -0.000992985)
(5.95814e-06 -4.75529e-08 -0.00099365)
(5.38882e-06 -5.25304e-08 -0.000994252)
(4.87368e-06 -5.60355e-08 -0.000994797)
(4.40759e-06 -5.83179e-08 -0.00099529)
(3.98592e-06 -5.95923e-08 -0.000995737)
(3.60445e-06 -6.00441e-08 -0.000996142)
(3.25938e-06 -5.98316e-08 -0.000996508)
(2.94725e-06 -5.90658e-08 -0.00099684)
(2.66492e-06 -5.78477e-08 -0.00099714)
(2.40957e-06 -5.62679e-08 -0.000997412)
(2.17863e-06 -5.4401e-08 -0.000997657)
(1.96976e-06 -5.23113e-08 -0.00099788)
(1.78088e-06 -5.00549e-08 -0.000998081)
(1.61007e-06 -4.7682e-08 -0.000998263)
(1.45562e-06 -4.52369e-08 -0.000998428)
(1.31598e-06 -4.27576e-08 -0.000998578)
(1.18973e-06 -4.02767e-08 -0.000998713)
(1.07561e-06 -3.78211e-08 -0.000998835)
(9.72456e-07 -3.54132e-08 -0.000998946)
(8.79237e-07 -3.30707e-08 -0.000999047)
(7.95007e-07 -3.0808e-08 -0.000999138)
(7.18916e-07 -2.86361e-08 -0.000999221)
(6.50196e-07 -2.65633e-08 -0.000999295)
(5.88152e-07 -2.45958e-08 -0.000999363)
(5.32155e-07 -2.27376e-08 -0.000999425)
(4.81639e-07 -2.09913e-08 -0.000999481)
(4.36093e-07 -1.93577e-08 -0.000999532)
(3.95054e-07 -1.78366e-08 -0.000999578)
(3.58105e-07 -1.64264e-08 -0.00099962)
(3.2487e-07 -1.51244e-08 -0.000999658)
(2.95009e-07 -1.39268e-08 -0.000999692)
(2.68217e-07 -1.2829e-08 -0.000999724)
(2.44217e-07 -1.18253e-08 -0.000999753)
(2.22761e-07 -1.09095e-08 -0.000999779)
(2.03626e-07 -1.00746e-08 -0.000999803)
(1.86611e-07 -9.31326e-09 -0.000999825)
(1.71538e-07 -8.61749e-09 -0.000999845)
(1.58246e-07 -7.97906e-09 -0.000999863)
(1.46591e-07 -7.38926e-09 -0.00099988)
(1.36448e-07 -6.83867e-09 -0.000999896)
(1.27702e-07 -6.3175e-09 -0.00099991)
(1.2026e-07 -5.81826e-09 -0.000999924)
(1.14086e-07 -5.34108e-09 -0.000999937)
(1.09385e-07 -4.95578e-09 -0.00099995)
(1.06903e-07 -4.88708e-09 -0.00099996)
)
;
    }
}


// ************************************************************************* //
