/*--------------------------------*- C++ -*----------------------------------*\
  =========                 |
  \\      /  F ield         | OpenFOAM: The Open Source CFD Toolbox
   \\    /   O peration     | Website:  https://openfoam.org
    \\  /    A nd           | Version:  9
     \\/     M anipulation  |
\*---------------------------------------------------------------------------*/
FoamFile
{
    format      ascii;
    class       surfaceScalarField;
    location    "80000";
    object      phi;
}
// * * * * * * * * * * * * * * * * * * * * * * * * * * * * * * * * * * * * * //

dimensions      [0 3 -1 0 0 0 0];

internalField   nonuniform List<scalar> 
25100
(
-1.08938e-05
7.9683e-05
-1000
-2.6715e-05
8.17918e-05
-1000
-4.01113e-05
8.00647e-05
-1000
-5.15554e-05
7.80732e-05
-1000
-9.14377e-05
6.99168e-05
-1000
-0.000123732
7.29141e-05
-1000
-0.000104225
6.57006e-05
-1000
-7.40749e-05
6.36432e-05
-1000
-3.85957e-05
6.38848e-05
-1000
6.36147e-05
-1000
-6.77251e-06
0.000146933
-1000
-2.99172e-05
0.000145255
-1000
-4.54659e-05
0.000138349
-1000
-5.54815e-05
0.000125234
-1000
-9.2637e-05
0.000118605
-1000
-0.000129491
0.000126028
-1000
-0.000107797
0.000115656
-1000
-7.38975e-05
0.000115679
-1000
-3.80078e-05
0.000117755
-1000
0.000116905
-1000
-9.45996e-06
0.000202326
-1000
-4.0443e-05
0.000199586
-1000
-5.99529e-05
0.000183952
-1000
-7.48344e-05
0.000166558
-1000
-8.77119e-05
0.000146097
-1000
-0.000125222
0.000166602
-1000
-0.000102101
0.000159397
-1000
-7.27315e-05
0.000161539
-1000
-3.85113e-05
0.000160517
-1000
0.000157828
-1000
-1.24851e-05
0.000259307
-1000
-5.72658e-05
0.000245862
-1000
-7.76219e-05
0.000216173
-1000
-9.74428e-05
0.000196497
-1000
-8.42531e-05
0.000168451
-1000
-0.000131373
0.000224077
-1000
-0.000103576
0.00019821
-1000
-7.6555e-05
0.000196406
-1000
-3.98302e-05
0.000189909
-1000
0.000188279
-1000
-2.01655e-05
0.000199071
-1000
-8.01055e-05
0.000201571
-1000
-9.53508e-05
0.000200319
-1000
-0.000108067
0.000234296
-1000
-0.000106388
0.000270155
-1000
-0.000153727
0.000185378
-1000
-0.000104517
0.000199504
-1000
-8.35622e-05
0.000216499
-1000
-4.77867e-05
0.00022093
-1000
0.000221647
-1000
-2.23237e-05
0.000141858
-1000
-8.38133e-05
0.000142858
-1000
-0.000109024
0.000155702
-1000
-9.44115e-05
0.000177446
-1000
-0.000121629
0.000180286
-1000
-8.67587e-05
0.00024573
-1000
-0.00010268
0.000212503
-1000
-8.35526e-05
0.000211783
-1000
-4.52047e-05
0.000225674
-1000
0.000236776
-1000
-3.14022e-05
0.000124498
-999.999
-6.7934e-05
0.000133263
-999.999
-7.75585e-05
0.00014301
-999.999
-7.39897e-05
0.000163746
-1000
-9.36375e-05
0.000186375
-1000
-9.11573e-05
0.000186919
-1000
-8.27195e-05
0.00018183
-1000
-6.56708e-05
0.000189123
-1000
-3.29814e-05
0.000194197
-1000
0.000197138
-1000
-2.92902e-05
0.000100237
-999.999
-5.10653e-05
0.000103963
-999.999
-5.9011e-05
0.000110503
-999.999
-5.45592e-05
0.000120859
-999.999
-7.79768e-05
0.000130939
-999.999
-9.88992e-05
0.000131887
-999.999
-8.51047e-05
0.000133061
-1000
-5.60019e-05
0.000136636
-1000
-2.89948e-05
0.000139178
-1000
0.000139159
-1000
-2.81663e-05
5.4969e-05
-999.999
-4.33987e-05
5.20201e-05
-999.999
-4.95264e-05
5.65035e-05
-999.999
-4.68017e-05
5.99313e-05
-999.999
-7.64911e-05
6.32655e-05
-999.999
-0.000100222
6.22361e-05
-999.999
-8.03795e-05
6.58849e-05
-999.999
-5.10741e-05
6.6592e-05
-1000
-2.84917e-05
7.00446e-05
-1000
6.88643e-05
-1000
-2.28569e-05
-999.999
-3.94044e-05
-999.999
-4.45893e-05
-999.999
-4.55708e-05
-999.999
-7.25943e-05
-999.999
-0.000100406
-999.999
-7.73355e-05
-999.999
-5.20614e-05
-999.999
-2.69137e-05
-999.999
-1000
-3.42217e-05
0.000206134
-1000
-7.45796e-05
0.000210175
-1000
-0.000107693
0.000207198
-1000
-0.000131058
0.000201165
-1000
-0.000240871
0.000189479
-1000
-0.000324054
0.000195545
-1000
-0.000277189
0.000178855
-1000
-0.000195036
0.000174318
-1000
-0.00010249
0.000176153
-1000
0.000173604
-1000
-2.91663e-05
0.000389507
-1000
-8.22641e-05
0.000384807
-1000
-0.000117524
0.000365795
-1000
-0.000142762
0.000334571
-1000
-0.000240498
0.000319555
-1000
-0.000335212
0.000336547
-1000
-0.000276415
0.000317499
-1000
-0.000194827
0.000319101
-1000
-0.000101942
0.00032022
-1000
0.000316102
-1000
-3.55258e-05
0.000537993
-1000
-0.000107927
0.000527698
-1000
-0.000149533
0.000488623
-1000
-0.000191024
0.000448984
-1000
-0.000233149
0.000400877
-1000
-0.000324131
0.000461135
-1000
-0.000268455
0.000439905
-1000
-0.00019486
0.000442742
-1000
-0.000102724
0.000436723
-1000
0.000434442
-1000
-4.72992e-05
0.000664027
-1000
-0.000149845
0.000622851
-1000
-0.000190739
0.000561015
-1000
-0.000245443
0.000527589
-1000
-0.000235136
0.000460349
-1000
-0.000321936
0.000633769
-1000
-0.000270925
0.00055217
-1000
-0.000200806
0.000533656
-1000
-0.00010887
0.000516462
-1000
0.000514928
-1000
-7.71155e-05
0.000538455
-1000
-0.000198743
0.000540818
-1000
-0.00022566
0.000531035
-1000
-0.000241085
0.000590066
-1000
-0.00027379
0.000738121
-1000
-0.000377688
0.000531393
-1000
-0.000277301
0.00052449
-1000
-0.00020979
0.000575351
-1000
-0.000110942
0.00059253
-1000
0.000593757
-1000
-8.31277e-05
0.000387554
-1000
-0.000204781
0.00040137
-1000
-0.000250027
0.000436455
-1000
-0.000250631
0.000496658
-1000
-0.00032294
0.000505668
-1000
-0.000211259
0.000638929
-1000
-0.000261431
0.000577207
-1000
-0.00020835
0.000567264
-1000
-0.000105125
0.00060149
-1000
0.000623987
-1000
-9.23749e-05
0.000346734
-999.999
-0.000164807
0.000365362
-999.999
-0.000184693
0.000390032
-999.999
-0.000181352
0.000435004
-999.999
-0.000273593
0.000481546
-1000
-0.000233194
0.000479976
-1000
-0.000216134
0.000476779
-1000
-0.000166982
0.000493321
-1000
-8.28102e-05
0.000507962
-1000
0.000510522
-1000
-8.18875e-05
0.000273422
-999.999
-0.000127426
0.000278577
-999.999
-0.000141469
0.000295671
-999.999
-0.000142617
0.000317276
-999.999
-0.000201932
0.000333268
-999.999
-0.000254059
0.000336097
-999.999
-0.000213265
0.000341946
-1000
-0.000145769
0.000351562
-1000
-7.5546e-05
0.000361587
-1000
0.000357074
-1000
-6.70176e-05
0.000144794
-999.999
-0.000107791
0.000145428
-999.999
-0.000124229
0.000154017
-999.999
-0.000132347
0.000159496
-999.999
-0.000198065
0.000157425
-999.999
-0.000255558
0.000156466
-999.999
-0.000201826
0.000166943
-999.999
-0.000136991
0.000173313
-999.999
-7.18424e-05
0.000178927
-1000
0.000175712
-1000
-6.47926e-05
-999.999
-0.000102901
-999.999
-0.000122139
-999.999
-0.000134231
-999.999
-0.000190482
-999.999
-0.000254101
-999.999
-0.000192709
-999.999
-0.000131859
-999.999
-7.24855e-05
-999.999
-999.999
-7.56107e-05
0.000338929
-1000
-0.000145676
0.000344691
-1000
-0.000201656
0.000342499
-1000
-0.000244639
0.000336517
-1000
-0.000406317
0.000327031
-1000
-0.000513297
0.000333125
-1000
-0.000437642
0.000314861
-1000
-0.000315281
0.000312873
-1000
-0.000165418
0.000310569
-1000
0.000303231
-1000
-7.32539e-05
0.000650823
-1000
-0.000151916
0.000645939
-1000
-0.000212488
0.000621073
-1000
-0.000262108
0.000590724
-1000
-0.000404296
0.000565226
-1000
-0.000517893
0.000581508
-1000
-0.000439934
0.000574381
-1000
-0.000317454
0.000570658
-1000
-0.000168426
0.000566617
-1000
0.000565603
-1000
-8.07082e-05
0.000892076
-1000
-0.000177525
0.000875992
-1000
-0.000241745
0.000835259
-1000
-0.000282394
0.000798198
-1000
-0.000397902
0.000749978
-1000
-0.000509452
0.000810265
-1000
-0.000429022
0.000793992
-1000
-0.000317156
0.000792835
-1000
-0.000175087
0.000789627
-1000
0.000793713
-1000
-9.99735e-05
0.00103906
-1000
-0.000218344
0.000997046
-1000
-0.000275631
0.000952642
-1000
-0.000317103
0.000922604
-1000
-0.000381431
0.000882191
-1000
-0.000494986
0.001027
-1000
-0.000429321
0.000971668
-1000
-0.000322886
0.000955573
-1000
-0.000171889
0.000947945
-1000
0.000958484
-1000
-0.000146569
0.000954425
-1000
-0.000276231
0.000949494
-1000
-0.000322366
0.000926777
-1000
-0.000341204
0.000902745
-1000
-0.000468918
0.00115216
-1000
-0.000553517
0.000916759
-1000
-0.000448234
0.000948402
-1000
-0.000326519
0.000998059
-1000
-0.000160129
0.00102635
-1000
0.00103385
-1000
-0.000153213
0.00076037
-1000
-0.000272994
0.000782428
-1000
-0.000336182
0.000815987
-1000
-0.000417031
0.000876665
-1000
-0.000492548
0.000898471
-1000
-0.00040504
0.000911784
-1000
-0.000385658
0.000936328
-1000
-0.000306169
0.000972782
-1000
-0.000154335
0.00100822
-1000
0.00102466
-1000
-0.000143496
0.000670334
-999.999
-0.000230966
0.000685569
-999.999
-0.000281898
0.000712713
-999.999
-0.000297453
0.000752184
-999.999
-0.000427684
0.00077328
-1000
-0.000416631
0.0007696
-1000
-0.000360039
0.000786404
-1000
-0.000259861
0.000822966
-1000
-0.000134824
0.000845716
-1000
0.000844865
-1000
-0.000128491
0.000505739
-999.999
-0.000201126
0.000514285
-999.999
-0.00024665
0.000530207
-999.999
-0.000261847
0.000539834
-999.999
-0.000347734
0.000536523
-999.999
-0.000401301
0.000541182
-999.999
-0.000334323
0.000562749
-1000
-0.000234758
0.000583619
-1000
-0.000125103
0.000598156
-1000
0.000593827
-1000
-0.000118569
0.000270744
-999.998
-0.000187712
0.000277266
-999.998
-0.000236338
0.000281905
-999.999
-0.000265334
0.000275673
-999.999
-0.000336167
0.000258494
-999.999
-0.000384027
0.000255416
-999.999
-0.00030823
0.000282252
-999.999
-0.000217929
0.000293673
-999.999
-0.000120159
0.000299821
-999.999
0.000295851
-1000
-0.000114924
-999.998
-0.00018542
-999.998
-0.000238323
-999.998
-0.000283253
-999.999
-0.000332054
-999.999
-0.000381243
-999.999
-0.000296364
-999.999
-0.000213143
-999.999
-0.000121547
-999.999
-999.999
-0.000131843
0.000500102
-1000
-0.000242832
0.000505656
-1000
-0.000344224
0.000506381
-1000
-0.00042821
0.000500211
-1000
-0.000602797
0.000492452
-1000
-0.000699664
0.000496085
-1000
-0.000597099
0.000487173
-1000
-0.000434754
0.00048148
-1000
-0.000238344
0.000474496
-1000
0.000465929
-1000
-0.000129341
0.000952641
-1000
-0.000246714
0.000947769
-1000
-0.000355464
0.000929271
-1000
-0.000445298
0.000905894
-1000
-0.000602121
0.00089229
-1000
-0.000702764
0.000904307
-1000
-0.00060009
0.000899504
-1000
-0.000442158
0.00089085
-1000
-0.000246757
0.000890557
-1000
0.000893158
-1000
-0.000134229
0.00128921
-1000
-0.000266961
0.00127234
-1000
-0.000372614
0.00125098
-1000
-0.00045665
0.00123243
-1000
-0.000595887
0.00120205
-1000
-0.000696871
0.00125615
-1000
-0.00060069
0.00124422
-1000
-0.000447595
0.00124069
-1000
-0.000244232
0.00124976
-1000
0.00126113
-1000
-0.000152807
0.00145854
-1000
-0.000291969
0.00143656
-1000
-0.000383377
0.00142893
-1000
-0.000468683
0.00143556
-1000
-0.000590915
0.00138225
-1000
-0.000689939
0.00154857
-1000
-0.0006009
0.00149062
-1000
-0.000448601
0.00148571
-1000
-0.000231278
0.00149822
-1000
0.00151328
-1000
-0.000186016
0.00146914
-1000
-0.000307025
0.00145971
-1000
-0.000390967
0.00143186
-1000
-0.000438233
0.00140479
-1000
-0.000711484
0.00160347
-1000
-0.000751471
0.00142142
-1000
-0.00061966
0.00148625
-1000
-0.000446598
0.00153507
-1000
-0.000220795
0.00156208
-1000
0.00157343
-1000
-0.000202436
0.00129674
-999.999
-0.000314574
0.00131054
-1000
-0.000432886
0.00132191
-1000
-0.000568722
0.00134591
-1000
-0.000645078
0.0012846
-1000
-0.000672684
0.00132032
-1000
-0.000558783
0.00136878
-1000
-0.00041219
0.0014432
-1000
-0.000213208
0.00147747
-1000
0.00148459
-1000
-0.000189789
0.00111888
-999.999
-0.000299813
0.00112643
-999.999
-0.000392515
0.00113629
-999.999
-0.000441704
0.00113728
-999.999
-0.000547052
0.00109906
-999.999
-0.000586631
0.0011199
-1000
-0.000503597
0.00116078
-1000
-0.000362451
0.00121563
-1000
-0.000192432
0.00124287
-1000
0.00124492
-1000
-0.00018339
0.000827882
-999.998
-0.000292793
0.000835092
-999.998
-0.000391426
0.000835581
-999.998
-0.000464252
0.000818077
-999.999
-0.000525051
0.00078962
-999.999
-0.000535241
0.000797983
-999.999
-0.000457227
0.000838192
-999.999
-0.000333596
0.000868078
-999.999
-0.000181831
0.000886466
-1000
0.000889236
-1000
-0.000179808
0.00044892
-999.998
-0.000295663
0.000455922
-999.998
-0.000406871
0.000450456
-999.998
-0.000504806
0.000431745
-999.998
-0.000517128
0.000405978
-999.998
-0.00050177
0.000399897
-999.999
-0.000421773
0.000438211
-999.999
-0.000312514
0.000450564
-999.999
-0.000174615
0.00045687
-999.999
0.000459553
-999.999
-0.000172678
-999.997
-0.000301193
-999.998
-0.000422079
-999.998
-0.00053139
-999.998
-0.000518534
-999.998
-0.000491825
-999.998
-0.000408621
-999.999
-0.000305429
-999.999
-0.000171121
-999.999
-999.999
-0.000198149
0.000717927
-1000
-0.0003861
0.000719683
-1000
-0.000556814
0.000721747
-1000
-0.000699406
0.000712135
-1000
-0.000856186
0.00070424
-1000
-0.000907623
0.000705277
-1000
-0.000786294
0.000704079
-1000
-0.000585544
0.00069612
-1000
-0.0003226
0.000689381
-1000
0.000684796
-1000
-0.000196114
0.00133763
-1000
-0.000390988
0.00133208
-1000
-0.000568401
0.00132266
-1000
-0.000714705
0.00131085
-1000
-0.000855664
0.00131622
-1000
-0.000911745
0.00131951
-1000
-0.000795398
0.00132221
-1000
-0.000594959
0.00131683
-1000
-0.000324328
0.00132196
-1000
0.00132877
-1000
-0.000199747
0.00179463
-1000
-0.00040189
0.00177978
-1000
-0.000573527
0.00178066
-1000
-0.000711653
0.00178374
-1000
-0.00084532
0.00179393
-1000
-0.00091207
0.0018228
-1000
-0.000797966
0.00182185
-1000
-0.000593594
0.00182369
-1000
-0.000313102
0.00184316
-1000
0.00185525
-1000
-0.000215463
0.00202605
-1000
-0.00040493
0.0020222
-1000
-0.000562444
0.002049
-1000
-0.000696199
0.00208131
-1000
-0.00083153
0.00206159
-1000
-0.000915284
0.00218948
-1000
-0.000793411
0.00215302
-1000
-0.00058226
0.00215876
-1000
-0.000296606
0.00218188
-1000
0.00218784
-1000
-0.000227353
0.00214386
-1000
-0.000384122
0.0021315
-1000
-0.000516611
0.00210854
-1000
-0.000629668
0.00210535
-1000
-0.000886995
0.00219261
-1000
-0.000951692
0.00214125
-1000
-0.000798233
0.00217286
-1000
-0.000578679
0.00223188
-1000
-0.000289289
0.00225602
-1000
0.00226834
-1000
-0.000244062
0.00201787
-999.999
-0.000392446
0.00202212
-999.999
-0.000564092
0.00200287
-999.999
-0.000676927
0.00196559
-1000
-0.000795387
0.00188226
-1000
-0.000898514
0.00192399
-1000
-0.000759003
0.00199216
-1000
-0.000540027
0.00207685
-1000
-0.000283994
0.00211023
-1000
0.00211219
-1000
-0.000242912
0.00172355
-999.998
-0.000407752
0.00172349
-999.998
-0.00056969
0.00170915
-999.998
-0.000697038
0.00167126
-999.999
-0.000786271
0.00160744
-999.999
-0.000775521
0.00161232
-999.999
-0.000671309
0.00169168
-1000
-0.000491485
0.00174997
-1000
-0.000263294
0.00177962
-1000
0.00178852
-1000
-0.000245707
0.0012659
-999.997
-0.000425787
0.0012679
-999.997
-0.000609712
0.00125018
-999.998
-0.000763172
0.00121285
-999.998
-0.000766025
0.00117496
-999.998
-0.000705349
0.00117501
-999.999
-0.000617763
0.00122986
-999.999
-0.000462536
0.00126401
-999.999
-0.000250383
0.00128619
-999.999
0.00129678
-999.999
-0.000247816
0.000686193
-999.997
-0.000446607
0.000688912
-999.997
-0.00064692
0.000673207
-999.997
-0.000810537
0.000649971
-999.997
-0.000759797
0.000630319
-999.998
-0.000656833
0.000623711
-999.998
-0.000578782
0.000661144
-999.998
-0.000438431
0.000673832
-999.999
-0.000237665
0.00068173
-999.999
0.000689465
-999.999
-0.000243783
-999.996
-0.000462193
-999.996
-0.000665914
-999.997
-0.000830548
-999.997
-0.00076239
-999.997
-0.000634212
-999.998
-0.00056466
-999.998
-0.00042779
-999.998
-0.000228538
-999.998
-999.998
-0.000274344
0.00102117
-1000
-0.000589397
0.00101374
-1000
-0.000851217
0.00100899
-1000
-0.00105566
0.000995749
-1000
-0.00119352
0.000987693
-1000
-0.00119501
0.0009912
-1000
-0.00104238
0.00099054
-1000.01
-0.000777468
0.000984508
-1000.01
-0.000417445
0.000983291
-1000.01
0.00098783
-1000.01
-0.000282197
0.00185596
-1000
-0.000599115
0.00184729
-1000
-0.000866491
0.00184294
-1000
-0.00106697
0.00184182
-1000
-0.00119288
0.00185821
-1000
-0.00119763
0.00186615
-1000
-0.00105107
0.00187636
-1000
-0.000779339
0.00188046
-1000.01
-0.000410269
0.00189275
-1000.01
0.00190097
-1000.01
-0.000292256
0.00248988
-1000
-0.000604182
0.00247711
-1000
-0.00086382
0.00248998
-1000
-0.00105355
0.00250563
-1000
-0.0011773
0.00254086
-1000
-0.00119504
0.00256223
-1000
-0.00104545
0.00257656
-1000
-0.000766186
0.00258842
-1000
-0.000397858
0.00261004
-1000
0.00261702
-1000
-0.000307967
0.00284575
-1000
-0.000592754
0.00285265
-1000
-0.000841529
0.00289214
-1000
-0.00102756
0.0029319
-1000
-0.00114335
0.00291867
-1000
-0.00119509
0.00301203
-1000
-0.00102836
0.00301292
-1000
-0.000746276
0.00303314
-1000
-0.00038596
0.00305567
-1000
0.00305248
-1000
-0.000310378
0.00305795
-1000
-0.0005617
0.00305661
-1000
-0.00077972
0.00304092
-1000
-0.000969283
0.00304464
-1000
-0.00117767
0.00305981
-1000
-0.00118687
0.00307478
-1000
-0.00101273
0.00310138
-1000
-0.000729691
0.00316514
-1000
-0.000383289
0.00318692
-1000
0.00319285
-1000
-0.000317272
0.00295458
-999.998
-0.000561101
0.00295661
-999.999
-0.000817914
0.00292939
-999.999
-0.000999635
0.00287753
-999.999
-0.00106616
0.00278639
-1000
-0.00113882
0.00282457
-1000
-0.000991619
0.00289121
-1000
-0.000708609
0.00296255
-1000
-0.00037456
0.00299284
-1000
0.00299803
-1000
-0.000322886
0.00251832
-999.997
-0.000590661
0.00251575
-999.997
-0.000847294
0.00248671
-999.998
-0.00103934
0.00243075
-999.998
-0.00109875
0.00237709
-999.998
-0.00103816
0.00237792
-999.999
-0.00090805
0.00246049
-999.999
-0.000669853
0.00250704
-1000
-0.000356518
0.00253677
-1000
0.00255013
-1000
-0.000327527
0.00184174
-999.996
-0.000619083
0.00183683
-999.996
-0.000897887
0.00180943
-999.997
-0.00111211
0.00177082
-999.997
-0.00108902
0.00174534
-999.997
-0.000972473
0.00173977
-999.998
-0.000858483
0.00179489
-999.998
-0.000641588
0.00182711
-999.999
-0.000337409
0.00185102
-999.999
0.00186447
-999.999
-0.000336526
0.000986072
-999.995
-0.000650589
0.000980742
-999.996
-0.000936813
0.000963217
-999.996
-0.00114545
0.000948397
-999.996
-0.00108062
0.000948117
-999.997
-0.000923087
0.000943594
-999.997
-0.000823779
0.000971211
-999.997
-0.000616857
0.000982662
-999.998
-0.00031969
0.000992989
-999.998
0.00100263
-999.998
-0.000341958
-999.995
-0.000667787
-999.995
-0.000948711
-999.995
-0.00114539
-999.996
-0.00108247
-999.996
-0.000896688
-999.996
-0.000809666
-999.997
-0.000603921
-999.997
-0.000307094
-999.998
-999.998
-0.000385043
0.00142793
-1000
-0.00086151
0.0014051
-1000
-0.00122762
0.00139389
-1000
-0.00147316
0.00138089
-1000.01
-0.0016349
0.00137229
-1000.01
-0.00161319
0.00138179
-1000.01
-0.00139311
0.00137925
-1000.01
-0.00102212
0.00138043
-1000.01
-0.000535828
0.00138858
-1000.01
0.00139584
-1000.01
-0.000409907
0.00256846
-1000
-0.0008778
0.00255506
-1000
-0.00124468
0.00255361
-1000
-0.00148551
0.00255717
-1000
-0.00163091
0.00256561
-1000.01
-0.00161809
0.00258597
-1000.01
-0.00139445
0.002606
-1000.01
-0.00101487
0.00262743
-1000.01
-0.000525688
0.00264675
-1000.01
0.00265084
-1000.01
-0.000426838
0.00347337
-1000
-0.000880364
0.00346399
-1000
-0.00124081
0.00347881
-1000
-0.00147671
0.00349244
-1000
-0.00160579
0.00350272
-1000
-0.00159914
0.00354943
-1000
-0.00137444
0.00357555
-1000.01
-0.000995385
0.00360248
-1000.01
-0.000517711
0.00362342
-1000.01
0.00362332
-1000.01
-0.000441296
0.00403912
-1000
-0.000865884
0.00405256
-1000
-0.00122105
0.00408144
-1000
-0.00145865
0.00410762
-1000
-0.00157769
0.0040929
-1000
-0.00157591
0.00412821
-1000
-0.00134143
0.00416984
-1000
-0.000971095
0.00421071
-1000
-0.000510225
0.00422915
-1000
0.0042222
-1000
-0.000442752
0.00431099
-999.999
-0.000848163
0.00432425
-1000
-0.00119121
0.00432453
-1000
-0.0014361
0.00431041
-1000
-0.00160072
0.0043031
-1000
-0.00152973
0.00434913
-1000
-0.00132467
0.00439638
-1000
-0.000958268
0.00443204
-1000
-0.000510729
0.00444892
-1000
0.00445114
-1000
-0.000433505
0.0041633
-999.998
-0.000832723
0.00416854
-999.998
-0.00118343
0.00415836
-999.998
-0.00146565
0.00412486
-999.999
-0.00152771
0.00409417
-999.999
-0.00150245
0.00406969
-1000
-0.00129014
0.00413396
-1000
-0.000939362
0.00418753
-1000
-0.000498626
0.00421388
-1000
0.0042233
-1000
-0.000442121
0.00355178
-999.996
-0.000860456
0.0035489
-999.996
-0.00122324
0.0035206
-999.997
-0.00146364
0.00347847
-999.997
-0.0015177
0.00346038
-999.998
-0.00143015
0.00348268
-999.998
-0.00124751
0.00353377
-999.999
-0.000913141
0.00356284
-999.999
-0.000475995
0.0035891
-1000
0.00360193
-1000
-0.000447599
0.00258348
-999.995
-0.000881665
0.00257281
-999.995
-0.00125208
0.00255078
-999.995
-0.00149501
0.00253456
-999.996
-0.00151724
0.002534
-999.996
-0.0013939
0.00253579
-999.997
-0.00121071
0.00257821
-999.997
-0.000886127
0.00260467
-999.998
-0.0004542
0.00262717
-999.998
0.00263859
-999.998
-0.000464709
0.00136398
-999.994
-0.000908108
0.0013542
-999.994
-0.00127148
0.00134398
-999.994
-0.00149488
0.00134565
-999.995
-0.00149984
0.00136094
-999.995
-0.0013556
0.00136349
-999.996
-0.00118337
0.00138272
-999.996
-0.000863354
0.0013946
-999.997
-0.00043661
0.00140725
-999.997
0.00141577
-999.997
-0.000476528
-999.993
-0.000916129
-999.993
-0.00126664
-999.994
-0.00147565
-999.994
-0.0014955
-999.994
-0.00133189
-999.995
-0.001168
-999.996
-0.000847646
-999.996
-0.0004227
-999.996
-999.997
-0.000553872
0.00196174
-1000.01
-0.00121349
0.00192903
-1000.01
-0.00169679
0.00191609
-1000.01
-0.00197813
0.00190372
-1000.01
-0.00220264
0.00188527
-1000.01
-0.00218933
0.00190025
-1000.01
-0.00185317
0.00190386
-1000.01
-0.00133765
0.00191624
-1000.01
-0.000695358
0.00193039
-1000.01
0.00193366
-1000.01
-0.00059164
0.00355633
-1000
-0.00123229
0.00354402
-1000.01
-0.00171325
0.00354432
-1000.01
-0.0020027
0.00354221
-1000.01
-0.00219279
0.00352879
-1000.01
-0.00218961
0.00355521
-1000.01
-0.00184344
0.00359342
-1000.01
-0.00132551
0.00362925
-1000.01
-0.000689592
0.00365176
-1000.01
0.00365046
-1000.01
-0.000610513
0.00486252
-1000
-0.00123394
0.00486322
-1000
-0.00171561
0.00487223
-1000
-0.00201518
0.00487128
-1000
-0.00216332
0.00483705
-1000.01
-0.00214727
0.00489751
-1000.01
-0.00181004
0.00493487
-1000.01
-0.00130384
0.00497346
-1000.01
-0.000684656
0.00499396
-1000.01
0.00498984
-1000.01
-0.000619864
0.0057372
-1000
-0.00122723
0.00575465
-1000
-0.0017144
0.00575918
-1000
-0.00202329
0.00575562
-1000
-0.00215253
0.00570801
-1000
-0.00209123
0.00571659
-1000
-0.00176642
0.0057743
-1000.01
-0.00127869
0.0058272
-1000.01
-0.000676322
0.00584319
-1000.01
0.00583888
-1000.01
-0.000616759
0.00602708
-999.999
-0.00122752
0.00605362
-999.999
-0.00172334
0.00606374
-1000
-0.00202156
0.00604608
-1000
-0.00224904
0.00603529
-1000
-0.00201581
0.00608149
-1000
-0.00175411
0.00615283
-1000
-0.00127177
0.00615843
-1000
-0.000671745
0.00617171
-1000
0.00617196
-1000
-0.000600043
0.00575769
-999.997
-0.00121081
0.0057596
-999.997
-0.00169182
0.00575887
-999.998
-0.00207996
0.00576863
-999.998
-0.00210465
0.00582382
-999.999
-0.00205542
0.00577332
-1000
-0.00172052
0.00582042
-1000
-0.00124801
0.00585644
-1000
-0.000654164
0.00588029
-1000
0.00588863
-1000
-0.000613775
0.00490192
-999.995
-0.00121881
0.00489918
-999.995
-0.00170105
0.00488853
-999.995
-0.00199832
0.00489588
-999.996
-0.00207512
0.00492142
-999.997
-0.00199361
0.00495048
-999.997
-0.00170573
0.00497733
-999.998
-0.00122929
0.00499745
-999.999
-0.000631708
0.00502066
-999.999
0.00502798
-999.999
-0.000625533
0.0035539
-999.993
-0.00122565
0.00354306
-999.993
-0.00169283
0.0035375
-999.993
-0.00196402
0.00355268
-999.994
-0.00206919
0.00357721
-999.995
-0.00197842
0.00359863
-999.995
-0.00168049
0.00362809
-999.996
-0.00120457
0.00365127
-999.997
-0.000612446
0.00367192
-999.997
0.00367821
-999.997
-0.000644249
0.0018605
-999.991
-0.00123204
0.0018529
-999.992
-0.00168144
0.0018568
-999.992
-0.00193679
0.00187337
-999.993
-0.00204534
0.00189235
-999.993
-0.0019504
0.00190512
-999.994
-0.00165632
0.00192234
-999.995
-0.00118288
0.0019384
-999.995
-0.000596882
0.00195345
-999.996
0.00195875
-999.996
-0.000653942
-999.991
-0.00122517
-999.991
-0.00166106
-999.991
-0.00191037
-999.992
-0.00203159
-999.993
-0.00192993
-999.993
-0.00163551
-999.994
-0.00116407
-999.995
-0.000584348
-999.995
-999.995
-0.000796217
0.00267157
-1000.01
-0.00166533
0.00264008
-1000.01
-0.00230274
0.00262838
-1000.01
-0.00266966
0.00261274
-1000.01
-0.00293401
0.00258091
-1000.01
-0.0029078
0.0025965
-1000.01
-0.00243287
0.002619
-1000.01
-0.00174632
0.00264074
-1000.01
-0.000913291
0.00265583
-1000.01
0.00265327
-1000.01
-0.000837631
0.0049256
-1000.01
-0.00168398
0.00492156
-1000.01
-0.00232274
0.0049209
-1000.01
-0.00271042
0.00490862
-1000.01
-0.00292165
0.00488562
-1000.01
-0.00289193
0.00490304
-1000.01
-0.00241561
0.00495732
-1000.01
-0.001736
0.00499194
-1000.01
-0.000912608
0.00501224
-1000.01
0.0050071
-1000.01
-0.000852311
0.00678689
-1000
-0.00168678
0.00680009
-1000.01
-0.00233262
0.00679955
-1000.01
-0.00273365
0.00678318
-1000.01
-0.00290046
0.00673929
-1000.01
-0.00283934
0.00676701
-1000.01
-0.00238044
0.00681434
-1000.01
-0.00171648
0.0068487
-1000.01
-0.000907326
0.00686908
-1000.01
0.00686409
-1000.01
-0.00085507
0.00805213
-1000
-0.00169356
0.00806929
-1000
-0.00234986
0.00805252
-1000
-0.0027601
0.00802227
-1000
-0.00288831
0.00794608
-1000
-0.00277715
0.00798009
-1000.01
-0.00234169
0.00800552
-1000.01
-0.00169379
0.00804659
-1000.01
-0.00089517
0.00806754
-1000.01
0.00806927
-1000.01
-0.000854542
0.00836615
-999.999
-0.00170712
0.00839944
-999.999
-0.00236727
0.00840696
-1000
-0.00274617
0.00839837
-1000
-0.00303001
0.0083835
-1000
-0.00271625
0.0084372
-1000
-0.00231615
0.00849042
-1000
-0.00167622
0.00850835
-1000
-0.000876749
0.00852041
-1000.01
0.00851908
-1000.01
-0.000842242
0.00789639
-999.996
-0.00170194
0.00789434
-999.996
-0.00236936
0.00791461
-999.997
-0.00281457
0.00796037
-999.998
-0.00280008
0.00802752
-999.999
-0.00278704
0.00804437
-999.999
-0.00231941
0.00808314
-1000
-0.00165718
0.00811128
-1000
-0.000857604
0.00813527
-1000
0.00813482
-1000
-0.00086105
0.00671639
-999.993
-0.00168099
0.00671782
-999.993
-0.0023101
0.00673061
-999.994
-0.00268642
0.00677471
-999.994
-0.00281872
0.00683864
-999.995
-0.00272761
0.00686635
-999.996
-0.00229388
0.00689749
-999.997
-0.00163356
0.00692388
-999.998
-0.00083922
0.00694797
-999.999
0.00694743
-999.999
-0.000874181
0.00486935
-999.99
-0.00166974
0.00486751
-999.99
-0.00227034
0.00488205
-999.991
-0.00261763
0.00491618
-999.992
-0.00278864
0.00495429
-999.993
-0.00270937
0.00499232
-999.994
-0.00226775
0.00502439
-999.995
-0.00160978
0.00505108
-999.996
-0.000824356
0.00507177
-999.996
0.00507142
-999.996
-0.000885569
0.00254836
-999.988
-0.00165428
0.00255165
-999.989
-0.00223554
0.00256635
-999.989
-0.00257855
0.00258792
-999.99
-0.00276012
0.00260273
-999.991
-0.0026748
0.00261966
-999.992
-0.00223817
0.00264315
-999.993
-0.00158753
0.0026659
-999.994
-0.000812881
0.00268114
-999.994
0.00267938
-999.994
-0.000885592
-999.987
-0.00163569
-999.988
-0.00220926
-999.988
-0.00255689
-999.989
-0.00273673
-999.99
-0.00264557
-999.991
-0.00220981
-999.992
-0.00156849
-999.993
-0.000804915
-999.993
-999.993
-0.00112374
0.00363626
-1000.01
-0.00225349
0.00361554
-1000.01
-0.00311208
0.00360452
-1000.01
-0.00364097
0.00358629
-1000.01
-0.00389577
0.00356331
-1000.01
-0.00378723
0.00357641
-1000.02
-0.00317945
0.00360842
-1000.02
-0.00229243
0.00362789
-1000.02
-0.00120854
0.00363734
-1000.02
0.00362887
-1000.02
-0.0011569
0.00680445
-1000.01
-0.00227311
0.00680908
-1000.01
-0.00313698
0.00680581
-1000.01
-0.00367543
0.0067923
-1000.01
-0.00388725
0.00678545
-1000.01
-0.00376591
0.00679056
-1000.01
-0.00316737
0.00683288
-1000.02
-0.00228922
0.00685235
-1000.02
-0.00121164
0.00686658
-1000.02
0.00685756
-1000.02
-0.00116726
0.00939265
-1000.01
-0.00227848
0.00941164
-1000.01
-0.00314569
0.0094038
-1000.01
-0.00368386
0.00938335
-1000.01
-0.00388005
0.00936506
-1000.01
-0.00372973
0.0093451
-1000.01
-0.00314489
0.00939033
-1000.01
-0.00227477
0.00941194
-1000.01
-0.0012057
0.00943342
-1000.01
0.00942748
-1000.02
-0.00117139
0.0111156
-1000
-0.00229408
0.011127
-1000
-0.0031652
0.0111062
-1000
-0.00371048
0.0110747
-1000.01
-0.00385024
0.010991
-1000.01
-0.00369553
0.0110521
-1000.01
-0.00311745
0.0110306
-1000.01
-0.002253
0.0110719
-1000.01
-0.00118914
0.0111071
-1000.01
0.0111116
-1000.01
-0.00118421
0.0115415
-999.999
-0.00231118
0.0115748
-999.999
-0.00315914
0.0115754
-1000
-0.00367314
0.0115893
-1000
-0.00400042
0.0115481
-1000
-0.00368605
0.011623
-1000
-0.00306649
0.0116648
-1000
-0.00221507
0.0116992
-1000.01
-0.00115846
0.0117142
-1000.01
0.0117092
-1000.01
-0.00118077
0.0108396
-999.994
-0.00231377
0.010847
-999.995
-0.0031954
0.0108816
-999.996
-0.00370556
0.0109425
-999.997
-0.00373143
0.0109568
-999.998
-0.00371157
0.0110584
-999.999
-0.0030992
0.0111095
-1000
-0.00219893
0.0111513
-1000
-0.00114014
0.0111787
-1000
0.0111673
-1000
-0.00119484
0.00922308
-999.99
-0.00227457
0.00923681
-999.991
-0.0031042
0.00926466
-999.991
-0.00361431
0.00931716
-999.992
-0.00379492
0.00939129
-999.994
-0.00364306
0.00940314
-999.995
-0.00304647
0.00947275
-999.996
-0.00216655
0.00951387
-999.997
-0.00112372
0.00954174
-999.998
0.0095327
-999.999
-0.00120127
0.00669907
-999.987
-0.00225148
0.00671212
-999.987
-0.00305787
0.00673668
-999.988
-0.00355629
0.00677109
-999.989
-0.00374244
0.00681194
-999.99
-0.00360202
0.00685063
-999.992
-0.00300749
0.00689847
-999.993
-0.00214119
0.0069319
-999.994
-0.00111283
0.00695274
-999.995
0.0069429
-999.995
-0.00120175
0.00352046
-999.984
-0.00222578
0.00353609
-999.984
-0.00301931
0.00355257
-999.985
-0.00351704
0.00356913
-999.986
-0.00371376
0.00357566
-999.988
-0.00355274
0.00359198
-999.989
-0.00296936
0.00362536
-999.99
-0.00211935
0.00364941
-999.991
-0.00110668
0.00365885
-999.992
0.00364743
-999.992
-0.00119125
-999.982
-0.00220504
-999.983
-0.00299625
-999.984
-0.0035043
-999.985
-0.00368643
-999.986
-0.00351094
-999.988
-0.00293829
-999.989
-0.00210506
-999.99
-0.00110611
-999.991
-999.991
-0.00154257
0.00496405
-1000.01
-0.00302903
0.00495584
-1000.01
-0.0041878
0.00494415
-1000.02
-0.00491622
0.00493257
-1000.02
-0.00518967
0.00493805
-1000.02
-0.00496477
0.00495051
-1000.02
-0.00420449
0.00495943
-1000.02
-0.00304657
0.0049665
-1000.02
-0.00161329
0.00496888
-1000.03
0.00495419
-1000.03
-0.00156787
0.00935499
-1000.01
-0.00305141
0.00936394
-1000.01
-0.00420879