FoamFile
{version 2.0; format ascii;class Cloud<passiveParticle>; location 0;object  positions;}
349
(
( 0.00382595 0.000326946 0.000497731 ) 0 
( 0.00215888 0.000308191 0.000499243 ) 0 
( 0.00245741 0.0028758 0.000498354 ) 0 
( 0.00168102 0.00224739 0.000498273 ) 0 
( 0.000436062 0.00464246 0.000499109 ) 0 
( 0.000693224 0.00240396 0.000498623 ) 0 
( 0.00192478 0.00127898 0.000498767 ) 0 
( 0.00141204 0.00443229 0.000497966 ) 0 
( 0.00478896 0.00172742 0.000499692 ) 0 
( 0.00271068 0.00190724 0.000497345 ) 0 
( 0.000456172 0.00337404 0.000497039 ) 0 
( 0.00317892 0.00356746 0.000499292 ) 0 
( 0.000210922 0.000736092 0.000498663 ) 0 
( 0.00144346 0.00321831 0.000499081 ) 0 
( 0.00348752 0.00253663 0.000497314 ) 0 
( 0.0048921 0.00493059 0.000497521 ) 0 
( 0.00447503 0.00268673 0.000497482 ) 0 
( 0.000937837 0.0014353 0.000498175 ) 0 
( 0.00117056 0.000457468 0.000498071 ) 0 
( 0.00386387 0.00133629 0.000499671 ) 0 
( 0.002122 0.00184106 0.00130021 ) 0 
( 0.00473994 0.000728623 0.000498902 ) 0 
( 0.00417461 0.0036385 0.000498104 ) 0 
( 0.00294738 0.00454027 0.00049969 ) 0 
( 0.00383693 0.00308202 0.00125709 ) 0 
( 0.00222044 0.003847 0.000498466 ) 0 
( 0.00394519 0.00461088 0.00049875 ) 0 
( 0.00184121 0.00279961 0.0013143 ) 0 
( 0.00293805 0.000934777 0.000498256 ) 0 
( 0.0041083 0.000817752 0.001319 ) 0 
( 0.00463006 0.0043553 0.00127197 ) 0 
( 0.00480557 0.00333275 0.00120893 ) 0 
( 0.00323391 0.00151733 0.00125481 ) 0 
( 0.000780243 0.00294948 0.00134062 ) 0 
( 0.00321039 0.000380735 0.00128246 ) 0 
( 0.00134553 0.00101571 0.0013072 ) 0 
( 0.0040656 0.00206394 0.00116033 ) 0 
( 0.00261712 0.00342936 0.00131392 ) 0 
( 0.00102128 0.00492351 0.00127419 ) 0 
( 0.00113895 0.00201775 0.00130477 ) 0 
( 0.000393326 0.00135522 0.00133121 ) 0 
( 0.00233598 0.000864636 0.00131051 ) 0 
( 0.00332377 0.00347787 0.00201762 ) 0 
( 0.000828784 0.00394355 0.00122785 ) 0 
( 0.00470622 0.000636995 0.00209861 ) 0 
( 0.00317854 0.000952394 0.00210106 ) 0 
( 0.000384555 0.00210772 0.0019882 ) 0 
( 0.00283332 1.80574e-06 0.0021254 ) 0 
( 0.00178479 0.00418742 0.00139082 ) 0 
( 0.00289695 0.0024712 0.00129875 ) 0 
( 0.00133013 0.00247511 0.00217117 ) 0 
( 0.00367304 0.00406693 0.00129018 ) 0 
( 0.00448723 0.00269522 0.00190945 ) 0 
( 0.00489158 0.00142445 0.00144798 ) 0 
( 0.00275463 0.00440273 0.00149438 ) 0 
( 0.00370591 0.00497329 0.00193034 ) 0 
( 0.00172542 0.000212348 0.00176217 ) 0 
( 0.0039851 0.00153469 0.00200143 ) 0 
( 0.00140667 0.00344405 0.00194015 ) 0 
( 0.00409671 0.00282732 0.0028202 ) 0 
( 0.00165769 0.00150734 0.00211801 ) 0 
( 0.00244424 0.00283653 0.00211025 ) 0 
( 0.00352314 0.00249491 0.00207477 ) 0 
( 0.000487043 0.000497628 0.00183172 ) 0 
( 0.000441615 0.00349634 0.00218705 ) 0 
( 0.00275467 0.00185663 0.00207222 ) 0 
( 0.00429736 0.00370729 0.00198181 ) 0 
( 0.000895472 0.0043854 0.0021211 ) 0 
( 0.00381624 0.000183851 0.00205225 ) 0 
( 0.00056488 0.00269731 0.0027751 ) 0 
( 0.00122166 0.000685539 0.00248161 ) 0 
( 0.00309838 0.00436204 0.0024327 ) 0 
( 0.0017772 0.0031057 0.00280347 ) 0 
( 0.00379771 0.0037799 0.00284246 ) 0 
( 0.002248 0.000757938 0.00241554 ) 0 
( 0.00229929 0.00382285 0.00217397 ) 0 
( 0.00372291 0.00190102 0.00289117 ) 0 
( 0.00472458 0.00194853 0.00253152 ) 0 
( 0.00183433 0.00470264 0.00224494 ) 0 
( 0.000930045 0.00176648 0.00275029 ) 0 
( 0.00208223 0.00215672 0.002747 ) 0 
( 0.00297894 0.00256601 0.00290977 ) 0 
( 0.00240624 5.24043e-05 0.00328877 ) 0 
( 0.00283305 0.00355215 0.00297299 ) 0 
( 0.00180348 0.00407845 0.00302297 ) 0 
( 0.00478148 0.00394873 0.00282194 ) 0 
( 0.000951203 0.00459319 0.0031038 ) 0 
( 0.0032701 0.000401485 0.00293001 ) 0 
( 0.000586269 0.000947873 0.00320491 ) 0 
( 0.00173572 0.00128584 0.00309233 ) 0 
( 0.00280449 0.00138982 0.00295291 ) 0 
( 2.81566e-05 0.00401026 0.00293517 ) 0 
( 0.00437788 0.00484742 0.00265806 ) 0 
( 0.00244799 0.00484035 0.00302133 ) 0 
( 0.0040872 0.000962949 0.00281285 ) 0 
( 0.00454898 8.31863e-05 0.00291847 ) 0 
( 0.000935621 0.00358489 0.00305006 ) 0 
( 0.00436682 0.00155193 0.00356971 ) 0 
( 0.000206751 0.00339036 0.00370412 ) 0 
( 0.00460871 0.00347185 0.00368236 ) 0 
( 0.00421548 0.00437754 0.00352476 ) 0 
( 0.00135143 0.00241268 0.00338266 ) 0 
( 0.00334132 0.00219617 0.00376521 ) 0 
( 0.003754 0.00383591 0.00427093 ) 0 
( 0.00240286 0.00093943 0.00374925 ) 0 
( 0.0034814 0.0010912 0.00362298 ) 0 
( 0.00352759 0.00315784 0.00357307 ) 0 
( 0.00322283 0.00435373 0.00342365 ) 0 
( 0.00432331 0.000573028 0.00376262 ) 0 
( 0.000605289 0.00181671 0.00369942 ) 0 
( 0.00159491 0.00333694 0.00375892 ) 0 
( 0.000773999 0.00269679 0.00414623 ) 0 
( 0.00308072 0.000250025 0.00399871 ) 0 
( 0.00238124 0.00193661 0.00367406 ) 0 
( 9.0069e-05 0.00145343 0.00454346 ) 0 
( 0.00101465 0.0041197 0.00398151 ) 0 
( 0.0025052 0.00292732 0.00371103 ) 0 
( 0.00151892 0.00157519 0.00402348 ) 0 
( 0.00295355 0.00149974 0.00436639 ) 0 
( 0.000818848 0.000880028 0.00417337 ) 0 
( 0.0014076 0.00039897 0.00342025 ) 0 
( 0.00428308 0.00253009 0.00375425 ) 0 
( 0.000126967 0.00453298 0.00377952 ) 0 
( 0.000641926 0.00496639 0.00451648 ) 0 
( 0.00174581 0.00476059 0.00375015 ) 0 
( 0.00225014 0.00333095 0.00459285 ) 0 
( 0.00399615 0.00186476 0.00444254 ) 0 
( 0.00438461 0.00313912 0.00460967 ) 0 
( 0.00299046 0.0044686 0.00439678 ) 0 
( 0.00109972 0.00426388 0.00505736 ) 0 
( 0.000418223 0.00366394 0.00464095 ) 0 
( 0.00179489 0.00250254 0.00427177 ) 0 
( 0.00340935 0.00293576 0.00453811 ) 0 
( 0.00173211 0.000516668 0.00435758 ) 0 
( 0.00199025 0.00431947 0.00461137 ) 0 
( 0.000943196 0.00192691 0.00476111 ) 0 
( 0.00240816 0.00391707 0.0038002 ) 0 
( 0.00123666 0.00101183 0.00507004 ) 0 
( 0.00468069 0.00140344 0.00500512 ) 0 
( 0.00128774 0.00321043 0.00483243 ) 0 
( 0.000144765 0.00448969 0.00524125 ) 0 
( 0.00466813 0.000440616 0.00474403 ) 0 
( 0.00289013 0.000653761 0.00489187 ) 0 
( 0.00393543 0.00246095 0.00524098 ) 0 
( 0.00174398 0.00498365 0.00531618 ) 0 
( 0.000169382 0.000432507 0.00478866 ) 0 
( 0.0035742 0.00439077 0.00521373 ) 0 
( 0.00379747 0.000891896 0.00454962 ) 0 
( 0.00187695 0.003761 0.00543125 ) 0 
( 0.00499459 0.00482354 0.00468756 ) 0 
( 0.00403317 0.00478344 0.00441844 ) 0 
( 0.00263949 0.00235114 0.00478311 ) 0 
( 0.00108355 7.06592e-06 0.00529105 ) 0 
( 0.00207794 0.00150465 0.00484828 ) 0 
( 0.0039471 0.000455846 0.00543551 ) 0 
( 0.000943274 0.00362685 0.00580903 ) 0 
( 1.08635e-05 0.00341509 0.00551812 ) 0 
( 0.00344624 0.00158936 0.00523063 ) 0 
( 0.00213063 0.000773992 0.00552812 ) 0 
( 0.00176928 0.00241858 0.00526619 ) 0 
( 0.00491967 0.00484373 0.005683 ) 0 
( 0.00312806 0.000863634 0.00583974 ) 0 
( 0.00257318 0.00183628 0.00565025 ) 0 
( 0.00300742 0.00356811 0.00519791 ) 0 
( 0.00259436 0.00445581 0.00539457 ) 0 
( 0.00451541 0.00406673 0.00512931 ) 0 
( 0.00126118 0.000676765 0.00601078 ) 0 
( 0.00216477 0.002985 0.00598828 ) 0 
( 0.00161533 0.00158581 0.00579367 ) 0 
( 0.000143067 0.00203028 0.00535627 ) 0 
( 0.000353474 0.0010698 0.00553517 ) 0 
( 0.00491495 0.00230793 0.00535441 ) 0 
( 0.000244531 0.00422215 0.00620108 ) 0 
( 0.00417481 0.00133005 0.00586314 ) 0 
( 0.00391749 0.00340214 0.00557472 ) 0 
( 0.00307416 0.00269997 0.00568745 ) 0 
( 0.000292471 0.00013627 0.00588724 ) 0 
( 0.000873874 0.00264535 0.0056437 ) 0 
( 0.00086912 0.0048918 0.00579951 ) 0 
( 0.00161484 0.00360523 0.00654722 ) 0 
( 0.00193773 0.00446147 0.00614602 ) 0 
( 0.0029611 0.00317294 0.00656092 ) 0 
( 0.00232584 0.00122224 0.00639864 ) 0 
( 0.00436231 0.00265946 0.00612218 ) 0 
( 0.00318552 0.00401585 0.0060721 ) 0 
( 0.00259822 0.000262586 0.00643721 ) 0 
( 0.000544534 0.00340325 0.00669758 ) 0 
( 0.00415288 0.00430294 0.00602843 ) 0 
( 0.00342293 0.00498401 0.0060039 ) 0 
( 0.00493329 0.000734308 0.00612317 ) 0 
( 0.00199587 0.00215641 0.0065184 ) 0 
( 0.000442254 0.000886035 0.00654343 ) 0 
( 0.000701901 0.0017801 0.00614478 ) 0 
( 0.00109302 0.0044487 0.00667782 ) 0 
( 0.00356016 5.72492e-05 0.00626533 ) 0 
( 0.00341954 0.00190217 0.00618012 ) 0 
( 7.91387e-05 0.00261935 0.00624958 ) 0 
( 0.00369445 0.00257613 0.00688244 ) 0 
( 0.00248213 0.00400183 0.00684666 ) 0 
( 0.000267465 0.00424037 0.00719989 ) 0 
( 0.00224432 0.000764932 0.00728295 ) 0 
( 0.00434994 0.00184476 0.0067011 ) 0 
( 0.00138328 0.00135265 0.00673685 ) 0 
( 0.0015637 0.000191862 0.00682975 ) 0 
( 0.00318709 0.00109416 0.00688886 ) 0 
( 0.00497235 0.00317777 0.00672026 ) 0 
( 0.00411236 0.000772509 0.00669174 ) 0 
( 0.0039056 0.00350011 0.0065687 ) 0 
( 0.0028634 0.00203356 0.0069999 ) 0 
( 0.00214101 0.0029574 0.00709533 ) 0 
( 0.00109183 0.00257064 0.00661525 ) 0 
( 0.00362989 0.00441717 0.00687113 ) 0 
( 0.00448159 0.00499457 0.00734039 ) 0 
( 0.000359797 0.00117185 0.0074978 ) 0 
( 0.00186633 0.00489516 0.0071347 ) 0 
( 0.00201023 0.00172623 0.00741937 ) 0 
( 0.00354189 0.000177087 0.00725679 ) 0 
( 0.00370996 0.00176364 0.00746284 ) 0 
( 0.00283629 0.00478834 0.00735084 ) 0 
( 0.00333528 0.00360973 0.00738199 ) 0 
( 0.000340039 0.0020557 0.00703308 ) 0 
( 0.00286004 0.00136035 0.0077961 ) 0 
( 0.00105977 0.00185695 0.00769746 ) 0 
( 0.000313675 0.00247605 0.00793919 ) 0 
( 0.000271463 0.00347115 0.00783723 ) 0 
( 0.00179578 0.00255043 0.00794069 ) 0 
( 0.00241964 0.00362561 0.00778235 ) 0 
( 0.00128659 0.00080579 0.00756658 ) 0 
( 0.00286426 0.000374968 0.00796308 ) 0 
( 0.00459996 0.00405322 0.00702626 ) 0 
( 0.00155286 0.00400492 0.00746074 ) 0 
( 0.002909 0.00274742 0.00769824 ) 0 
( 0.00111981 0.00310481 0.00745824 ) 0 
( 0.00487095 0.00116248 0.00721203 ) 0 
( 0.00398537 0.00425248 0.00778885 ) 0 
( 0.0009789 0.00483942 0.00759039 ) 0 
( 0.00214864 0.00466415 0.00806517 ) 0 
( 0.00196365 0.00118018 0.00825459 ) 0 
( 0.00407181 0.000873848 0.00773827 ) 0 
( 0.00247556 0.00201744 0.00844305 ) 0 
( 0.000295976 0.0048453 0.00832901 ) 0 
( 0.00088554 7.75883e-05 0.00812131 ) 0 
( 0.000942118 0.00408736 0.00824691 ) 0 
( 0.00482842 0.00134373 0.00819349 ) 0 
( 0.00427563 0.00317118 0.00743726 ) 0 
( 0.00491471 0.00393427 0.00796737 ) 0 
( 0.00403571 0.00348749 0.00842793 ) 0 
( 0.00188858 0.000198736 0.0080823 ) 0 
( 0.00458349 0.00218196 0.00770773 ) 0 
( 0.00357568 0.00162208 0.00844279 ) 0 
( 0.00219106 0.00291314 0.00878302 ) 0 
( 0.0011719 0.00313714 0.00845553 ) 0 
( 0.000209888 0.000373157 0.00880754 ) 0 
( 0.000349944 0.00355048 0.00884598 ) 0 
( 0.00409782 0.000822115 0.00873554 ) 0 
( 0.00305218 0.00333022 0.00849752 ) 0 
( 0.00185692 0.00385506 0.00857513 ) 0 
( 0.00461857 0.00217497 0.00870645 ) 0 
( 0.00377644 0.00256117 0.00815703 ) 0 
( 0.00283832 0.00101218 0.00873205 ) 0 
( 0.00306566 0.00427655 0.00817704 ) 0 
( 0.00034174 0.00193597 0.00877997 ) 0 
( 0.00495032 0.00309713 0.00851174 ) 0 
( 0.00140699 0.00194259 0.00863212 ) 0 
( 0.000834334 0.00116334 0.00838134 ) 0 
( 0.00435928 0.00439219 0.00870496 ) 0 
( 0.00208817 0.00147819 0.0092006 ) 0 
( 0.00348079 0.00407682 0.00906324 ) 0 
( 0.00490449 0.000991564 0.00929983 ) 0 
( 0.00225924 0.00463215 0.00905777 ) 0 
( 0.00172583 0.00236756 0.00947829 ) 0 
( 0.00152391 0.00336063 0.00937729 ) 0 
( 0.00105988 0.00423312 0.00922873 ) 0 
( 0.0014743 0.000609256 0.00891267 ) 0 
( 0.00405254 0.00162926 0.009323 ) 0 
( 0.00133448 0.0049428 0.00858139 ) 0 
( 0.00099187 0.00137637 0.00934448 ) 0 
( 0.00468386 0.0036548 0.00929679 ) 0 
( 0.000799718 0.0026815 0.00926313 ) 0 
( 0.000118202 0.00444693 0.00948545 ) 0 
( 0.00323167 0.00239314 0.0089773 ) 0 
( 0.000340862 0.00197877 0.00980532 ) 0 
( 0.0015199 0.000737018 0.00990281 ) 0 
( 0.00324265 0.00310384 0.00967984 ) 0 
( 0.00314089 0.00134954 0.00962261 ) 0 
( 0.00245516 0.000623762 0.00956874 ) 0 
( 0.00453143 0.00455789 0.00969674 ) 0 
( 0.000549576 0.000565935 0.00972754 ) 0 
( 0.00184328 0.00418283 0.00984798 ) 0 
( 0.00406893 0.000744736 0.00978819 ) 0 
( 0.00408618 0.00285921 0.00920335 ) 0 
( 0.00255129 0.00370278 0.009278 ) 0 
( 0.00337274 0.00031688 0.0092137 ) 0 
( 0.00320654 0.0004661 0.0102085 ) 0 
( 0.00461092 0.00284699 0.0100536 ) 0 
( 0.00391583 0.0038025 0.00991958 ) 0 
( 0.00224517 0.00309085 0.0100142 ) 0 
( 0.00374613 0.00230075 0.00999683 ) 0 
( 0.000784162 0.00487303 0.0100964 ) 0 
( 0.00266681 0.00221523 0.00978168 ) 0 
( 0.00304046 0.00474202 0.00967119 ) 0 
( 0.00226681 0.00139116 0.0101806 ) 0 
( 0.000636147 0.00353342 0.00980302 ) 0 
( 0.00497597 0.000652087 0.0102366 ) 0 
( 0.00119005 0.00280275 0.0102009 ) 0 
( 0.00134512 0.00177734 0.0101888 ) 0 
( 0.000673407 0.00219251 0.010801 ) 0 
( 0.0029116 0.00389725 0.0101897 ) 0 
( 0.00445075 0.00155192 0.0102367 ) 0 
( 0.000387018 0.00314367 0.0106892 ) 0 
( 0.00241693 0.00467768 0.0105712 ) 0 
( 0.00299274 0.00273428 0.0105741 ) 0 
( 0.000995827 0.000196716 0.0105606 ) 0 
( 0.0011137 0.00392154 0.0105905 ) 0 
( 0.00371051 0.00459613 0.0104914 ) 0 
( 0.00482601 0.00382346 0.0103314 ) 0 
( 0.000541006 0.00124854 0.0104577 ) 0 
( 0.00226242 0.000457558 0.0105368 ) 0 
( 0.00209657 0.00229258 0.0105991 ) 0 
( 0.00175967 0.000232183 0.0113711 ) 0 
( 0.00208645 0.00375104 0.0107475 ) 0 
( 0.00229674 0.00295754 0.0113181 ) 0 
( 0.00316111 0.0017115 0.010554 ) 0 
( 0.0002098 0.00434837 0.0107239 ) 0 
( 0.00306039 0.0035726 0.0111232 ) 0 
( 0.00407231 0.000806908 0.0107859 ) 0 
( 0.00163912 0.0045322 0.0111822 ) 0 
( 0.000661538 0.0007699 0.0113268 ) 0 
( 0.00417361 0.00224714 0.0108991 ) 0 
( 0.00496988 0.00465387 0.0108689 ) 0 
( 0.00149771 0.00104617 0.0108531 ) 0 
( 0.00149322 0.00193485 0.0113115 ) 0 
( 0.0048006 0.00301202 0.0110463 ) 0 
( 0.0038778 0.00318117 0.0107013 ) 0 
( 0.000700325 0.00258915 0.0117183 ) 0 
( 0.00423626 0.0040179 0.0111148 ) 0 
( 0.00239163 0.00152208 0.0111637 ) 0 
( 0.000694142 8.27583e-05 0.0120521 ) 0 
( 0.00330165 0.00224373 0.0113884 ) 0 
( 0.000191732 0.00370777 0.0114912 ) 0 
( 0.00313349 0.000853093 0.0111271 ) 0 
( 0.00176051 0.00112153 0.0118278 ) 0 
( 0.00350517 0.00309139 0.011878 ) 0 
( 0.00132529 0.00311433 0.011141 ) 0 
( 0.0047249 0.000463484 0.0115119 ) 0 
( 0.00351307 0.00139646 0.0118753 ) 0 
( 0.00442157 0.00269346 0.0119146 ) 0 
( 0.00256877 0.00435493 0.011505 ) 0 
( 0.00444538 0.00171579 0.0117073 ) 0 
)
