FoamFile
{version 2.0; format ascii;class vectorField; location 0;object  v;}
349
(
( -1.40043e-06 -5.82586e-06 -1.69972e-05 )  
( -8.82229e-07 4.73163e-07 -8.24372e-06 )  
( 2.53948e-06 7.63571e-07 -1.54762e-05 )  
( 1.15281e-06 -2.03969e-06 -1.49578e-05 )  
( 2.61707e-06 -1.90723e-06 -9.85012e-06 )  
( 8.45025e-07 -9.06565e-07 -1.3579e-05 )  
( 1.84677e-06 4.3955e-07 -1.2372e-05 )  
( 8.84264e-07 -2.52412e-06 -1.4743e-05 )  
( 4.13214e-05 -6.45772e-06 -9.62201e-08 )  
( 1.22956e-06 1.43532e-06 -1.5783e-05 )  
( -8.54739e-07 -1.08674e-06 -1.59094e-05 )  
( 1.76121e-06 2.79133e-07 -1.28756e-05 )  
( -3.64722e-06 -8.43581e-07 -1.30208e-05 )  
( 9.45438e-07 -2.49447e-06 -1.17154e-05 )  
( 1.64344e-06 -1.49638e-07 -1.71345e-05 )  
( 5.81441e-07 1.42675e-06 -1.39348e-05 )  
( 4.08203e-07 2.43835e-06 -1.67466e-05 )  
( -1.63956e-06 1.05391e-06 -1.50542e-05 )  
( -6.11569e-06 -2.8206e-06 -1.36207e-05 )  
( -3.83919e-07 -8.64041e-06 -1.01463e-05 )  
( 5.65425e-06 4.24537e-06 -2.91159e-05 )  
( -5.21614e-06 -1.01843e-05 -4.14938e-06 )  
( 1.00753e-06 -1.1564e-06 -1.2782e-05 )  
( -2.53858e-09 8.31746e-07 5.45781e-07 )  
( 1.52031e-06 -1.18075e-06 -3.27606e-05 )  
( 1.74718e-06 -1.01179e-06 -1.28903e-05 )  
( 1.23265e-06 3.04515e-06 -9.96567e-06 )  
( 6.32817e-06 -9.28247e-07 -2.83803e-05 )  
( 2.39235e-06 -5.1679e-07 -1.24431e-05 )  
( 1.68144e-06 -1.13622e-05 -3.48106e-05 )  
( -4.13491e-07 -6.42267e-06 -1.69709e-05 )  
( 5.34024e-06 -3.65197e-06 -2.98122e-05 )  
( 1.18219e-05 1.23609e-07 -1.74133e-05 )  
( 9.24822e-06 -2.11302e-06 -3.13371e-05 )  
( 3.07459e-07 -6.2143e-06 -3.17368e-05 )  
( 1.74921e-06 1.88218e-06 -2.98943e-05 )  
( 1.00921e-05 -5.81457e-06 -3.4154e-05 )  
( 4.20462e-06 -1.61004e-06 -2.75547e-05 )  
( 7.8972e-06 -1.57913e-06 -2.38273e-05 )  
( 3.12162e-06 -1.937e-06 -2.78764e-05 )  
( 2.03347e-07 1.46746e-06 -3.05138e-05 )  
( 1.15279e-05 5.30394e-06 -2.06247e-05 )  
( 6.6171e-06 -2.01174e-06 -3.7264e-05 )  
( 7.6604e-06 -7.14569e-06 -2.46079e-05 )  
( 1.29463e-06 -4.99924e-06 -5.16427e-05 )  
( 7.69219e-09 -7.57946e-07 -4.76701e-05 )  
( 1.50348e-05 2.31051e-06 -4.50467e-05 )  
( -2.42518e-06 -7.11025e-07 -4.8571e-05 )  
( 6.49517e-06 3.0087e-07 -3.59553e-05 )  
( 4.58145e-06 2.75627e-06 -3.09434e-05 )  
( 1.216e-05 1.76478e-06 -4.75984e-05 )  
( 1.66663e-06 -2.19647e-06 -2.6393e-05 )  
( 1.58716e-06 -5.90833e-06 -4.04736e-05 )  
( -6.29649e-06 -4.75304e-06 -3.51358e-05 )  
( 3.88609e-06 3.17294e-06 -3.19636e-05 )  
( 6.99051e-06 1.06267e-06 -4.08492e-05 )  
( -1.93345e-06 7.89724e-07 -4.53872e-05 )  
( 5.03922e-06 -9.75017e-06 -5.29316e-05 )  
( 1.17782e-05 -7.30614e-07 -4.4369e-05 )  
( 4.05844e-06 4.07244e-07 -5.67656e-05 )  
( 1.25684e-05 1.92909e-06 -4.73727e-05 )  
( 9.4141e-06 2.26059e-06 -4.3438e-05 )  
( 3.60023e-06 1.61922e-06 -4.70094e-05 )  
( 3.3195e-07 2.52827e-06 -4.23898e-05 )  
( 1.19615e-05 -4.89744e-06 -5.03423e-05 )  
( 6.50308e-06 2.31767e-06 -4.74078e-05 )  
( 5.84118e-06 -7.15346e-06 -4.35395e-05 )  
( 1.34345e-05 3.82796e-06 -4.08073e-05 )  
( -1.39064e-06 -9.92005e-06 -4.15788e-05 )  
( 1.8002e-05 -1.03872e-06 -5.05927e-05 )  
( 6.83756e-06 4.40802e-06 -5.69553e-05 )  
( 8.81148e-06 -2.78521e-06 -5.46502e-05 )  
( 8.54839e-06 1.0707e-07 -5.56639e-05 )  
( 8.72232e-06 -1.36435e-06 -5.52755e-05 )  
( 6.09108e-06 2.31727e-07 -5.70129e-05 )  
( 7.1549e-06 -2.93666e-07 -4.50696e-05 )  
( 1.05815e-06 -1.57533e-06 -6.80187e-05 )  
( 3.47596e-06 -1.38546e-05 -4.40711e-05 )  
( 1.14529e-05 -1.68345e-06 -4.75646e-05 )  
( 8.923e-06 2.50856e-06 -6.1444e-05 )  
( 7.74443e-06 1.26616e-06 -5.35185e-05 )  
( 9.03451e-06 1.00561e-06 -5.67589e-05 )  
( -1.75164e-06 -1.57079e-06 -6.96173e-05 )  
( 9.64529e-06 1e-06 -5.87271e-05 )  
( 1.08032e-05 -3.03376e-07 -6.04504e-05 )  
( 5.55403e-06 -4.69646e-06 -5.59316e-05 )  
( 1.49446e-05 5.21054e-06 -6.93179e-05 )  
( -4.31092e-07 -3.34463e-06 -5.87908e-05 )  
( 4.59715e-07 2.76318e-06 -7.46122e-05 )  
( 7.0833e-06 5.76672e-07 -6.36105e-05 )  
( 6.3117e-06 -8.91303e-07 -6.7752e-05 )  
( 5.54376e-06 8.11462e-06 -7.05399e-05 )  
( 7.83342e-06 -6.66958e-06 -5.39368e-05 )  
( 9.68222e-06 -3.87823e-06 -5.88439e-05 )  
( -3.01606e-06 -3.35959e-06 -5.90227e-05 )  
( -2.86346e-06 -2.55614e-06 -6.07497e-05 )  
( 1.04961e-05 3.61009e-06 -6.55182e-05 )  
( 5.93303e-07 -2.8713e-06 -7.45435e-05 )  
( 4.75605e-06 3.90535e-06 -7.9618e-05 )  
( 4.93068e-06 -5.41801e-06 -6.55067e-05 )  
( 7.99519e-06 -2.72024e-06 -6.28474e-05 )  
( 4.93567e-06 -3.07243e-07 -6.71121e-05 )  
( 5.27241e-06 -8.26366e-07 -7.43689e-05 )  
( 6.45366e-06 -1.16704e-06 -7.40159e-05 )  
( 6.78591e-06 -8.22748e-07 -7.58761e-05 )  
( 2.18743e-06 -1.21725e-06 -7.56668e-05 )  
( 5.70931e-06 -1.10847e-06 -6.84656e-05 )  
( 8.9592e-06 -1.63717e-06 -6.17767e-05 )  
( -1.99385e-06 -2.13327e-06 -7.59888e-05 )  
( 2.24332e-05 2.88959e-05 -9.14578e-05 )  
( 6.98902e-06 2.25322e-07 -6.94509e-05 )  
( -5.1421e-07 -7.49444e-07 -8.23021e-05 )  
( 5.5402e-07 -1.35518e-06 -7.97052e-05 )  
( 6.05906e-06 -2.14649e-06 -6.94231e-05 )  
( 4.55374e-06 -5.07571e-06 -8.81538e-05 )  
( 3.57928e-06 -1.22934e-06 -7.78378e-05 )  
( 6.69845e-06 -7.15017e-07 -6.48244e-05 )  
( 3.58164e-06 -1.71225e-08 -7.97761e-05 )  
( 3.2111e-06 -2.67801e-06 -8.1136e-05 )  
( 6.83465e-07 -6.12174e-08 -8.54428e-05 )  
( 5.01914e-06 6.30532e-06 -6.74061e-05 )  
( 3.26757e-06 -2.91563e-06 -7.10241e-05 )  
( -1.57108e-06 4.24195e-06 -7.63337e-05 )  
( -1.86763e-07 -6.16637e-06 -8.32765e-05 )  
( 7.18688e-06 -8.99359e-08 -6.67285e-05 )  
( 2.89457e-06 -5.00673e-06 -7.82178e-05 )  
( 1.22814e-06 -3.19017e-06 -8.11507e-05 )  
( 3.44256e-06 -4.67933e-06 -7.8026e-05 )  
( 9.08014e-06 5.33034e-07 -7.28353e-05 )  
( 3.04713e-06 -6.28679e-07 -8.4757e-05 )  
( 3.27213e-06 -2.64981e-06 -8.61196e-05 )  
( 4.98379e-06 -5.87743e-07 -8.00286e-05 )  
( 1.30426e-06 -5.21918e-06 -8.33776e-05 )  
( 5.75506e-06 -3.66554e-07 -8.07859e-05 )  
( 5.43369e-06 1.39614e-07 -7.74546e-05 )  
( -9.24953e-07 1.26643e-06 -9.1061e-05 )  
( 8.05431e-06 -1.00846e-06 -6.68082e-05 )  
( 2.51683e-07 -2.65551e-06 -9.07013e-05 )  
( -1.28803e-06 -3.48328e-06 -8.50812e-05 )  
( 8.85799e-07 7.74592e-07 -8.33792e-05 )  
( 3.30184e-06 -7.82535e-06 -8.59262e-05 )  
( -3.49467e-06 -1.60165e-06 -8.57955e-05 )  
( 3.12413e-07 -6.08525e-07 -8.59817e-05 )  
( 1.46191e-06 -1.56299e-06 -8.92522e-05 )  
( 7.59504e-06 -1.53522e-06 -8.47258e-05 )  
( -4.83805e-06 -4.80139e-06 -9.15667e-05 )  
( 4.88453e-06 -1.30726e-06 -9.05591e-05 )  
( 1.79075e-07 2.03413e-07 -8.25965e-05 )  
( 1.47037e-06 -1.45168e-06 -8.69943e-05 )  
( 8.66169e-06 -4.72682e-06 -7.83592e-05 )  
( 9.02545e-06 -1.12979e-06 -7.91855e-05 )  
( 3.01678e-06 -3.80521e-06 -8.4723e-05 )  
( -1.92532e-06 2.33263e-06 -9.16843e-05 )  
( -1.44366e-06 -2.98535e-06 -8.75068e-05 )  
( -3.77146e-06 -1.21302e-06 -9.03614e-05 )  
( 4.8613e-07 -6.58075e-06 -9.21991e-05 )  
( 2.24359e-06 -9.71122e-06 -9.11564e-05 )  
( -5.59034e-07 -3.18859e-06 -8.65901e-05 )  
( -3.62844e-06 -8.64162e-07 -9.22217e-05 )  
( 2.92878e-07 -2.93488e-06 -8.98226e-05 )  
( 6.15352e-06 -4.79512e-06 -8.61705e-05 )  
( -3.2491e-06 -3.98479e-06 -9.26321e-05 )  
( -1.60872e-06 -1.30244e-06 -0.000100006 )  
( 3.63399e-06 -7.2327e-07 -8.76092e-05 )  
( 6.12379e-06 -7.9329e-07 -8.44979e-05 )  
( 6.08525e-06 -1.71737e-06 -8.57395e-05 )  
( -4.93461e-06 -1.09541e-06 -9.28715e-05 )  
( -1.58853e-06 -3.15561e-06 -9.5368e-05 )  
( -2.46253e-06 -1.71099e-06 -9.38457e-05 )  
( 2.26391e-07 -6.57718e-06 -9.57009e-05 )  
( 3.11061e-07 -6.11304e-06 -9.65134e-05 )  
( -3.01667e-07 -3.76801e-06 -8.49344e-05 )  
( 6.79309e-07 -9.82806e-06 -8.93738e-05 )  
( -2.79622e-06 -3.87372e-06 -8.90403e-05 )  
( 5.77501e-06 -4.42159e-07 -9.6666e-05 )  
( -4.484e-07 -2.14255e-06 -9.75175e-05 )  
( -2.99399e-06 -8.38473e-06 -9.5033e-05 )  
( -2.4386e-06 -5.04007e-06 -9.51539e-05 )  
( 1.93658e-06 -4.62284e-06 -8.76963e-05 )  
( 2.18153e-06 -4.92037e-06 -9.23992e-05 )  
( 2.91132e-06 -2.30677e-06 -8.77538e-05 )  
( 1.70449e-07 -3.88749e-06 -0.000104699 )  
( -2.48777e-06 1.31017e-06 -9.63413e-05 )  
( 5.79077e-06 -1.06242e-06 -9.84642e-05 )  
( 6.89851e-06 1.50366e-07 -9.23496e-05 )  
( -4.12295e-06 -5.89122e-07 -9.62941e-05 )  
( 1.66996e-07 -7.23604e-06 -9.34012e-05 )  
( 2.59362e-06 -3.12483e-06 -8.83477e-05 )  
( 6.10194e-06 -1.47977e-06 -8.43674e-05 )  
( -4.08109e-06 -6.83944e-06 -9.47758e-05 )  
( -1.79587e-06 -9.2245e-07 -9.43022e-05 )  
( -5.46098e-07 -1.70553e-06 -8.39817e-05 )  
( -1.31074e-06 -5.30473e-06 -9.72827e-05 )  
( -2.36497e-07 -8.96295e-06 -9.23502e-05 )  
( -5.74815e-06 -2.30674e-06 -9.69783e-05 )  
( -5.07905e-06 -1.97865e-06 -0.000100313 )  
( -5.54722e-06 -1.14848e-05 -9.66071e-05 )  
( -3.61766e-06 -7.01446e-07 -0.000101307 )  
( 4.20534e-06 -4.69458e-06 -9.47365e-05 )  
( 1.53495e-06 -8.64712e-06 -8.51799e-05 )  
( -2.93865e-06 -4.97212e-07 -9.5292e-05 )  
( -3.1976e-06 -2.61758e-07 -9.34789e-05 )  
( -2.90059e-06 -6.37153e-07 -9.44971e-05 )  
( -2.87482e-06 -9.27418e-07 -9.46718e-05 )  
( 3.53711e-07 3.98888e-06 -0.000112629 )  
( 5.38439e-07 -4.75897e-06 -9.39186e-05 )  
( -3.64998e-06 5.50776e-07 -0.000104303 )  
( -2.75274e-06 -3.18911e-06 -0.000100338 )  
( -2.15295e-06 2.19206e-06 -9.94684e-05 )  
( -5.13149e-06 -4.28009e-06 -8.89102e-05 )  
( -3.73323e-06 -5.05886e-06 -9.41016e-05 )  
( 2.88907e-06 -3.36651e-06 -8.41027e-05 )  
( 5.97467e-06 -5.47506e-06 -8.43655e-05 )  
( 1.81097e-06 -9.4393e-06 -8.80083e-05 )  
( -1.56545e-07 -6.54044e-06 -8.91515e-05 )  
( -1.88449e-06 -4.22245e-07 -9.53547e-05 )  
( -6.40364e-06 2.92313e-06 -9.91018e-05 )  
( -4.07801e-06 1.12816e-06 -9.58596e-05 )  
( 1.49671e-06 -5.24081e-06 -8.57673e-05 )  
( -7.08694e-06 -2.12048e-05 -0.00010352 )  
( -4.00942e-06 -1.05111e-05 -9.37783e-05 )  
( -3.57918e-06 -1.18744e-06 -9.30162e-05 )  
( -1.46567e-06 -4.35104e-06 -9.57801e-05 )  
( -2.99014e-06 -1.04465e-05 -9.03098e-05 )  
( 3.01427e-07 -1.02734e-05 -8.25444e-05 )  
( -2.38513e-06 -1.69907e-06 -9.16402e-05 )  
( -5.57924e-07 -4.01545e-06 -8.61616e-05 )  
( 1.82345e-06 -2.34754e-06 -9.15395e-05 )  
( -2.73817e-06 -3.47318e-06 -9.36479e-05 )  
( -5.8185e-06 -5.44595e-06 -9.1468e-05 )  
( -1.21142e-06 -6.62015e-06 -8.94595e-05 )  
( -4.09148e-06 1.65303e-06 -8.82781e-05 )  
( -3.89482e-06 -7.3799e-06 -8.92522e-05 )  
( -7.66813e-06 7.53142e-08 -9.44942e-05 )  
( 4.89613e-06 3.34214e-06 -8.07763e-05 )  
( -1.49098e-06 -8.47223e-06 -8.99982e-05 )  
( -1.71534e-06 -2.24851e-06 -8.33193e-05 )  
( -6.24959e-07 7.03679e-08 -9.88448e-05 )  
( -9.87327e-06 6.31638e-06 -9.86633e-05 )  
( -5.68115e-06 1.18084e-06 -9.03476e-05 )  
( 7.18966e-06 -6.58794e-06 -7.79853e-05 )  
( 3.22199e-06 -1.035e-05 -9.12085e-05 )  
( 3.22748e-06 -7.01389e-06 -8.25917e-05 )  
( -5.67401e-06 -1.41566e-06 -8.84066e-05 )  
( -7.68769e-06 -1.13003e-05 -0.00010296 )  
( 5.81693e-06 1.12179e-06 -9.35061e-05 )  
( 1.11697e-06 5.9717e-06 -7.84656e-05 )  
( -9.74851e-07 -1.30039e-06 -8.9604e-05 )  
( -3.54918e-06 1.67664e-06 -8.68209e-05 )  
( -6.5367e-06 4.28816e-06 -9.26253e-05 )  
( -1.78036e-06 1.55544e-06 -8.65234e-05 )  
( 4.58478e-06 -5.49644e-06 -8.32693e-05 )  
( -1.04363e-06 -2.08865e-05 -8.76674e-05 )  
( 8.08631e-06 -1.50906e-05 -7.20073e-05 )  
( -6.06284e-06 1.84613e-06 -9.84174e-05 )  
( 1.13804e-06 4.90047e-07 -8.17189e-05 )  
( 6.01367e-08 6.10984e-07 -8.54089e-05 )  
( -6.87619e-06 1.0372e-06 -8.71946e-05 )  
( -6.16065e-06 9.40209e-06 -8.60869e-05 )  
( -9.44663e-06 -3.71992e-07 -8.94969e-05 )  
( -4.12145e-07 -1.26294e-06 -8.38317e-05 )  
( 7.82981e-06 -7.86765e-06 -8.8767e-05 )  
( -2.69229e-06 2.72912e-06 -8.15572e-05 )  
( -2.23115e-06 2.27906e-06 -8.99403e-05 )  
( 5.98911e-06 -5.56836e-07 -8.62726e-05 )  
( 6.51634e-06 -2.9335e-06 -6.77413e-05 )  
( -6.60098e-06 -4.43807e-07 -9.33448e-05 )  
( 8.42538e-06 -2.52851e-05 -9.27893e-05 )  
( -8.29444e-06 2.71719e-06 -9.46343e-05 )  
( -6.78493e-06 4.75037e-06 -7.42337e-05 )  
( -7.16354e-06 -6.34074e-06 -8.5276e-05 )  
( 1.06389e-05 -7.73724e-07 -8.17767e-05 )  
( 5.74185e-06 -6.01398e-06 -8.18822e-05 )  
( 1.14926e-05 8.75989e-06 -8.46633e-05 )  
( -1.41325e-05 1.49478e-06 -8.32431e-05 )  
( 2.46722e-06 -1.97186e-06 -8.06726e-05 )  
( -6.25929e-07 -4.27593e-06 -7.62384e-05 )  
( -3.87564e-06 -7.19262e-06 -6.55807e-05 )  
( 1.30136e-05 -1.48041e-05 -7.74708e-05 )  
( 1.3786e-05 -3.19583e-06 -7.39044e-05 )  
( -8.43238e-06 -3.66276e-06 -7.7774e-05 )  
( 4.95702e-06 -1.28922e-05 -6.73389e-05 )  
( -8.30596e-06 -5.9506e-07 -7.61006e-05 )  
( -3.62238e-06 -2.91253e-06 -6.08192e-05 )  
( -8.91168e-06 -1.02299e-05 -8.33574e-05 )  
( -3.0903e-06 4.17481e-06 -7.48735e-05 )  
( -4.55245e-06 -4.73379e-06 -5.49126e-05 )  
( 1.15835e-06 -1.31107e-05 -8.13311e-05 )  
( 7.62843e-07 -3.44634e-06 -8.26724e-05 )  
( -2.09283e-06 8.55152e-07 -8.9699e-05 )  
( -6.79845e-06 -9.73806e-06 -7.76265e-05 )  
( -8.4105e-06 -1.22361e-06 -6.86924e-05 )  
( -4.73054e-06 -3.4924e-06 -8.79424e-05 )  
( 8.8664e-06 -6.07089e-06 -8.64216e-05 )  
( -1.43538e-05 -6.66556e-06 -7.30807e-05 )  
( -1.68001e-05 -2.30193e-06 -7.1502e-05 )  
( 1.31876e-05 1.53959e-05 -7.41157e-05 )  
( -1.33176e-05 -1.05163e-05 -7.12745e-05 )  
( 2.23077e-06 2.23545e-05 -7.05474e-05 )  
( 5.85655e-07 -2.91394e-06 -6.61474e-05 )  
( -2.09355e-07 6.85923e-07 -8.90077e-05 )  
( -2.30985e-06 1.07038e-06 -7.09872e-05 )  
( 1.85981e-05 -6.37548e-07 -6.30016e-05 )  
( 6.68074e-06 5.04283e-06 -9.67386e-05 )  
( 2.33046e-05 -6.74088e-06 -6.70396e-05 )  
( -1.49615e-06 -1.21363e-05 -6.76907e-05 )  
( 1.09587e-05 2.20728e-07 -5.70013e-05 )  
( 3.71896e-05 1.44214e-05 -6.07617e-05 )  
( -1.45282e-05 -7.07632e-06 -7.02917e-05 )  
( 2.47866e-05 3.37129e-06 -4.92019e-05 )  
( 9.75387e-06 1.55153e-05 -6.78578e-05 )  
( -2.0531e-05 7.78899e-06 -4.55423e-05 )  
( -4.0583e-05 2.43626e-05 -8.50625e-05 )  
( 2.39974e-05 1.25819e-05 -6.60363e-05 )  
( -3.03088e-05 -5.58465e-06 -8.83888e-05 )  
( -1.43509e-05 5.2527e-06 -4.34189e-05 )  
( 5.29109e-06 -2.57819e-05 -7.49757e-05 )  
( 1.06666e-05 8.56873e-07 -7.39374e-05 )  
( -3.99005e-06 -1.28743e-06 -6.76283e-05 )  
( 1.46757e-05 6.76042e-06 -5.77699e-05 )  
( -6.19143e-06 1.38775e-05 -5.76018e-05 )  
( 1.77552e-06 6.47677e-06 -7.65008e-05 )  
( -3.00368e-06 -1.93094e-05 -7.36569e-05 )  
( 2.91681e-05 -3.16542e-07 -7.34116e-05 )  
( -4.58616e-06 1.45574e-05 -5.25943e-05 )  
( -1.95601e-06 -2.53881e-05 -8.73591e-05 )  
( 7.19811e-06 2.80901e-05 -6.56039e-05 )  
( -2.34857e-05 -4.50252e-05 -8.93639e-05 )  
( -2.40337e-05 -8.68506e-06 -6.26835e-05 )  
( 3.41788e-05 4.05519e-06 -5.75898e-05 )  
( -1.6955e-06 4.73575e-07 -5.3207e-05 )  
( 1.70923e-05 3.48125e-06 -5.53938e-05 )  
( -3.36075e-05 1.69677e-05 -9.21485e-05 )  
( -2.02843e-05 -5.43553e-06 -5.88314e-05 )  
( 2.88719e-06 8.68802e-05 -6.49769e-05 )  
( -5.72288e-05 1.14154e-05 -6.23035e-05 )  
( 6.61394e-06 -7.36484e-06 -7.09954e-05 )  
( 2.77078e-05 9.02544e-06 -5.44202e-05 )  
( -3.38541e-05 -2.13986e-05 -5.36136e-05 )  
( -5.28509e-06 6.81107e-06 -6.07836e-05 )  
( -5.38884e-06 -1.12897e-05 -8.86185e-05 )  
( 4.78674e-05 1.03472e-05 -4.35016e-05 )  
( -6.60071e-05 -2.31044e-05 -2.83089e-05 )  
( 1.42621e-05 1.20967e-05 -8.4104e-05 )  
( 0.00011453 1.62745e-06 -6.93992e-05 )  
( 8.04627e-05 -4.93079e-05 -0.000123835 )  
( -5.79107e-05 -1.46855e-05 -0.000113342 )  
( -4.40837e-06 2.16815e-05 -5.78092e-05 )  
( 3.08872e-05 9.59276e-06 -0.000165051 )  
)
