/*--------------------------------*- C++ -*----------------------------------*\
| =========                 |                                                 |
| \\      /  F ield         | OpenFOAM: The Open Source CFD Toolbox           |
|  \\    /   O peration     | Version:  5.x                                   |
|   \\  /    A nd           | Web:      www.OpenFOAM.org                      |
|    \\/     M anipulation  |                                                 |
\*---------------------------------------------------------------------------*/
FoamFile
{
    version     2.0;
    format      ascii;
    class       volVectorField;
    location    "80000";
    object      stored_U;
}
// * * * * * * * * * * * * * * * * * * * * * * * * * * * * * * * * * * * * * //

dimensions      [0 1 -1 0 0 0 0];

internalField   nonuniform List<vector> 
2250
(
(-1.00392e-10 4.36956e-11 -0.001)
(-1.02903e-10 3.71148e-11 -0.001)
(-8.52853e-11 3.50643e-11 -0.001)
(-5.17361e-11 3.40971e-11 -0.001)
(-1.74061e-11 3.39912e-11 -0.001)
(-1.03593e-10 1.15476e-10 -0.001)
(-1.11819e-10 1.07075e-10 -0.001)
(-8.84241e-11 1.03232e-10 -0.001)
(-5.28135e-11 1.01024e-10 -0.001)
(-1.74841e-11 1.00227e-10 -0.001)
(-1.02627e-10 1.93205e-10 -0.001)
(-1.15386e-10 1.73693e-10 -0.001)
(-9.14609e-11 1.62751e-10 -0.001)
(-5.46018e-11 1.58279e-10 -0.001)
(-1.80176e-11 1.57096e-10 -0.001)
(-1.0494e-10 2.54008e-10 -0.001)
(-1.42246e-10 2.17293e-10 -0.001)
(-1.03823e-10 1.89027e-10 -0.001)
(-5.81446e-11 1.816e-10 -0.001)
(-1.83503e-11 1.84988e-10 -0.001)
(-1.25101e-10 2.19781e-10 -0.001)
(-1.80396e-10 2.28319e-10 -0.001)
(-1.27126e-10 2.19545e-10 -0.001)
(-5.82708e-11 2.16564e-10 -0.001)
(-1.42995e-11 2.19597e-10 -0.001)
(-2.63032e-10 1.07585e-10 -0.001)
(-2.66043e-10 1.01559e-10 -0.001)
(-2.11161e-10 9.81813e-11 -0.001)
(-1.26147e-10 9.7934e-11 -0.001)
(-4.21105e-11 9.73286e-11 -0.001)
(-2.62197e-10 3.19837e-10 -0.001)
(-2.7595e-10 3.04093e-10 -0.001)
(-2.15043e-10 2.94637e-10 -0.001)
(-1.26931e-10 2.89195e-10 -0.001)
(-4.25721e-11 2.85846e-10 -0.001)
(-2.61888e-10 5.67688e-10 -0.001)
(-2.91711e-10 5.0224e-10 -0.001)
(-2.2634e-10 4.68956e-10 -0.001)
(-1.34542e-10 4.52322e-10 -0.001)
(-4.49517e-11 4.48783e-10 -0.001)
(-2.67236e-10 7.77751e-10 -0.001)
(-3.74748e-10 6.53379e-10 -0.001)
(-2.64929e-10 5.75468e-10 -0.001)
(-1.46242e-10 5.5312e-10 -0.001)
(-4.52581e-11 5.58146e-10 -0.001)
(-2.95401e-10 6.20528e-10 -0.001)
(-4.94017e-10 6.47806e-10 -0.001)
(-3.26537e-10 6.32433e-10 -0.001)
(-1.50808e-10 6.26719e-10 -0.001)
(-3.89441e-11 6.29982e-10 -0.001)
(-4.20371e-10 1.79011e-10 -0.001)
(-4.03652e-10 1.79565e-10 -0.001)
(-3.14391e-10 1.78904e-10 -0.001)
(-1.87854e-10 1.78688e-10 -0.001)
(-6.3736e-11 1.77053e-10 -0.001)
(-4.15218e-10 5.61032e-10 -0.001)
(-4.04323e-10 5.45928e-10 -0.001)
(-3.15706e-10 5.34173e-10 -0.001)
(-1.89625e-10 5.23708e-10 -0.001)
(-6.51287e-11 5.17623e-10 -0.001)
(-4.15379e-10 9.83158e-10 -0.001)
(-4.31124e-10 8.93594e-10 -0.001)
(-3.37072e-10 8.45192e-10 -0.001)
(-2.03657e-10 8.19363e-10 -0.001)
(-6.88643e-11 8.09415e-10 -0.001)
(-4.21767e-10 1.39881e-09 -0.001)
(-5.42305e-10 1.18799e-09 -0.001)
(-3.89876e-10 1.07724e-09 -0.001)
(-2.23816e-10 1.03946e-09 -0.001)
(-7.34981e-11 1.02643e-09 -0.001)
(-3.95105e-10 1.10028e-09 -0.001)
(-7.52623e-10 1.1559e-09 -0.001)
(-4.85494e-10 1.14078e-09 -0.001)
(-2.52455e-10 1.12937e-09 -0.001)
(-7.99457e-11 1.1226e-09 -0.001)
(-5.94361e-10 2.71926e-10 -0.001)
(-5.35041e-10 2.75716e-10 -0.001)
(-4.1584e-10 2.76853e-10 -0.001)
(-2.52895e-10 2.76716e-10 -0.001)
(-8.53316e-11 2.73608e-10 -0.001)
(-5.87522e-10 8.33021e-10 -0.001)
(-5.30946e-10 8.2452e-10 -0.001)
(-4.15545e-10 8.16539e-10 -0.001)
(-2.56032e-10 8.06072e-10 -0.001)
(-8.8071e-11 7.93601e-10 -0.001)
(-5.85464e-10 1.39958e-09 -0.001)
(-5.52424e-10 1.32171e-09 -0.001)
(-4.34991e-10 1.27938e-09 -0.001)
(-2.74715e-10 1.25287e-09 -0.001)
(-9.63884e-11 1.22985e-09 -0.001)
(-5.78868e-10 1.92814e-09 -0.001)
(-6.51223e-10 1.74757e-09 -0.001)
(-4.84296e-10 1.63891e-09 -0.001)
(-3.03171e-10 1.58849e-09 -0.001)
(-1.0872e-10 1.55162e-09 -0.001)
(-4.61078e-10 1.64051e-09 -0.001)
(-8.41652e-10 1.72606e-09 -0.001)
(-5.93909e-10 1.72457e-09 -0.001)
(-3.59003e-10 1.70208e-09 -0.001)
(-1.30321e-10 1.684e-09 -0.001)
(-8.24072e-10 3.8091e-10 -0.001)
(-7.16564e-10 3.89985e-10 -0.001)
(-5.48428e-10 3.94347e-10 -0.001)
(-3.40293e-10 3.94796e-10 -0.001)
(-1.16196e-10 3.90326e-10 -0.001)
(-8.14051e-10 1.13417e-09 -0.001)
(-7.04449e-10 1.14782e-09 -0.001)
(-5.44663e-10 1.14834e-09 -0.001)
(-3.44243e-10 1.14042e-09 -0.001)
(-1.20177e-10 1.12413e-09 -0.001)
(-8.03308e-10 1.83421e-09 -0.001)
(-7.03802e-10 1.80951e-09 -0.001)
(-5.56871e-10 1.78543e-09 -0.001)
(-3.63027e-10 1.76074e-09 -0.001)
(-1.30605e-10 1.73117e-09 -0.001)
(-7.81363e-10 2.41573e-09 -0.001)
(-7.53328e-10 2.33894e-09 -0.001)
(-5.9332e-10 2.26714e-09 -0.001)
(-3.95173e-10 2.2177e-09 -0.001)
(-1.46506e-10 2.17455e-09 -0.001)
(-6.36681e-10 2.32837e-09 -0.001)
(-8.52384e-10 2.4043e-09 -0.001)
(-6.7784e-10 2.41822e-09 -0.001)
(-4.51335e-10 2.3914e-09 -0.001)
(-1.69634e-10 2.37159e-09 -0.001)
(-1.1282e-09 5.21808e-10 -0.001)
(-9.7483e-10 5.35324e-10 -0.001)
(-7.39291e-10 5.41964e-10 -0.001)
(-4.64003e-10 5.42218e-10 -0.001)
(-1.5981e-10 5.36474e-10 -0.001)
(-1.11555e-09 1.5308e-09 -0.001)
(-9.565e-10 1.56114e-09 -0.001)
(-7.33722e-10 1.56588e-09 -0.001)
(-4.69372e-10 1.55696e-09 -0.001)
(-1.64885e-10 1.53936e-09 -0.001)
(-1.10107e-09 2.4139e-09 -0.001)
(-9.417e-10 2.43549e-09 -0.001)
(-7.44779e-10 2.42167e-09 -0.001)
(-4.88464e-10 2.3969e-09 -0.001)
(-1.74853e-10 2.37004e-09 -0.001)
(-1.08931e-09 3.09821e-09 -0.001)
(-9.48862e-10 3.09344e-09 -0.001)
(-7.72133e-10 3.05367e-09 -0.001)
(-5.16425e-10 3.01193e-09 -0.001)
(-1.87361e-10 2.9809e-09 -0.001)
(-1.00753e-09 3.31127e-09 -0.001)
(-9.86246e-10 3.30621e-09 -0.001)
(-8.25935e-10 3.31141e-09 -0.001)
(-5.55529e-10 3.28877e-09 -0.001)
(-2.00502e-10 3.27343e-09 -0.001)
(-1.52027e-09 7.19893e-10 -0.001)
(-1.31782e-09 7.31684e-10 -0.00100001)
(-1.00469e-09 7.3566e-10 -0.00100001)
(-6.35852e-10 7.33075e-10 -0.00100001)
(-2.2023e-10 7.24792e-10 -0.00100001)
(-1.51211e-09 2.09963e-09 -0.001)
(-1.30443e-09 2.12212e-09 -0.001)
(-1.00503e-09 2.11751e-09 -0.00100001)
(-6.46563e-10 2.10183e-09 -0.00100001)
(-2.27628e-10 2.08195e-09 -0.00100001)
(-1.50804e-09 3.26357e-09 -0.001)
(-1.30253e-09 3.28525e-09 -0.001)
(-1.0267e-09 3.26521e-09 -0.001)
(-6.68685e-10 3.23652e-09 -0.001)
(-2.36755e-10 3.21433e-09 -0.001)
(-1.53211e-09 4.12864e-09 -0.001)
(-1.30297e-09 4.13294e-09 -0.001)
(-1.05352e-09 4.10226e-09 -0.001)
(-6.91414e-10 4.06727e-09 -0.001)
(-2.44105e-10 4.04662e-09 -0.001)
(-1.53507e-09 4.6264e-09 -0.001)
(-1.32885e-09 4.53201e-09 -0.001)
(-1.09188e-09 4.50793e-09 -0.001)
(-7.16621e-10 4.48824e-09 -0.001)
(-2.50208e-10 4.47441e-09 -0.001)
(-2.03169e-09 9.94391e-10 -0.00100001)
(-1.76695e-09 9.98373e-10 -0.00100001)
(-1.36523e-09 9.95014e-10 -0.00100001)
(-8.72656e-10 9.87209e-10 -0.00100001)
(-3.04162e-10 9.76658e-10 -0.00100001)
(-2.03398e-09 2.88757e-09 -0.00100001)
(-1.76949e-09 2.88407e-09 -0.00100001)
(-1.37878e-09 2.86006e-09 -0.00100001)
(-8.90839e-10 2.83427e-09 -0.00100001)
(-3.13545e-10 2.81271e-09 -0.00100001)
(-2.05118e-09 4.45569e-09 -0.001)
(-1.79789e-09 4.4462e-09 -0.00100001)
(-1.41736e-09 4.40706e-09 -0.00100001)
(-9.16374e-10 4.37114e-09 -0.00100001)
(-3.21269e-10 4.35122e-09 -0.00100001)
(-2.10352e-09 5.59077e-09 -0.001)
(-1.81836e-09 5.56314e-09 -0.001)
(-1.45352e-09 5.52548e-09 -0.001)
(-9.38554e-10 5.49085e-09 -0.001)
(-3.25789e-10 5.47238e-09 -0.00100001)
(-2.17184e-09 6.33149e-09 -0.001)
(-1.86305e-09 6.19437e-09 -0.001)
(-1.48897e-09 6.13424e-09 -0.001)
(-9.58977e-10 6.10633e-09 -0.001)
(-3.29909e-10 6.08723e-09 -0.001)
(-2.7182e-09 1.36233e-09 -0.00100001)
(-2.3726e-09 1.35694e-09 -0.00100001)
(-1.8549e-09 1.34563e-09 -0.00100001)
(-1.19504e-09 1.33443e-09 -0.00100001)
(-4.17237e-10 1.32423e-09 -0.00100001)
(-2.73069e-09 3.94271e-09 -0.00100001)
(-2.39365e-09 3.91342e-09 -0.00100001)
(-1.88073e-09 3.8715e-09 -0.00100001)
(-1.21621e-09 3.84097e-09 -0.00100001)
(-4.25871e-10 3.82101e-09 -0.00100001)
(-2.76722e-09 6.08026e-09 -0.00100001)
(-2.44844e-09 6.03785e-09 -0.00100001)
(-1.93056e-09 5.97587e-09 -0.00100001)
(-1.24062e-09 5.93604e-09 -0.00100001)
(-4.31188e-10 5.91688e-09 -0.00100001)
(-2.82609e-09 7.58859e-09 -0.001)
(-2.49839e-09 7.54291e-09 -0.00100001)
(-1.98209e-09 7.48931e-09 -0.00100001)
(-1.2641e-09 7.45395e-09 -0.00100001)
(-4.34531e-10 7.43557e-09 -0.00100001)
(-2.99237e-09 8.63176e-09 -0.001)
(-2.54788e-09 8.44947e-09 -0.001)
(-2.01861e-09 8.36343e-09 -0.001)
(-1.27999e-09 8.32052e-09 -0.001)
(-4.36038e-10 8.29417e-09 -0.001)
(-3.65524e-09 1.84796e-09 -0.00100001)
(-3.20808e-09 1.83795e-09 -0.00100001)
(-2.52256e-09 1.82528e-09 -0.00100001)
(-1.6286e-09 1.81685e-09 -0.00100002)
(-5.6691e-10 1.80917e-09 -0.00100002)
(-3.67107e-09 5.34479e-09 -0.00100001)
(-3.23669e-09 5.30571e-09 -0.00100001)
(-2.54813e-09 5.26292e-09 -0.00100001)
(-1.64426e-09 5.23934e-09 -0.00100001)
(-5.72416e-10 5.22265e-09 -0.00100001)
(-3.71123e-09 8.2655e-09 -0.00100001)
(-3.29622e-09 8.2104e-09 -0.00100001)
(-2.59325e-09 8.14481e-09 -0.00100001)
(-1.66208e-09 8.11143e-09 -0.00100001)
(-5.75375e-10 8.09215e-09 -0.00100001)
(-3.75739e-09 1.03077e-08 -0.00100001)
(-3.35783e-09 1.02796e-08 -0.00100001)
(-2.64648e-09 1.02227e-08 -0.00100001)
(-1.68165e-09 1.01945e-08 -0.00100001)
(-5.77202e-10 1.01774e-08 -0.00100001)
(-3.98806e-09 1.17149e-08 -0.001)
(-3.38125e-09 1.15063e-08 -0.001)
(-2.67715e-09 1.14222e-08 -0.001)
(-1.68764e-09 1.1372e-08 -0.00100001)
(-5.73888e-10 1.13415e-08 -0.00100001)
(-4.93751e-09 2.49565e-09 -0.00100002)
(-4.36174e-09 2.49088e-09 -0.00100002)
(-3.43725e-09 2.48537e-09 -0.00100002)
(-2.21649e-09 2.48354e-09 -0.00100002)
(-7.68787e-10 2.47567e-09 -0.00100002)
(-4.94809e-09 7.22843e-09 -0.00100002)
(-4.37995e-09 7.20222e-09 -0.00100002)
(-3.45045e-09 7.17823e-09 -0.00100002)
(-2.22541e-09 7.16848e-09 -0.00100002)
(-7.7364e-10 7.15045e-09 -0.00100002)
(-4.9753e-09 1.12044e-08 -0.00100001)
(-4.4204e-09 1.1169e-08 -0.00100001)
(-3.47674e-09 1.11295e-08 -0.00100002)
(-2.23484e-09 1.11116e-08 -0.00100002)
(-7.75469e-10 1.1092e-08 -0.00100002)
(-4.99586e-09 1.40132e-08 -0.00100001)
(-4.45546e-09 1.40256e-08 -0.00100001)
(-3.50697e-09 1.40005e-08 -0.00100001)
(-2.24189e-09 1.39901e-08 -0.00100001)
(-7.73287e-10 1.39774e-08 -0.00100001)
(-5.16927e-09 1.58039e-08 -0.001)
(-4.43302e-09 1.56617e-08 -0.00100001)
(-3.51054e-09 1.56044e-08 -0.00100001)
(-2.23103e-09 1.55627e-08 -0.00100001)
(-7.62886e-10 1.55329e-08 -0.00100001)
(-6.69969e-09 3.38231e-09 -0.00100002)
(-5.95769e-09 3.38477e-09 -0.00100003)
(-4.70543e-09 3.38703e-09 -0.00100003)
(-3.03318e-09 3.38908e-09 -0.00100003)
(-1.0515e-09 3.37693e-09 -0.00100003)
(-6.70685e-09 9.80656e-09 -0.00100002)
(-5.96361e-09 9.79813e-09 -0.00100002)
(-4.70896e-09 9.79493e-09 -0.00100002)
(-3.04221e-09 9.7951e-09 -0.00100003)
(-1.05953e-09 9.77224e-09 -0.00100003)
(-6.71978e-09 1.52239e-08 -0.00100002)
(-5.98079e-09 1.52123e-08 -0.00100002)
(-4.71626e-09 1.52055e-08 -0.00100002)
(-3.04295e-09 1.5205e-08 -0.00100002)
(-1.0588e-09 1.51875e-08 -0.00100002)
(-6.72298e-09 1.91193e-08 -0.00100001)
(-5.98284e-09 1.91501e-08 -0.00100001)
(-4.71508e-09 1.91629e-08 -0.00100002)
(-3.0314e-09 1.91779e-08 -0.00100002)
(-1.04981e-09 1.91689e-08 -0.00100002)
(-6.78845e-09 2.13764e-08 -0.001)
(-5.93715e-09 2.13311e-08 -0.00100001)
(-4.68613e-09 2.13044e-08 -0.00100001)
(-3.00001e-09 2.12819e-08 -0.00100001)
(-1.0332e-09 2.12516e-08 -0.00100001)
(-9.13894e-09 4.60127e-09 -0.00100003)
(-8.17457e-09 4.60375e-09 -0.00100003)
(-6.4692e-09 4.60772e-09 -0.00100004)
(-4.17183e-09 4.60926e-09 -0.00100004)
(-1.44701e-09 4.59466e-09 -0.00100004)
(-9.1529e-09 1.33466e-08 -0.00100003)
(-8.18255e-09 1.33414e-08 -0.00100003)
(-6.47452e-09 1.3347e-08 -0.00100003)
(-4.18362e-09 1.33517e-08 -0.00100004)
(-1.45604e-09 1.33279e-08 -0.00100004)
(-9.16277e-09 2.07483e-08 -0.00100002)
(-8.18982e-09 2.07366e-08 -0.00100003)
(-6.46968e-09 2.0747e-08 -0.00100003)
(-4.17349e-09 2.07608e-08 -0.00100003)
(-1.44967e-09 2.07421e-08 -0.00100003)
(-9.16163e-09 2.6146e-08 -0.00100002)
(-8.18495e-09 2.61454e-08 -0.00100002)
(-6.44875e-09 2.61741e-08 -0.00100002)
(-4.14922e-09 2.62051e-08 -0.00100002)
(-1.43754e-09 2.61828e-08 -0.00100002)
(-9.16599e-09 2.90435e-08 -0.00100001)
(-8.16162e-09 2.90521e-08 -0.00100001)
(-6.40686e-09 2.90511e-08 -0.00100001)
(-4.11449e-09 2.9043e-08 -0.00100001)
(-1.42482e-09 2.89986e-08 -0.00100001)
(-1.24966e-08 6.2582e-09 -0.00100004)
(-1.12203e-08 6.25844e-09 -0.00100005)
(-8.8859e-09 6.26112e-09 -0.00100005)
(-5.72785e-09 6.26277e-09 -0.00100005)
(-1.98434e-09 6.25134e-09 -0.00100005)
(-1.2521e-08 1.81651e-08 -0.00100004)
(-1.12372e-08 1.81602e-08 -0.00100004)
(-8.8967e-09 1.81687e-08 -0.00100005)
(-5.73615e-09 1.8178e-08 -0.00100005)
(-1.98826e-09 1.81544e-08 -0.00100005)
(-1.25333e-08 2.82723e-08 -0.00100003)
(-1.12383e-08 2.82592e-08 -0.00100003)
(-8.88318e-09 2.82741e-08 -0.00100004)
(-5.71855e-09 2.8291e-08 -0.00100004)
(-1.9792e-09 2.82542e-08 -0.00100004)
(-1.25311e-08 3.56713e-08 -0.00100002)
(-1.1237e-08 3.56511e-08 -0.00100002)
(-8.86275e-09 3.56718e-08 -0.00100003)
(-5.70253e-09 3.56873e-08 -0.00100003)
(-1.9744e-09 3.56241e-08 -0.00100003)
(-1.25065e-08 3.95296e-08 -0.00100001)
(-1.12377e-08 3.95512e-08 -0.00100001)
(-8.84272e-09 3.95552e-08 -0.00100002)
(-5.69772e-09 3.95401e-08 -0.00100002)
(-1.97816e-09 3.94626e-08 -0.00100002)
(-1.70549e-08 8.5074e-09 -0.00100006)
(-1.53379e-08 8.5099e-09 -0.00100006)
(-1.21483e-08 8.51398e-09 -0.00100007)
(-7.82151e-09 8.51859e-09 -0.00100007)
(-2.7032e-09 8.50906e-09 -0.00100007)
(-1.70851e-08 2.47121e-08 -0.00100005)
(-1.53588e-08 2.4717e-08 -0.00100006)
(-1.21606e-08 2.47303e-08 -0.00100006)
(-7.82456e-09 2.47412e-08 -0.00100006)
(-2.70253e-09 2.47063e-08 -0.00100007)
(-1.70945e-08 3.849e-08 -0.00100004)
(-1.53494e-08 3.84864e-08 -0.00100005)
(-1.21448e-08 3.84975e-08 -0.00100005)
(-7.81352e-09 3.84991e-08 -0.00100005)
(-2.69899e-09 3.84278e-08 -0.00100006)
(-1.70905e-08 4.85682e-08 -0.00100003)
(-1.53535e-08 4.85421e-08 -0.00100003)
(-1.2145e-08 4.85311e-08 -0.00100004)
(-7.82132e-09 4.85063e-08 -0.00100004)
(-2.70478e-09 4.83974e-08 -0.00100004)
(-1.70805e-08 5.3826e-08 -0.00100001)
(-1.53864e-08 5.3827e-08 -0.00100002)
(-1.21748e-08 5.37974e-08 -0.00100002)
(-7.85406e-09 5.37551e-08 -0.00100002)
(-2.72051e-09 5.36373e-08 -0.00100003)
(-2.32096e-08 1.15748e-08 -0.00100008)
(-2.08856e-08 1.15815e-08 -0.00100008)
(-1.65485e-08 1.15895e-08 -0.00100009)
(-1.06456e-08 1.1595e-08 -0.0010001)
(-3.67375e-09 1.15786e-08 -0.0010001)
(-2.32437e-08 3.36305e-08 -0.00100007)
(-2.09088e-08 3.36444e-08 -0.00100008)
(-1.65637e-08 3.36614e-08 -0.00100008)
(-1.0654e-08 3.36652e-08 -0.00100009)
(-3.67627e-09 3.36075e-08 -0.00100009)
(-2.32429e-08 5.23895e-08 -0.00100006)
(-2.08956e-08 5.23823e-08 -0.00100006)
(-1.65562e-08 5.23812e-08 -0.00100007)
(-1.0656e-08 5.23628e-08 -0.00100007)
(-3.67817e-09 5.22608e-08 -0.00100008)
(-2.32339e-08 6.61029e-08 -0.00100004)
(-2.092e-08 6.60345e-08 -0.00100004)
(-1.65792e-08 6.59861e-08 -0.00100005)
(-1.06751e-08 6.59344e-08 -0.00100006)
(-3.68424e-09 6.57984e-08 -0.00100006)
(-2.32458e-08 7.32043e-08 -0.00100002)
(-2.10122e-08 7.31952e-08 -0.00100002)
(-1.66484e-08 7.31324e-08 -0.00100003)
(-1.07167e-08 7.30719e-08 -0.00100003)
(-3.69503e-09 7.29198e-08 -0.00100004)
(-3.15506e-08 1.57569e-08 -0.00100011)
(-2.84041e-08 1.57663e-08 -0.00100012)
(-2.25195e-08 1.57764e-08 -0.00100012)
(-1.4486e-08 1.57782e-08 -0.00100013)
(-4.99852e-09 1.57508e-08 -0.00100013)
(-3.15969e-08 4.57714e-08 -0.0010001)
(-2.84366e-08 4.57857e-08 -0.00100011)
(-2.2547e-08 4.58013e-08 -0.00100011)
(-1.45084e-08 4.57978e-08 -0.00100012)
(-5.00708e-09 4.57181e-08 -0.00100012)
(-3.159e-08 7.12795e-08 -0.00100008)
(-2.84301e-08 7.12547e-08 -0.00100009)
(-2.25464e-08 7.12458e-08 -0.00100009)
(-1.451e-08 7.12258e-08 -0.0010001)
(-5.0056e-09 7.11002e-08 -0.0010001)
(-3.15783e-08 8.99041e-08 -0.00100005)
(-2.84742e-08 8.98022e-08 -0.00100006)
(-2.25705e-08 8.97432e-08 -0.00100007)
(-1.45186e-08 8.96955e-08 -0.00100007)
(-5.0045e-09 8.95328e-08 -0.00100008)
(-3.15623e-08 9.94659e-08 -0.00100002)
(-2.85908e-08 9.94795e-08 -0.00100003)
(-2.26422e-08 9.94177e-08 -0.00100004)
(-1.45471e-08 9.93607e-08 -0.00100004)
(-5.00582e-09 9.91713e-08 -0.00100005)
(-4.28961e-08 2.14472e-08 -0.00100014)
(-3.86334e-08 2.14531e-08 -0.00100016)
(-3.06379e-08 2.14613e-08 -0.00100017)
(-1.97102e-08 2.14614e-08 -0.00100018)
(-6.80218e-09 2.14252e-08 -0.00100018)
(-4.29698e-08 6.22776e-08 -0.00100013)
(-3.86902e-08 6.22793e-08 -0.00100014)
(-3.06834e-08 6.22931e-08 -0.00100015)
(-1.97419e-08 6.22942e-08 -0.00100016)
(-6.81262e-09 6.21923e-08 -0.00100017)
(-4.29708e-08 9.69327e-08 -0.0010001)
(-3.86943e-08 9.68921e-08 -0.00100012)
(-3.06762e-08 9.68887e-08 -0.00100013)
(-1.97303e-08 9.68828e-08 -0.00100014)
(-6.80527e-09 9.67222e-08 -0.00100014)
(-4.29795e-08 1.22211e-07 -0.00100007)
(-3.87395e-08 1.22101e-07 -0.00100008)
(-3.06853e-08 1.22057e-07 -0.00100009)
(-1.97238e-08 1.22024e-07 -0.0010001)
(-6.79844e-09 1.21809e-07 -0.00100011)
(-4.29688e-08 1.35239e-07 -0.00100003)
(-3.8848e-08 1.35237e-07 -0.00100004)
(-3.07386e-08 1.35172e-07 -0.00100005)
(-1.97421e-08 1.35112e-07 -0.00100006)
(-6.79817e-09 1.34854e-07 -0.00100006)
(-5.83312e-08 2.91734e-08 -0.0010002)
(-5.25323e-08 2.9171e-08 -0.00100021)
(-4.16381e-08 2.91801e-08 -0.00100023)
(-2.67773e-08 2.9186e-08 -0.00100024)
(-9.23904e-09 2.91409e-08 -0.00100024)
(-5.84385e-08 8.46925e-08 -0.00100018)
(-5.26225e-08 8.46794e-08 -0.00100019)
(-4.16964e-08 8.47014e-08 -0.00100021)
(-2.68104e-08 8.47176e-08 -0.00100022)
(-9.24918e-09 8.45857e-08 -0.00100023)
(-5.8443e-08 1.31774e-07 -0.00100014)
(-5.26276e-08 1.31726e-07 -0.00100016)
(-4.16723e-08 1.31737e-07 -0.00100018)
(-2.67832e-08 1.31746e-07 -0.00100019)
(-9.23627e-09 1.31533e-07 -0.00100019)
(-5.84769e-08 1.66117e-07 -0.00100009)
(-5.26667e-08 1.65983e-07 -0.00100011)
(-4.16667e-08 1.65946e-07 -0.00100013)
(-2.67631e-08 1.65913e-07 -0.00100014)
(-9.2235e-09 1.65617e-07 -0.00100014)
(-5.85067e-08 1.83902e-07 -0.00100004)
(-5.27988e-08 1.83863e-07 -0.00100006)
(-4.17222e-08 1.83772e-07 -0.00100007)
(-2.67906e-08 1.83677e-07 -0.00100008)
(-9.23064e-09 1.83305e-07 -0.00100009)
(-7.92909e-08 3.96497e-08 -0.00100027)
(-7.13439e-08 3.96577e-08 -0.00100029)
(-5.64871e-08 3.96787e-08 -0.00100031)
(-3.6301e-08 3.96958e-08 -0.00100033)
(-1.25202e-08 3.96419e-08 -0.00100033)
(-7.94134e-08 1.15106e-07 -0.00100024)
(-7.14465e-08 1.15124e-07 -0.00100027)
(-5.65486e-08 1.15174e-07 -0.00100029)
(-3.63294e-08 1.15211e-07 -0.0010003)
(-1.25263e-08 1.15046e-07 -0.00100031)
(-7.93944e-08 1.79084e-07 -0.00100019)
(-7.1417e-08 1.79068e-07 -0.00100022)
(-5.64987e-08 1.79104e-07 -0.00100024)
(-3.62796e-08 1.79126e-07 -0.00100025)
(-1.2502e-08 1.78839e-07 -0.00100026)
(-7.94309e-08 2.25764e-07 -0.00100013)
(-7.14364e-08 2.25618e-07 -0.00100015)
(-5.64766e-08 2.25561e-07 -0.00100017)
(-3.62519e-08 2.25505e-07 -0.00100019)
(-1.24888e-08 2.25084e-07 -0.0010002)
(-7.94464e-08 2.50016e-07 -0.00100005)
(-7.16192e-08 2.49936e-07 -0.00100008)
(-5.65837e-08 2.49785e-07 -0.0010001)
(-3.63184e-08 2.4962e-07 -0.00100011)
(-1.25118e-08 2.49093e-07 -0.00100012)
(-1.07716e-07 5.38896e-08 -0.00100036)
(-9.6761e-08 5.39395e-08 -0.00100039)
(-7.65231e-08 5.39851e-08 -0.00100042)
(-4.91352e-08 5.4019e-08 -0.00100044)
(-1.6938e-08 5.39577e-08 -0.00100045)
(-1.0782e-07 1.56444e-07 -0.00100033)
(-9.68441e-08 1.5656e-07 -0.00100036)
(-7.65786e-08 1.56662e-07 -0.00100039)
(-4.91507e-08 1.56731e-07 -0.00100041)
(-1.69342e-08 1.56518e-07 -0.00100042)
(-1.07746e-07 2.43395e-07 -0.00100026)
(-9.67362e-08 2.43456e-07 -0.0010003)
(-7.64851e-08 2.4353e-07 -0.00100032)
(-4.90749e-08 2.43562e-07 -0.00100034)
(-1.69017e-08 2.43157e-07 -0.00100035)
(-1.07779e-07 3.0683e-07 -0.00100018)
(-9.67229e-08 3.06672e-07 -0.00100021)
(-7.64541e-08 3.06573e-07 -0.00100024)
(-4.90566e-08 3.06472e-07 -0.00100026)
(-1.68969e-08 3.05876e-07 -0.00100027)
(-1.07861e-07 3.40025e-07 -0.00100007)
(-9.69929e-08 3.39761e-07 -0.00100011)
(-7.66478e-08 3.39459e-07 -0.00100013)
(-4.91748e-08 3.3918e-07 -0.00100015)
(-1.6937e-08 3.38455e-07 -0.00100016)
(-1.46312e-07 7.32967e-08 -0.00100049)
(-1.31173e-07 7.34114e-08 -0.00100054)
(-1.03606e-07 7.35021e-08 -0.00100057)
(-6.64577e-08 7.35677e-08 -0.0010006)
(-2.28949e-08 7.34857e-08 -0.00100061)
(-1.46351e-07 2.12739e-07 -0.00100045)
(-1.31209e-07 2.12995e-07 -0.00100049)
(-1.03633e-07 2.13196e-07 -0.00100053)
(-6.64571e-08 2.13323e-07 -0.00100055)
(-2.28878e-08 2.1303e-07 -0.00100057)
(-1.46146e-07 3.3091e-07 -0.00100036)
(-1.30977e-07 3.31067e-07 -0.0010004)
(-1.03459e-07 3.31204e-07 -0.00100044)
(-6.63453e-08 3.31253e-07 -0.00100047)
(-2.28478e-08 3.30703e-07 -0.00100048)
(-1.46122e-07 4.17068e-07 -0.00100024)
(-1.30934e-07 4.16847e-07 -0.00100028)
(-1.03421e-07 4.16698e-07 -0.00100032)
(-6.63223e-08 4.16544e-07 -0.00100035)
(-2.28356e-08 4.15736e-07 -0.00100036)
(-1.46393e-07 4.62369e-07 -0.0010001)
(-1.31346e-07 4.61812e-07 -0.00100014)
(-1.03712e-07 4.61275e-07 -0.00100018)
(-6.64945e-08 4.60842e-07 -0.00100021)
(-2.28925e-08 4.59836e-07 -0.00100022)
(-1.98824e-07 9.97303e-08 -0.00100067)
(-1.77862e-07 9.9968e-08 -0.00100073)
(-1.40249e-07 1.00157e-07 -0.00100078)
(-8.98561e-08 1.00284e-07 -0.00100082)
(-3.09365e-08 1.00172e-07 -0.00100084)
(-1.98692e-07 2.89368e-07 -0.00100061)
(-1.77762e-07 2.89901e-07 -0.00100067)
(-1.40179e-07 2.90322e-07 -0.00100072)
(-8.9816e-08 2.90582e-07 -0.00100075)
(-3.09264e-08 2.90216e-07 -0.00100077)
(-1.98152e-07 4.49926e-07 -0.00100049)
(-1.77262e-07 4.50307e-07 -0.00100055)
(-1.39812e-07 4.50626e-07 -0.0010006)
(-8.95812e-08 4.50781e-07 -0.00100063)
(-3.08379e-08 4.50104e-07 -0.00100065)
(-1.97895e-07 5.66832e-07 -0.00100033)
(-1.77087e-07 5.66629e-07 -0.00100039)
(-1.39671e-07 5.6649e-07 -0.00100043)
(-8.94714e-08 5.66311e-07 -0.00100047)
(-3.0783e-08 5.6525e-07 -0.00100049)
(-1.98291e-07 6.2839e-07 -0.00100014)
(-1.77602e-07 6.27548e-07 -0.00100019)
(-1.4006e-07 6.2673e-07 -0.00100024)
(-8.97126e-08 6.26087e-07 -0.00100028)
(-3.08584e-08 6.24673e-07 -0.0010003)
(-2.70345e-07 1.35734e-07 -0.00100091)
(-2.41213e-07 1.36248e-07 -0.001001)
(-1.89794e-07 1.36649e-07 -0.00100106)
(-1.21417e-07 1.36916e-07 -0.00100111)
(-4.17575e-08 1.36806e-07 -0.00100114)
(-2.69782e-07 3.93686e-07 -0.00100083)
(-2.40736e-07 3.94863e-07 -0.00100091)
(-1.89456e-07 3.95791e-07 -0.00100098)
(-1.21222e-07 3.964e-07 -0.00100102)
(-4.16998e-08 3.96034e-07 -0.00100105)
(-2.68468e-07 6.11749e-07 -0.00100067)
(-2.39586e-07 6.12764e-07 -0.00100075)
(-1.88587e-07 6.13582e-07 -0.00100081)
(-1.20649e-07 6.14092e-07 -0.00100086)
(-4.14879e-08 6.13325e-07 -0.00100088)
(-2.67625e-07 7.70229e-07 -0.00100045)
(-2.38936e-07 7.70322e-07 -0.00100052)
(-1.8808e-07 7.7037e-07 -0.00100059)
(-1.20299e-07 7.70281e-07 -0.00100064)
(-4.13484e-08 7.68926e-07 -0.00100066)
(-2.68064e-07 8.53864e-07 -0.00100019)
(-2.39443e-07 8.52628e-07 -0.00100026)
(-1.88532e-07 8.51434e-07 -0.00100033)
(-1.20582e-07 8.50491e-07 -0.00100038)
(-4.14246e-08 8.48504e-07 -0.0010004)
(-3.67898e-07 1.84891e-07 -0.00100125)
(-3.27146e-07 1.8599e-07 -0.00100136)
(-2.56721e-07 1.8684e-07 -0.00100145)
(-1.63869e-07 1.87441e-07 -0.00100151)
(-5.61981e-08 1.87397e-07 -0.00100155)
(-3.66323e-07 5.35952e-07 -0.00100113)
(-3.25779e-07 5.38541e-07 -0.00100124)
(-2.55706e-07 5.40572e-07 -0.00100133)
(-1.6325e-07 5.42014e-07 -0.00100139)
(-5.60105e-08 5.41765e-07 -0.00100142)
(-3.633e-07 8.32007e-07 -0.00100091)
(-3.23163e-07 8.34506e-07 -0.00100101)
(-2.53686e-07 8.36471e-07 -0.0010011)
(-1.61953e-07 8.37838e-07 -0.00100117)
(-5.55781e-08 8.37043e-07 -0.0010012)
(-3.6107e-07 1.04662e-06 -0.00100061)
(-3.2136e-07 1.0475e-06 -0.00100071)
(-2.52308e-07 1.04807e-06 -0.0010008)
(-1.61066e-07 1.04836e-06 -0.00100086)
(-5.52796e-08 1.04666e-06 -0.00100089)
(-3.61329e-07 1.15985e-06 -0.00100026)
(-3.21709e-07 1.1581e-06 -0.00100036)
(-2.52695e-07 1.15643e-06 -0.00100045)
(-1.61302e-07 1.15511e-06 -0.00100051)
(-5.5341e-08 1.1523e-06 -0.00100054)
(-5.01333e-07 2.52229e-07 -0.0010017)
(-4.43797e-07 2.54585e-07 -0.00100185)
(-3.47102e-07 2.5634e-07 -0.00100197)
(-2.20867e-07 2.57708e-07 -0.00100206)
(-7.51834e-08 2.57798e-07 -0.00100211)
(-4.97514e-07 7.30438e-07 -0.00100154)
(-4.40446e-07 7.36127e-07 -0.00100169)
(-3.44547e-07 7.404e-07 -0.00100181)
(-2.19306e-07 7.4371e-07 -0.00100189)
(-7.47677e-08 7.43726e-07 -0.00100193)
(-4.90843e-07 1.13207e-06 -0.00100124)
(-4.34677e-07 1.13792e-06 -0.00100138)
(-3.40093e-07 1.14225e-06 -0.00100149)
(-2.16536e-07 1.14557e-06 -0.00100158)
(-7.39709e-08 1.14485e-06 -0.00100162)
(-4.8556e-07 1.42197e-06 -0.00100083)
(-4.3033e-07 1.42482e-06 -0.00100097)
(-3.36805e-07 1.4266e-06 -0.00100108)
(-2.14505e-07 1.42796e-06 -0.00100116)
(-7.3409e-08 1.42579e-06 -0.0010012)
(-4.84973e-07 1.57438e-06 -0.00100035)
(-4.30038e-07 1.57221e-06 -0.00100049)
(-3.36773e-07 1.56992e-06 -0.0010006)
(-2.14534e-07 1.56814e-06 -0.00100068)
(-7.34983e-08 1.56405e-06 -0.00100072)
(-6.84541e-07 3.44887e-07 -0.00100232)
(-6.0243e-07 3.50086e-07 -0.00100254)
(-4.69342e-07 3.53472e-07 -0.00100269)
(-2.97547e-07 3.56649e-07 -0.00100282)
(-9.91418e-08 3.56869e-07 -0.00100287)
(-6.75934e-07 9.97283e-07 -0.00100209)
(-5.94811e-07 1.00999e-06 -0.0010023)
(-4.63497e-07 1.0183e-06 -0.00100246)
(-2.93969e-07 1.02603e-06 -0.00100258)
(-9.84585e-08 1.02628e-06 -0.00100263)
(-6.61699e-07 1.54133e-06 -0.00100168)
(-5.825e-07 1.55487e-06 -0.00100187)
(-4.5404e-07 1.56349e-06 -0.00100202)
(-2.88157e-07 1.57151e-06 -0.00100214)
(-9.72251e-08 1.57063e-06 -0.00100219)
(-6.50079e-07 1.93103e-06 -0.00100113)
(-5.72732e-07 1.93878e-06 -0.00100131)
(-4.46728e-07 1.94288e-06 -0.00100145)
(-2.83809e-07 1.94716e-06 -0.00100156)
(-9.64674e-08 1.94398e-06 -0.00100161)
(-6.47439e-07 2.13476e-06 -0.00100048)
(-5.70646e-07 2.13273e-06 -0.00100066)
(-4.45424e-07 2.12922e-06 -0.0010008)
(-2.83201e-07 2.12711e-06 -0.0010009)
(-9.67743e-08 2.1207e-06 -0.00100096)
(-9.3753e-07 4.72982e-07 -0.00100316)
(-8.18668e-07 4.85261e-07 -0.0010035)
(-6.35365e-07 4.90723e-07 -0.00100367)
(-4.02124e-07 4.98774e-07 -0.00100389)
(-1.25028e-07 4.98448e-07 -0.00100392)
(-9.18994e-07 1.36505e-06 -0.00100285)
(-8.02096e-07 1.39505e-06 -0.00100316)
(-6.22717e-07 1.40855e-06 -0.00100333)
(-3.94065e-07 1.42827e-06 -0.00100353)
(-1.24667e-07 1.42693e-06 -0.00100357)
(-8.8922e-07 2.10023e-06 -0.00100228)
(-7.76539e-07 2.13258e-06 -0.00100255)
(-6.03053e-07 2.14662e-06 -0.00100272)
(-3.81711e-07 2.16743e-06 -0.00100289)
(-1.23994e-07 2.16379e-06 -0.00100294)
(-8.64566e-07 2.62022e-06 -0.00100153)
(-7.55813e-07 2.64065e-06 -0.00100177)
(-5.87687e-07 2.64722e-06 -0.00100194)
(-3.72714e-07 2.66017e-06 -0.00100208)
(-1.243e-07 2.6534e-06 -0.00100214)
(-8.57541e-07 2.88868e-06 -0.00100066)
(-7.49537e-07 2.88947e-06 -0.00100088)
(-5.83198e-07 2.88227e-06 -0.00100106)
(-3.70241e-07 2.88153e-06 -0.00100119)
(-1.25747e-07 2.86987e-06 -0.00100125)
(-1.29029e-06 6.49602e-07 -0.00100425)
(-1.11505e-06 6.82309e-07 -0.00100489)
(-8.6096e-07 6.86578e-07 -0.00100497)
(-5.52621e-07 7.09244e-07 -0.00100541)
(-1.35497e-07 7.04828e-07 -0.00100535)
(-1.25171e-06 1.87206e-06 -0.00100383)
(-1.07936e-06 1.95164e-06 -0.00100439)
(-8.34969e-07 1.9617e-06 -0.00100448)
(-5.3372e-07 2.01855e-06 -0.00100487)
(-1.38809e-07 2.00564e-06 -0.00100483)
(-1.18983e-06 2.86106e-06 -0.00100305)
(-1.02703e-06 2.94701e-06 -0.00100349)
(-7.95098e-07 2.95558e-06 -0.00100362)
(-5.0564e-07 3.01695e-06 -0.00100391)
(-1.44797e-07 2.99697e-06 -0.00100391)
(-1.13792e-06 3.54759e-06 -0.00100205)
(-9.84975e-07 3.60616e-06 -0.00100239)
(-7.64771e-07 3.60569e-06 -0.00100256)
(-4.86442e-07 3.6483e-06 -0.00100278)
(-1.52959e-07 3.62628e-06 -0.00100282)
(-1.12203e-06 3.89243e-06 -0.0010009)
(-9.68921e-07 3.9085e-06 -0.00100117)
(-7.52504e-07 3.88636e-06 -0.00100137)
(-4.77698e-07 3.89578e-06 -0.00100153)
(-1.59683e-07 3.86882e-06 -0.0010016)
(-1.78655e-06 8.88149e-07 -0.00100561)
(-1.53259e-06 9.82126e-07 -0.00100701)
(-1.15876e-06 9.68841e-07 -0.00100666)
(-7.97483e-07 1.03297e-06 -0.00100768)
(-7.40139e-08 1.01346e-06 -0.00100733)
(-1.70989e-06 2.56382e-06 -0.00100505)
(-1.45297e-06 2.79464e-06 -0.00100623)
(-1.10872e-06 2.75399e-06 -0.00100595)
(-7.5153e-07 2.92252e-06 -0.00100683)
(-9.15211e-08 2.86488e-06 -0.00100654)
(-1.58172e-06 3.87996e-06 -0.00100397)
(-1.34409e-06 4.13356e-06 -0.00100481)
(-1.03188e-06 4.07271e-06 -0.00100469)
(-6.81718e-07 4.26244e-06 -0.00100531)
(-1.25505e-07 4.17794e-06 -0.00100513)
(-1.47123e-06 4.77258e-06 -0.0010027)
(-1.26038e-06 4.96053e-06 -0.00100324)
(-9.79473e-07 4.89744e-06 -0.0010033)
(-6.37602e-07 5.04394e-06 -0.0010037)
(-1.66701e-07 4.96509e-06 -0.00100367)
(-1.43877e-06 5.19561e-06 -0.00100119)
(-1.21921e-06 5.28244e-06 -0.00100149)
(-9.47852e-07 5.19489e-06 -0.00100168)
(-6.0354e-07 5.25047e-06 -0.00100187)
(-1.9355e-07 5.17338e-06 -0.00100193)
(-2.47485e-06 1.19884e-06 -0.00100719)
(-2.1631e-06 1.45524e-06 -0.00101031)
(-1.53046e-06 1.38438e-06 -0.00100885)
(-1.24264e-06 1.54904e-06 -0.00101114)
(1.91215e-07 1.48921e-06 -0.0010101)
(-2.33371e-06 3.50238e-06 -0.0010065)
(-1.97741e-06 4.14081e-06 -0.00100906)
(-1.43676e-06 3.92166e-06 -0.00100778)
(-1.13498e-06 4.38154e-06 -0.00100976)
(1.3544e-07 4.19635e-06 -0.00100885)
(-2.07386e-06 5.21008e-06 -0.00100494)
(-1.74491e-06 5.92968e-06 -0.00100668)
(-1.29024e-06 5.60857e-06 -0.00100584)
(-9.59274e-07 6.14357e-06 -0.00100715)
(1.80754e-08 5.86472e-06 -0.00100655)
(-1.83573e-06 6.33316e-06 -0.00100346)
(-1.57909e-06 6.92854e-06 -0.00100447)
(-1.2223e-06 6.61914e-06 -0.00100414)
(-8.64828e-07 7.08253e-06 -0.00100498)
(-1.26297e-07 6.83355e-06 -0.00100477)
(-1.77561e-06 6.78764e-06 -0.00100145)
(-1.4589e-06 7.15083e-06 -0.00100174)
(-1.13539e-06 6.81207e-06 -0.00100181)
(-7.28837e-07 7.028e-06 -0.001002)
(-2.12575e-07 6.79606e-06 -0.001002)
(-3.38758e-06 1.56639e-06 -0.0010089)