/*--------------------------------*- C++ -*----------------------------------*\
| =========                 |                                                 |
| \\      /  F ield         | OpenFOAM: The Open Source CFD Toolbox           |
|  \\    /   O peration     | Version:  5.x                                   |
|   \\  /    A nd           | Web:      www.OpenFOAM.org                      |
|    \\/     M anipulation  |                                                 |
\*---------------------------------------------------------------------------*/
FoamFile
{
    version     2.0;
    format      ascii;
    class       volScalarField;
    location    "300";
    object      p;
}
// * * * * * * * * * * * * * * * * * * * * * * * * * * * * * * * * * * * * * //

dimensions      [0 2 -2 0 0 0 0];

internalField   nonuniform List<scalar> 
90
(
3.90304e-10
1.12818e-09
1.74468e-09
2.17284e-09
2.36073e-09
2.27829e-09
1.91986e-09
1.30434e-09
4.72818e-10
-5.16365e-10
-1.59513e-09
-2.69335e-09
-3.74771e-09
-4.71117e-09
-5.5617e-09
-6.30961e-09
-7.00306e-09
-7.7318e-09
-8.63082e-09
-9.88723e-09
-1.17505e-08
-1.44986e-08
-1.84784e-08
-2.40174e-08
-3.15764e-08
-4.17463e-08
-5.52958e-08
-7.32368e-08
-9.691e-08
-1.28094e-07
-1.69146e-07
-2.23192e-07
-2.94235e-07
-3.86606e-07
-5.05357e-07
-6.856e-07
-1.02425e-06
-1.48566e-06
1.2545e-06
-1.00627e-05
4.05495e-06
0.000443759
0.00124336
0.00195022
0.0026956
0.00367216
0.00469599
0.00563936
0.0063909
0.00696634
0.00772262
0.00845966
0.00857022
0.00857093
0.00857145
0.008572
0.00857245
0.00857279
0.00857303
0.00857322
0.00857335
0.00857345
0.00857352
0.00857358
0.00857362
0.00857365
0.00857367
0.00857369
0.0085737
0.00857371
0.00857371
0.00857372
0.00857372
0.00857372
0.00857373
0.00857373
0.00857373
0.00857373
0.00857373
0.00857373
0.00857373
0.00857373
0.00857373
0.00857373
0.00857373
0.00857373
0.00857373
0.00857373
0.00857373
0.00857373
)
;

boundaryField
{
    inlet
    {
        type            zeroGradient;
    }
    outlet
    {
        type            fixedValue;
        value           uniform 0;
    }
    repeat_boundary
    {
        type            zeroGradient;
    }
    procBoundary0to1
    {
        type            processor;
        value           nonuniform List<scalar> 
90
(
4.00126e-10
1.16463e-09
1.83092e-09
2.34508e-09
2.66406e-09
2.76199e-09
2.63248e-09
2.28939e-09
1.76577e-09
1.11133e-09
3.88862e-10
-3.31896e-10
-9.8064e-10
-1.49236e-09
-1.81228e-09
-1.89912e-09
-1.72599e-09
-1.27818e-09
-5.46122e-10
4.90703e-10
1.88313e-09
3.68812e-09
6.01922e-09
8.95865e-09
1.26802e-08
1.74793e-08
2.37602e-08
3.20637e-08
4.31129e-08
5.78685e-08
7.75969e-08
1.03961e-07
1.39338e-07
1.8811e-07
2.56593e-07
3.26012e-07
2.4685e-07
-1.96111e-07
5.01214e-06
-1.1371e-05
1.5445e-05
0.000596575
0.00134153
0.00218511
0.00302117
0.00394504
0.0049503
0.00571861
0.00635892
0.00712122
0.00782945
0.00847417
0.00857676
0.00857453
0.00857392
0.00857383
0.00857378
0.00857374
0.00857371
0.0085737
0.00857369
0.00857369
0.00857369
0.00857369
0.0085737
0.0085737
0.0085737
0.00857371
0.00857371
0.00857371
0.00857372
0.00857372
0.00857372
0.00857372
0.00857372
0.00857373
0.00857373
0.00857373
0.00857373
0.00857373
0.00857373
0.00857373
0.00857373
0.00857373
0.00857373
0.00857373
0.00857373
0.00857373
0.00857373
0.00857373
)
;
    }
    procBoundary0to2
    {
        type            processor;
        value           nonuniform List<scalar> 
90
(
4.13322e-10
1.2062e-09
1.9017e-09
2.44673e-09
2.79891e-09
2.93269e-09
2.84181e-09
2.54009e-09
2.06036e-09
1.4517e-09
7.75178e-10
9.83502e-11
-5.1096e-10
-9.91037e-10
-1.2921e-09
-1.38097e-09
-1.24397e-09
-8.87807e-10
-3.38288e-10
3.63092e-10
1.16434e-09
2.00978e-09
2.84554e-09
3.62428e-09
4.30336e-09
4.84118e-09
5.19106e-09
5.29116e-09
5.05045e-09
4.33004e-09
2.91224e-09
4.53602e-10
-3.36157e-09
-7.54663e-09
-9.67793e-09
-3.59454e-08
-2.6949e-07
-1.00572e-06
4.46937e-06
-1.39154e-05
1.47648e-05
0.00069751
0.00140647
0.00212082
0.00293031
0.00376816
0.00453536
0.00525759
0.0060989
0.00697171
0.00772912
0.00840213
0.00856645
0.0085746
0.00857279
0.00857302
0.00857324
0.00857338
0.00857349
0.00857356
0.00857362
0.00857366
0.00857369
0.00857371
0.00857372
0.00857373
0.00857373
0.00857373
0.00857374
0.00857374
0.00857374
0.00857374
0.00857374
0.00857374
0.00857374
0.00857374
0.00857373
0.00857373
0.00857373
0.00857373
0.00857373
0.00857373
0.00857373
0.00857373
0.00857373
0.00857373
0.00857373
0.00857373
0.00857373
0.00857373
)
;
    }
}


// ************************************************************************* //
