/*--------------------------------*- C++ -*----------------------------------*\
| =========                 |                                                 |
| \\      /  F ield         | OpenFOAM: The Open Source CFD Toolbox           |
|  \\    /   O peration     | Version:  5.x                                   |
|   \\  /    A nd           | Web:      www.OpenFOAM.org                      |
|    \\/     M anipulation  |                                                 |
\*---------------------------------------------------------------------------*/
FoamFile
{
    version     2.0;
    format      ascii;
    class       surfaceScalarField;
    location    "300";
    object      phi;
}
// * * * * * * * * * * * * * * * * * * * * * * * * * * * * * * * * * * * * * //

dimensions      [0 3 -1 0 0 0 0];

internalField   nonuniform List<scalar> 
89
(
-0.0250001
-0.0250001
-0.025
-0.0249999
-0.0249999
-0.0249997
-0.0249996
-0.0249995
-0.0249994
-0.0249992
-0.024999
-0.0249987
-0.0249984
-0.0249979
-0.0249973
-0.0249964
-0.0249953
-0.0249938
-0.0249917
-0.024989
-0.0249855
-0.0249807
-0.0249743
-0.0249658
-0.0249545
-0.0249393
-0.0249192
-0.0248923
-0.0248565
-0.0248087
-0.024745
-0.02466
-0.0245465
-0.0243951
-0.0241921
-0.0239245
-0.0235742
-0.0231547
-0.0224343
-0.0230629
-0.0230173
-0.0225119
-0.0222334
-0.0217251
-0.0212089
-0.0209059
-0.0209164
-0.0213493
-0.0217804
-0.0216278
-0.021593
-0.0217967
-0.0220154
-0.0224597
-0.0230602
-0.0235335
-0.0238898
-0.0241584
-0.0243612
-0.0245145
-0.0246304
-0.0247181
-0.0247846
-0.024835
-0.0248733
-0.0249025
-0.0249248
-0.0249418
-0.0249549
-0.024965
-0.0249728
-0.0249788
-0.0249835
-0.0249871
-0.02499
-0.0249922
-0.0249939
-0.0249952
-0.0249963
-0.0249971
-0.0249977
-0.0249982
-0.0249986
-0.0249989
-0.0249992
-0.0249994
-0.0249995
-0.0249997
-0.0249998
)
;

boundaryField
{
    inlet
    {
        type            calculated;
        value           uniform -0.0249999;
    }
    outlet
    {
        type            calculated;
        value           uniform 0.0250001;
    }
    repeat_boundary
    {
        type            calculated;
        value           uniform 0;
    }
    procBoundary0to1
    {
        type            processor;
        value           nonuniform List<scalar> 
90
(
8.00984e-09
1.74187e-08
2.76218e-08
3.78652e-08
4.81376e-08
5.84743e-08
6.88939e-08
7.93437e-08
8.96006e-08
9.95143e-08
1.09627e-07
1.20601e-07
1.3218e-07
1.43787e-07
1.54255e-07
1.61591e-07
1.62762e-07
1.53487e-07
1.28543e-07
8.76982e-08
-9.80127e-10
-1.75652e-07
-4.97361e-07
-9.64715e-07
-1.64795e-06
-2.63618e-06
-4.05121e-06
-6.05901e-06
-8.88593e-06
-1.28401e-05
-1.83404e-05
-2.59553e-05
-3.64619e-05
-5.09518e-05
-7.10398e-05
-9.68716e-05
-0.000130621
-0.000160956
-0.000294902
0.000272437
-2.09774e-05
-0.000189242
-8.43812e-05
-0.000279439
-0.000290795
-0.000215358
-0.000176681
-4.57353e-05
9.79479e-05
-0.000165718
-7.01811e-05
5.74574e-05
3.48533e-05
0.000365133
0.000403761
0.000310537
0.000237661
0.000182632
0.000140576
0.000108373
8.36889e-05
6.47415e-05
5.01734e-05
3.89526e-05
3.02941e-05
2.36003e-05
1.84153e-05
1.43911e-05
1.1262e-05
8.82482e-06
6.92376e-06
5.43902e-06
4.2782e-06
3.36982e-06
2.65842e-06
2.10085e-06
1.66345e-06
1.31995e-06
1.04984e-06
8.37076e-07
6.69243e-07
5.36699e-07
4.31976e-07
3.49334e-07
2.84426e-07
2.33968e-07
1.95501e-07
1.6706e-07
1.46404e-07
1.35472e-07
)
;
    }
    procBoundary0to2
    {
        type            processor;
        value           nonuniform List<scalar> 
90
(
-7.98932e-09
-1.80845e-08
-3.04496e-08
-4.54513e-08
-6.41433e-08
-8.76263e-08
-1.16998e-07
-1.53713e-07
-1.99549e-07
-2.56772e-07
-3.28283e-07
-4.1782e-07
-5.30213e-07
-6.71728e-07
-8.50514e-07
-1.07717e-06
-1.36544e-06
-1.73321e-06
-2.2036e-06
-2.80656e-06
-3.58055e-06
-4.57593e-06
-5.85881e-06
-7.51682e-06
-9.66364e-06
-1.24478e-05
-1.6064e-05
-2.07679e-05
-2.68957e-05
-3.48902e-05
-4.53346e-05
-5.89988e-05
-7.69088e-05
-0.000100493
-0.00013191
-0.00017072
-0.000219746
-0.00025864
-0.000425678
0.000355983
-2.46777e-05
-0.000316131
-0.000194171
-0.000228834
-0.000225454
-8.76524e-05
0.000187131
0.000478636
0.000333234
1.3093e-05
3.54609e-05
0.000146185
0.000183979
7.91372e-05
0.000196738
0.000162767
0.000118651
8.59978e-05
6.22469e-05
4.48908e-05
3.22205e-05
2.30015e-05
1.6328e-05
1.15374e-05
8.10766e-06
5.65532e-06
3.91669e-06
2.6928e-06
1.83712e-06
1.24059e-06
8.262e-07
5.40032e-07
3.44176e-07
2.11866e-07
1.24119e-07
6.73792e-08
3.18886e-08
1.04485e-08
-2.86914e-09
-9.00579e-09
-1.31234e-08
-1.65316e-08
-1.93629e-08
-2.09386e-08
-2.19834e-08
-2.28547e-08
-2.36516e-08
-2.48377e-08
-2.59792e-08
-2.55693e-08
)
;
    }
}


// ************************************************************************* //
