/*--------------------------------*- C++ -*----------------------------------*\
| =========                 |                                                 |
| \\      /  F ield         | OpenFOAM: The Open Source CFD Toolbox           |
|  \\    /   O peration     | Version:  5.x                                   |
|   \\  /    A nd           | Web:      www.OpenFOAM.org                      |
|    \\/     M anipulation  |                                                 |
\*---------------------------------------------------------------------------*/
FoamFile
{
    version     2.0;
    format      ascii;
    class       volScalarField;
    location    "800";
    object      p;
}
// * * * * * * * * * * * * * * * * * * * * * * * * * * * * * * * * * * * * * //

dimensions      [0 2 -2 0 0 0 0];

internalField   nonuniform List<scalar> 
90
(
0.0167947
0.0151708
0.00545736
-0.00639464
-0.018615
-0.0313599
-0.044766
-0.0591077
-0.0747002
-0.0917646
-0.11041
-0.130612
-0.152279
-0.175315
-0.19956
-0.224743
-0.250709
-0.277487
-0.305082
-0.33339
-0.362272
-0.391662
-0.421526
-0.451863
-0.48269
-0.51404
-0.545953
-0.578464
-0.611609
-0.645416
-0.679916
-0.715139
-0.751114
-0.787867
-0.825425
-0.863814
-0.903056
-0.943177
-0.984198
-1.02614
-1.06904
-1.11289
-1.15774
-1.2036
-1.25048
-1.2984
-1.34738
-1.39744
-1.44858
-1.50082
-1.55417
-1.60864
-1.66423
-1.72096
-1.77882
-1.83782
-1.89796
-1.95925
-2.02167
-2.08524
-2.14994
-2.21577
-2.28273
-2.35081
-2.41999
-2.49027
-2.56164
-2.63406
-2.70753
-2.78202
-2.85751
-2.93396
-3.01129
-3.08938
-3.16822
-3.24823
-3.32988
-3.41326
-3.49831
-3.58497
-3.67324
-3.76315
-3.85471
-3.94772
-4.04192
-4.13827
-4.24
-4.34823
-4.44776
-4.48979
)
;

boundaryField
{
    inlet
    {
        type            zeroGradient;
    }
    outlet
    {
        type            fixedValue;
        value           uniform 0;
    }
    repeat_boundary
    {
        type            zeroGradient;
    }
    procBoundary3to1
    {
        type            processor;
        value           nonuniform List<scalar> 
90
(
0.00237891
-0.01425
-0.0250353
-0.0389009
-0.0512722
-0.0633993
-0.0750637
-0.0877783
-0.1024
-0.119343
-0.138262
-0.158439
-0.179064
-0.199862
-0.221779
-0.244368
-0.266839
-0.290411
-0.315751
-0.341463
-0.36659
-0.392011
-0.417841
-0.444218
-0.47126
-0.49907
-0.527717
-0.557237
-0.587657
-0.618995
-0.651258
-0.684454
-0.718587
-0.753661
-0.789682
-0.826655
-0.864587
-0.903483
-0.943353
-0.984205
-1.02605
-1.06889
-1.11274
-1.15761
-1.20351
-1.25045
-1.29843
-1.34748
-1.3976
-1.44879
-1.50107
-1.55445
-1.60893
-1.66452
-1.72123
-1.77906
-1.83803
-1.89813
-1.95937
-2.02175
-2.08529
-2.14999
-2.21585
-2.28287
-2.35107
-2.42045
-2.49102
-2.56278
-2.63574
-2.70992
-2.78533
-2.86198
-2.93988
-3.01907
-3.09956
-3.18141
-3.26467
-3.34939
-3.4356
-3.52334
-3.61268
-3.70366
-3.79619
-3.88993
-3.98492
-4.08318
-4.18798
-4.29555
-4.38126
-4.3971
)
;
    }
    procBoundary3to2
    {
        type            processor;
        value           nonuniform List<scalar> 
90
(
-0.0529549
-0.0716762
-0.0693926
-0.0655554
-0.0631541
-0.0622647
-0.0623391
-0.0645977
-0.0701114
-0.0799209
-0.0938534
-0.110903
-0.129898
-0.149861
-0.171182
-0.194031
-0.21685
-0.239983
-0.265206
-0.291751
-0.317485
-0.342406
-0.367075
-0.39177
-0.416836
-0.442514
-0.468971
-0.496304
-0.524586
-0.55386
-0.584151
-0.615469
-0.647818
-0.681198
-0.715604
-0.751034
-0.787481
-0.824942
-0.863413
-0.90289
-0.943371
-0.984855
-1.02734
-1.07083
-1.11533
-1.16084
-1.20737
-1.25492
-1.3035
-1.35311
-1.40377
-1.45547
-1.50823
-1.56205
-1.61694
-1.67291
-1.72995
-1.78809
-1.84731
-1.90764
-1.96906
-2.0316
-2.09524
-2.16
-2.22588
-2.29288
-2.36102
-2.43029
-2.5007
-2.57226
-2.64495
-2.71879
-2.79382
-2.87018
-2.94783
-3.02633
-3.10526
-3.18455
-3.26422
-3.34422
-3.4243
-3.50404
-3.58322
-3.66233
-3.74125
-3.81335
-3.86747
-3.92128
-4.05394
-4.28736
)
;
    }
}


// ************************************************************************* //
