/*--------------------------------*- C++ -*----------------------------------*\
  =========                 |
  \\      /  F ield         | OpenFOAM: The Open Source CFD Toolbox
   \\    /   O peration     | Website:  https://openfoam.org
    \\  /    A nd           | Version:  9
     \\/     M anipulation  |
\*---------------------------------------------------------------------------*/
FoamFile
{
    format      ascii;
    class       surfaceScalarField;
    location    "0.1";
    object      phi;
}
// * * * * * * * * * * * * * * * * * * * * * * * * * * * * * * * * * * * * * //

dimensions      [0 3 -1 0 0 0 0];

internalField   nonuniform List<scalar> 
25100
(
-4.12361e-17
-3.79154e-17
-9.99998e-10
-1.60334e-16
-5.91105e-17
-9.99998e-10
-2.29749e-16
-6.89776e-17
-9.99998e-10
-2.72727e-16
-7.43565e-17
-9.99999e-10
-2.62066e-16
-7.74528e-17
-9.99999e-10
-2.38197e-16
-7.04674e-17
-1e-09
-1.94628e-16
-5.76978e-17
-1e-09
-1.37773e-16
-5.06562e-17
-1e-09
-7.17349e-17
-4.84377e-17
-1e-09
-4.65062e-17
-1e-09
-6.24402e-17
-1.6026e-16
-9.99998e-10
-1.70184e-16
-1.74886e-16
-9.99998e-10
-2.3579e-16
-1.67502e-16
-9.99998e-10
-2.76449e-16
-1.50335e-16
-9.99999e-10
-2.56153e-16
-1.34812e-16
-9.99999e-10
-2.25977e-16
-1.26864e-16
-1e-09
-1.88109e-16
-1.0464e-16
-1e-09
-1.36041e-16
-9.2505e-17
-1e-09
-6.98505e-17
-9.09449e-17
-1e-09
-9.23917e-17
-1e-09
-7.69798e-17
-2.29693e-16
-9.99998e-10
-1.63115e-16
-2.38245e-16
-9.99998e-10
-2.18698e-16
-2.19742e-16
-9.99999e-10
-2.60617e-16
-1.86704e-16
-9.99999e-10
-2.48531e-16
-1.61908e-16
-1e-09
-2.03996e-16
-1.62452e-16
-1e-09
-1.75329e-16
-1.45198e-16
-1e-09
-1.34594e-16
-1.26491e-16
-1e-09
-7.1599e-17
-1.23416e-16
-1e-09
-1.25856e-16
-1e-09
-8.53442e-17
-2.70667e-16
-9.99999e-10
-1.44993e-16
-2.65243e-16
-9.99999e-10
-1.85704e-16
-2.42582e-16
-9.99999e-10
-2.3455e-16
-2.15786e-16
-9.99999e-10
-2.51841e-16
-2.04183e-16
-1e-09
-1.86584e-16
-1.42223e-16
-1e-09
-1.55334e-16
-1.46184e-16
-1e-09
-1.31169e-16
-1.48573e-16
-1e-09
-7.41519e-17
-1.47981e-16
-1e-09
-1.49776e-16
-1e-09
-7.81647e-17
-2.07086e-16
-9.99999e-10
-1.205e-16
-1.99531e-16
-9.99999e-10
-1.57681e-16
-1.99291e-16
-9.99999e-10
-2.21078e-16
-2.12093e-16
-1e-09
-2.03937e-16
-1.67814e-16
-1e-09
-2.00058e-16
-2.01246e-16
-1e-09
-1.59875e-16
-1.68423e-16
-1e-09
-1.31532e-16
-1.90497e-16
-1e-09
-7.68689e-17
-1.94342e-16
-1e-09
-1.90706e-16
-1e-09
-7.02167e-17
-1.37968e-16
-1e-09
-1.20155e-16
-1.18686e-16
-1e-09
-1.68378e-16
-1.16749e-16
-1e-09
-1.68415e-16
-1.26297e-16
-1e-09
-2.3783e-16
-1.54528e-16
-1e-09
-1.7489e-16
-1.39066e-16
-1e-09
-1.84933e-16
-1.88009e-16
-1e-09
-1.35529e-16
-1.97385e-16
-1e-09
-7.40732e-17
-1.88995e-16
-1e-09
-1.8226e-16
-1e-09
-5.08879e-17
-9.88689e-17
-1e-09
-1.19444e-16
-8.91515e-17
-1e-09
-1.78427e-16
-9.61916e-17
-1e-09
-1.89294e-16
-1.02031e-16
-1e-09
-2.07673e-16
-1.23316e-16
-1e-09
-2.25405e-16
-1.57378e-16
-1e-09
-1.90185e-16
-1.67672e-16
-1e-09
-1.25998e-16
-1.55565e-16
-1e-09
-6.69232e-17
-1.47731e-16
-1e-09
-1.44948e-16
-1e-09
-4.0628e-17
-6.58026e-17
-1e-09
-1.26784e-16
-6.75954e-17
-1e-09
-1.85008e-16
-8.27181e-17
-1e-09
-2.10782e-16
-9.82338e-17
-1e-09
-2.39108e-16
-1.10156e-16
-1e-09
-2.39626e-16
-1.19795e-16
-1e-09
-1.78173e-16
-1.1379e-16
-1e-09
-1.18993e-16
-1.06106e-16
-1e-09
-6.48062e-17
-1.00171e-16
-1e-09
-1.00558e-16
-1e-09
-4.19561e-17
-3.66133e-17
-1e-09
-1.41897e-16
-4.50825e-17
-1e-09
-2.00221e-16
-5.59921e-17
-1e-09
-2.22856e-16
-6.57874e-17
-1e-09
-2.48413e-16
-7.10864e-17
-1e-09
-2.34225e-16
-6.78503e-17
-1e-09
-1.69927e-16
-6.18636e-17
-1e-09
-1.13119e-16
-5.83458e-17
-1e-09
-6.51581e-17
-5.83884e-17
-1e-09
-6.27138e-17
-1e-09
-5.01844e-17
-1e-09
-1.52159e-16
-1e-09
-2.09321e-16
-1e-09
-2.27737e-16
-1e-09
-2.44129e-16
-1e-09
-2.2774e-16
-1e-09
-1.66026e-16
-1e-09
-1.13058e-16
-1e-09
-6.94457e-17
-1e-09
-1e-09
-1.34183e-16
-1.25609e-16
-9.99998e-10
-4.39173e-16
-1.82238e-16
-9.99998e-10
-6.14e-16
-1.97374e-16
-9.99998e-10
-6.97899e-16
-1.95296e-16
-9.99999e-10
-6.95725e-16
-1.84503e-16
-9.99999e-10
-6.35416e-16
-1.65352e-16
-1e-09
-5.16587e-16
-1.32635e-16
-1e-09
-3.65941e-16
-1.17379e-16
-1e-09
-1.89453e-16
-1.12866e-16
-1e-09
-1.11356e-16
-1e-09
-1.90845e-16
-4.36309e-16
-9.99998e-10
-4.54692e-16
-4.61955e-16
-9.99998e-10
-6.13653e-16
-4.32667e-16
-9.99998e-10
-6.8827e-16
-3.78448e-16
-9.99999e-10
-6.79397e-16
-3.2731e-16
-9.99999e-10
-6.04631e-16
-3.14167e-16
-1e-09
-5.03342e-16
-2.65218e-16
-1e-09
-3.62252e-16
-2.44245e-16
-1e-09
-1.87932e-16
-2.4588e-16
-1e-09
-2.54702e-16
-1e-09
-2.16405e-16
-6.03766e-16
-9.99998e-10
-4.26169e-16
-6.06269e-16
-9.99998e-10
-5.59642e-16
-5.48495e-16
-9.99999e-10
-6.33331e-16
-4.59348e-16
-9.99999e-10
-6.68337e-16
-4.0226e-16
-9.99999e-10
-5.56722e-16
-3.98333e-16
-1e-09
-4.81181e-16
-3.78205e-16
-1e-09
-3.63842e-16
-3.48861e-16
-1e-09
-1.9759e-16
-3.44888e-16
-1e-09
-3.53325e-16
-1e-09
-2.18485e-16
-6.78836e-16
-9.99999e-10
-3.69349e-16
-6.42102e-16
-9.99999e-10
-4.7067e-16
-5.75397e-16
-9.99999e-10
-5.66257e-16
-5.13815e-16
-9.99999e-10
-6.77499e-16
-5.05423e-16
-1e-09
-5.33345e-16
-3.71691e-16
-1e-09
-4.49201e-16
-3.87602e-16
-1e-09
-3.59122e-16
-3.96578e-16
-1e-09
-2.06594e-16
-3.96932e-16
-1e-09
-4.0186e-16
-1e-09
-1.79157e-16
-5.42494e-16
-9.99999e-10
-3.01509e-16
-5.25634e-16
-9.99999e-10
-4.09795e-16
-5.34755e-16
-9.99999e-10
-5.52425e-16
-5.68993e-16
-1e-09
-5.94705e-16
-4.96354e-16
-1e-09
-5.71798e-16
-5.7523e-16
-1e-09
-4.68071e-16
-4.94012e-16
-1e-09
-3.61154e-16
-5.11233e-16
-1e-09
-2.11721e-16
-5.18168e-16
-1e-09
-5.05355e-16
-1e-09
-1.6056e-16
-3.57972e-16
-9.99999e-10
-3.07823e-16
-3.25878e-16
-9.99999e-10
-4.33159e-16
-3.371e-16
-1e-09
-4.53915e-16
-3.84029e-16
-1e-09
-6.85832e-16
-4.72405e-16
-1e-09
-5.60535e-16
-4.8107e-16
-1e-09
-5.0291e-16
-5.25486e-16
-1e-09
-3.6874e-16
-5.39621e-16
-1e-09
-2.02347e-16
-5.18773e-16
-1e-09
-5.0656e-16
-1e-09
-1.28032e-16
-2.71725e-16
-1e-09
-3.23273e-16
-2.67275e-16
-1e-09
-4.85032e-16
-2.98542e-16
-1e-09
-5.19564e-16
-3.28313e-16
-1e-09
-5.96456e-16
-3.91739e-16
-1e-09
-6.0425e-16
-4.46223e-16
-1e-09
-5.07658e-16
-4.55559e-16
-1e-09
-3.43075e-16
-4.2041e-16
-1e-09
-1.87541e-16
-3.96816e-16
-1e-09
-3.95686e-16
-1e-09
-1.21796e-16
-1.93399e-16
-1e-09
-3.55146e-16
-2.10656e-16
-1e-09
-5.16641e-16
-2.52151e-16
-1e-09
-5.79359e-16
-2.88592e-16
-1e-09
-6.31665e-16
-3.15966e-16
-1e-09
-6.25482e-16
-3.33145e-16
-1e-09
-4.72679e-16
-3.11002e-16
-1e-09
-3.21679e-16
-2.87534e-16
-1e-09
-1.87482e-16
-2.76708e-16
-1e-09
-2.86074e-16
-1e-09
-1.37876e-16
-1.2017e-16
-1e-09
-3.96217e-16
-1.5213e-16
-1e-09
-5.5228e-16
-1.77313e-16
-1e-09
-6.08235e-16
-1.94268e-16
-1e-09
-6.48888e-16
-1.98047e-16
-1e-09
-6.06659e-16
-1.85325e-16
-1e-09
-4.47811e-16
-1.69258e-16
-1e-09
-3.11199e-16
-1.66142e-16
-1e-09
-1.97016e-16
-1.75798e-16
-1e-09
-1.94089e-16
-1e-09
-1.68879e-16
-1e-09
-4.20344e-16
-1e-09
-5.67493e-16
-1e-09
-6.10983e-16
-1e-09
-6.32702e-16
-1e-09
-5.90181e-16
-1e-09
-4.4396e-16
-1e-09
-3.20258e-16
-1e-09
-2.14972e-16
-1e-09
-1e-09
-3.00271e-16
-2.79099e-16
-9.99997e-10
-7.56327e-16
-3.38918e-16
-9.99998e-10
-1.02968e-15
-3.40529e-16
-9.99998e-10
-1.13124e-15
-3.16378e-16
-9.99998e-10
-1.18888e-15
-2.82652e-16
-9.99999e-10
-1.11277e-15
-2.54024e-16
-1e-09
-9.01819e-16
-2.18649e-16
-1e-09
-6.41614e-16
-2.07277e-16
-1e-09
-3.36393e-16
-2.07547e-16
-1e-09
-2.17812e-16
-1e-09
-3.60261e-16
-7.24889e-16
-9.99998e-10
-7.59078e-16
-7.36407e-16
-9.99998e-10
-1.00866e-15
-6.84139e-16
-9.99998e-10
-1.09919e-15
-6.02887e-16
-9.99999e-10
-1.16438e-15
-5.21753e-16
-9.99999e-10
-1.0797e-15
-5.17295e-16
-1e-09
-8.93244e-16
-4.71973e-16
-1e-09
-6.42789e-16
-4.66501e-16
-1e-09
-3.47356e-16
-4.81012e-16
-1e-09
-4.99801e-16
-1e-09
-3.71578e-16
-9.65379e-16
-9.99998e-10
-7.07505e-16
-9.43361e-16
-9.99998e-10
-9.2721e-16
-8.59448e-16
-9.99998e-10
-1.01106e-15
-7.41545e-16
-9.99999e-10
-1.16432e-15
-6.71951e-16
-9.99999e-10
-1.03393e-15
-7.05687e-16
-1e-09
-8.8636e-16
-6.9098e-16
-1e-09
-6.57082e-16
-6.75543e-16
-1e-09
-3.67603e-16
-6.83108e-16
-1e-09
-6.96903e-16
-1e-09
-3.48025e-16
-1.03969e-15
-9.99998e-10
-6.2413e-16
-9.77452e-16
-9.99998e-10
-8.09537e-16
-8.87622e-16
-9.99999e-10
-9.27223e-16
-8.12386e-16
-9.99999e-10
-1.22317e-15
-7.88481e-16
-1e-09
-1.00225e-15
-7.88954e-16
-1e-09
-8.67532e-16
-7.72051e-16
-1e-09
-6.64439e-16
-7.70195e-16
-1e-09
-3.8331e-16
-7.71607e-16
-1e-09
-7.77073e-16
-1e-09
-2.82734e-16
-9.34968e-16
-9.99999e-10
-5.36378e-16
-9.17919e-16
-9.99999e-10
-7.46319e-16
-9.43662e-16
-9.99999e-10
-9.03956e-16
-1.03196e-15
-1e-09
-1.20921e-15
-1.05942e-15
-1e-09
-9.9903e-16
-7.69233e-16
-1e-09
-8.75564e-16
-8.70844e-16
-1e-09
-6.66415e-16
-9.07398e-16
-1e-09
-3.88206e-16
-9.1004e-16
-1e-09
-8.84462e-16
-1e-09
-2.62451e-16
-7.00743e-16
-9.99999e-10
-5.57874e-16
-6.94738e-16
-9.99999e-10
-8.09058e-16
-7.30342e-16
-1e-09
-9.30815e-16
-7.88058e-16
-1e-09
-9.27381e-16
-8.58792e-16
-1e-09
-1.12901e-15
-1.01638e-15
-1e-09
-9.24817e-16
-9.58839e-16
-1e-09
-6.72605e-16
-9.41061e-16
-1e-09
-3.682e-16
-9.07258e-16
-1e-09
-8.95684e-16
-1e-09
-2.53542e-16
-5.70789e-16
-1e-09
-5.96754e-16
-5.95121e-16
-1e-09
-8.85522e-16
-6.54452e-16
-1e-09
-1.00672e-15
-7.04873e-16
-1e-09
-1.04416e-15
-7.6268e-16
-1e-09
-1.07539e-15
-8.32189e-16
-1e-09
-9.02792e-16
-8.03244e-16
-1e-09
-6.32515e-16
-7.38463e-16
-1e-09
-3.52936e-16
-6.98863e-16
-1e-09
-6.98559e-16
-1e-09
-2.74658e-16
-4.25947e-16
-1e-09
-6.57144e-16
-4.6414e-16
-1e-09
-9.3726e-16
-5.21854e-16
-1e-09
-1.06479e-15
-5.66847e-16
-1e-09
-1.09995e-15
-5.83683e-16
-1e-09
-1.04955e-15
-5.97329e-16
-1e-09
-8.3832e-16
-5.55851e-16
-1e-09
-5.95158e-16
-5.15659e-16
-1e-09
-3.53991e-16
-5.01279e-16
-1e-09
-5.15443e-16
-1e-09
-3.10906e-16
-2.68307e-16
-1e-09
-7.14199e-16
-3.1501e-16
-1e-09
-9.81166e-16
-3.42263e-16
-1e-09
-1.08651e-15
-3.52259e-16
-1e-09
-1.10972e-15
-3.39076e-16
-1e-09
-1.01131e-15
-3.16449e-16
-1e-09
-7.96839e-16
-3.00868e-16
-1e-09
-5.81168e-16
-3.01988e-16
-1e-09
-3.68264e-16
-3.1865e-16
-1e-09
-3.46611e-16
-1e-09
-3.56504e-16
-1e-09
-7.40059e-16
-1e-09
-9.88744e-16
-1e-09
-1.07151e-15
-1e-09
-1.0817e-15
-1e-09
-9.93974e-16
-1e-09
-7.95786e-16
-1e-09
-5.96536e-16
-1e-09
-3.95811e-16
-1e-09
-1e-09
-5.11282e-16
-4.60472e-16
-9.99997e-10
-1.10704e-15
-5.01302e-16
-9.99997e-10
-1.49081e-15
-4.86902e-16
-9.99997e-10
-1.64844e-15
-4.50804e-16
-9.99998e-10
-1.76482e-15
-4.08121e-16
-9.99999e-10
-1.684e-15
-3.75657e-16
-9.99999e-10
-1.37414e-15
-3.55583e-16
-1e-09
-9.83688e-16
-3.56812e-16
-1e-09
-5.27502e-16
-3.66754e-16
-1e-09
-3.93149e-16
-1e-09
-5.52137e-16
-1.00755e-15
-9.99997e-10
-1.09568e-15
-9.98347e-16
-9.99997e-10
-1.45984e-15
-9.36749e-16
-9.99998e-10
-1.6106e-15
-8.55512e-16
-9.99998e-10
-1.73812e-15
-7.76717e-16
-9.99999e-10
-1.66828e-15
-7.75217e-16
-1e-09
-1.37803e-15
-7.60406e-16
-1e-09
-9.95796e-16
-7.8362e-16
-1e-09
-5.55e-16
-8.14181e-16
-1e-09
-8.37023e-16
-1e-09
-5.40328e-16
-1.32176e-15
-9.99997e-10
-1.03447e-15
-1.28531e-15
-9.99997e-10
-1.37927e-15
-1.20538e-15
-9.99998e-10
-1.52184e-15
-1.1038e-15
-9.99999e-10
-1.74593e-15
-1.05558e-15
-9.99999e-10
-1.65004e-15
-1.11184e-15
-1e-09
-1.39959e-15
-1.10852e-15
-1e-09
-1.02627e-15
-1.12261e-15
-1e-09
-5.79695e-16
-1.1509e-15
-1e-09
-1.16467e-15
-1e-09
-5.00193e-16
-1.42175e-15
-9.99998e-10
-9.54727e-16
-1.36928e-15
-9.99998e-10
-1.27743e-15
-1.29188e-15
-9.99998e-10
-1.4409e-15
-1.22399e-15
-9.99999e-10
-1.86886e-15
-1.20562e-15
-1e-09
-1.60776e-15
-1.39987e-15
-1e-09
-1.41343e-15
-1.32471e-15
-1e-09
-1.05514e-15
-1.30694e-15
-1e-09
-5.96923e-16
-1.31691e-15
-1e-09
-1.31657e-15
-1e-09
-4.45041e-16
-1.4164e-15
-9.99998e-10
-8.86369e-16
-1.40442e-15
-9.99998e-10
-1.24148e-15
-1.4349e-15
-9.99999e-10
-1.42626e-15
-1.58197e-15
-1e-09
-2.07265e-15
-1.8352e-15
-1e-09
-1.51896e-15
-1.09285e-15
-1e-09
-1.41339e-15
-1.28979e-15
-1e-09
-1.06264e-15
-1.38546e-15
-1e-09
-5.96802e-16
-1.38914e-15
-1e-09
-1.35951e-15
-1e-09
-4.25905e-16
-1.22718e-15
-9.99999e-10
-9.03608e-16
-1.25522e-15
-9.99999e-10
-1.31632e-15
-1.30157e-15
-1e-09
-1.6406e-15
-1.32488e-15
-1e-09
-1.35516e-15
-1.30543e-15
-1e-09
-1.87239e-15
-1.68343e-15
-1e-09
-1.47282e-15
-1.46883e-15
-1e-09
-1.06547e-15
-1.39346e-15
-1e-09
-5.72379e-16
-1.33997e-15
-1e-09
-1.322e-15
-1e-09
-4.52862e-16
-1.02614e-15
-1e-09
-9.55202e-16
-1.07454e-15
-1e-09
-1.37937e-15
-1.14545e-15
-1e-09
-1.64462e-15
-1.20092e-15
-1e-09
-1.5606e-15
-1.22342e-15
-1e-09
-1.6699e-15
-1.29043e-15
-1e-09
-1.40868e-15
-1.20932e-15
-1e-09
-1.01026e-15
-1.11758e-15
-1e-09
-5.55041e-16
-1.06542e-15
-1e-09
-1.05916e-15
-1e-09
-4.97076e-16
-7.70097e-16
-1e-09
-1.02654e-15
-8.18452e-16
-1e-09
-1.43267e-15
-8.75349e-16
-1e-09
-1.65663e-15
-9.15892e-16
-1e-09
-1.66703e-15
-9.08258e-16
-1e-09
-1.57294e-15
-9.08198e-16
-1e-09
-1.31728e-15
-8.51362e-16
-1e-09
-9.59285e-16
-7.97023e-16
-1e-09
-5.50803e-16
-7.76353e-16
-1e-09
-7.85212e-16
-1.00001e-09
-5.42525e-16
-4.61656e-16
-1e-09
-1.08251e-15
-5.04977e-16
-1e-09
-1.47206e-15
-5.2339e-16
-1e-09
-1.654e-15
-5.21507e-16
-1e-09
-1.66772e-15
-4.92492e-16
-1e-09
-1.51573e-15
-4.67004e-16
-1e-09
-1.26208e-15
-4.57157e-16
-1e-09
-9.38517e-16
-4.54524e-16
-1e-09
-5.60819e-16
-4.67453e-16
-1.00001e-09
-4.91194e-16
-1.00001e-09
-5.84732e-16
-1e-09
-1.09852e-15
-1e-09
-1.46666e-15
-1e-09
-1.62433e-15
-1e-09
-1.63647e-15
-1e-09
-1.50181e-15
-1e-09
-1.25658e-15
-1e-09
-9.48767e-16
-1e-09
-5.84322e-16
-1.00001e-09
-1.00001e-09
-7.60365e-16
-6.59857e-16
-9.99996e-10
-1.53282e-15
-6.78671e-16
-9.99996e-10
-2.07026e-15
-6.59084e-16
-9.99996e-10
-2.35991e-15
-6.29508e-16
-9.99997e-10
-2.48718e-15
-5.91508e-16
-9.99998e-10
-2.37694e-15
-5.66614e-16
-9.99999e-10
-1.97279e-15
-5.68311e-16
-1e-09
-1.42105e-15
-5.81356e-16
-1e-09
-7.68789e-16
-6.00611e-16
-1e-09
-6.32258e-16
-1e-09
-7.79295e-16
-1.32657e-15
-9.99996e-10
-1.51886e-15
-1.30611e-15
-9.99996e-10
-2.04849e-15
-1.24984e-15
-9.99997e-10
-2.33061e-15
-1.18754e-15
-9.99998e-10
-2.46929e-15
-1.12899e-15
-9.99999e-10
-2.38489e-15
-1.12375e-15
-1e-09
-1.98936e-15
-1.1465e-15
-1e-09
-1.44332e-15
-1.19417e-15
-1e-09
-8.02609e-16
-1.23535e-15
-1e-09
-1.25305e-15
-1e-09
-7.53724e-16
-1.75747e-15
-9.99996e-10
-1.46273e-15
-1.72752e-15
-9.99997e-10
-1.98677e-15
-1.66609e-15
-9.99997e-10
-2.26579e-15
-1.59111e-15
-9.99998e-10
-2.46858e-15
-1.55522e-15
-9.99999e-10
-2.40431e-15
-1.59975e-15
-1e-09
-2.0352e-15
-1.62526e-15
-1e-09
-1.485e-15
-1.67907e-15
-1e-09
-8.23514e-16
-1.72656e-15
-1e-09
-1.7342e-15
-1e-09
-7.18513e-16
-1.95577e-15
-9.99997e-10
-1.40085e-15
-1.93441e-15
-9.99997e-10
-1.91176e-15
-1.87737e-15
-9.99998e-10
-2.17309e-15
-1.78921e-15
-9.99999e-10
-2.61463e-15
-1.666e-15
-1e-09
-2.37395e-15
-2.10407e-15
-1e-09
-2.08521e-15
-1.98972e-15
-1e-09
-1.53304e-15
-1.98978e-15
-1e-09
-8.35851e-16
-2.00944e-15
-1e-09
-1.99654e-15
-1e-09
-6.92212e-16
-2.03739e-15
-9.99998e-10
-1.35193e-15
-2.03157e-15
-9.99998e-10
-1.88253e-15
-2.03666e-15
-9.99999e-10
-2.05445e-15
-2.18733e-15
-9.99999e-10
-3.09593e-15
-2.7212e-15
-1e-09
-2.26308e-15
-1.58021e-15
-1e-09
-2.10715e-15
-1.84984e-15
-1e-09
-1.55136e-15
-1.98478e-15
-1e-09
-8.2563e-16
-1.99292e-15
-1e-09
-1.97185e-15
-1e-09
-6.77822e-16
-1.91705e-15
-9.99998e-10
-1.34984e-15
-1.96367e-15
-9.99999e-10
-1.92263e-15
-2.00387e-15
-9.99999e-10
-2.48109e-15
-1.98781e-15
-1e-09
-2.00952e-15
-1.88533e-15
-1e-09
-2.78098e-15
-2.42368e-15
-1e-09
-2.17451e-15
-2.07486e-15
-1e-09
-1.55165e-15
-1.92152e-15
-1e-09
-8.08427e-16
-1.84914e-15
-1e-09
-1.82374e-15
-1e-09
-7.21386e-16
-1.61783e-15
-9.99999e-10
-1.39683e-15
-1.67206e-15
-1e-09
-1.96036e-15
-1.73422e-15
-1e-09
-2.39167e-15
-1.78126e-15
-1e-09
-2.26768e-15
-1.77859e-15
-1e-09
-2.45361e-15
-1.83232e-15
-1e-09
-2.0603e-15
-1.69732e-15
-1e-09
-1.48196e-15
-1.58645e-15
-1e-09
-7.88425e-16
-1.53125e-15
-1.00001e-09
-1.52105e-15
-1.00001e-09
-7.70326e-16
-1.20596e-15
-1e-09
-1.45988e-15
-1.2508e-15
-1e-09
-2.00829e-15
-1.29419e-15
-1e-09
-2.36583e-15
-1.32409e-15
-1e-09
-2.39618e-15
-1.30347e-15
-1e-09
-2.27932e-15
-1.28405e-15
-1e-09
-1.94973e-15
-1.21015e-15
-1e-09
-1.42742e-15
-1.14894e-15
-1.00001e-09
-7.81297e-16
-1.12485e-15
-1.00001e-09
-1.12787e-15
-1.00001e-09
-8.1101e-16
-6.83288e-16
-1e-09
-1.50199e-15
-7.08075e-16
-1e-09
-2.03732e-15
-7.14221e-16
-1e-09
-2.34613e-15
-7.06324e-16
-1e-09
-2.38475e-15
-6.78488e-16
-1e-09
-2.20095e-15
-6.56431e-16
-1e-09
-1.88769e-15
-6.42702e-16
-1.00001e-09
-1.40333e-15
-6.32915e-16
-1.00001e-09
-7.86831e-16
-6.37568e-16
-1.00001e-09
-6.50799e-16
-1.00001e-09
-8.33375e-16
-1e-09
-1.50467e-15
-1e-09
-2.02453e-15
-1e-09
-2.3154e-15
-1e-09
-2.35776e-15
-1e-09
-2.1797e-15
-1e-09
-1.87363e-15
-1.00001e-09
-1.40458e-15
-1.00001e-09
-7.99669e-16
-1.00001e-09
-1.00001e-09
-1.06675e-15
-8.96737e-16
-9.99994e-10
-2.09372e-15
-9.06052e-16
-9.99994e-10
-2.85059e-15
-8.93854e-16
-9.99995e-10
-3.32434e-15
-8.78708e-16
-9.99996e-10
-3.4387e-15
-8.48588e-16
-9.99997e-10
-3.25855e-15
-8.37821e-16
-9.99999e-10
-2.7503e-15
-8.56343e-16
-1e-09
-1.98899e-15
-8.72398e-16
-1e-09
-1.06828e-15
-8.92289e-16
-1e-09
-9.13217e-16
-1e-09
-1.07689e-15
-1.75096e-15
-9.99994e-10
-2.08839e-15
-1.73331e-15
-9.99995e-10
-2.84389e-15
-1.68673e-15
-9.99995e-10
-3.30688e-15
-1.6404e-15
-9.99996e-10
-3.43612e-15
-1.59715e-15
-9.99998e-10
-3.28239e-15
-1.5897e-15
-9.99999e-10
-2.77202e-15
-1.63831e-15
-1e-09
-2.01375e-15
-1.6913e-15
-1e-09
-1.09254e-15
-1.73173e-15
-1e-09
-1.7398e-15
-1e-09
-1.05382e-15
-2.368e-15
-9.99995e-10
-2.04152e-15
-2.35083e-15
-9.99995e-10
-2.79764e-15
-2.29584e-15
-9.99996e-10
-3.26353e-15
-2.23091e-15
-9.99997e-10
-3.43163e-15
-2.15813e-15
-9.99998e-10
-3.32788e-15
-2.2017e-15
-1e-09
-2.82393e-15
-2.26136e-15
-1e-09
-2.05494e-15
-2.3402e-15
-1e-09
-1.10545e-15
-2.39219e-15
-1e-09
-2.39212e-15
-1e-09
-1.03102e-15
-2.73005e-15
-9.99996e-10
-1.98611e-15
-2.72206e-15
-9.99996e-10
-2.73252e-15
-2.66181e-15
-9.99997e-10
-3.16641e-15
-2.55415e-15
-9.99998e-10
-3.50466e-15
-2.33489e-15
-9.99999e-10
-3.36072e-15
-2.7392e-15
-1e-09
-2.89586e-15
-2.75228e-15
-1e-09
-2.10721e-15
-2.78461e-15
-1e-09
-1.11169e-15
-2.80504e-15
-1e-09
-2.78087e-15
-1e-09
-1.01559e-15
-2.84631e-15
-9.99997e-10
-1.92869e-15
-2.84359e-15
-9.99997e-10
-2.65198e-15
-2.82571e-15
-9.99998e-10
-2.95783e-15
-2.87245e-15
-9.99999e-10
-3.89936e-15
-3.27305e-15
-1e-09
-3.38107e-15
-2.43586e-15
-1e-09
-2.94885e-15
-2.63434e-15
-1e-09
-2.12574e-15
-2.76093e-15
-1e-09
-1.092e-15
-2.77882e-15
-1e-09
-2.76976e-15
-1e-09
-1.00517e-15
-2.74167e-15
-9.99998e-10
-1.90685e-15
-2.78697e-15
-9.99998e-10
-2.66562e-15
-2.81625e-15
-9.99999e-10
-3.30998e-15
-2.80877e-15
-1e-09
-3.09442e-15
-2.76344e-15
-1e-09
-3.68486e-15
-3.06443e-15
-1e-09
-3.01662e-15
-2.78607e-15
-1e-09
-2.13049e-15
-2.61581e-15
-1e-09
-1.08806e-15
-2.54241e-15
-1.00001e-09
-2.51949e-15
-1.00001e-09
-1.04385e-15
-2.33035e-15
-9.99999e-10
-1.94225e-15
-2.37545e-15
-9.99999e-10
-2.68462e-15
-2.41742e-15
-1e-09
-3.27403e-15
-2.44894e-15
-1e-09
-3.26199e-15
-2.43693e-15
-1e-09
-3.42435e-15
-2.47144e-15
-1e-09
-2.87301e-15
-2.30315e-15
-1e-09
-2.06218e-15
-2.20147e-15
-1.00001e-09
-1.07394e-15
-2.1607e-15
-1.00001e-09
-2.15412e-15
-1.00001e-09
-1.0816e-15
-1.72486e-15
-1e-09
-1.98486e-15
-1.75771e-15
-1e-09
-2.72113e-15
-1.78384e-15
-1e-09
-3.24345e-15
-1.80063e-15
-1e-09
-3.35546e-15
-1.77709e-15
-1e-09
-3.23419e-15
-1.74711e-15
-1e-09
-2.77155e-15
-1.65795e-15
-1.00001e-09
-2.02303e-15
-1.60781e-15
-1.00001e-09
-1.07251e-15
-1.59e-15
-1.00001e-09
-1.58917e-15
-1.00001e-09
-1.10852e-15
-9.33355e-16
-1e-09
-2.00937e-15
-9.35474e-16
-1e-09
-2.7378e-15
-9.3522e-16
-1e-09
-3.22146e-15
-9.28826e-16
-1e-09
-3.33791e-15
-9.11695e-16
-1e-09
-3.14071e-15
-8.99707e-16
-1e-09
-2.71946e-15
-8.74121e-16
-1.00001e-09
-2.00543e-15
-8.63559e-16
-1.00001e-09
-1.07483e-15
-8.60707e-16
-1.00001e-09
-8.6166e-16
-1.00001e-09
-1.10756e-15
-1e-09
-2.00433e-15
-1e-09
-2.72566e-15
-1e-09
-3.20068e-15
-1e-09
-3.31988e-15
-1e-09
-3.10554e-15
-1.00001e-09
-2.70196e-15
-1.00001e-09
-1.99864e-15
-1.00001e-09
-1.07524e-15
-1.00001e-09
-1.00001e-09
-1.47529e-15
-1.21688e-15
-9.99991e-10
-2.85137e-15
-1.22901e-15
-9.99992e-10
-3.90223e-15
-1.2242e-15
-9.99993e-10
-4.58559e-15
-1.2149e-15
-9.99994e-10
-4.71655e-15
-1.195e-15
-9.99996e-10
-4.44348e-15
-1.19326e-15
-9.99998e-10
-3.78155e-15
-1.21363e-15
-9.99999e-10
-2.73922e-15
-1.22125e-15
-1e-09
-1.45218e-15
-1.23174e-15
-1e-09
-1.23369e-15
-1e-09
-1.48901e-15
-2.34559e-15
-9.99992e-10
-2.85341e-15
-2.3355e-15
-9.99992e-10
-3.90115e-15
-2.29361e-15
-9.99993e-10
-4.58061e-15
-2.25237e-15
-9.99995e-10
-4.72592e-15
-2.22655e-15
-9.99996e-10
-4.47202e-15
-2.21795e-15
-9.99998e-10
-3.79818e-15
-2.26936e-15
-1e-09
-2.75702e-15
-2.30444e-15
-1e-09
-1.46035e-15
-2.33142e-15
-1e-09
-2.3309e-15
-1e-09
-1.47396e-15
-3.21273e-15
-9.99993e-10
-2.81123e-15
-3.19687e-15
-9.99993e-10
-3.86035e-15
-3.13464e-15
-9.99994e-10
-4.5541e-15
-3.06384e-15
-9.99996e-10
-4.71775e-15
-2.99292e-15
-9.99997e-10
-4.52037e-15
-3.0085e-15
-9.99999e-10
-3.83395e-15
-3.10507e-15
-1e-09
-2.78542e-15
-3.16535e-15
-1e-09
-1.46586e-15
-3.1977e-15
-1e-09
-3.1919e-15
-1e-09
-1.45069e-15
-3.76298e-15
-9.99994e-10
-2.74865e-15
-3.7417e-15
-9.99994e-10
-3.78934e-15
-3.66958e-15
-9.99995e-10
-4.4717e-15
-3.56382e-15
-9.99997e-10
-4.73686e-15
-3.39568e-15
-9.99999e-10
-4.59703e-15
-3.55899e-15
-1e-09
-3.89237e-15
-3.69121e-15
-1e-09
-2.81889e-15
-3.74725e-15
-1e-09
-1.46786e-15
-3.74756e-15
-1e-09
-3.71811e-15
-1e-09
-1.42023e-15
-3.90192e-15
-9.99995e-10
-2.68017e-15
-3.89799e-15
-9.99996e-10
-3.69709e-15
-3.86276e-15
-9.99997e-10
-4.30249e-15
-3.83721e-15
-9.99998e-10
-4.90491e-15
-3.97089e-15
-1e-09
-4.70707e-15
-3.66381e-15
-1e-09
-3.93846e-15
-3.70402e-15
-1e-09
-2.81612e-15
-3.79144e-15
-1e-09
-1.4438e-15
-3.81951e-15
-1.00001e-09
-3.8173e-15
-1.00001e-09
-1.40653e-15
-3.74886e-15
-9.99997e-10
-2.64314e-15
-3.78312e-15
-9.99997e-10
-3.66444e-15
-3.80366e-15
-9.99998e-10
-4.40161e-15
-3.81186e-15
-1e-09
-4.61704e-15
-3.80521e-15
-1e-09
-4.76004e-15
-3.81716e-15
-1e-09
-4.01278e-15
-3.68181e-15
-1e-09
-2.8405e-15
-3.57799e-15
-1.00001e-09
-1.45015e-15
-3.53794e-15
-1.00001e-09
-3.53213e-15
-1.00001e-09
-1.43387e-15
-3.20595e-15
-9.99998e-10
-2.66724e-15
-3.23442e-15
-9.99998e-10
-3.68924e-15
-3.2485e-15
-9.99999e-10
-4.42583e-15
-3.24869e-15
-1e-09
-4.60603e-15
-3.21779e-15
-1e-09
-4.63424e-15
-3.23829e-15
-1e-09
-3.90467e-15
-3.09974e-15
-1.00001e-09
-2.80228e-15
-3.03573e-15
-1.00001e-09
-1.45504e-15
-3.02193e-15
-1.00001e-09
-3.02151e-15
-1.00001e-09
-1.45298e-15
-2.3576e-15
-9.99999e-10
-2.68074e-15
-2.37609e-15
-1e-09
-3.691e-15
-2.3852e-15
-1e-09
-4.40711e-15
-2.38109e-15
-1e-09
-4.63911e-15
-2.34899e-15
-1e-09
-4.50068e-15
-2.32958e-15
-1.00001e-09
-3.84058e-15
-2.24649e-15
-1.00001e-09
-2.79139e-15
-2.22183e-15
-1.00001e-09
-1.46207e-15
-2.21419e-15
-1.00001e-09
-2.20842e-15
-1.00001e-09
-1.46519e-15
-1.23981e-15
-1e-09
-2.68831e-15
-1.22793e-15
-1e-09
-3.68606e-15
-1.22722e-15
-1e-09
-4.37938e-15
-1.22243e-15
-1e-09
-4.62309e-15
-1.21484e-15
-1e-09
-4.41687e-15
-1.21546e-15
-1.00001e-09
-3.81281e-15
-1.18347e-15
-1.00001e-09
-2.78393e-15
-1.17626e-15
-1.00001e-09
-1.46011e-15
-1.1678e-15
-1.00001e-09
-1.1613e-15
-1.00001e-09
-1.44877e-15
-1e-09
-2.68136e-15
-1e-09
-3.67392e-15
-1e-09
-4.36651e-15
-1e-09
-4.61351e-15
-1e-09
-4.37329e-15
-1.00001e-09
-3.7954e-15
-1.00001e-09
-2.7702e-15
-1.00001e-09
-1.45246e-15
-1.00001e-09
-1.00001e-09
-2.03378e-15
-1.66723e-15
-9.99988e-10
-3.86411e-15
-1.67966e-15
-9.99988e-10
-5.2943e-15
-1.67072e-15
-9.9999e-10
-6.21944e-15
-1.65546e-15
-9.99992e-10
-6.44298e-15
-1.64856e-15
-9.99994e-10
-6.07569e-15
-1.64578e-15
-9.99996e-10
-5.1752e-15
-1.65503e-15
-9.99999e-10
-3.7508e-15
-1.649e-15
-1e-09
-1.97116e-15
-1.64566e-15
-1e-09
-1.63546e-15
-1e-09
-2.04782e-15
-3.16211e-15
-9.99988e-10
-3.86323e-15
-3.15363e-15
-9.99989e-10
-5.29046e-15
-3.11556e-15
-9.9999e-10
-6.22828e-15
-3.08032e-15
-9.99992e-10
-6.45609e-15
-3.07726e-15
-9.99995e-10
-6.0961e-15
-3.06881e-15
-9.99997e-10
-5.18245e-15
-3.1035e-15
-9.99999e-10
-3.75742e-15
-3.10925e-15
-1e-09
-1.96837e-15
-3.11542e-15
-1e-09
-3.10867e-15
-1e-09
-2.03293e-15
-4.33651e-15
-9.99989e-10
-3.82489e-15
-4.31289e-15
-9.9999e-10
-5.2568e-15
-4.25366e-15
-9.99992e-10
-6.22293e-15
-4.19015e-15
-9.99994e-10
-6.4507e-15
-4.17788e-15
-9.99996e-10
-6.12677e-15
-4.15568e-15
-9.99998e-10
-5.19057e-15
-4.25803e-15
-1e-09
-3.76535e-15
-4.26826e-15
-1e-09
-1.96954e-15
-4.26709e-15
-1e-09
-4.25582e-15
-1e-09
-1.99859e-15
-5.08681e-15
-9.99991e-10
-3.76438e-15
-5.0509e-15
-9.99992e-10
-5.19344e-15
-4.9916e-15
-9.99993e-10
-6.19404e-15
-4.93815e-15
-9.99995e-10
-6.42296e-15
-4.90803e-15
-9.99997e-10
-6.21134e-15
-4.83016e-15
-1e-09
-5.20061e-15
-4.97633e-15
-1e-09
-3.76527e-15
-5.01015e-15
-1e-09
-1.9689e-15
-4.98766e-15
-1.00001e-09
-4.95783e-15
-1.00001e-09
-1.95048e-15
-5.30338e-15
-9.99993e-10
-3.70699e-15
-5.29741e-15
-9.99994e-10
-5.15899e-15
-5.25797e-15
-9.99995e-10
-6.16576e-15
-5.17582e-15
-9.99997e-10
-6.34305e-15
-5.05822e-15
-1e-09
-6.32331e-15
-5.2919e-15
-1e-09
-5.22653e-15
-5.11342e-15
-1e-09
-3.73928e-15
-5.17976e-15
-1.00001e-09
-1.94806e-15
-5.21441e-15
-1.00001e-09
-5.20684e-15
-1.00001e-09
-1.92969e-15
-5.06894e-15
-9.99995e-10
-3.66507e-15
-5.09189e-15
-9.99996e-10
-5.07923e-15
-5.09798e-15
-9.99997e-10
-6.01101e-15
-5.10764e-15
-9.99999e-10
-6.60333e-15
-5.08286e-15
-1e-09
-6.14557e-15
-4.84989e-15
-1e-09
-5.2669e-15
-4.89515e-15
-1.00001e-09
-3.77264e-15
-4.89884e-15
-1.00001e-09
-1.95231e-15
-4.91379e-15
-1.00001e-09
-4.92855e-15
-1.00001e-09
-1.94476e-15
-4.34542e-15
-9.99997e-10
-3.67482e-15
-4.35591e-15
-9.99997e-10
-5.10301e-15
-4.33833e-15
-9.99999e-10
-6.02708e-15
-4.28835e-15
-1e-09
-6.3586e-15
-4.24448e-15
-1e-09
-6.20527e-15
-4.22384e-15
-1.00001e-09
-5.26547e-15
-4.1863e-15
-1.00001e-09
-3.7896e-15
-4.16793e-15
-1.00001e-09
-1.98088e-15
-4.17693e-15
-1.00001e-09
-4.17812e-15
-1.00001e-09
-1.9445e-15
-3.17542e-15
-9.99998e-10
-3.65561e-15
-3.18215e-15
-9.99999e-10
-5.0533e-15
-3.17453e-15
-1e-09
-5.99092e-15
-3.14223e-15
-1e-09
-6.36546e-15
-3.10496e-15
-1e-09
-6.17063e-15
-3.0959e-15
-1.00001e-09
-5.2471e-15
-3.04834e-15
-1.00001e-09
-3.80169e-15
-3.04452e-15
-1.00001e-09
-1.99198e-15
-3.04253e-15
-1.00001e-09
-3.03314e-15
-1.00001e-09
-1.9441e-15
-1.65283e-15
-9.99999e-10
-3.64655e-15
-1.63974e-15
-1e-09
-5.02014e-15
-1.63865e-15
-1e-09
-5.95648e-15
-1.63189e-15
-1e-09
-6.35796e-15
-1.63629e-15
-1.00001e-09
-6.12208e-15
-1.64097e-15
-1.00001e-09
-5.23968e-15
-1.60973e-15
-1.00001e-09
-3.79974e-15
-1.60243e-15
-1.00001e-09
-1.98733e-15
-1.59351e-15
-1.00001e-09
-1.58696e-15
-1.00001e-09
-1.92413e-15
-1e-09
-3.63738e-15
-1e-09
-5.0024e-15
-1e-09
-5.94977e-15
-1e-09
-6.34728e-15
-1.00001e-09
-6.07611e-15
-1.00001e-09
-5.2191e-15
-1.00001e-09
-3.78378e-15
-1.00001e-09
-1.97933e-15
-1.00001e-09
-1.00002e-09
-2.77631e-15
-2.27653e-15
-9.99983e-10
-5.21149e-15
-2.27677e-15
-9.99984e-10
-7.14374e-15
-2.25624e-15
-9.99986e-10
-8.38655e-15
-2.23738e-15
-9.99988e-10
-8.78906e-15
-2.24322e-15
-9.99991e-10
-8.3221e-15
-2.23653e-15
-9.99994e-10
-7.08104e-15
-2.2315e-15
-9.99998e-10
-5.13231e-15
-2.21689e-15
-1e-09
-2.6907e-15
-2.2034e-15
-1e-09
-2.1915e-15
-1e-09
-2.77737e-15
-4.26536e-15
-9.99984e-10
-5.20265e-15
-4.25461e-15
-9.99985e-10
-7.14071e-15
-4.22824e-15
-9.99986e-10
-8.41104e-15
-4.21038e-15
-9.99989e-10
-8.80371e-15
-4.22866e-15
-9.99992e-10
-8.33309e-15
-4.22371e-15
-9.99995e-10
-7.08407e-15
-4.23157e-15
-9.99998e-10
-5.13116e-15
-4.21183e-15
-1e-09
-2.68971e-15
-4.1982e-15
-1e-09
-4.18546e-15
-1e-09
-2.75692e-15
-5.83647e-15
-9.99985e-10
-5.1764e-15
-5.81323e-15
-9.99986e-10
-7.12493e-15
-5.77873e-15
-9.99988e-10
-8.42526e-15
-5.74509e-15
-9.99991e-10
-8.80373e-15
-5.80172e-15
-9.99994e-10
-8.33504e-15
-5.74947e-15
-9.99997e-10
-7.06697e-15
-5.82363e-15
-1e-09
-5.11928e-15
-5.78772e-15
-1e-09
-2.68763e-15
-5.75854e-15
-1e-09
-5.7396e-15
-1.00001e-09
-2.72018e-15
-6.84329e-15
-9.99987e-10
-5.14036e-15
-6.81162e-15
-9.99988e-10
-7.0921e-15
-6.78204e-15
-9.9999e-10
-8.4604e-15
-6.79689e-15
-9.99993e-10
-8.75764e-15
-6.91653e-15
-9.99996e-10
-8.38723e-15
-6.61729e-15
-9.99999e-10
-7.03153e-15
-6.73623e-15
-1e-09
-5.09114e-15
-6.75094e-15
-1e-09
-2.68244e-15
-6.72037e-15
-1.00001e-09
-6.69307e-15
-1.00001e-09
-2.67127e-15
-7.20543e-15
-9.9999e-10
-5.11208e-15
-7.20129e-15
-9.99991e-10
-7.12883e-15
-7.16648e-15
-9.99993e-10
-8.58425e-15
-7.07026e-15
-9.99995e-10
-8.43267e-15
-6.72418e-15
-9.99998e-10
-8.46069e-15
-7.3805e-15
-1e-09
-7.04102e-15
-7.06981e-15
-1e-09
-5.05901e-15
-7.0759e-15
-1.00001e-09
-2.66952e-15
-7.09643e-15
-1.00001e-09
-7.07317e-15
-1.00001e-09
-2.64905e-15
-6.86944e-15
-9.99992e-10
-5.07355e-15
-6.88185e-15
-9.99993e-10
-7.01949e-15
-6.86589e-15
-9.99995e-10
-8.20395e-15
-6.85178e-15
-9.99998e-10
-9.13731e-15
-6.78774e-15
-1e-09
-8.13727e-15
-6.42068e-15
-1e-09
-7.01161e-15
-6.59225e-15
-1.00001e-09
-5.07347e-15
-6.68397e-15
-1.00001e-09
-2.66108e-15
-6.73933e-15
-1.00001e-09
-6.76218e-15
-1.00001e-09
-2.64945e-15
-5.88293e-15
-9.99995e-10
-5.06448e-15
-5.87931e-15
-9.99996e-10
-7.02912e-15
-5.83646e-15
-9.99998e-10
-8.20491e-15
-5.74982e-15
-1e-09
-8.75121e-15
-5.70201e-15
-1e-09
-8.33098e-15
-5.62137e-15
-1.00001e-09
-7.10361e-15
-5.67758e-15
-1.00001e-09
-5.13422e-15
-5.69119e-15
-1.00001e-09
-2.70206e-15
-5.70864e-15
-1.00001e-09
-5.7074e-15
-1.00002e-09
-2.63279e-15
-4.27763e-15
-9.99997e-10
-5.01977e-15
-4.27685e-15
-9.99998e-10
-6.94192e-15
-4.2557e-15
-1e-09
-8.16102e-15
-4.20421e-15
-1e-09
-8.70624e-15
-4.17387e-15
-1.00001e-09
-8.38794e-15
-4.15705e-15
-1.00001e-09
-7.11705e-15
-4.14515e-15
-1.00001e-09
-5.1544e-15
-4.14736e-15
-1.00001e-09
-2.71381e-15
-4.14851e-15
-1.00002e-09
-4.13991e-15
-1.00002e-09
-2.62252e-15
-2.22936e-15
-9.99999e-10
-4.99704e-15
-2.22344e-15
-1e-09
-6.88957e-15
-2.22041e-15
-1e-09
-8.1313e-15
-2.2113e-15
-1e-09
-8.69522e-15
-2.22803e-15
-1.00001e-09
-8.37336e-15
-2.22213e-15
-1.00001e-09
-7.11508e-15
-2.19266e-15
-1.00001e-09
-5.15562e-15
-2.18455e-15
-1.00002e-09
-2.71254e-15
-2.18219e-15
-1.00002e-09
-2.17746e-15
-1.00002e-09
-2.60678e-15
-1e-09