/*--------------------------------*- C++ -*----------------------------------*\
  =========                 |
  \\      /  F ield         | OpenFOAM: The Open Source CFD Toolbox
   \\    /   O peration     | Website:  https://openfoam.org
    \\  /    A nd           | Version:  9
     \\/     M anipulation  |
\*---------------------------------------------------------------------------*/
FoamFile
{
    format      ascii;
    class       volVectorField;
    location    "0.1";
    object      stored_U;
}
// * * * * * * * * * * * * * * * * * * * * * * * * * * * * * * * * * * * * * //

dimensions      [0 1 -1 0 0 0 0];

internalField   nonuniform List<vector> 
9000
(
(-4.99095e-11 -4.06885e-11 -0.001)
(-1.22737e-10 -3.13717e-11 -0.001)
(-1.82796e-10 -3.27408e-11 -0.00100001)
(-2.45652e-10 -2.55214e-11 -0.00100001)
(-2.40455e-10 -1.77459e-11 -0.00100001)
(-1.86542e-10 -1.89186e-11 -0.00100001)
(-1.46952e-10 -2.13391e-11 -0.00100001)
(-1.28481e-10 -2.97979e-11 -0.00100001)
(-1.02554e-10 -3.12456e-11 -0.00100001)
(-3.93279e-11 -2.91079e-11 -0.00100001)
(-4.06103e-11 -9.81576e-11 -0.001)
(-1.14913e-10 -9.05648e-11 -0.001)
(-1.77281e-10 -8.67519e-11 -0.00100001)
(-2.31156e-10 -7.49261e-11 -0.00100001)
(-2.34386e-10 -4.40585e-11 -0.00100001)
(-1.9056e-10 -4.39034e-11 -0.00100001)
(-1.58198e-10 -6.13657e-11 -0.00100001)
(-1.38668e-10 -7.48599e-11 -0.00100001)
(-1.02092e-10 -9.01164e-11 -0.00100001)
(-3.73079e-11 -9.38112e-11 -0.00100001)
(-4.2257e-11 -1.4974e-10 -0.001)
(-1.11382e-10 -1.47324e-10 -0.00100001)
(-1.67538e-10 -1.41451e-10 -0.00100001)
(-2.03518e-10 -1.27485e-10 -0.00100001)
(-2.10005e-10 -1.03846e-10 -0.00100001)
(-2.04291e-10 -9.26308e-11 -0.00100001)
(-1.78261e-10 -1.19168e-10 -0.00100001)
(-1.57526e-10 -1.34101e-10 -0.00100001)
(-1.21916e-10 -1.48984e-10 -0.00100001)
(-4.32858e-11 -1.52308e-10 -0.00100001)
(-3.79133e-11 -2.18481e-10 -0.00100001)
(-1.06318e-10 -2.10361e-10 -0.00100001)
(-1.57446e-10 -1.94263e-10 -0.00100001)
(-1.93586e-10 -1.87318e-10 -0.00100001)
(-1.99623e-10 -2.15657e-10 -0.00100001)
(-2.0596e-10 -1.86508e-10 -0.00100001)
(-1.99716e-10 -1.93935e-10 -0.00100001)
(-1.68534e-10 -2.00392e-10 -0.00100001)
(-1.20641e-10 -2.0293e-10 -0.00100001)
(-4.09249e-11 -1.99298e-10 -0.00100001)
(-3.37849e-11 -2.17419e-10 -0.00100001)
(-8.67533e-11 -2.14447e-10 -0.00100001)
(-1.44461e-10 -2.00681e-10 -0.00100001)
(-2.24885e-10 -1.9995e-10 -0.00100001)
(-2.09256e-10 -2.18315e-10 -0.00100001)
(-1.82761e-10 -2.66275e-10 -0.00100001)
(-1.92251e-10 -2.257e-10 -0.00100001)
(-1.66562e-10 -2.1358e-10 -0.00100001)
(-1.21231e-10 -2.11949e-10 -0.00100001)
(-4.00227e-11 -2.07266e-10 -0.00100001)
(-3.45678e-11 -1.52641e-10 -0.00100001)
(-8.91483e-11 -1.45577e-10 -0.00100001)
(-1.42848e-10 -1.7166e-10 -0.00100001)
(-2.11112e-10 -1.89278e-10 -0.00100001)
(-2.65948e-10 -1.90286e-10 -0.00100001)
(-2.13605e-10 -2.29039e-10 -0.00100001)
(-1.47105e-10 -2.08847e-10 -0.00100001)
(-1.54844e-10 -1.94343e-10 -0.00100001)
(-1.14759e-10 -1.7848e-10 -0.00100001)
(-3.66676e-11 -1.64755e-10 -0.00100001)
(-2.63829e-11 -1.05859e-10 -0.00100001)
(-1.05391e-10 -1.10258e-10 -0.00100001)
(-1.88104e-10 -1.32549e-10 -0.00100001)
(-2.4334e-10 -1.59758e-10 -0.00100001)
(-2.48733e-10 -1.76685e-10 -0.00100001)
(-2.0134e-10 -1.4331e-10 -0.00100001)
(-1.57759e-10 -1.51682e-10 -0.00100001)
(-1.36233e-10 -1.57826e-10 -0.00100001)
(-9.20257e-11 -1.37304e-10 -0.00100001)
(-2.67035e-11 -1.19562e-10 -0.00100001)
(-3.86975e-11 -9.65648e-11 -0.00100001)
(-1.15555e-10 -1.03817e-10 -0.00100001)
(-1.9231e-10 -1.04616e-10 -0.00100001)
(-2.55216e-10 -1.08985e-10 -0.00100001)
(-2.49451e-10 -1.03883e-10 -0.00100001)
(-1.88414e-10 -9.9359e-11 -0.00100001)
(-1.61605e-10 -9.63143e-11 -0.00100001)
(-1.40485e-10 -1.05956e-10 -0.00100001)
(-7.68236e-11 -8.58116e-11 -0.00100001)
(-1.92606e-11 -7.97299e-11 -0.00100001)
(-3.33885e-11 -8.2181e-11 -0.00100001)
(-1.13179e-10 -7.26619e-11 -0.00100001)
(-1.9322e-10 -7.81035e-11 -0.00100001)
(-2.42562e-10 -6.47311e-11 -0.00100001)
(-2.39029e-10 -4.09569e-11 -0.00100001)
(-1.93699e-10 -4.05224e-11 -0.00100001)
(-1.64311e-10 -5.70508e-11 -0.00100001)
(-1.25727e-10 -4.91495e-11 -0.00100001)
(-6.59802e-11 -4.14599e-11 -0.00100001)
(-2.07843e-11 -5.1654e-11 -0.00100001)
(-2.89447e-11 -3.00867e-11 -0.00100001)
(-1.11038e-10 -2.57626e-11 -0.00100001)
(-1.83952e-10 -2.82427e-11 -0.00100001)
(-2.17568e-10 -1.69094e-11 -0.00100001)
(-2.24719e-10 -3.7684e-12 -0.00100001)
(-2.03998e-10 -3.11785e-12 -0.00100001)
(-1.69795e-10 -1.45138e-11 -0.00100001)
(-1.24612e-10 -8.98345e-12 -0.00100001)
(-7.92719e-11 -1.36527e-11 -0.00100001)
(-2.94788e-11 -2.23551e-11 -0.00100001)
(-1.12129e-10 -8.67512e-11 -0.001)
(-3.13676e-10 -8.34948e-11 -0.001)
(-4.84858e-10 -7.82922e-11 -0.001)
(-6.20305e-10 -6.24404e-11 -0.00100001)
(-6.21663e-10 -3.43609e-11 -0.00100001)
(-5.01323e-10 -3.58811e-11 -0.00100001)
(-4.10075e-10 -5.04077e-11 -0.00100001)
(-3.56817e-10 -6.83585e-11 -0.00100001)
(-2.48116e-10 -7.08623e-11 -0.00100001)
(-8.48534e-11 -8.2871e-11 -0.00100001)
(-1.08919e-10 -2.40816e-10 -0.001)
(-3.05558e-10 -2.31415e-10 -0.001)
(-4.6463e-10 -2.13726e-10 -0.001)
(-5.77567e-10 -1.77695e-10 -0.00100001)
(-5.96341e-10 -1.05808e-10 -0.00100001)
(-5.18328e-10 -9.91019e-11 -0.00100001)
(-4.43355e-10 -1.62302e-10 -0.00100001)
(-3.77932e-10 -2.0646e-10 -0.00100001)
(-2.6319e-10 -2.32489e-10 -0.00100001)
(-9.71314e-11 -2.49767e-10 -0.00100001)
(-1.02571e-10 -3.79717e-10 -0.001)
(-2.86726e-10 -3.67544e-10 -0.001)
(-4.32071e-10 -3.44907e-10 -0.00100001)
(-5.13724e-10 -3.16164e-10 -0.00100001)
(-5.44405e-10 -2.83759e-10 -0.00100001)
(-5.58799e-10 -2.54651e-10 -0.00100001)
(-5.18206e-10 -3.36444e-10 -0.00100001)
(-4.27695e-10 -3.69741e-10 -0.00100001)
(-2.92348e-10 -4.02906e-10 -0.00100001)
(-1.02693e-10 -4.10873e-10 -0.00100001)
(-9.61276e-11 -5.15516e-10 -0.001)
(-2.70055e-10 -4.93925e-10 -0.00100001)
(-4.13259e-10 -4.69429e-10 -0.00100001)
(-5.16499e-10 -4.81937e-10 -0.00100001)
(-5.34875e-10 -5.91416e-10 -0.00100001)
(-5.7107e-10 -4.94984e-10 -0.00100001)
(-5.58521e-10 -5.10548e-10 -0.00100001)
(-4.44515e-10 -5.27656e-10 -0.00100001)
(-3.05152e-10 -5.4662e-10 -0.00100001)
(-1.05812e-10 -5.33239e-10 -0.00100001)
(-8.01964e-11 -5.3909e-10 -0.00100001)
(-2.39719e-10 -5.26107e-10 -0.00100001)
(-4.20026e-10 -5.09105e-10 -0.00100001)
(-6.35742e-10 -5.24211e-10 -0.00100001)
(-5.57718e-10 -5.68975e-10 -0.00100001)
(-4.77784e-10 -6.85318e-10 -0.00100001)
(-5.50782e-10 -5.85444e-10 -0.00100001)
(-4.63827e-10 -5.63028e-10 -0.00100001)
(-2.98946e-10 -5.60818e-10 -0.00100001)
(-9.03011e-11 -5.39907e-10 -0.00100001)
(-8.22997e-11 -4.27777e-10 -0.00100001)
(-2.39099e-10 -4.34565e-10 -0.00100001)
(-4.11353e-10 -4.76143e-10 -0.00100001)
(-5.76234e-10 -5.11319e-10 -0.00100001)
(-6.95991e-10 -4.78169e-10 -0.00100001)
(-5.87776e-10 -6.09049e-10 -0.00100001)
(-4.36219e-10 -5.51196e-10 -0.00100001)
(-4.19932e-10 -4.96133e-10 -0.00100001)
(-2.8303e-10 -4.44396e-10 -0.00100001)
(-8.58779e-11 -4.27126e-10 -0.00100001)
(-8.61212e-11 -3.31825e-10 -0.00100001)
(-2.87181e-10 -3.52862e-10 -0.00100001)
(-4.96709e-10 -4.04572e-10 -0.00100001)
(-6.37891e-10 -4.50283e-10 -0.00100001)
(-6.55169e-10 -4.72749e-10 -0.00100001)
(-5.50828e-10 -3.89488e-10 -0.00100001)
(-4.3792e-10 -4.00617e-10 -0.00100001)
(-3.57096e-10 -3.8099e-10 -0.00100001)
(-2.30844e-10 -3.28357e-10 -0.00100001)
(-7.38822e-11 -3.09215e-10 -0.00100001)
(-1.02593e-10 -2.83522e-10 -0.00100001)
(-3.11111e-10 -2.99916e-10 -0.00100001)
(-5.08689e-10 -3.10262e-10 -0.00100001)
(-6.44418e-10 -2.98741e-10 -0.00100001)
(-6.35148e-10 -2.76213e-10 -0.00100001)
(-5.15596e-10 -2.53313e-10 -0.00100001)
(-4.27759e-10 -2.42243e-10 -0.00100001)
(-3.47763e-10 -2.3868e-10 -0.00100001)
(-2.11932e-10 -2.24115e-10 -0.00100001)
(-6.73398e-11 -2.25765e-10 -0.00100001)
(-1.01909e-10 -1.99334e-10 -0.00100001)
(-3.13288e-10 -2.0714e-10 -0.00100001)
(-4.95406e-10 -2.04149e-10 -0.00100001)
(-6.03754e-10 -1.61772e-10 -0.00100001)
(-6.09664e-10 -1.05469e-10 -0.00100001)
(-5.16748e-10 -1.03379e-10 -0.00100001)
(-4.23229e-10 -1.25774e-10 -0.00100001)
(-3.38964e-10 -1.25057e-10 -0.00100001)
(-2.18289e-10 -1.33136e-10 -0.00100001)
(-7.58111e-11 -1.52028e-10 -0.00100001)
(-1.0979e-10 -6.91688e-11 -0.00100001)
(-3.14896e-10 -7.73551e-11 -0.00100001)
(-4.62341e-10 -7.1483e-11 -0.00100001)
(-5.44586e-10 -4.52436e-11 -0.00100001)
(-5.75545e-10 -1.3509e-11 -0.00100001)
(-5.34768e-10 -1.23494e-11 -0.00100001)
(-4.48509e-10 -3.25161e-11 -0.00100001)
(-3.54473e-10 -3.8385e-11 -0.00100001)
(-2.38721e-10 -4.85782e-11 -0.00100001)
(-8.62209e-11 -5.90486e-11 -0.00100001)
(-1.89198e-10 -1.42869e-10 -0.001)
(-5.26681e-10 -1.27227e-10 -0.001)
(-8.01788e-10 -1.23897e-10 -0.001)
(-9.96793e-10 -1.0354e-10 -0.001)
(-1.03829e-09 -6.86595e-11 -0.00100001)
(-9.24723e-10 -7.08577e-11 -0.00100001)
(-7.99022e-10 -1.01995e-10 -0.00100001)
(-6.7215e-10 -1.19297e-10 -0.00100001)
(-4.49101e-10 -1.31092e-10 -0.00100001)
(-1.57159e-10 -1.43275e-10 -0.00100001)
(-1.73639e-10 -3.92139e-10 -0.001)
(-5.08303e-10 -3.73145e-10 -0.001)
(-7.79558e-10 -3.52892e-10 -0.001)
(-9.43579e-10 -3.02654e-10 -0.001)
(-1.00768e-09 -2.25135e-10 -0.00100001)
(-9.59773e-10 -2.28845e-10 -0.00100001)
(-8.48894e-10 -3.20094e-10 -0.00100001)
(-7.02389e-10 -3.77055e-10 -0.00100001)
(-4.74088e-10 -4.0886e-10 -0.00100001)
(-1.69846e-10 -4.23524e-10 -0.00100001)
(-1.69941e-10 -6.10516e-10 -0.001)
(-4.87682e-10 -5.98472e-10 -0.001)
(-7.32873e-10 -5.69202e-10 -0.001)
(-8.71238e-10 -5.45902e-10 -0.00100001)
(-9.66705e-10 -5.28108e-10 -0.00100001)
(-1.02143e-09 -5.08344e-10 -0.00100001)
(-9.48652e-10 -6.0569e-10 -0.00100001)
(-7.62148e-10 -6.51749e-10 -0.00100001)
(-4.97164e-10 -6.84241e-10 -0.00100001)
(-1.72817e-10 -6.86466e-10 -0.00100001)
(-1.60559e-10 -7.85858e-10 -0.001)
(-4.65857e-10 -7.79261e-10 -0.001)
(-7.27002e-10 -7.71318e-10 -0.001)
(-9.02635e-10 -8.14215e-10 -0.00100001)
(-9.70288e-10 -9.90286e-10 -0.00100001)
(-1.03752e-09 -8.15844e-10 -0.00100001)
(-9.92444e-10 -8.62093e-10 -0.00100001)
(-7.81148e-10 -8.90865e-10 -0.00100001)
(-5.10211e-10 -9.02609e-10 -0.00100001)
(-1.73316e-10 -8.75771e-10 -0.00100001)
(-1.61943e-10 -8.5965e-10 -0.001)
(-4.716e-10 -8.69545e-10 -0.00100001)
(-7.67695e-10 -8.81172e-10 -0.00100001)
(-1.0902e-09 -9.09075e-10 -0.00100001)
(-9.68074e-10 -9.26938e-10 -0.00100001)
(-8.9322e-10 -1.1147e-09 -0.00100001)
(-1.02368e-09 -9.80003e-10 -0.00100001)
(-8.02779e-10 -9.53916e-10 -0.00100001)
(-4.83764e-10 -9.35185e-10 -0.00100001)
(-1.4762e-10 -9.07215e-10 -0.00100001)
(-1.68922e-10 -8.21052e-10 -0.00100001)
(-4.85727e-10 -8.37383e-10 -0.00100001)
(-7.66392e-10 -8.72668e-10 -0.00100001)
(-9.48584e-10 -8.97481e-10 -0.00100001)
(-1.17592e-09 -8.09301e-10 -0.00100001)
(-1.09015e-09 -1.02664e-09 -0.00100001)
(-8.31607e-10 -9.15003e-10 -0.00100001)
(-7.36446e-10 -8.31386e-10 -0.00100001)
(-4.65227e-10 -7.73753e-10 -0.00100001)
(-1.47027e-10 -7.65909e-10 -0.00100001)
(-1.76659e-10 -7.15873e-10 -0.00100001)
(-5.21561e-10 -7.3277e-10 -0.00100001)
(-8.27651e-10 -7.69615e-10 -0.00100001)
(-1.02683e-09 -7.9542e-10 -0.00100001)
(-1.09771e-09 -8.34727e-10 -0.00100001)
(-9.98904e-10 -6.73358e-10 -0.00100001)
(-8.28215e-10 -6.93941e-10 -0.00100001)
(-6.61677e-10 -6.50703e-10 -0.00100001)
(-4.19736e-10 -6.07165e-10 -0.00100001)
(-1.41082e-10 -5.98817e-10 -0.00100001)
(-1.84354e-10 -5.78729e-10 -0.00100001)
(-5.38006e-10 -5.91289e-10 -0.00100001)
(-8.28911e-10 -5.88721e-10 -0.00100001)
(-1.01369e-09 -5.57309e-10 -0.00100001)
(-1.05389e-09 -5.26995e-10 -0.00100001)
(-9.49563e-10 -4.81368e-10 -0.00100001)
(-8.08944e-10 -4.74061e-10 -0.00100001)
(-6.49794e-10 -4.65246e-10 -0.00100001)
(-4.14515e-10 -4.68151e-10 -0.00100001)
(-1.39686e-10 -4.84155e-10 -0.00100001)
(-1.8811e-10 -3.77924e-10 -0.00100001)
(-5.30367e-10 -3.86946e-10 -0.00100001)
(-7.93455e-10 -3.63165e-10 -0.00100001)
(-9.64962e-10 -3.15097e-10 -0.00100001)
(-1.02162e-09 -2.75226e-10 -0.00100001)
(-9.45859e-10 -2.66291e-10 -0.00100001)
(-8.11949e-10 -2.82976e-10 -0.00100001)
(-6.55753e-10 -2.93894e-10 -0.00100001)
(-4.39406e-10 -3.12737e-10 -0.00100001)
(-1.57706e-10 -3.41686e-10 -0.00100001)
(-1.92354e-10 -1.29057e-10 -0.00100001)
(-5.21521e-10 -1.33843e-10 -0.00100001)
(-7.55462e-10 -1.21412e-10 -0.00100001)
(-9.23785e-10 -9.73651e-11 -0.00100001)
(-1.00301e-09 -8.21397e-11 -0.00100001)
(-9.55449e-10 -8.07533e-11 -0.00100001)
(-8.34937e-10 -9.34467e-11 -0.00100001)
(-6.78363e-10 -1.05117e-10 -0.00100001)
(-4.62064e-10 -1.17108e-10 -0.00100001)
(-1.68806e-10 -1.28286e-10 -0.00100001)
(-2.76352e-10 -2.06122e-10 -0.001)
(-7.76992e-10 -1.9099e-10 -0.001)
(-1.17674e-09 -1.87074e-10 -0.001)
(-1.44399e-09 -1.66271e-10 -0.001)
(-1.54835e-09 -1.41129e-10 -0.001)
(-1.48515e-09 -1.40998e-10 -0.00100001)
(-1.32412e-09 -1.72659e-10 -0.00100001)
(-1.07429e-09 -1.84564e-10 -0.00100001)
(-7.07365e-10 -2.04987e-10 -0.00100001)
(-2.52464e-10 -2.07364e-10 -0.00100001)
(-2.61358e-10 -5.73059e-10 -0.001)
(-7.58966e-10 -5.58649e-10 -0.001)
(-1.15425e-09 -5.37606e-10 -0.001)
(-1.401e-09 -4.92066e-10 -0.001)
(-1.52611e-09 -4.39634e-10 -0.001)
(-1.51931e-09 -4.54767e-10 -0.00100001)
(-1.3699e-09 -5.35758e-10 -0.00100001)
(-1.10841e-09 -5.8477e-10 -0.00100001)
(-7.31712e-10 -6.16455e-10 -0.00100001)
(-2.55606e-10 -6.2268e-10 -0.00100001)
(-2.61457e-10 -8.91858e-10 -0.001)
(-7.41959e-10 -8.85452e-10 -0.001)
(-1.1125e-09 -8.64923e-10 -0.001)
(-1.34917e-09 -8.48681e-10 -0.001)
(-1.51429e-09 -8.50609e-10 -0.00100001)
(-1.58402e-09 -8.56246e-10 -0.00100001)
(-1.45644e-09 -9.36446e-10 -0.00100001)
(-1.15697e-09 -9.80759e-10 -0.00100001)
(-7.47698e-10 -9.97175e-10 -0.00100001)
(-2.60193e-10 -9.87832e-10 -0.00100001)
(-2.53309e-10 -1.14276e-09 -0.001)
(-7.30313e-10 -1.16266e-09 -0.001)
(-1.11749e-09 -1.16691e-09 -0.001)
(-1.38691e-09 -1.20314e-09 -0.001)
(-1.53395e-09 -1.39978e-09 -0.00100001)
(-1.6054e-09 -1.19261e-09 -0.00100001)
(-1.49464e-09 -1.26382e-09 -0.00100001)
(-1.16947e-09 -1.28215e-09 -0.00100001)
(-7.40801e-10 -1.26971e-09 -0.00100001)
(-2.48045e-10 -1.22224e-09 -0.00100001)
(-2.79117e-10 -1.27741e-09 -0.001)
(-7.63751e-10 -1.31249e-09 -0.001)
(-1.15276e-09 -1.33372e-09 -0.001)
(-1.58201e-09 -1.35804e-09 -0.00100001)
(-1.5037e-09 -1.33343e-09 -0.00100001)
(-1.44807e-09 -1.52392e-09 -0.00100001)
(-1.54603e-09 -1.40681e-09 -0.00100001)
(-1.1631e-09 -1.38537e-09 -0.00100001)
(-6.90383e-10 -1.35054e-09 -0.00100001)
(-2.15218e-10 -1.31731e-09 -0.00100001)
(-2.86001e-10 -1.31284e-09 -0.001)
(-7.8413e-10 -1.31304e-09 -0.00100001)
(-1.16281e-09 -1.32639e-09 -0.00100001)
(-1.38661e-09 -1.34008e-09 -0.00100001)
(-1.69976e-09 -1.20321e-09 -0.00100001)
(-1.67876e-09 -1.44564e-09 -0.00100001)
(-1.35609e-09 -1.32392e-09 -0.00100001)
(-1.11344e-09 -1.25659e-09 -0.00100001)
(-6.75333e-10 -1.22662e-09 -0.00100001)
(-2.17257e-10 -1.24271e-09 -0.00100001)
(-2.76923e-10 -1.19679e-09 -0.00100001)
(-7.748e-10 -1.18561e-09 -0.00100001)
(-1.17959e-09 -1.18454e-09 -0.00100001)
(-1.45883e-09 -1.18667e-09 -0.00100001)
(-1.60927e-09 -1.22964e-09 -0.00100001)
(-1.56875e-09 -1.05851e-09 -0.00100001)
(-1.357e-09 -1.08477e-09 -0.00100001)
(-1.066e-09 -1.04486e-09 -0.00100001)
(-6.78813e-10 -1.04535e-09 -0.00100001)
(-2.33359e-10 -1.07276e-09 -0.00100001)
(-2.72638e-10 -9.34846e-10 -0.00100001)
(-7.69584e-10 -9.28293e-10 -0.00100001)
(-1.16366e-09 -9.18353e-10 -0.00100001)
(-1.4317e-09 -8.86304e-10 -0.00100001)
(-1.57163e-09 -8.66392e-10 -0.00100001)
(-1.53383e-09 -8.30061e-10 -0.00100001)
(-1.34243e-09 -8.21042e-10 -0.00100001)
(-1.0742e-09 -8.26675e-10 -0.00100001)
(-7.05244e-10 -8.52974e-10 -0.00100001)
(-2.46416e-10 -8.85477e-10 -0.00100001)
(-2.68723e-10 -5.9202e-10 -0.00100001)
(-7.56483e-10 -5.86995e-10 -0.00100001)
(-1.13728e-09 -5.69602e-10 -0.00100001)
(-1.40664e-09 -5.42538e-10 -0.00100001)
(-1.55278e-09 -5.37358e-10 -0.00100001)
(-1.52317e-09 -5.25072e-10 -0.00100001)
(-1.35342e-09 -5.32314e-10 -0.00100001)
(-1.09792e-09 -5.6003e-10 -0.00100001)
(-7.39127e-10 -5.84226e-10 -0.00100001)
(-2.6722e-10 -6.15507e-10 -0.00100001)
(-2.66142e-10 -2.00589e-10 -0.00100001)
(-7.44656e-10 -1.98831e-10 -0.00100001)
(-1.11685e-09 -1.90503e-10 -0.00100001)
(-1.3965e-09 -1.80546e-10 -0.00100001)
(-1.55098e-09 -1.83125e-10 -0.00100001)
(-1.52588e-09 -1.81714e-10 -0.00100001)
(-1.37485e-09 -1.885e-10 -0.00100001)
(-1.12411e-09 -2.05403e-10 -0.00100001)
(-7.60425e-10 -2.16536e-10 -0.00100001)
(-2.78189e-10 -2.27605e-10 -0.00100001)
(-3.9671e-10 -2.98541e-10 -0.001)
(-1.10549e-09 -2.84324e-10 -0.001)
(-1.65817e-09 -2.76946e-10 -0.001)
(-2.04547e-09 -2.58101e-10 -0.001)
(-2.23922e-09 -2.47913e-10 -0.001)
(-2.21253e-09 -2.48851e-10 -0.001)
(-1.98537e-09 -2.67232e-10 -0.00100001)
(-1.5909e-09 -2.78843e-10 -0.00100001)
(-1.04365e-09 -2.97473e-10 -0.00100001)
(-3.68642e-10 -2.92363e-10 -0.00100001)
(-3.82676e-10 -8.27287e-10 -0.001)
(-1.08538e-09 -8.12037e-10 -0.001)
(-1.63506e-09 -7.88438e-10 -0.001)
(-2.02042e-09 -7.60847e-10 -0.001)
(-2.23414e-09 -7.41881e-10 -0.001)
(-2.23563e-09 -7.65486e-10 -0.00100001)
(-2.01864e-09 -8.17792e-10 -0.00100001)
(-1.62388e-09 -8.57962e-10 -0.00100001)
(-1.05947e-09 -8.74961e-10 -0.00100001)
(-3.64634e-10 -8.72983e-10 -0.00100001)
(-3.80678e-10 -1.27419e-09 -0.001)
(-1.06718e-09 -1.26562e-09 -0.001)
(-1.61021e-09 -1.25476e-09 -0.001)
(-2.00311e-09 -1.24655e-09 -0.001)
(-2.24829e-09 -1.26231e-09 -0.001)
(-2.29251e-09 -1.31319e-09 -0.00100001)
(-2.0814e-09 -1.3567e-09 -0.00100001)
(-1.6511e-09 -1.38341e-09 -0.00100001)
(-1.06224e-09 -1.37495e-09 -0.00100001)
(-3.68851e-10 -1.35366e-09 -0.00100001)
(-3.71773e-10 -1.64898e-09 -0.001)
(-1.06354e-09 -1.6636e-09 -0.001)
(-1.61602e-09 -1.65998e-09 -0.001)
(-2.02824e-09 -1.67223e-09 -0.001)
(-2.30112e-09 -1.91266e-09 -0.00100001)
(-2.33039e-09 -1.67588e-09 -0.00100001)
(-2.08922e-09 -1.76632e-09 -0.00100001)
(-1.6426e-09 -1.74602e-09 -0.00100001)
(-1.03252e-09 -1.70826e-09 -0.00100001)
(-3.45871e-10 -1.66063e-09 -0.00100001)
(-3.92191e-10 -1.85692e-09 -0.001)
(-1.07489e-09 -1.88396e-09 -0.001)
(-1.61858e-09 -1.88368e-09 -0.001)
(-2.25578e-09 -1.9162e-09 -0.00100001)
(-2.25194e-09 -1.85321e-09 -0.00100001)
(-2.14617e-09 -2.0127e-09 -0.00100001)
(-2.15151e-09 -1.92176e-09 -0.00100001)
(-1.59332e-09 -1.90877e-09 -0.00100001)
(-9.80201e-10 -1.87351e-09 -0.00100001)
(-3.24401e-10 -1.85344e-09 -0.00100001)
(-3.95427e-10 -1.8928e-09 -0.001)
(-1.08671e-09 -1.87331e-09 -0.001)
(-1.64793e-09 -1.87662e-09 -0.00100001)
(-1.99774e-09 -1.89601e-09 -0.00100001)
(-2.39765e-09 -1.69225e-09 -0.00100001)
(-2.39897e-09 -1.93562e-09 -0.00100001)
(-1.98528e-09 -1.84195e-09 -0.00100001)
(-1.59463e-09 -1.83558e-09 -0.00100001)
(-9.80816e-10 -1.8594e-09 -0.00100001)
(-3.29152e-10 -1.89897e-09 -0.00100001)
(-3.69431e-10 -1.7188e-09 -0.001)
(-1.05517e-09 -1.69491e-09 -0.00100001)
(-1.64095e-09 -1.68837e-09 -0.00100001)
(-2.07132e-09 -1.67044e-09 -0.00100001)
(-2.29152e-09 -1.72175e-09 -0.00100001)
(-2.29591e-09 -1.54658e-09 -0.00100001)
(-2.05153e-09 -1.62233e-09 -0.00100001)
(-1.61109e-09 -1.62506e-09 -0.00100001)
(-1.04719e-09 -1.68198e-09 -0.00100001)
(-3.67174e-10 -1.7436e-09 -0.00100001)
(-3.68587e-10 -1.3413e-09 -0.00100001)
(-1.0531e-09 -1.33681e-09 -0.00100001)
(-1.62317e-09 -1.34151e-09 -0.00100001)
(-2.03107e-09 -1.31963e-09 -0.00100001)
(-2.27374e-09 -1.30166e-09 -0.00100001)
(-2.29953e-09 -1.30128e-09 -0.00100001)
(-2.06376e-09 -1.30309e-09 -0.00100001)
(-1.65455e-09 -1.3381e-09 -0.00100001)
(-1.10267e-09 -1.38599e-09 -0.00100001)
(-3.93715e-10 -1.41498e-09 -0.00100001)
(-3.62613e-10 -8.47534e-10 -0.00100001)
(-1.05279e-09 -8.47194e-10 -0.00100001)
(-1.62332e-09 -8.5103e-10 -0.00100001)
(-2.03115e-09 -8.46434e-10 -0.00100001)
(-2.27282e-09 -8.65209e-10 -0.00100001)
(-2.29699e-09 -8.6284e-10 -0.00100001)
(-2.08806e-09 -8.74519e-10 -0.00100001)
(-1.69397e-09 -9.15576e-10 -0.00100001)
(-1.1266e-09 -9.33426e-10 -0.00100001)
(-3.98535e-10 -9.40316e-10 -0.00100001)
(-3.6619e-10 -2.85485e-10 -0.00100001)
(-1.05304e-09 -2.9015e-10 -0.00100001)
(-1.61901e-09 -2.88131e-10 -0.00100001)
(-2.04104e-09 -2.88912e-10 -0.00100001)
(-2.28557e-09 -3.01891e-10 -0.00100001)
(-2.30445e-09 -3.05853e-10 -0.00100001)
(-2.11249e-09 -3.13368e-10 -0.00100001)
(-1.71031e-09 -3.33949e-10 -0.00100001)
(-1.12703e-09 -3.32699e-10 -0.00100001)
(-4.01485e-10 -3.35775e-10 -0.00100001)
(-5.57876e-10 -4.27401e-10 -0.001)
(-1.53345e-09 -4.01588e-10 -0.001)
(-2.30222e-09 -3.95968e-10 -0.001)
(-2.88907e-09 -3.84914e-10 -0.001)
(-3.19223e-09 -3.87262e-10 -0.001)
(-3.16792e-09 -3.92393e-10 -0.001)
(-2.85013e-09 -4.02209e-10 -0.00100001)
(-2.27995e-09 -4.1025e-10 -0.00100001)
(-1.48425e-09 -4.18334e-10 -0.00100001)
(-5.16242e-10 -4.14413e-10 -0.00100001)
(-5.32309e-10 -1.16554e-09 -0.001)
(-1.50398e-09 -1.1375e-09 -0.001)
(-2.28971e-09 -1.12446e-09 -0.001)
(-2.88559e-09 -1.12297e-09 -0.001)
(-3.20535e-09 -1.13464e-09 -0.001)
(-3.18828e-09 -1.16423e-09 -0.001)
(-2.87279e-09 -1.19407e-09 -0.00100001)
(-2.30009e-09 -1.21659e-09 -0.00100001)
(-1.49171e-09 -1.21732e-09 -0.00100001)
(-5.13876e-10 -1.21152e-09 -0.00100001)
(-5.28826e-10 -1.77904e-09 -0.001)
(-1.49309e-09 -1.76764e-09 -0.001)
(-2.292e-09 -1.77091e-09 -0.001)
(-2.90482e-09 -1.78323e-09 -0.001)
(-3.23958e-09 -1.80651e-09 -0.001)
(-3.23325e-09 -1.8881e-09 -0.00100001)
(-2.90766e-09 -1.89595e-09 -0.00100001)
(-2.30758e-09 -1.90156e-09 -0.00100001)
(-1.48421e-09 -1.88236e-09 -0.00100001)
(-5.13523e-10 -1.8599e-09 -0.00100001)
(-5.17825e-10 -2.30413e-09 -0.001)
(-1.49263e-09 -2.29372e-09 -0.001)
(-2.30532e-09 -2.28587e-09 -0.001)
(-2.92162e-09 -2.29487e-09 -0.001)
(-3.31071e-09 -2.43437e-09 -0.001)
(-3.27831e-09 -2.40106e-09 -0.00100001)
(-2.88667e-09 -2.41044e-09 -0.00100001)
(-2.28708e-09 -2.37327e-09 -0.00100001)
(-1.45392e-09 -2.33937e-09 -0.00100001)
(-4.94915e-10 -2.32297e-09 -0.00100001)
(-5.14356e-10 -2.59982e-09 -0.001)
(-1.47041e-09 -2.59883e-09 -0.001)
(-2.29275e-09 -2.58443e-09 -0.001)
(-3.05336e-09 -2.62823e-09 -0.001)
(-3.34578e-09 -2.64401e-09 -0.00100001)
(-3.20944e-09 -2.59472e-09 -0.00100001)
(-2.88001e-09 -2.61963e-09 -0.00100001)
(-2.23692e-09 -2.61833e-09 -0.00100001)
(-1.43854e-09 -2.61039e-09 -0.00100001)
(-5.014e-10 -2.62269e-09 -0.00100001)
(-5.12299e-10 -2.62174e-09 -0.001)
(-1.47226e-09 -2.61473e-09 -0.001)
(-2.33424e-09 -2.62544e-09 -0.001)
(-2.98124e-09 -2.63878e-09 -0.00100001)
(-3.27722e-09 -2.51987e-09 -0.00100001)
(-3.2538e-09 -2.54119e-09 -0.00100001)
(-2.91043e-09 -2.57973e-09 -0.00100001)
(-2.2783e-09 -2.62809e-09 -0.00100001)
(-1.4634e-09 -2.6923e-09 -0.00100001)
(-5.11869e-10 -2.724e-09 -0.00100001)
(-5.02869e-10 -2.37783e-09 -0.001)
(-1.46921e-09 -2.38038e-09 -0.001)
(-2.31626e-09 -2.3861e-09 -0.00100001)
(-2.94772e-09 -2.34789e-09 -0.00100001)
(-3.24834e-09 -2.31707e-09 -0.00100001)
(-3.26928e-09 -2.32025e-09 -0.00100001)
(-2.96686e-09 -2.36241e-09 -0.00100001)
(-2.34989e-09 -2.41645e-09 -0.00100001)
(-1.53967e-09 -2.48977e-09 -0.00100001)
(-5.37829e-10 -2.53632e-09 -0.00100001)
(-5.10808e-10 -1.88722e-09 -0.001)
(-1.47617e-09 -1.89298e-09 -0.00100001)
(-2.30134e-09 -1.9094e-09 -0.00100001)
(-2.91212e-09 -1.8976e-09 -0.00100001)
(-3.2495e-09 -1.8903e-09 -0.00100001)
(-3.29919e-09 -1.91653e-09 -0.00100001)
(-3.00663e-09 -1.9298e-09 -0.00100001)
(-2.40602e-09 -1.97856e-09 -0.00100001)
(-1.58812e-09 -2.02008e-09 -0.00100001)
(-5.62841e-10 -2.02898e-09 -0.00100001)
(-5.05325e-10 -1.20054e-09 -0.00100001)
(-1.48773e-09 -1.21088e-09 -0.00100001)
(-2.32025e-09 -1.22584e-09 -0.00100001)
(-2.92817e-09 -1.23604e-09 -0.00100001)
(-3.26681e-09 -1.26461e-09 -0.00100001)
(-3.30832e-09 -1.28008e-09 -0.00100001)
(-3.02847e-09 -1.28653e-09 -0.00100001)
(-2.44012e-09 -1.3198e-09 -0.00100001)
(-1.59372e-09 -1.32516e-09 -0.00100001)
(-5.50203e-10 -1.30379e-09 -0.00100001)
(-5.18169e-10 -4.05904e-10 -0.00100001)
(-1.49642e-09 -4.20308e-10 -0.00100001)
(-2.32168e-09 -4.18e-10 -0.00100001)
(-2.94504e-09 -4.26084e-10 -0.00100001)
(-3.28713e-09 -4.40204e-10 -0.00100001)
(-3.31472e-09 -4.52241e-10 -0.00100001)
(-3.04053e-09 -4.52507e-10 -0.00100001)
(-2.44016e-09 -4.6973e-10 -0.00100001)
(-1.57156e-09 -4.5685e-10 -0.00100001)
(-5.42717e-10 -4.49542e-10 -0.00100001)
(-7.53248e-10 -5.81106e-10 -0.000999998)
(-2.09725e-09 -5.51003e-10 -0.000999998)
(-3.20144e-09 -5.54047e-10 -0.000999999)
(-4.06196e-09 -5.56123e-10 -0.001)
(-4.50172e-09 -5.702e-10 -0.001)
(-4.47193e-09 -5.77765e-10 -0.001)
(-4.02472e-09 -5.8243e-10 -0.00100001)
(-3.20917e-09 -5.84052e-10 -0.00100001)
(-2.07525e-09 -5.80055e-10 -0.00100001)
(-7.16076e-10 -5.83241e-10 -0.00100001)
(-7.23467e-10 -1.60776e-09 -0.000999998)
(-2.07277e-09 -1.5785e-09 -0.000999999)
(-3.21214e-09 -1.5897e-09 -0.001)
(-4.08517e-09 -1.61627e-09 -0.001)
(-4.53112e-09 -1.65989e-09 -0.001)
(-4.49191e-09 -1.68019e-09 -0.001)
(-4.03802e-09 -1.68975e-09 -0.00100001)
(-3.21251e-09 -1.68897e-09 -0.00100001)
(-2.07913e-09 -1.68186e-09 -0.00100001)
(-7.21492e-10 -1.67789e-09 -0.00100001)
(-7.22676e-10 -2.47068e-09 -0.000999999)
(-2.08014e-09 -2.46982e-09 -0.000999999)
(-3.24501e-09 -2.49373e-09 -0.001)
(-4.13972e-09 -2.53085e-09 -0.001)
(-4.57393e-09 -2.56557e-09 -0.001)
(-4.51007e-09 -2.61805e-09 -0.001)
(-4.04106e-09 -2.60676e-09 -0.00100001)
(-3.2076e-09 -2.60023e-09 -0.00100001)
(-2.07127e-09 -2.59073e-09 -0.00100001)
(-7.16423e-10 -2.5786e-09 -0.00100001)
(-7.1845e-10 -3.17126e-09 -0.001)
(-2.09148e-09 -3.16408e-09 -0.001)
(-3.27322e-09 -3.17963e-09 -0.001)
(-4.15755e-09 -3.20415e-09 -0.001)
(-4.6189e-09 -3.19214e-09 -0.001)
(-4.53357e-09 -3.29865e-09 -0.00100001)
(-4.02077e-09 -3.28066e-09 -0.00100001)
(-3.1974e-09 -3.25901e-09 -0.00100001)
(-2.0629e-09 -3.25447e-09 -0.00100001)
(-7.14171e-10 -3.27155e-09 -0.00100001)
(-7.10042e-10 -3.5799e-09 -0.001)
(-2.08258e-09 -3.5692e-09 -0.001)
(-3.28463e-09 -3.56742e-09 -0.001)
(-4.15224e-09 -3.5958e-09 -0.001)
(-4.6686e-09 -3.63179e-09 -0.00100001)
(-4.59857e-09 -3.471e-09 -0.00100001)
(-4.00141e-09 -3.57798e-09 -0.00100001)
(-3.18196e-09 -3.60953e-09 -0.00100001)
(-2.0903e-09 -3.63716e-09 -0.00100001)
(-7.3942e-10 -3.67011e-09 -0.00100001)
(-7.01665e-10 -3.63379e-09 -0.001)
(-2.07238e-09 -3.64851e-09 -0.001)
(-3.2993e-09 -3.65129e-09 -0.001)
(-4.22179e-09 -3.6308e-09 -0.001)
(-4.49411e-09 -3.64456e-09 -0.00100001)
(-4.48e-09 -3.49879e-09 -0.00100001)
(-4.15927e-09 -3.59803e-09 -0.00100001)
(-3.25716e-09 -3.67078e-09 -0.00100001)
(-2.13065e-09 -3.73285e-09 -0.00100001)
(-7.53625e-10 -3.73217e-09 -0.00100001)
(-7.18556e-10 -3.31127e-09 -0.001)
(-2.09339e-09 -3.33752e-09 -0.001)
(-3.26648e-09 -3.33336e-09 -0.001)
(-4.14556e-09 -3.29172e-09 -0.00100001)
(-4.53637e-09 -3.24221e-09 -0.00100001)
(-4.55205e-09 -3.36667e-09 -0.00100001)
(-4.17348e-09 -3.3524e-09 -0.00100001)
(-3.31736e-09 -3.40343e-09 -0.00100001)
(-2.15886e-09 -3.44603e-09 -0.00100001)
(-7.4532e-10 -3.4454e-09 -0.00100001)
(-7.22213e-10 -2.64092e-09 -0.001)
(-2.08835e-09 -2.64231e-09 -0.001)
(-3.25299e-09 -2.65229e-09 -0.00100001)
(-4.13065e-09 -2.65027e-09 -0.00100001)
(-4.56909e-09 -2.65136e-09 -0.00100001)
(-4.5901e-09 -2.70779e-09 -0.00100001)
(-4.19603e-09 -2.70723e-09 -0.00100001)
(-3.35129e-09 -2.74142e-09 -0.00100001)
(-2.17919e-09 -2.76064e-09 -0.00100001)
(-7.59061e-10 -2.7494e-09 -0.00100001)
(-7.15359e-10 -1.68538e-09 -0.00100001)
(-2.09961e-09 -1.69965e-09 -0.00100001)
(-3.27355e-09 -1.71172e-09 -0.00100001)
(-4.14404e-09 -1.72367e-09 -0.00100001)
(-4.59326e-09 -1.73674e-09 -0.00100001)
(-4.60726e-09 -1.7669e-09 -0.00100001)
(-4.20653e-09 -1.76362e-09 -0.00100001)
(-3.37071e-09 -1.7816e-09 -0.00100001)
(-2.17172e-09 -1.77777e-09 -0.00100001)
(-7.3875e-10 -1.7421e-09 -0.00100001)
(-7.32279e-10 -5.74577e-10 -0.00100001)
(-2.10753e-09 -5.93726e-10 -0.00100001)
(-3.27031e-09 -5.87341e-10 -0.00100001)
(-4.14764e-09 -5.96526e-10 -0.00100001)
(-4.60348e-09 -5.98282e-10 -0.00100001)
(-4.60802e-09 -6.14847e-10 -0.00100001)
(-4.20257e-09 -6.07378e-10 -0.00100001)
(-3.3593e-09 -6.1852e-10 -0.00100001)
(-2.1389e-09 -6.01847e-10 -0.00100001)
(-7.25023e-10 -5.8838e-10 -0.00100002)
(-1.0078e-09 -7.81344e-10 -0.000999995)
(-2.87539e-09 -7.62142e-10 -0.000999995)
(-4.46094e-09 -7.76346e-10 -0.000999996)
(-5.66378e-09 -7.91544e-10 -0.000999998)
(-6.28183e-09 -8.18847e-10 -0.001)
(-6.26211e-09 -8.21946e-10 -0.001)
(-5.63525e-09 -8.17067e-10 -0.001)
(-4.47596e-09 -8.11547e-10 -0.00100001)
(-2.88648e-09 -7.99615e-10 -0.00100001)
(-9.95086e-10 -8.07593e-10 -0.00100001)
(-9.89018e-10 -2.22709e-09 -0.000999995)
(-2.87393e-09 -2.21651e-09 -0.000999996)
(-4.49801e-09 -2.25487e-09 -0.000999997)
(-5.71611e-09 -2.30161e-09 -0.000999999)
(-6.32308e-09 -2.37298e-09 -0.001)
(-6.27121e-09 -2.36894e-09 -0.001)
(-5.63471e-09 -2.34698e-09 -0.001)
(-4.46637e-09 -2.32161e-09 -0.00100001)
(-2.88894e-09 -2.3121e-09 -0.00100001)
(-1.00612e-09 -2.3082e-09 -0.00100001)
(-9.95323e-10 -3.4643e-09 -0.000999996)
(-2.90441e-09 -3.49096e-09 -0.000999997)
(-4.55403e-09 -3.5338e-09 -0.000999998)
(-5.79244e-09 -3.58143e-09 -0.001)
(-6.36084e-09 -3.61812e-09 -0.001)
(-6.24784e-09 -3.61826e-09 -0.001)
(-5.59853e-09 -3.58135e-09 -0.00100001)
(-4.44978e-09 -3.56069e-09 -0.00100001)
(-2.88282e-09 -3.55939e-09 -0.00100001)
(-9.97101e-10 -3.5531e-09 -0.00100001)
(-1.00984e-09 -4.41891e-09 -0.000999997)
(-2.93738e-09 -4.45117e-09 -0.000999998)
(-4.58855e-09 -4.49524e-09 -0.000999999)
(-5.80119e-09 -4.51402e-09 -0.001)
(-6.36077e-09 -4.44498e-09 -0.001)
(-6.23533e-09 -4.4682e-09 -0.00100001)
(-5.57796e-09 -4.47698e-09 -0.00100001)
(-4.44562e-09 -4.47504e-09 -0.00100001)
(-2.88873e-09 -4.48659e-09 -0.00100001)
(-1.0064e-09 -4.50953e-09 -0.00100001)
(-1.01997e-09 -4.96078e-09 -0.000999999)
(-2.97252e-09 -4.96632e-09 -0.001)
(-4.6162e-09 -4.98307e-09 -0.001)
(-5.74218e-09 -4.97472e-09 -0.001)
(-6.31495e-09 -4.92841e-09 -0.001)
(-6.27996e-09 -4.8516e-09 -0.00100001)
(-5.60545e-09 -4.9227e-09 -0.00100001)
(-4.46015e-09 -4.96017e-09 -0.00100001)
(-2.92623e-09 -4.99576e-09 -0.00100001)
(-1.02819e-09 -5.02027e-09 -0.00100001)
(-1.00697e-09 -5.02789e-09 -0.001)
(-2.95049e-09 -5.03864e-09 -0.001)
(-4.59618e-09 -5.01381e-09 -0.001)
(-5.74658e-09 -4.9681e-09 -0.001)
(-6.23767e-09 -4.99534e-09 -0.00100001)
(-6.22956e-09 -4.92437e-09 -0.00100001)