/*--------------------------------*- C++ -*----------------------------------*\
| =========                 |                                                 |
| \\      /  F ield         | OpenFOAM: The Open Source CFD Toolbox           |
|  \\    /   O peration     | Version:  5.x                                   |
|   \\  /    A nd           | Web:      www.OpenFOAM.org                      |
|    \\/     M anipulation  |                                                 |
\*---------------------------------------------------------------------------*/
FoamFile
{
    version     2.0;
    format      ascii;
    class       volScalarField;
    location    "70000";
    object      p;
}
// * * * * * * * * * * * * * * * * * * * * * * * * * * * * * * * * * * * * * //

dimensions      [0 2 -2 0 0 0 0];

internalField   nonuniform List<scalar> 
2250
(
-6.40587e-11
-1.29423e-10
-1.58726e-10
-1.29516e-10
-7.17877e-11
-4.62937e-11
-5.94916e-11
-5.38971e-11
-2.71739e-11
-2.01483e-13
-5.00996e-11
-3.17767e-11
4.90843e-13
2.57129e-11
3.25168e-11
-7.95333e-11
-3.11642e-11
1.86935e-11
3.92006e-11
3.07825e-11
-1.00475e-10
-3.69065e-11
1.51527e-11
2.62677e-11
7.62246e-12
3.19823e-11
-1.53178e-10
-2.28403e-10
-1.73987e-10
-8.13227e-11
-5.96381e-11
-8.40482e-11
-5.6252e-11
-1.42077e-11
3.81488e-12
-1.74388e-10
-8.4597e-11
4.93009e-12
3.60037e-11
1.10559e-11
-2.88758e-10
-1.20197e-10
-4.42749e-12
6.66204e-12
-4.63305e-11
-3.41965e-10
-1.49526e-10
-4.76362e-11
-6.17664e-11
-1.24771e-10
2.85454e-10
3.75097e-11
-5.70594e-11
-6.36533e-11
-8.40282e-11
-5.2229e-11
-3.72525e-11
1.89632e-12
-1.44053e-11
-7.64756e-11
-3.0288e-10
-1.18548e-10
-2.46916e-11
-5.57607e-11
-1.36003e-10
-4.61773e-10
-2.02176e-10
-1.04085e-10
-1.55147e-10
-2.37699e-10
-5.05012e-10
-2.50321e-10
-1.85889e-10
-2.48321e-10
-3.0278e-10
2.47867e-10
1.33375e-10
6.45276e-11
-8.44453e-11
-2.64201e-10
-8.64519e-11
1.59059e-12
1.3776e-11
-9.90969e-11
-2.1611e-10
-2.74554e-10
-8.61802e-11
-6.5552e-11
-1.68155e-10
-2.49139e-10
-3.65021e-10
-1.63832e-10
-1.61562e-10
-2.54216e-10
-2.90018e-10
-3.69997e-10
-2.04669e-10
-2.19172e-10
-2.77723e-10
-2.43742e-10
-7.3613e-11
7.15918e-11
5.04713e-11
-1.75778e-10
-3.79013e-10
-4.1987e-11
8.1289e-11
5.8525e-11
-7.66112e-11
-1.48741e-10
2.1084e-11
1.01776e-10
5.52083e-11
-3.45721e-11
-3.97583e-11
5.80525e-11
9.69975e-11
4.26147e-11
1.72041e-12
6.41246e-11
7.18633e-11
8.93226e-11
6.40864e-11
9.32841e-11
2.20868e-10
-2.14662e-10
1.04437e-10
1.63194e-10
4.6798e-11
-1.14162e-11
1.81854e-10
3.16041e-10
3.3697e-10
3.11854e-10
3.51903e-10
4.50209e-10
4.7239e-10
4.7989e-10
5.14046e-10
6.05618e-10
5.71215e-10
5.58154e-10
5.90045e-10
6.90006e-10
8.299e-10
5.82509e-10
5.8923e-10
6.81837e-10
8.46021e-10
1.00487e-09
8.70465e-11
4.23715e-10
6.24918e-10
7.51216e-10
8.80102e-10
5.21521e-10
7.36348e-10
9.1032e-10
1.0713e-09
1.2105e-09
8.04332e-10
9.5571e-10
1.148e-09
1.35452e-09
1.50803e-09
9.27914e-10
1.08769e-09
1.33199e-09
1.59517e-09
1.75785e-09
9.34686e-10
1.14327e-09
1.44642e-09
1.73536e-09
1.86936e-09
7.52492e-10
1.05125e-09
1.38671e-09
1.72498e-09
1.96563e-09
9.52231e-10
1.30109e-09
1.65049e-09
1.96669e-09
2.15187e-09
1.08313e-09
1.47637e-09
1.87698e-09
2.22107e-09
2.39631e-09
1.13838e-09
1.59522e-09
2.06741e-09
2.45037e-09
2.60934e-09
1.1436e-09
1.66943e-09
2.17754e-09
2.54646e-09
2.65499e-09
1.67227e-09
1.87328e-09
2.25572e-09
2.67403e-09
2.92441e-09
1.52658e-09
1.95507e-09
2.40495e-09
2.78826e-09
2.97945e-09
1.47355e-09
2.0405e-09
2.5666e-09
2.97641e-09
3.16341e-09
1.46278e-09
2.13956e-09
2.7456e-09
3.17976e-09
3.34184e-09
1.49405e-09
2.23991e-09
2.85322e-09
3.25047e-09
3.35221e-09
2.36585e-09
2.6253e-09
3.05711e-09
3.46544e-09
3.67543e-09
2.12373e-09
2.61981e-09
3.1207e-09
3.52465e-09
3.73306e-09
2.06423e-09
2.6847e-09
3.25855e-09
3.69651e-09
3.9113e-09
2.08891e-09
2.80829e-09
3.44207e-09
3.88245e-09
4.05365e-09
2.17482e-09
2.92059e-09
3.53627e-09
3.9258e-09
4.03061e-09
2.53231e-09
3.1908e-09
3.78648e-09
4.2362e-09
4.47698e-09
2.57707e-09
3.26031e-09
3.88063e-09
4.36681e-09
4.6497e-09
2.69223e-09
3.3941e-09
4.05458e-09
4.55503e-09
4.8126e-09
2.82424e-09
3.55926e-09
4.2237e-09
4.67844e-09
4.86317e-09
2.94072e-09
3.64634e-09
4.26597e-09
4.65999e-09
4.79849e-09
2.72803e-09
3.81739e-09
4.70085e-09
5.37855e-09
5.78496e-09
2.94796e-09
3.97195e-09
4.87299e-09
5.566e-09
5.95754e-09
3.16786e-09
4.16384e-09
5.05034e-09
5.68254e-09
5.98924e-09
3.37052e-09
4.32594e-09
5.13208e-09
5.66244e-09
5.90189e-09
3.48864e-09
4.3659e-09
5.09551e-09
5.57786e-09
5.82024e-09
3.36359e-09
4.75987e-09
6.08936e-09
7.15363e-09
7.74726e-09
3.40124e-09
4.91151e-09
6.2383e-09
7.20732e-09
7.68944e-09
3.59631e-09
5.08528e-09
6.30778e-09
7.13244e-09
7.52271e-09
3.82109e-09
5.18399e-09
6.25122e-09
6.96671e-09
7.34207e-09
3.93968e-09
5.17471e-09
6.16153e-09
6.867e-09
7.28609e-09
4.15907e-09
6.05481e-09
7.94483e-09
9.36381e-09
1.00577e-08
4.07614e-09
6.15917e-09
7.94338e-09
9.19068e-09
9.78042e-09
4.25329e-09
6.24992e-09
7.85675e-09
8.96249e-09
9.52001e-09
4.45058e-09
6.25544e-09
7.71146e-09
8.75878e-09
9.34322e-09
4.51912e-09
6.20512e-09
7.62581e-09
8.68996e-09
9.32309e-09
5.11549e-09
7.66025e-09
1.00533e-08
1.17555e-08
1.25799e-08
5.01596e-09
7.66218e-09
9.91537e-09
1.15152e-08
1.23202e-08
5.12699e-09
7.64214e-09
9.75817e-09
1.12973e-08
1.21072e-08
5.20149e-09
7.57549e-09
9.62168e-09
1.11417e-08
1.19721e-08
5.15873e-09
7.50876e-09
9.55728e-09
1.10879e-08
1.19377e-08
6.24434e-09
9.45745e-09
1.24201e-08
1.45844e-08
1.57302e-08
5.97224e-09
9.339e-09
1.227e-08
1.44268e-08
1.55597e-08
5.9282e-09
9.24326e-09
1.21323e-08
1.42671e-08
1.53807e-08
5.85867e-09
9.1452e-09
1.20115e-08
1.41199e-08
1.52279e-08
5.74942e-09
9.06753e-09
1.19231e-08
1.40243e-08
1.51073e-08
7.16955e-09
1.14834e-08
1.5437e-08
1.83992e-08
1.99948e-08
6.73143e-09
1.12901e-08
1.52824e-08
1.82197e-08
1.97448e-08
6.56342e-09
1.11399e-08
1.51032e-08
1.79921e-08
1.94826e-08
6.41087e-09
1.09874e-08
1.49068e-08
1.77626e-08
1.92286e-08
6.29259e-09
1.08644e-08
1.47593e-08
1.75915e-08
1.90119e-08
8.10095e-09
1.41392e-08
1.95515e-08
2.35396e-08
2.56066e-08
7.50401e-09
1.37891e-08
1.92285e-08
2.31675e-08
2.51945e-08
7.19007e-09
1.34965e-08
1.88801e-08
2.2777e-08
2.47916e-08
6.94298e-09
1.32281e-08
1.85636e-08
2.2435e-08
2.44201e-08
6.79379e-09
1.30577e-08
1.83759e-08
2.22082e-08
2.41883e-08
9.33855e-09
1.77212e-08
2.50494e-08
3.03266e-08
3.30195e-08
8.49938e-09
1.71166e-08
2.44765e-08
2.97742e-08
3.25211e-08
7.97915e-09
1.66244e-08
2.39548e-08
2.92545e-08
3.20073e-08
7.63104e-09
1.62571e-08
2.35595e-08
2.88323e-08
3.15939e-08
7.46446e-09
1.60758e-08
2.33503e-08
2.86083e-08
3.14408e-08
1.07283e-08
2.24199e-08
3.23852e-08
3.95018e-08
4.31979e-08
9.83769e-09
2.16582e-08
3.16529e-08
3.88546e-08
4.26172e-08
9.20079e-09
2.10358e-08
3.10384e-08
3.82634e-08
4.2058e-08
8.81756e-09
2.06155e-08
3.05928e-08
3.78241e-08
4.17001e-08
8.65965e-09
2.04074e-08
3.03651e-08
3.76577e-08
4.1607e-08
1.2802e-08
2.88218e-08
4.23717e-08
5.21241e-08
5.72735e-08
1.18881e-08
2.79705e-08
4.15528e-08
5.13822e-08
5.65492e-08
1.11589e-08
2.72588e-08
4.0872e-08
5.07471e-08
5.59906e-08
1.07004e-08
2.67567e-08
4.03807e-08
5.03428e-08
5.56689e-08
1.04804e-08
2.64928e-08
4.01609e-08
5.02046e-08
5.54966e-08
1.60802e-08
3.76138e-08
5.60157e-08
6.94163e-08
7.64735e-08
1.48766e-08
3.66419e-08
5.51106e-08
6.85326e-08
7.55994e-08
1.39816e-08
3.58252e-08
5.43472e-08
6.78446e-08
7.49869e-08
1.33737e-08
3.52247e-08
5.38259e-08
6.74314e-08
7.45593e-08
1.30634e-08
3.49438e-08
5.36193e-08
6.72113e-08
7.42471e-08
2.03341e-08
4.95455e-08
7.46487e-08
9.29397e-08
1.02464e-07
1.89073e-08
4.84648e-08
7.35992e-08
9.18609e-08
1.01444e-07
1.79198e-08
4.75464e-08
7.2725e-08
9.10638e-08
1.00675e-07
1.72227e-08
4.6888e-08
7.21665e-08
9.05415e-08
1.00091e-07
1.68749e-08
4.66125e-08
7.19192e-08
9.0213e-08
9.97447e-08
2.60133e-08
6.59171e-08
1.00061e-07
1.24797e-07
1.37707e-07
2.4496e-08
6.46313e-08
9.87659e-08
1.23544e-07
1.36553e-07
2.34192e-08
6.35645e-08
9.77568e-08
1.22616e-07
1.35618e-07
2.26243e-08
6.28473e-08
9.71322e-08
1.2197e-07
1.34963e-07
2.21981e-08
6.25149e-08
9.6795e-08
1.21605e-07
1.34637e-07
3.39619e-08
8.82845e-08
1.34586e-07
1.68148e-07
1.85883e-07
3.21385e-08
8.6646e-08
1.3306e-07
1.66789e-07
1.8453e-07
3.07514e-08
8.53598e-08
1.31922e-07
1.65722e-07
1.83435e-07
2.97186e-08
8.45144e-08
1.31166e-07
1.6495e-07
1.8269e-07
2.91213e-08
8.40337e-08
1.30701e-07
1.6453e-07
1.82313e-07
4.45733e-08
1.18594e-07
1.81687e-07
2.27584e-07
2.51824e-07
4.22581e-08
1.16622e-07
1.79972e-07
2.25971e-07
2.5011e-07
4.04257e-08
1.15071e-07
1.78612e-07
2.24618e-07
2.48754e-07
3.90601e-08
1.13949e-07
1.77554e-07
2.23609e-07
2.47803e-07
3.82474e-08
1.13262e-07
1.76925e-07
2.23069e-07
2.4727e-07
5.88769e-08
1.60025e-07
2.46219e-07
3.08884e-07
3.41724e-07
5.6097e-08
1.57683e-07
2.44125e-07
3.06731e-07
3.39597e-07
5.37828e-08
1.55699e-07
2.42299e-07
3.04928e-07
3.37888e-07
5.19862e-08
1.54109e-07
2.40802e-07
3.0358e-07
3.36606e-07
5.09902e-08
1.53201e-07
2.40001e-07
3.02853e-07
3.35812e-07
7.88192e-08
2.16839e-07
3.34388e-07
4.19727e-07
4.64566e-07
7.55914e-08
2.13852e-07
3.31655e-07
4.16834e-07
4.61793e-07
7.26818e-08
2.11205e-07
3.2929e-07
4.14636e-07
4.59807e-07
7.03528e-08
2.09011e-07
3.27305e-07
4.12782e-07
4.57956e-07
6.91381e-08
2.07768e-07
3.26227e-07
4.11704e-07
4.56886e-07
1.06518e-07
2.9425e-07
4.54697e-07
5.71047e-07
6.32649e-07
1.0321e-07
2.90197e-07
4.51312e-07
5.66956e-07
6.28629e-07
9.9807e-08
2.86781e-07
4.48735e-07
5.64734e-07
6.26906e-07
9.68884e-08
2.8362e-07
4.45995e-07
5.61834e-07
6.24019e-07
9.51303e-08
2.81681e-07
4.44408e-07
5.60285e-07
6.22618e-07
1.45888e-07
3.99439e-07
6.19798e-07
7.78286e-07
8.63013e-07
1.44317e-07
3.92557e-07
6.16059e-07
7.70497e-07
8.55833e-07
1.41215e-07
3.87918e-07
6.14214e-07
7.69661e-07
8.56709e-07
1.37911e-07
3.82462e-07
6.10153e-07
7.64131e-07
8.51149e-07
1.35581e-07
3.78997e-07
6.08053e-07
7.62018e-07
8.49512e-07
2.05702e-07
5.41935e-07
8.49958e-07
1.06484e-06
1.18345e-06
2.1208e-07
5.23584e-07
8.47043e-07
1.04065e-06
1.16311e-06
2.11274e-07
5.16554e-07
8.49202e-07
1.04844e-06
1.17631e-06
2.09375e-07
5.04818e-07
8.43381e-07
1.03404e-06
1.16181e-06
2.07345e-07
4.97877e-07
8.41521e-07
1.03161e-06
1.16146e-06
3.0175e-07
7.35764e-07
1.17915e-06
1.4672e-06
1.63847e-06
3.3079e-07
6.78995e-07
1.17719e-06
1.38496e-06
1.57515e-06
3.31944e-07
6.73562e-07
1.19299e-06
1.42869e-06
1.6285e-06
3.35766e-07
6.4587e-07
1.18479e-06
1.38418e-06
1.58669e-06
3.34435e-07
6.31997e-07
1.18522e-06
1.38546e-06
1.59495e-06
4.55167e-07
1.00837e-06
1.65195e-06
2.03582e-06
2.28605e-06
5.37131e-07
8.55195e-07
1.64106e-06
1.82216e-06
2.13026e-06
5.19856e-07
8.78358e-07
1.68794e-06
1.95482e-06
2.27136e-06
5.40331e-07
8.13784e-07
1.67376e-06
1.83708e-06
2.16847e-06
5.36281e-07
7.87714e-07
1.6802e-06
1.85547e-06
2.19957e-06
6.75569e-07
1.40463e-06
2.30706e-06
2.84146e-06
3.19885e-06
8.1376e-07
1.17776e-06
2.19868e-06
2.46516e-06
2.88428e-06
7.68814e-07
1.1731e-06
2.37335e-06
2.69145e-06
3.18144e-06
8.55529e-07
1.03298e-06
2.35291e-06
2.43922e-06
2.96959e-06
8.28516e-07
9.82724e-07
2.37346e-06
2.48647e-06
3.03722e-06
9.39104e-07
1.93793e-06
3.19966e-06
3.95734e-06
4.4607e-06
1.40413e-06
1.53721e-06
3.04943e-06
3.28123e-06
3.86343e-06
1.05119e-06
1.57082e-06
3.3186e-06
3.70014e-06
4.45957e-06
1.32932e-06
1.35929e-06
3.27296e-06
3.25074e-06
4.0734e-06
1.21591e-06
1.24032e-06
3.32605e-06
3.33315e-06
4.19632e-06
1.06519e-06
2.73299e-06
4.41146e-06
5.55834e-06
6.24219e-06
2.34596e-06
1.92241e-06
4.32393e-06
4.37258e-06
5.26979e-06
1.28718e-06
2.14349e-06
4.61916e-06
5.12965e-06
6.33614e-06
2.0353e-06
2.04274e-06
4.4303e-06
4.39858e-06
5.66411e-06
1.74409e-06
1.57977e-06
4.67748e-06
4.46895e-06
5.81581e-06
4.36956e-06
5.55235e-06
6.86305e-06
8.73674e-06
9.34468e-06
9.16931e-06
3.63432e-06
8.8497e-06
7.3831e-06
9.20006e-06
4.36247e-06
3.81774e-06
7.54495e-06
7.77588e-06
9.89899e-06
6.28883e-06
4.05886e-06
7.64673e-06
6.96406e-06
9.56363e-06
5.27089e-06
2.09599e-06
7.63529e-06
6.09876e-06
8.1749e-06
-4.87874e-06
6.38194e-08
3.96329e-06
6.35258e-06
8.31707e-06
1.65384e-06
-8.16494e-07
2.02863e-06
3.43134e-06
4.49555e-06
-4.39602e-06
5.20249e-07
4.12923e-06
6.51805e-06
9.31282e-06
-2.7938e-06
5.67687e-07
2.66513e-06
5.08625e-06
6.66286e-06
-3.61466e-06
6.48564e-07
4.27165e-06
6.94781e-06
9.62994e-06
1.53955e-05
1.86283e-05
1.29231e-05
2.43463e-05
2.07155e-05
5.0274e-05
6.77794e-06
2.81994e-05
1.66207e-05
2.18239e-05
1.05174e-05
1.15693e-05
1.66425e-05
1.90965e-05
2.71277e-05
2.15173e-05
1.94252e-05
1.90451e-05
1.78827e-05
2.8892e-05
1.56478e-05
5.28279e-06
1.86479e-05
1.06398e-05
1.41058e-05
-2.38834e-05
-1.67077e-05
9.64212e-06
2.32162e-06
1.50409e-05
-5.05331e-05
-7.93917e-06
-1.27578e-05
3.67495e-06
2.01623e-06
-1.60683e-05
-1.86661e-06
5.02938e-06
8.64067e-06
1.2736e-05
-1.76866e-05
-7.41686e-06
-2.68951e-06
7.31649e-06
1.59181e-06
-1.72653e-05
5.09327e-07
3.29805e-06
1.07178e-05
2.19048e-05
3.58711e-05
6.62796e-05
-1.85893e-05
6.41873e-05
1.75285e-05
0.00034656
-2.60118e-05
7.31179e-05
2.26123e-05
2.18948e-05
-6.24197e-06
2.50388e-05
1.74384e-05
3.23951e-05
8.26364e-05
4.62855e-05
9.96038e-05
1.59837e-05
3.28814e-05
0.000115811
1.57937e-05
-3.5257e-07
5.39953e-05
1.7686e-05
-2.3653e-05
0.00117481
0.000986993
0.000509279
0.000918264
0.000621143
0.0012451
0.000709087
0.000711098
0.000701273
0.00108934
0.00107393
0.000723252
0.00049101
0.000755994
0.00088806
0.000669401
0.000628779
0.000723044
0.000944692
0.00112873
0.000992864
0.000664547
0.000612652
0.00102007
0.00113902
0.00122953
0.00149392
0.00151952
0.00173027
0.00146266
0.00123361
0.00153155
0.00136326
0.00162077
0.00179472
0.00149507
0.0017269
0.0017772
0.00200025
0.00176515
0.00140015
0.00156294
0.00202006
0.00204837
0.00186113
0.00211093
0.00198758
0.00179706
0.00209656
0.00218302
0.00202426
0.00228209
0.00242948
0.00231079
0.00232229
0.00216331
0.00230017
0.00220691
0.00255499
0.00236937
0.00317597
0.00244904
0.00254407
0.00263331
0.00244444
0.00293269
0.00250232
0.0028027
0.00265865
0.00259102
0.00299852
0.0026227
0.0027715
0.00263099
0.00278886
0.00361361
0.00328148
0.00316266
0.00268715
0.00333966
0.00303085
0.00368967
0.00304662
0.00326636
0.00301644
0.0036015
0.00305789
0.00287029
0.00303019
0.00286681
0.00330158
0.00310944
0.00308774
0.00328013
0.00308097
0.00360988
0.00321918
0.00304686
0.0033501
0.00326396
0.00421083
0.00409865
0.00424343
0.00339936
0.00409554
0.00388081
0.00450729
0.00430275
0.00437656
0.00435259
0.00432547
0.00396125
0.00413566
0.00384007
0.00396038
0.00399581
0.00380761
0.00348025
0.0037892
0.00314537
0.00435615
0.00393661
0.00368362
0.00402846
0.00310595
0.00498671
0.00474419
0.00481973
0.0047543
0.00534753
0.0050999
0.00475926
0.00485067
0.00499282
0.00531119
0.00492242
0.00457282
0.00479537
0.00485676
0.00511644
0.00466444
0.00441804
0.00444145
0.00458448
0.0055185
0.00445228
0.00439716
0.00430714
0.0042213
0.00449215
0.00558159
0.00534668
0.00537913
0.00569192
0.00547388
0.00523911
0.00517153
0.00540536
0.00531609
0.00528154
0.00481276
0.00514845
0.00567512
0.00526925
0.00536564
0.00526278
0.00532401
0.00520131
0.00553704
0.00518696
0.00435914
0.00544118
0.0052458
0.00463971
0.0049395
0.00570382
0.00586116
0.00575481
0.00576269
0.005506
0.00549117
0.00595826
0.00586961
0.00582464
0.00530368
0.00526808
0.00616885
0.00586395
0.0061357
0.00549577
0.00589016
0.00588351
0.00572833
0.00575512
0.00545624
0.00558914
0.00620973
0.00582332
0.00602905
0.00482882
0.00590899
0.00647867
0.00653451
0.00590625
0.00705904
0.0064152
0.00637115
0.0063473
0.00622004
0.00651466
0.00658778
0.0065306
0.00611149
0.00607931
0.00616103
0.00647039
0.00654573
0.00615895
0.00593694
0.00630361
0.00630629
0.00681676
0.00597891
0.00603494
0.00576049
0.00684716
0.00687539
0.00694411
0.00696358
0.00693621
0.00685438
0.00698865
0.00691263
0.00682666
0.00699381
0.0068992
0.00705047
0.00700743
0.0069289
0.00688777
0.00698542
0.00702544
0.00685333
0.0064029
0.00696955
0.00699801
0.00706007
0.00697223
0.00661053
0.00701329
0.00704944
0.00707273
0.00695734
0.00701482
0.00694293
0.00705513
0.0070961
0.00706308
0.0070258
0.00700847
0.00705628
0.00707292
0.00704079
0.00710485
0.00702434
0.00706431
0.00707351
0.00703835
0.0070324
0.00703441
0.00707438
0.00705653
0.00704008
0.00706532
0.00706724
0.00700419
0.0070119
0.00699539
0.00698507
0.00698136
0.00703027
0.00702032
0.00700976
0.00699271
0.00698235
0.0070236
0.00702016
0.00702541
0.00698492
0.00700082
0.00703507
0.0070321
0.00702236
0.00701963
0.00701682
0.00703354
0.0070297
0.00702181
0.0070025
0.00701872
0.00700335
0.00700656
0.00700049
0.00699788
0.00698236
0.00701193
0.00701737
0.00700911
0.00700212
0.00699792
0.00701621
0.00702056
0.00701539
0.0070172
0.00700542
0.00702359
0.00702266
0.00701903
0.00701494
0.0070128
0.00702903
0.00702316
0.0070226
0.00702278
0.00702015
0.00700326
0.00700506
0.00700257
0.00700118
0.00699887
0.00701072
0.00701015
0.00700695
0.00700418
0.00700178
0.00701395
0.00701277
0.00701111
0.00700508
0.00700627
0.00701757
0.00701622
0.00701435
0.00701164
0.0070104
0.00702008
0.00701695
0.00701605
0.0070112
0.00701227
0.00700351
0.00700514
0.00700306
0.00700277
0.00700077
0.00700791
0.00700825
0.00700628
0.00700528
0.00700391
0.00701072
0.00701015
0.00700906
0.0070076
0.00700663
0.00701338
0.00701248
0.00701134
0.00700991
0.00700912
0.0070149
0.00701326
0.0070127
0.00701117
0.00701066
0.00700413
0.00700502
0.00700372
0.00700368
0.00700285
0.0070069
0.00700712
0.00700584
0.00700546
0.00700475
0.00700886
0.00700846
0.00700776
0.00700696
0.00700652
0.00701063
0.00701003
0.00700932
0.0070085
0.00700807
0.00701156
0.00701062
0.0070102
0.00700925
0.007009
0.00700448
0.00700489
0.00700411
0.00700413
0.00700372
0.00700626
0.0070063
0.00700558
0.00700538
0.00700502
0.00700762
0.00700733
0.0070069
0.00700646
0.00700624
0.00700878
0.00700836
0.00700796
0.00700747
0.00700724
0.00700938
0.0070088
0.00700855
0.00700797
0.00700782
0.00700466
0.00700478
0.00700438
0.00700433
0.00700415
0.00700582
0.00700575
0.00700539
0.00700523
0.00700507
0.00700676
0.00700655
0.00700629
0.00700603
0.00700591
0.00700752
0.00700724
0.007007
0.0070067
0.00700658
0.00700792
0.00700757
0.00700739
0.00700705
0.00700696
0.00700473
0.0070047
0.00700451
0.00700443
0.00700436
0.0070055
0.00700539
0.00700522
0.00700509
0.00700501
0.00700615
0.007006
0.00700584
0.00700568
0.00700561
0.00700666
0.00700647
0.00700632
0.00700614
0.00700607
0.00700693
0.00700672
0.00700659
0.00700639
0.00700633
0.00700473
0.00700466
0.00700456
0.0070045
0.00700445
0.00700526
0.00700516
0.00700506
0.00700498
0.00700493
0.00700571
0.00700561
0.0070055
0.00700541
0.00700536
0.00700606
0.00700594
0.00700584
0.00700573
0.00700569
0.00700624
0.00700612
0.00700602
0.00700591
0.00700586
0.0070047
0.00700464
0.00700458
0.00700453
0.0070045
0.00700507
0.007005
0.00700494
0.00700488
0.00700485
0.0070054
0.00700532
0.00700525
0.00700519
0.00700516
0.00700564
0.00700556
0.00700549
0.00700542
0.00700539
0.00700577
0.00700569
0.00700562
0.00700555
0.00700552
0.00700466
0.00700462
0.00700458
0.00700455
0.00700453
0.00700493
0.00700489
0.00700484
0.00700481
0.00700479
0.00700517
0.00700512
0.00700507
0.00700503
0.00700501
0.00700534
0.00700529
0.00700524
0.0070052
0.00700518
0.00700543
0.00700538
0.00700533
0.00700529
0.00700527
0.00700464
0.00700461
0.00700458
0.00700456
0.00700454
0.00700483
0.0070048
0.00700477
0.00700474
0.00700473
0.007005
0.00700497
0.00700493
0.00700491
0.00700489
0.00700513
0.00700509
0.00700506
0.00700503
0.00700501
0.00700519
0.00700515
0.00700512
0.00700509
0.00700508
0.00700462
0.0070046
0.00700458
0.00700456
0.00700455
0.00700476
0.00700474
0.00700471
0.0070047
0.00700469
0.00700488
0.00700486
0.00700483
0.00700482
0.00700481
0.00700497
0.00700495
0.00700492
0.00700491
0.0070049
0.00700502
0.00700499
0.00700497
0.00700495
0.00700494
0.0070046
0.00700459
0.00700457
0.00700456
0.00700456
0.00700471
0.00700469
0.00700467
0.00700466
0.00700466
0.0070048
0.00700478
0.00700476
0.00700475
0.00700474
0.00700486
0.00700484
0.00700483
0.00700481
0.00700481
0.0070049
0.00700488
0.00700486
0.00700485
0.00700484
0.00700459
0.00700458
0.00700457
0.00700456
0.00700456
0.00700467
0.00700466
0.00700464
0.00700464
0.00700463
0.00700473
0.00700472
0.00700471
0.0070047
0.0070047
0.00700478
0.00700477
0.00700476
0.00700475
0.00700474
0.00700481
0.00700479
0.00700478
0.00700477
0.00700477
0.00700458
0.00700458
0.00700457
0.00700456
0.00700456
0.00700464
0.00700463
0.00700462
0.00700462
0.00700461
0.00700469
0.00700468
0.00700467
0.00700466
0.00700466
0.00700472
0.00700471
0.0070047
0.0070047
0.00700469
0.00700474
0.00700473
0.00700472
0.00700472
0.00700471
0.00700458
0.00700457
0.00700457
0.00700456
0.00700456
0.00700462
0.00700461
0.00700461
0.0070046
0.0070046
0.00700465
0.00700465
0.00700464
0.00700464
0.00700463
0.00700468
0.00700467
0.00700467
0.00700466
0.00700466
0.00700469
0.00700468
0.00700468
0.00700467
0.00700467
0.00700457
0.00700457
0.00700456
0.00700456
0.00700456
0.0070046
0.0070046
0.00700459
0.00700459
0.00700459
0.00700463
0.00700462
0.00700462
0.00700462
0.00700461
0.00700465
0.00700464
0.00700464
0.00700463
0.00700463
0.00700466
0.00700465
0.00700465
0.00700464
0.00700464
0.00700457
0.00700457
0.00700456
0.00700456
0.00700456
0.00700459
0.00700459
0.00700459
0.00700458
0.00700458
0.00700461
0.00700461
0.0070046
0.0070046
0.0070046
0.00700462
0.00700462
0.00700462
0.00700461
0.00700461
0.00700463
0.00700463
0.00700462
0.00700462
0.00700462
0.00700457
0.00700457
0.00700456
0.00700456
0.00700456
0.00700458
0.00700458
0.00700458
0.00700458
0.00700458
0.0070046
0.00700459
0.00700459
0.00700459
0.00700459
0.00700461
0.0070046
0.0070046
0.0070046
0.0070046
0.00700461
0.00700461
0.00700461
0.00700461
0.0070046
0.00700457
0.00700456
0.00700456
0.00700456
0.00700456
0.00700458
0.00700458
0.00700457
0.00700457
0.00700457
0.00700459
0.00700459
0.00700458
0.00700458
0.00700458
0.00700459
0.00700459
0.00700459
0.00700459
0.00700459
0.0070046
0.0070046
0.00700459
0.00700459
0.00700459
0.00700456
0.00700456
0.00700456
0.00700456
0.00700456
0.00700457
0.00700457
0.00700457
0.00700457
0.00700457
0.00700458
0.00700458
0.00700458
0.00700458
0.00700458
0.00700458
0.00700458
0.00700458
0.00700458
0.00700458
0.00700459
0.00700459
0.00700458
0.00700458
0.00700458
0.00700456
0.00700456
0.00700456
0.00700456
0.00700456
0.00700457
0.00700457
0.00700457
0.00700457
0.00700457
0.00700457
0.00700457
0.00700457
0.00700457
0.00700457
0.00700458
0.00700458
0.00700458
0.00700458
0.00700457
0.00700458
0.00700458
0.00700458
0.00700458
0.00700458
0.00700456
0.00700456
0.00700456
0.00700456
0.00700456
0.00700457
0.00700456
0.00700456
0.00700456
0.00700456
0.00700457
0.00700457
0.00700457
0.00700457
0.00700457
0.00700457
0.00700457
0.00700457
0.00700457
0.00700457
0.00700457
0.00700457
0.00700457
0.00700457
0.00700457
0.00700456
0.00700456
0.00700456
0.00700456
0.00700456
0.00700456
0.00700456
0.00700456
0.00700456
0.00700456
0.00700457
0.00700457
0.00700457
0.00700456
0.00700456
0.00700457
0.00700457
0.00700457
0.00700457
0.00700457
0.00700457
0.00700457
0.00700457
0.00700457
0.00700457
0.00700456
0.00700456
0.00700456
0.00700456
0.00700456
0.00700456
0.00700456
0.00700456
0.00700456
0.00700456
0.00700456
0.00700456
0.00700456
0.00700456
0.00700456
0.00700457
0.00700456
0.00700456
0.00700456
0.00700456
0.00700457
0.00700457
0.00700457
0.00700457
0.00700457
0.00700456
0.00700456
0.00700456
0.00700456
0.00700456
0.00700456
0.00700456
0.00700456
0.00700456
0.00700456
0.00700456
0.00700456
0.00700456
0.00700456
0.00700456
0.00700456
0.00700456
0.00700456
0.00700456
0.00700456
0.00700456
0.00700456
0.00700456
0.00700456
0.00700456
0.00700456
0.00700456
0.00700456
0.00700456
0.00700456
0.00700456
0.00700456
0.00700456
0.00700456
0.00700456
0.00700456
0.00700456
0.00700456
0.00700456
0.00700456
0.00700456
0.00700456
0.00700456
0.00700456
0.00700456
0.00700456
0.00700456
0.00700456
0.00700456
0.00700456
0.00700456
0.00700456
0.00700456
0.00700456
0.00700456
0.00700456
0.00700456
0.00700456
0.00700456
0.00700456
0.00700456
0.00700456
0.00700456
0.00700456
0.00700456
0.00700456
0.00700456
0.00700456
0.00700456
0.00700456
0.00700456
0.00700456
0.00700456
0.00700456
0.00700456
0.00700456
0.00700456
0.00700456
0.00700456
0.00700456
0.00700456
0.00700456
0.00700456
0.00700456
0.00700456
0.00700456
0.00700456
0.00700456
0.00700456
0.00700456
0.00700456
0.00700456
0.00700456
0.00700456
0.00700456
0.00700456
0.00700456
0.00700456
0.00700456
0.00700456
0.00700456
0.00700456
0.00700456
0.00700456
0.00700456
0.00700456
0.00700456
0.00700456
0.00700456
0.00700456
0.00700456
0.00700456
0.00700456
0.00700456
0.00700456
0.00700456
0.00700456
0.00700456
0.00700456
0.00700456
0.00700456
0.00700456
0.00700456
0.00700456
0.00700456
0.00700456
0.00700456
0.00700456
0.00700456
0.00700456
0.00700456
0.00700456
0.00700456
0.00700456
0.00700456
0.00700456
0.00700456
0.00700456
0.00700456
0.00700456
0.00700456
0.00700456
0.00700456
0.00700456
0.00700456
0.00700456
0.00700456
0.00700456
0.00700456
0.00700456
0.00700456
0.00700456
0.00700456
0.00700456
0.00700456
0.00700456
0.00700456
0.00700456
0.00700456
0.00700456
0.00700456
0.00700456
0.00700456
0.00700456
0.00700456
0.00700456
0.00700456
0.00700456
0.00700456
0.00700456
0.00700456
0.00700456
0.00700456
0.00700456
0.00700456
0.00700456
0.00700456
0.00700456
0.00700456
0.00700456
0.00700456
0.00700456
0.00700456
0.00700456
0.00700456
0.00700456
0.00700456
0.00700456
0.00700456
0.00700456
0.00700456
0.00700456
0.00700456
0.00700456
0.00700456
0.00700456
0.00700456
0.00700456
0.00700456
0.00700456
0.00700456
0.00700456
0.00700456
0.00700456
0.00700456
0.00700456
0.00700456
0.00700456
0.00700456
0.00700456
0.00700456
0.00700456
0.00700456
0.00700456
0.00700456
0.00700456
0.00700456
0.00700456
0.00700456
0.00700456
0.00700456
0.00700456
0.00700456
0.00700456
0.00700456
0.00700456
0.00700456
0.00700456
0.00700456
0.00700456
0.00700456
0.00700456
0.00700456
0.00700456
0.00700456
0.00700456
0.00700456
0.00700456
0.00700456
0.00700456
0.00700456
0.00700456
0.00700456
0.00700456
0.00700456
0.00700456
0.00700456
0.00700456
0.00700456
0.00700456
0.00700456
0.00700456
0.00700456
0.00700456
0.00700456
0.00700456
0.00700456
0.00700456
0.00700456
0.00700456
0.00700456
0.00700456
0.00700456
0.00700456
0.00700456
0.00700456
0.00700456
0.00700456
0.00700456
0.00700456
0.00700456
0.00700456
0.00700456
0.00700456
0.00700456
0.00700456
0.00700456
0.00700456
0.00700456
0.00700456
0.00700456
0.00700456
0.00700456
0.00700456
0.00700456
0.00700456
0.00700456
0.00700456
0.00700456
0.00700456
0.00700456
0.00700456
0.00700456
0.00700456
0.00700456
0.00700456
0.00700456
0.00700456
0.00700456
0.00700456
)
;

boundaryField
{
    inlet
    {
        type            zeroGradient;
    }
    outlet
    {
        type            fixedValue;
        value           uniform 0;
    }
    repeat_boundary
    {
        type            zeroGradient;
    }
    procBoundary3to1
    {
        type            processor;
        value           nonuniform List<scalar> 
450
(
-1.62118e-10
-1.63462e-10
-1.97406e-10
-1.69298e-10
-1.10469e-10
-2.74968e-10
-2.76071e-10
-3.26116e-10
-2.63752e-10
-1.67882e-10
-2.12057e-10
-1.75554e-10
-1.91626e-10
-1.7743e-10
-1.88169e-10
-3.79155e-10
-1.5591e-10
-1.0148e-10
-2.13069e-10
-3.69849e-10
-6.72219e-10
-2.65448e-10
-1.5672e-10
-3.26771e-10
-4.96039e-10
-5.94465e-10
-2.0286e-10
-6.93527e-11
-1.36604e-10
-1.63571e-10
-1.1243e-10
2.04303e-10
4.07038e-10
5.48103e-10
6.89644e-10
4.89756e-10
8.79833e-10
1.20421e-09
1.53219e-09
1.76795e-09
1.1829e-09
1.65923e-09
2.09374e-09
2.51682e-09
2.76244e-09
1.8216e-09
2.38071e-09
2.91556e-09
3.35906e-09
3.57471e-09
2.18822e-09
3.02926e-09
3.70479e-09
4.18916e-09
4.43677e-09
2.56361e-09
3.78973e-09
4.69907e-09
5.38064e-09
5.78484e-09
3.14665e-09
4.78414e-09
6.12469e-09
7.17431e-09
7.76385e-09
3.71665e-09
6.01473e-09
7.95587e-09
9.38113e-09
1.00816e-08
4.4736e-09
7.52564e-09
1.00265e-08
1.17739e-08
1.26129e-08
5.58185e-09
9.32344e-09
1.24104e-08
1.46267e-08
1.57805e-08
6.56867e-09
1.14568e-08
1.55209e-08
1.85027e-08
2.00947e-08
7.47564e-09
1.42085e-08
1.97569e-08
2.3746e-08
2.58077e-08
8.802e-09
1.78742e-08
2.53725e-08
3.06627e-08
3.33577e-08
1.05935e-08
2.27642e-08
3.28514e-08
3.9986e-08
4.36891e-08
1.30773e-08
2.94224e-08
4.30118e-08
5.27749e-08
5.79292e-08
1.65313e-08
3.84374e-08
5.68514e-08
7.02465e-08
7.73016e-08
2.08116e-08
5.05655e-08
7.57101e-08
9.3968e-08
1.03478e-07
2.64194e-08
6.70691e-08
1.01336e-07
1.26066e-07
1.3894e-07
3.44869e-08
8.9584e-08
1.36078e-07
1.69726e-07
1.87393e-07
4.56745e-08
1.2027e-07
1.83522e-07
2.29508e-07
2.53673e-07
6.06424e-08
1.62231e-07
2.48487e-07
3.11114e-07
3.43911e-07
8.09249e-08
2.19475e-07
3.3692e-07
4.22183e-07
4.66935e-07
1.08329e-07
2.97102e-07
4.56782e-07
5.73401e-07
6.34476e-07
1.45006e-07
4.02286e-07
6.18868e-07
7.78869e-07
8.61314e-07
1.92624e-07
5.44043e-07
8.36243e-07
1.05584e-06
1.1662e-06
2.48328e-07
7.29751e-07
1.12189e-06
1.42155e-06
1.57018e-06
3.04494e-07
9.63344e-07
1.49066e-06
1.89512e-06
2.10347e-06
3.60323e-07
1.24641e-06
1.97527e-06
2.50524e-06
2.82055e-06
4.56818e-07
1.58084e-06
2.60819e-06
3.30656e-06
3.78928e-06
6.18372e-07
1.99569e-06
3.58902e-06
4.38928e-06
5.10439e-06
2.14777e-06
2.92861e-06
6.38833e-06
7.28646e-06
9.54308e-06
-4.6437e-06
3.8274e-07
1.79963e-06
3.28765e-06
4.26864e-06
6.80504e-06
1.01077e-06
1.8082e-05
1.54031e-05
2.7564e-05
-1.94484e-05
8.06165e-06
-3.24755e-06
3.65785e-06
-2.42991e-06
-5.12917e-06
-5.1347e-05
6.93787e-05
1.82861e-05
9.12382e-05
0.000663979
0.00066712
0.00119673
0.000850281
0.000853824
0.00211317
0.00193217
0.00211497
0.00164429
0.00167159
0.00259627
0.00231612
0.00233749
0.00253347
0.00297536
0.00302244
0.00306821
0.00276432
0.00378786
0.00374773
0.00415088
0.0048012
0.00414242
0.00411428
0.00412595
0.00424573
0.00472766
0.00459048
0.00427267
0.00468058
0.00530905
0.00504445
0.00533162
0.00516244
0.00529258
0.0057078
0.00580057
0.00578479
0.00614094
0.00530998
0.00650363
0.00620037
0.00657562
0.00675295
0.00643418
0.00674144
0.00689671
0.00685865
0.00683228
0.00688578
0.00703391
0.00704673
0.00699267
0.00700285
0.00701863