/*--------------------------------*- C++ -*----------------------------------*\
| =========                 |                                                 |
| \\      /  F ield         | OpenFOAM: The Open Source CFD Toolbox           |
|  \\    /   O peration     | Version:  5.x                                   |
|   \\  /    A nd           | Web:      www.OpenFOAM.org                      |
|    \\/     M anipulation  |                                                 |
\*---------------------------------------------------------------------------*/
FoamFile
{
    version     2.0;
    format      ascii;
    class       volVectorField;
    location    "70000";
    object      U;
}
// * * * * * * * * * * * * * * * * * * * * * * * * * * * * * * * * * * * * * //

dimensions      [0 1 -1 0 0 0 0];

internalField   nonuniform List<vector> 
2250
(
(-8.92451e-11 2.05509e-10 -0.001)
(-7.79534e-11 2.35687e-10 -0.001)
(-5.22705e-11 2.34525e-10 -0.001)
(-9.16563e-12 2.26967e-10 -0.001)
(-2.74749e-13 2.20809e-10 -0.001)
(-9.01903e-11 2.49e-10 -0.000999999)
(-7.89787e-11 2.35257e-10 -0.000999999)
(-5.38598e-11 2.39342e-10 -0.000999999)
(-2.08898e-11 2.28565e-10 -0.000999999)
(-6.49205e-12 2.18314e-10 -0.000999999)
(-9.28973e-11 2.11841e-10 -0.000999999)
(-8.75895e-11 2.02036e-10 -0.000999999)
(-5.89287e-11 1.99899e-10 -0.000999999)
(-2.96459e-11 1.9112e-10 -0.000999999)
(-9.94178e-12 1.8433e-10 -0.000999999)
(-9.83049e-11 1.38186e-10 -0.000999998)
(-9.09039e-11 1.34409e-10 -0.000999999)
(-6.47495e-11 1.28717e-10 -0.000999999)
(-3.60359e-11 1.23019e-10 -0.000999999)
(-1.28515e-11 1.17723e-10 -0.000999999)
(-1.01823e-10 4.97694e-11 -0.000999998)
(-9.6808e-11 4.6942e-11 -0.000999998)
(-7.01918e-11 4.36373e-11 -0.000999999)
(-4.03602e-11 4.14845e-11 -0.000999999)
(-1.49746e-11 3.93122e-11 -0.000999999)
(-2.50835e-10 5.75419e-10 -0.001)
(-1.77e-10 6.55979e-10 -0.001)
(-1.12814e-10 6.52313e-10 -0.001)
(-2.17231e-11 6.26524e-10 -0.001)
(-3.74721e-12 6.13098e-10 -0.001)
(-2.42903e-10 7.03038e-10 -0.000999999)
(-1.94553e-10 6.59484e-10 -0.000999999)
(-1.33876e-10 6.54895e-10 -0.000999999)
(-5.6621e-11 6.21359e-10 -0.000999999)
(-1.84141e-11 5.96827e-10 -0.000999999)
(-2.49541e-10 5.81453e-10 -0.000999999)
(-2.25165e-10 5.47417e-10 -0.000999999)
(-1.50891e-10 5.36894e-10 -0.000999999)
(-7.84859e-11 5.16035e-10 -0.000999999)
(-2.69334e-11 5.00191e-10 -0.000999999)
(-2.62181e-10 3.71004e-10 -0.000999998)
(-2.39084e-10 3.56075e-10 -0.000999999)
(-1.65193e-10 3.42735e-10 -0.000999999)
(-9.22857e-11 3.31018e-10 -0.000999999)
(-3.32255e-11 3.19796e-10 -0.000999999)
(-2.69406e-10 1.29288e-10 -0.000999998)
(-2.52821e-10 1.21477e-10 -0.000999998)
(-1.75673e-10 1.15041e-10 -0.000999998)
(-1.00571e-10 1.10817e-10 -0.000999999)
(-3.7404e-11 1.06339e-10 -0.000999999)
(-4.21398e-10 1.03621e-09 -0.001)
(-2.68237e-10 1.11766e-09 -0.001)
(-1.65523e-10 1.12003e-09 -0.001)
(-6.02297e-11 1.08573e-09 -0.001)
(-1.76366e-11 1.07113e-09 -0.001)
(-4.16003e-10 1.1698e-09 -0.000999999)
(-3.01753e-10 1.11458e-09 -0.000999999)
(-2.12198e-10 1.08499e-09 -0.000999999)
(-1.05515e-10 1.04191e-09 -0.000999999)
(-3.52034e-11 1.01135e-09 -0.000999999)
(-4.17623e-10 9.44177e-10 -0.000999999)
(-3.53021e-10 8.92017e-10 -0.000999999)
(-2.38088e-10 8.73029e-10 -0.000999999)
(-1.31847e-10 8.49229e-10 -0.000999999)
(-4.62015e-11 8.28444e-10 -0.000999999)
(-4.25931e-10 5.87508e-10 -0.000999998)
(-3.72851e-10 5.68924e-10 -0.000999998)
(-2.54874e-10 5.56002e-10 -0.000999999)
(-1.48407e-10 5.42853e-10 -0.000999999)
(-5.43233e-11 5.27117e-10 -0.000999999)
(-4.27229e-10 1.98066e-10 -0.000999998)
(-3.83734e-10 1.90962e-10 -0.000999998)
(-2.63735e-10 1.86515e-10 -0.000999998)
(-1.59428e-10 1.81856e-10 -0.000999999)
(-6.07681e-11 1.75007e-10 -0.000999999)
(-5.88072e-10 1.61282e-09 -0.000999999)
(-4.23355e-10 1.63687e-09 -0.001)
(-2.56386e-10 1.64989e-09 -0.001)
(-1.36034e-10 1.62433e-09 -0.001)
(-4.46297e-11 1.6113e-09 -0.001)
(-6.12042e-10 1.61164e-09 -0.000999999)
(-4.41361e-10 1.5883e-09 -0.000999999)
(-3.10376e-10 1.54615e-09 -0.000999999)
(-1.78235e-10 1.50786e-09 -0.000999999)
(-6.22126e-11 1.47635e-09 -0.000999999)
(-5.96981e-10 1.29011e-09 -0.000999998)
(-4.88791e-10 1.25061e-09 -0.000999999)
(-3.36662e-10 1.23415e-09 -0.000999999)
(-2.02986e-10 1.21332e-09 -0.000999999)
(-7.33682e-11 1.19008e-09 -0.000999999)
(-5.90674e-10 7.98079e-10 -0.000999998)
(-4.97249e-10 7.92518e-10 -0.000999998)
(-3.4749e-10 7.86511e-10 -0.000999998)
(-2.19889e-10 7.7205e-10 -0.000999999)
(-8.31004e-11 7.50347e-10 -0.000999999)
(-5.79771e-10 2.68156e-10 -0.000999998)
(-4.99419e-10 2.67415e-10 -0.000999998)
(-3.56491e-10 2.6519e-10 -0.000999998)
(-2.37257e-10 2.57963e-10 -0.000999998)
(-9.34272e-11 2.47039e-10 -0.000999998)
(-8.26585e-10 2.2964e-09 -0.000999999)
(-6.78846e-10 2.28805e-09 -0.001)
(-4.29814e-10 2.31049e-09 -0.001)
(-2.62815e-10 2.29672e-09 -0.001)
(-9.1493e-11 2.28608e-09 -0.001)
(-8.44601e-10 2.10069e-09 -0.000999999)
(-6.61258e-10 2.1377e-09 -0.000999999)
(-4.68711e-10 2.10927e-09 -0.000999999)
(-2.95092e-10 2.08216e-09 -0.000999999)
(-1.06551e-10 2.05201e-09 -0.001)
(-8.08926e-10 1.68084e-09 -0.000999998)
(-6.70305e-10 1.6903e-09 -0.000999998)
(-4.85114e-10 1.68469e-09 -0.000999999)
(-3.16188e-10 1.66752e-09 -0.000999999)
(-1.17895e-10 1.64237e-09 -0.000999999)
(-7.82019e-10 1.06239e-09 -0.000999998)
(-6.57309e-10 1.07908e-09 -0.000999998)
(-4.9124e-10 1.07559e-09 -0.000999998)
(-3.34094e-10 1.0568e-09 -0.000999998)
(-1.285e-10 1.03227e-09 -0.000999999)
(-7.65928e-10 3.64068e-10 -0.000999998)
(-6.55944e-10 3.69e-10 -0.000999998)
(-5.06414e-10 3.64448e-10 -0.000999998)
(-3.56841e-10 3.53056e-10 -0.000999998)
(-1.4021e-10 3.40467e-10 -0.000999998)
(-1.13892e-09 3.17367e-09 -0.001)
(-1.03094e-09 3.17343e-09 -0.001)
(-7.08469e-10 3.19833e-09 -0.001)
(-4.50531e-10 3.19525e-09 -0.001)
(-1.59586e-10 3.1853e-09 -0.001)
(-1.13203e-09 2.79553e-09 -0.000999999)
(-9.75808e-10 2.88242e-09 -0.000999999)
(-7.17006e-10 2.88236e-09 -0.000999999)
(-4.69795e-10 2.86686e-09 -0.001)
(-1.71285e-10 2.83945e-09 -0.001)
(-1.09506e-09 2.25585e-09 -0.000999998)
(-9.44104e-10 2.30432e-09 -0.000999998)
(-7.23768e-10 2.30408e-09 -0.000999998)
(-4.88001e-10 2.28575e-09 -0.000999999)
(-1.81754e-10 2.26011e-09 -0.000999999)
(-1.06284e-09 1.46662e-09 -0.000999997)
(-9.27447e-10 1.4853e-09 -0.000999998)
(-7.35238e-10 1.47337e-09 -0.000999998)
(-5.09274e-10 1.44884e-09 -0.000999998)
(-1.92636e-10 1.42454e-09 -0.000999998)
(-1.05432e-09 5.10943e-10 -0.000999997)
(-9.35612e-10 5.11958e-10 -0.000999997)
(-7.58627e-10 5.01215e-10 -0.000999998)
(-5.33071e-10 4.87194e-10 -0.000999998)
(-2.03082e-10 4.75541e-10 -0.000999998)
(-1.5621e-09 4.36548e-09 -0.001)
(-1.42337e-09 4.39849e-09 -0.001)
(-1.06181e-09 4.42212e-09 -0.001)
(-6.88279e-10 4.4231e-09 -0.001)
(-2.443e-10 4.41293e-09 -0.001)
(-1.51298e-09 3.90933e-09 -0.000999998)
(-1.38402e-09 3.97938e-09 -0.000999999)
(-1.06132e-09 3.98242e-09 -0.000999999)
(-6.99676e-10 3.96712e-09 -0.001)
(-2.51338e-10 3.94299e-09 -0.001)
(-1.50194e-09 3.14448e-09 -0.000999997)
(-1.35028e-09 3.18347e-09 -0.000999998)
(-1.07364e-09 3.16966e-09 -0.000999998)
(-7.20054e-10 3.14344e-09 -0.000999998)
(-2.61106e-10 3.11838e-09 -0.000999999)
(-1.48754e-09 2.06373e-09 -0.000999996)
(-1.35866e-09 2.05422e-09 -0.000999997)
(-1.10088e-09 2.02627e-09 -0.000999997)
(-7.44858e-10 1.99833e-09 -0.000999998)
(-2.70646e-10 1.97981e-09 -0.000999998)
(-1.49692e-09 7.20036e-10 -0.000999996)
(-1.38498e-09 7.07025e-10 -0.000999996)
(-1.12705e-09 6.91137e-10 -0.000999997)
(-7.61264e-10 6.78649e-10 -0.000999997)
(-2.75593e-10 6.72025e-10 -0.000999997)
(-2.14858e-09 5.99628e-09 -0.001)
(-1.84885e-09 6.07805e-09 -0.001)
(-1.47462e-09 6.09283e-09 -0.001)
(-9.68942e-10 6.08775e-09 -0.001)
(-3.41099e-10 6.07461e-09 -0.001)
(-2.05682e-09 5.55075e-09 -0.000999998)
(-1.88104e-09 5.52813e-09 -0.000999998)
(-1.49663e-09 5.49654e-09 -0.000999999)
(-9.80741e-10 5.47061e-09 -0.000999999)
(-3.44601e-10 5.44841e-09 -0.001)
(-2.06475e-09 4.41927e-09 -0.000999996)
(-1.90303e-09 4.39324e-09 -0.000999997)
(-1.53155e-09 4.35107e-09 -0.000999997)
(-1.00652e-09 4.31613e-09 -0.000999998)
(-3.53293e-10 4.29385e-09 -0.000999998)
(-2.08116e-09 2.86538e-09 -0.000999995)
(-1.94897e-09 2.81873e-09 -0.000999996)
(-1.57309e-09 2.77976e-09 -0.000999996)
(-1.02967e-09 2.75662e-09 -0.000999997)
(-3.5913e-10 2.74965e-09 -0.000999997)
(-2.10313e-09 9.9032e-10 -0.000999994)
(-1.98463e-09 9.65547e-10 -0.000999995)
(-1.59019e-09 9.50909e-10 -0.000999996)
(-1.02944e-09 9.45345e-10 -0.000999996)
(-3.54745e-10 9.4744e-10 -0.000999996)
(-2.87012e-09 8.24735e-09 -0.001)
(-2.41382e-09 8.33666e-09 -0.001)
(-1.97938e-09 8.34154e-09 -0.001)
(-1.30965e-09 8.32701e-09 -0.001)
(-4.57475e-10 8.30942e-09 -0.001)
(-2.80026e-09 7.70835e-09 -0.000999997)
(-2.50863e-09 7.59831e-09 -0.000999998)
(-2.03371e-09 7.52185e-09 -0.000999999)
(-1.32575e-09 7.48595e-09 -0.000999999)
(-4.58895e-10 7.4663e-09 -0.000999999)
(-2.80744e-09 6.09914e-09 -0.000999995)
(-2.60029e-09 6.00499e-09 -0.000999996)
(-2.09093e-09 5.94034e-09 -0.000999996)
(-1.35092e-09 5.90673e-09 -0.000999997)
(-4.6369e-10 5.89304e-09 -0.000999997)
(-2.84474e-09 3.89507e-09 -0.000999993)
(-2.66708e-09 3.83326e-09 -0.000999994)
(-2.13109e-09 3.79956e-09 -0.000999995)
(-1.36168e-09 3.7914e-09 -0.000999995)
(-4.6199e-10 3.79929e-09 -0.000999996)
(-2.86185e-09 1.33343e-09 -0.000999992)
(-2.69049e-09 1.31095e-09 -0.000999993)
(-2.12822e-09 1.30508e-09 -0.000999994)
(-1.34142e-09 1.30977e-09 -0.000999994)
(-4.48232e-10 1.32042e-09 -0.000999995)
(-3.77337e-09 1.1333e-08 -0.000999999)
(-3.24239e-09 1.13698e-08 -0.001)
(-2.65626e-09 1.13708e-08 -0.001)
(-1.75781e-09 1.13552e-08 -0.001)
(-6.11264e-10 1.1336e-08 -0.001)
(-3.77259e-09 1.04659e-08 -0.000999996)
(-3.35952e-09 1.03294e-08 -0.000999997)
(-2.72474e-09 1.02351e-08 -0.000999998)
(-1.76985e-09 1.02063e-08 -0.000999998)
(-6.09151e-10 1.01932e-08 -0.000999999)
(-3.77281e-09 8.25385e-09 -0.000999993)
(-3.47317e-09 8.14802e-09 -0.000999994)
(-2.77826e-09 8.09004e-09 -0.000999995)
(-1.78024e-09 8.07468e-09 -0.000999995)
(-6.06042e-10 8.07332e-09 -0.000999996)
(-3.80542e-09 5.23927e-09 -0.000999991)
(-3.52287e-09 5.20064e-09 -0.000999992)
(-2.79686e-09 5.18847e-09 -0.000999993)
(-1.77087e-09 5.20004e-09 -0.000999993)
(-5.95853e-10 5.21717e-09 -0.000999994)
(-3.80585e-09 1.78942e-09 -0.00099999)
(-3.51721e-09 1.78302e-09 -0.000999991)
(-2.77302e-09 1.7888e-09 -0.000999991)
(-1.73832e-09 1.80169e-09 -0.000999992)
(-5.78496e-10 1.81485e-09 -0.000999992)
(-5.03554e-09 1.54922e-08 -0.000999999)
(-4.4426e-09 1.549e-08 -0.001)
(-3.61075e-09 1.54889e-08 -0.001)
(-2.37085e-09 1.54841e-08 -0.001)
(-8.21525e-10 1.54635e-08 -0.001)
(-5.05994e-09 1.40953e-08 -0.000999994)
(-4.55052e-09 1.39867e-08 -0.000999995)
(-3.6549e-09 1.39243e-08 -0.000999997)
(-2.36507e-09 1.39232e-08 -0.000999998)
(-8.13795e-10 1.3917e-08 -0.000999998)
(-5.05343e-09 1.10958e-08 -0.00099999)
(-4.61351e-09 1.10468e-08 -0.000999991)
(-3.67272e-09 1.10275e-08 -0.000999993)
(-2.35143e-09 1.10401e-08 -0.000999994)
(-8.02593e-10 1.10455e-08 -0.000999994)
(-5.06319e-09 7.0655e-09 -0.000999987)
(-4.61822e-09 7.07161e-09 -0.000999989)
(-3.65986e-09 7.08703e-09 -0.00099999)
(-2.32538e-09 7.1124e-09 -0.000999991)
(-7.88169e-10 7.12629e-09 -0.000999991)
(-5.046e-09 2.41987e-09 -0.000999986)
(-4.58331e-09 2.43226e-09 -0.000999987)
(-3.62437e-09 2.44669e-09 -0.000999988)
(-2.29426e-09 2.4611e-09 -0.000999989)
(-7.74427e-10 2.46914e-09 -0.00099999)
(-6.83923e-09 2.10816e-08 -0.000999998)
(-6.11376e-09 2.11022e-08 -0.001)
(-4.92455e-09 2.11089e-08 -0.001)
(-3.20153e-09 2.11168e-08 -0.001)
(-1.10678e-09 2.10891e-08 -0.001)
(-6.81932e-09 1.90352e-08 -0.000999992)
(-6.17377e-09 1.8985e-08 -0.000999994)
(-4.92317e-09 1.89813e-08 -0.000999995)
(-3.1757e-09 1.90099e-08 -0.000999997)
(-1.09426e-09 1.90027e-08 -0.000999997)
(-6.79897e-09 1.5005e-08 -0.000999986)
(-6.16757e-09 1.50231e-08 -0.000999988)
(-4.89754e-09 1.505e-08 -0.00099999)
(-3.14345e-09 1.5084e-08 -0.000999991)
(-1.07935e-09 1.50839e-08 -0.000999992)
(-6.78392e-09 9.5976e-09 -0.000999982)
(-6.1279e-09 9.64136e-09 -0.000999984)
(-4.86006e-09 9.67617e-09 -0.000999986)
(-3.11214e-09 9.7038e-09 -0.000999987)
(-1.0666e-09 9.70492e-09 -0.000999988)
(-6.75524e-09 3.29819e-09 -0.00099998)
(-6.07764e-09 3.32163e-09 -0.000999982)
(-4.8251e-09 3.33785e-09 -0.000999984)
(-3.09041e-09 3.34785e-09 -0.000999985)
(-1.05876e-09 3.34795e-09 -0.000999986)
(-9.30244e-09 2.86788e-08 -0.000999997)
(-8.33874e-09 2.8735e-08 -0.001)
(-6.67483e-09 2.87541e-08 -0.001)
(-4.31698e-09 2.87681e-08 -0.001)
(-1.49044e-09 2.87257e-08 -0.00100001)
(-9.23592e-09 2.5867e-08 -0.000999989)
(-8.35669e-09 2.58595e-08 -0.000999991)
(-6.64467e-09 2.58918e-08 -0.000999994)
(-4.28008e-09 2.59344e-08 -0.000999995)
(-1.4752e-09 2.59156e-08 -0.000999996)
(-9.20019e-09 2.04344e-08 -0.000999981)
(-8.3138e-09 2.04864e-08 -0.000999984)
(-6.59712e-09 2.05358e-08 -0.000999986)
(-4.2429e-09 2.05758e-08 -0.000999988)
(-1.46176e-09 2.05601e-08 -0.000999989)
(-9.17289e-09 1.31036e-08 -0.000999976)
(-8.2542e-09 1.31607e-08 -0.000999978)
(-6.55222e-09 1.31984e-08 -0.000999981)
(-4.21536e-09 1.32208e-08 -0.000999982)
(-1.45305e-09 1.32072e-08 -0.000999983)
(-9.14032e-09 4.5111e-09 -0.000999973)
(-8.20379e-09 4.53527e-09 -0.000999976)
(-6.52364e-09 4.5474e-09 -0.000999978)
(-4.20106e-09 4.55216e-09 -0.00099998)
(-1.44871e-09 4.546e-09 -0.000999981)
(-1.26058e-08 3.90377e-08 -0.000999996)
(-1.12861e-08 3.90937e-08 -0.001)
(-9.01239e-09 3.91179e-08 -0.001)
(-5.81486e-09 3.91318e-08 -0.00100001)
(-2.00445e-09 3.90688e-08 -0.00100001)
(-1.25321e-08 3.52556e-08 -0.000999984)
(-1.13021e-08 3.5246e-08 -0.000999988)
(-8.97948e-09 3.52795e-08 -0.000999991)
(-5.77628e-09 3.53195e-08 -0.000999994)
(-1.98801e-09 3.52813e-08 -0.000999995)
(-1.24934e-08 2.78979e-08 -0.000999974)
(-1.1262e-08 2.79446e-08 -0.000999978)
(-8.93507e-09 2.79888e-08 -0.000999981)
(-5.74442e-09 2.80221e-08 -0.000999983)
(-1.97774e-09 2.7986e-08 -0.000999985)
(-1.24702e-08 1.79151e-08 -0.000999967)
(-1.12097e-08 1.79609e-08 -0.000999971)
(-8.89777e-09 1.79877e-08 -0.000999974)
(-5.724e-09 1.80023e-08 -0.000999976)
(-1.97251e-09 1.79745e-08 -0.000999977)
(-1.2441e-08 6.17313e-09 -0.000999963)
(-1.11689e-08 6.18954e-09 -0.000999967)
(-8.87557e-09 6.19485e-09 -0.00099997)
(-5.71266e-09 6.19601e-09 -0.000999972)
(-1.96931e-09 6.18492e-09 -0.000999973)
(-1.70601e-08 5.31118e-08 -0.000999995)
(-1.52779e-08 5.31464e-08 -0.001)
(-1.21718e-08 5.3165e-08 -0.001)
(-7.83134e-09 5.31728e-08 -0.00100001)
(-2.69422e-09 5.30828e-08 -0.00100001)
(-1.70088e-08 4.80059e-08 -0.000999979)
(-1.5304e-08 4.7981e-08 -0.000999984)
(-1.21486e-08 4.80014e-08 -0.000999988)
(-7.79938e-09 4.80268e-08 -0.000999991)
(-2.67891e-09 4.79604e-08 -0.000999993)
(-1.69865e-08 3.8057e-08 -0.000999965)
(-1.52822e-08 3.8078e-08 -0.00099997)
(-1.21208e-08 3.81014e-08 -0.000999974)
(-7.77897e-09 3.81188e-08 -0.000999977)
(-2.67234e-09 3.80566e-08 -0.000999979)
(-1.69835e-08 2.44746e-08 -0.000999955)
(-1.52575e-08 2.44895e-08 -0.00099996)
(-1.21021e-08 2.44958e-08 -0.000999964)
(-7.76907e-09 2.4499e-08 -0.000999967)
(-2.67073e-09 2.44529e-08 -0.000999969)
(-1.69656e-08 8.43932e-09 -0.000999949)
(-1.52333e-08 8.44097e-09 -0.000999954)
(-1.20868e-08 8.43781e-09 -0.000999959)
(-7.76073e-09 8.43513e-09 -0.000999962)
(-2.66911e-09 8.41734e-09 -0.000999964)
(-2.31005e-08 7.22426e-08 -0.000999992)
(-2.07158e-08 7.22533e-08 -0.000999999)
(-1.64562e-08 7.2245e-08 -0.00100001)
(-1.05621e-08 7.22327e-08 -0.00100001)
(-3.62952e-09 7.21031e-08 -0.00100001)
(-2.30864e-08 6.53013e-08 -0.00099997)
(-2.07514e-08 6.5263e-08 -0.000999977)
(-1.64573e-08 6.52571e-08 -0.000999983)
(-1.05487e-08 6.52535e-08 -0.000999988)
(-3.6195e-09 6.51443e-08 -0.00099999)
(-2.31078e-08 5.18553e-08 -0.000999952)
(-2.07597e-08 5.18329e-08 -0.000999959)
(-1.64586e-08 5.18224e-08 -0.000999965)
(-1.05479e-08 5.18125e-08 -0.000999969)
(-3.61876e-09 5.17132e-08 -0.000999971)
(-2.3144e-08 3.33852e-08 -0.000999938)
(-2.07814e-08 3.33512e-08 -0.000999945)
(-1.647e-08 3.33282e-08 -0.000999951)
(-1.05558e-08 3.3312e-08 -0.000999955)
(-3.62302e-09 3.32382e-08 -0.000999958)
(-2.31436e-08 1.15151e-08 -0.000999931)
(-2.07791e-08 1.14965e-08 -0.000999938)
(-1.64646e-08 1.14827e-08 -0.000999944)
(-1.05549e-08 1.14732e-08 -0.000999948)
(-3.62545e-09 1.14444e-08 -0.00099995)
(-3.13022e-08 9.8315e-08 -0.000999989)
(-2.80971e-08 9.82748e-08 -0.000999999)
(-2.22807e-08 9.82053e-08 -0.00100001)
(-1.42872e-08 9.81487e-08 -0.00100001)
(-4.90917e-09 9.79571e-08 -0.00100002)
(-3.13569e-08 8.88508e-08 -0.000999959)
(-2.81817e-08 8.87588e-08 -0.000999969)
(-2.23349e-08 8.86945e-08 -0.000999977)
(-1.43079e-08 8.86433e-08 -0.000999983)
(-4.91004e-09 8.84698e-08 -0.000999986)
(-3.14597e-08 7.0603e-08 -0.000999934)
(-2.8253e-08 7.05082e-08 -0.000999943)
(-2.23864e-08 7.0444e-08 -0.000999952)
(-1.43392e-08 7.03919e-08 -0.000999957)
(-4.91949e-09 7.0238e-08 -0.000999961)
(-3.1556e-08 4.546e-08 -0.000999915)
(-2.83367e-08 4.53667e-08 -0.000999925)
(-2.24406e-08 4.53055e-08 -0.000999933)
(-1.4375e-08 4.52585e-08 -0.000999939)
(-4.93366e-09 4.51442e-08 -0.000999942)
(-3.15747e-08 1.56758e-08 -0.000999905)
(-2.83567e-08 1.56357e-08 -0.000999915)
(-2.24495e-08 1.5609e-08 -0.000999923)
(-1.43876e-08 1.5588e-08 -0.000999929)
(-4.94255e-09 1.55432e-08 -0.000999932)
(-4.24935e-08 1.33822e-07 -0.000999985)
(-3.81299e-08 1.33691e-07 -0.000999998)
(-3.02148e-08 1.33529e-07 -0.00100001)
(-1.93739e-08 1.334e-07 -0.00100002)
(-6.65865e-09 1.33113e-07 -0.00100002)
(-4.26476e-08 1.2093e-07 -0.000999944)
(-3.83319e-08 1.20715e-07 -0.000999957)
(-3.03603e-08 1.20548e-07 -0.000999968)
(-1.94525e-08 1.20424e-07 -0.000999976)
(-6.68051e-09 1.20153e-07 -0.000999981)
(-4.2862e-08 9.60706e-08 -0.00099991)
(-3.85113e-08 9.58737e-08 -0.000999923)
(-3.04927e-08 9.57281e-08 -0.000999934)
(-1.95348e-08 9.5613e-08 -0.000999942)
(-6.70747e-09 9.53802e-08 -0.000999946)
(-4.3038e-08 6.1822e-08 -0.000999884)
(-3.8669e-08 6.16672e-08 -0.000999898)
(-3.06065e-08 6.15547e-08 -0.000999909)
(-1.96112e-08 6.14621e-08 -0.000999917)
(-6.73594e-09 6.12945e-08 -0.000999921)
(-4.30773e-08 2.13077e-08 -0.000999871)
(-3.87097e-08 2.12478e-08 -0.000999884)
(-3.06368e-08 2.12036e-08 -0.000999895)
(-1.96415e-08 2.1165e-08 -0.000999904)
(-6.75092e-09 2.11013e-08 -0.000999908)
(-5.77458e-08 1.82118e-07 -0.00099998)
(-5.17842e-08 1.81845e-07 -0.000999998)
(-4.10097e-08 1.81556e-07 -0.00100001)
(-2.63002e-08 1.81326e-07 -0.00100002)
(-9.0433e-09 1.80902e-07 -0.00100003)
(-5.80448e-08 1.64562e-07 -0.000999924)
(-5.21626e-08 1.64162e-07 -0.000999942)
(-4.12913e-08 1.63846e-07 -0.000999957)
(-2.64697e-08 1.63608e-07 -0.000999968)
(-9.09854e-09 1.63197e-07 -0.000999974)
(-5.84045e-08 1.30685e-07 -0.000999877)
(-5.24994e-08 1.3035e-07 -0.000999895)
(-4.15463e-08 1.30081e-07 -0.00099991)
(-2.66288e-08 1.29871e-07 -0.000999921)
(-9.15129e-09 1.29531e-07 -0.000999927)
(-5.86917e-08 8.40515e-08 -0.000999843)
(-5.27592e-08 8.38179e-08 -0.000999861)
(-4.17499e-08 8.36249e-08 -0.000999876)
(-2.6762e-08 8.34674e-08 -0.000999887)
(-9.19709e-09 8.32338e-08 -0.000999893)
(-5.87667e-08 2.89598e-08 -0.000999824)
(-5.2833e-08 2.88738e-08 -0.000999843)
(-4.18143e-08 2.88005e-08 -0.000999858)
(-2.68114e-08 2.87386e-08 -0.000999869)
(-9.216e-09 2.86535e-08 -0.000999875)
(-7.84108e-08 2.47812e-07 -0.000999973)
(-7.03321e-08 2.47304e-07 -0.000999997)
(-5.56668e-08 2.46824e-07 -0.00100002)
(-3.57081e-08 2.46456e-07 -0.00100003)
(-1.22862e-08 2.45847e-07 -0.00100004)
(-7.89607e-08 2.23868e-07 -0.000999898)
(-7.09424e-08 2.23221e-07 -0.000999922)
(-5.61341e-08 2.22694e-07 -0.000999942)
(-3.59968e-08 2.22293e-07 -0.000999957)
(-1.238e-08 2.217e-07 -0.000999965)
(-7.95491e-08 1.77783e-07 -0.000999833)
(-7.15053e-08 1.77236e-07 -0.000999857)
(-5.65697e-08 1.76779e-07 -0.000999878)
(-3.62658e-08 1.76428e-07 -0.000999893)
(-1.24668e-08 1.75943e-07 -0.000999901)
(-8.00201e-08 1.14332e-07 -0.000999786)
(-7.19366e-08 1.13956e-07 -0.000999811)
(-5.69152e-08 1.1363e-07 -0.000999832)
(-3.64814e-08 1.13379e-07 -0.000999847)
(-1.25361e-08 1.13053e-07 -0.000999855)
(-8.01739e-08 3.93905e-08 -0.000999761)
(-7.20822e-08 3.92519e-08 -0.000999786)
(-5.70357e-08 3.913e-08 -0.000999807)
(-3.65591e-08 3.90362e-08 -0.000999822)
(-1.25625e-08 3.89199e-08 -0.00099983)
(-1.06353e-07 3.37148e-07 -0.000999964)
(-9.54405e-08 3.36278e-07 -0.000999996)
(-7.5501e-08 3.35509e-07 -0.00100002)
(-4.84294e-08 3.34941e-07 -0.00100004)
(-1.66675e-08 3.34076e-07 -0.00100005)
(-1.07314e-07 3.04522e-07 -0.000999861)
(-9.63788e-08 3.03506e-07 -0.000999894)
(-7.62259e-08 3.02667e-07 -0.000999921)
(-4.88702e-08 3.02034e-07 -0.000999941)
(-1.68053e-08 3.01195e-07 -0.000999952)
(-1.08297e-07 2.41913e-07 -0.000999774)
(-9.72944e-08 2.41012e-07 -0.000999807)
(-7.69386e-08 2.40254e-07 -0.000999834)
(-4.93066e-08 2.39687e-07 -0.000999855)
(-1.69441e-08 2.38986e-07 -0.000999866)
(-1.09092e-07 1.5561e-07 -0.00099971)
(-9.80241e-08 1.54973e-07 -0.000999743)
(-7.75148e-08 1.54428e-07 -0.000999771)
(-4.96591e-08 1.54026e-07 -0.000999792)
(-1.70569e-08 1.53552e-07 -0.000999803)
(-1.094e-07 5.3617e-08 -0.000999676)
(-9.83082e-08 5.33799e-08 -0.000999709)
(-7.77361e-08 5.31792e-08 -0.000999738)
(-4.97976e-08 5.30314e-08 -0.000999758)
(-1.7104e-08 5.28621e-08 -0.00099977)
(-1.44137e-07 4.58585e-07 -0.000999952)
(-1.29301e-07 4.57174e-07 -0.000999995)
(-1.02212e-07 4.55966e-07 -0.00100003)
(-6.55229e-08 4.55078e-07 -0.00100006)
(-2.25388e-08 4.53837e-07 -0.00100007)
(-1.45736e-07 4.14263e-07 -0.000999812)
(-1.30772e-07 4.12636e-07 -0.000999856)
(-1.03345e-07 4.11287e-07 -0.000999893)
(-6.6207e-08 4.10287e-07 -0.00099992)
(-2.27535e-08 4.0907e-07 -0.000999934)
(-1.47389e-07 3.29234e-07 -0.000999693)
(-1.32274e-07 3.27738e-07 -0.000999738)
(-1.04515e-07 3.26482e-07 -0.000999775)
(-6.69283e-08 3.25553e-07 -0.000999802)
(-2.2987e-08 3.24509e-07 -0.000999818)
(-1.48746e-07 2.11856e-07 -0.000999606)
(-1.33506e-07 2.10778e-07 -0.000999651)
(-1.0548e-07 2.09871e-07 -0.00099969)
(-6.75262e-08 2.09203e-07 -0.000999717)
(-2.31839e-08 2.08492e-07 -0.000999733)
(-1.49332e-07 7.30098e-08 -0.000999559)
(-1.34035e-07 7.26099e-08 -0.000999605)
(-1.0589e-07 7.2277e-08 -0.000999644)
(-6.77846e-08 7.20307e-08 -0.000999672)
(-2.32707e-08 7.17778e-08 -0.000999687)
(-1.95191e-07 6.23602e-07 -0.000999935)
(-1.74849e-07 6.21367e-07 -0.000999993)
(-1.38034e-07 6.19466e-07 -0.00100004)
(-8.83903e-08 6.18045e-07 -0.00100008)
(-3.03782e-08 6.16228e-07 -0.0010001)
(-1.97789e-07 5.6355e-07 -0.000999745)
(-1.77214e-07 5.6091e-07 -0.000999805)
(-1.39869e-07 5.58693e-07 -0.000999854)
(-8.95178e-08 5.57056e-07 -0.00099989)
(-3.07458e-08 5.55231e-07 -0.00099991)
(-2.00565e-07 4.48131e-07 -0.000999583)
(-1.79703e-07 4.45641e-07 -0.000999644)
(-1.41826e-07 4.43539e-07 -0.000999695)
(-9.07442e-08 4.41981e-07 -0.000999732)
(-3.11533e-08 4.40388e-07 -0.000999752)
(-2.0288e-07 2.88515e-07 -0.000999465)
(-1.81781e-07 2.86701e-07 -0.000999526)
(-1.43462e-07 2.85174e-07 -0.000999579)
(-9.17755e-08 2.84044e-07 -0.000999616)
(-3.1499e-08 2.82957e-07 -0.000999637)
(-2.03958e-07 9.94588e-08 -0.000999401)
(-1.82746e-07 9.87873e-08 -0.000999464)
(-1.44219e-07 9.82244e-08 -0.000999516)
(-9.2251e-08 9.78081e-08 -0.000999554)
(-3.16568e-08 9.74248e-08 -0.000999576)
(-2.64008e-07 8.47793e-07 -0.000999914)
(-2.35925e-07 8.44261e-07 -0.000999992)
(-1.85899e-07 8.41228e-07 -0.00100006)
(-1.18895e-07 8.38923e-07 -0.0010001)
(-4.08361e-08 8.36223e-07 -0.00100013)
(-2.68231e-07 7.66653e-07 -0.000999656)
(-2.39788e-07 7.62307e-07 -0.000999735)
(-1.88948e-07 7.586e-07 -0.000999802)
(-1.20814e-07 7.55842e-07 -0.00099985)
(-4.14798e-08 7.53046e-07 -0.000999877)
(-2.72905e-07 6.1015e-07 -0.000999434)
(-2.43974e-07 6.05957e-07 -0.000999517)
(-1.92279e-07 6.02383e-07 -0.000999586)
(-1.22934e-07 5.99722e-07 -0.000999635)
(-4.21959e-08 5.97255e-07 -0.000999663)
(-2.76861e-07 3.93141e-07 -0.000999273)
(-2.47521e-07 3.90058e-07 -0.000999357)
(-1.95091e-07 3.87447e-07 -0.000999428)
(-1.24719e-07 3.85515e-07 -0.000999479)
(-4.27965e-08 3.83821e-07 -0.000999508)
(-2.78816e-07 1.35595e-07 -0.000999186)
(-2.49277e-07 1.34451e-07 -0.000999272)
(-1.96473e-07 1.33487e-07 -0.000999343)
(-1.25596e-07 1.32779e-07 -0.000999395)
(-4.30935e-08 1.32176e-07 -0.000999424)
(-3.56307e-07 1.15234e-06 -0.000999886)
(-3.17407e-07 1.14666e-06 -0.000999989)
(-2.4957e-07 1.14173e-06 -0.00100008)
(-1.59421e-07 1.13797e-06 -0.00100014)
(-5.47347e-08 1.1339e-06 -0.00100017)
(-3.6331e-07 1.04309e-06 -0.000999535)
(-3.23821e-07 1.03578e-06 -0.000999642)
(-2.54692e-07 1.0295e-06 -0.000999731)
(-1.62709e-07 1.02479e-06 -0.000999796)
(-5.5857e-08 1.02045e-06 -0.000999831)
(-3.71272e-07 8.31196e-07 -0.000999234)
(-3.30986e-07 8.24009e-07 -0.000999345)
(-2.60435e-07 8.17854e-07 -0.000999438)
(-1.66404e-07 8.13264e-07 -0.000999505)
(-5.71171e-08 8.09372e-07 -0.000999542)
(-3.7809e-07 5.36212e-07 -0.000999012)
(-3.37117e-07 5.30908e-07 -0.000999127)
(-2.65312e-07 5.26394e-07 -0.000999224)
(-1.69518e-07 5.23054e-07 -0.000999293)
(-5.81723e-08 5.20354e-07 -0.000999332)
(-3.81616e-07 1.85078e-07 -0.000998893)
(-3.40295e-07 1.83113e-07 -0.000999011)
(-2.67832e-07 1.81447e-07 -0.000999109)
(-1.71137e-07 1.80219e-07 -0.00099918)
(-5.87283e-08 1.79248e-07 -0.00099922)
(-4.79332e-07 1.56562e-06 -0.000999851)
(-4.25385e-07 1.55638e-06 -0.000999987)
(-3.33701e-07 1.54824e-06 -0.0010001)
(-2.1291e-07 1.54206e-06 -0.00100018)
(-7.30701e-08 1.53582e-06 -0.00100022)
(-4.91124e-07 1.41925e-06 -0.000999374)
(-4.3611e-07 1.40681e-06 -0.000999517)
(-3.4232e-07 1.39609e-06 -0.000999635)
(-2.18526e-07 1.38803e-06 -0.00099972)
(-7.50276e-08 1.38112e-06 -0.000999767)
(-5.04878e-07 1.13313e-06 -0.000998963)
(-4.48538e-07 1.12068e-06 -0.000999113)
(-3.52326e-07 1.10997e-06 -0.000999238)
(-2.2504e-07 1.10198e-06 -0.000999329)
(-7.72829e-08 1.09568e-06 -0.000999379)
(-5.16749e-07 7.32335e-07 -0.000998659)
(-4.5921e-07 7.23139e-07 -0.000998816)
(-3.60841e-07 7.15278e-07 -0.000998947)
(-2.30523e-07 7.09451e-07 -0.000999042)
(-7.91635e-08 7.05052e-07 -0.000999095)
(-5.23116e-07 2.53054e-07 -0.000998495)
(-4.64941e-07 2.49655e-07 -0.000998656)
(-3.65425e-07 2.46751e-07 -0.00099879)
(-2.33492e-07 2.44599e-07 -0.000998887)
(-8.01902e-08 2.43009e-07 -0.000998943)
(-6.41949e-07 2.12517e-06 -0.000999807)
(-5.66913e-07 2.11017e-06 -0.000999984)
(-4.4369e-07 2.09654e-06 -0.00100013)
(-2.82858e-07 2.08641e-06 -0.00100024)
(-9.70675e-08 2.07655e-06 -0.00100029)
(-6.6196e-07 1.93082e-06 -0.000999162)
(-5.84866e-07 1.90961e-06 -0.000999349)
(-4.58177e-07 1.89105e-06 -0.000999505)
(-2.92384e-07 1.87719e-06 -0.000999616)
(-1.00492e-07 1.86587e-06 -0.000999678)
(-6.86063e-07 1.54625e-06 -0.0009986)
(-6.06669e-07 1.52452e-06 -0.000998801)
(-4.75899e-07 1.50571e-06 -0.00099897)
(-3.04144e-07 1.49164e-06 -0.000999091)
(-1.04672e-07 1.4811e-06 -0.00099916)
(-7.06908e-07 1.00221e-06 -0.000998182)
(-6.25327e-07 9.86196e-07 -0.000998394)
(-4.90827e-07 9.72417e-07 -0.000998573)
(-3.13835e-07 9.62211e-07 -0.000998702)
(-1.08043e-07 9.54873e-07 -0.000998776)
(-7.18386e-07 3.46912e-07 -0.000997954)
(-6.35642e-07 3.41003e-07 -0.000998174)
(-4.9914e-07 3.35897e-07 -0.000998359)
(-3.19282e-07 3.32111e-07 -0.000998491)
(-1.09959e-07 3.29429e-07 -0.000998569)
(-8.54158e-07 2.87975e-06 -0.000999759)
(-7.49129e-07 2.85597e-06 -0.000999982)
(-5.85449e-07 2.83256e-06 -0.00100017)
(-3.73408e-07 2.81633e-06 -0.0010003)
(-1.28323e-07 2.80001e-06 -0.00100038)
(-8.88379e-07 2.62599e-06 -0.000998888)
(-7.78991e-07 2.58999e-06 -0.000999125)
(-6.09557e-07 2.55724e-06 -0.000999329)
(-3.89187e-07 2.53331e-06 -0.000999471)
(-1.34325e-07 2.51401e-06 -0.000999554)
(-9.31418e-07 2.11302e-06 -0.000998121)
(-8.17862e-07 2.07502e-06 -0.000998382)
(-6.41842e-07 2.04144e-06 -0.00099861)
(-4.1128e-07 2.01632e-06 -0.000998772)
(-1.42496e-07 1.99797e-06 -0.00099887)
(-9.68295e-07 1.37579e-06 -0.000997541)
(-8.50464e-07 1.348e-06 -0.000997822)
(-6.67939e-07 1.32369e-06 -0.000998068)
(-4.28282e-07 1.30586e-06 -0.000998242)
(-1.4852e-07 1.29338e-06 -0.000998348)
(-9.88993e-07 4.77535e-07 -0.000997222)
(-8.68973e-07 4.67294e-07 -0.000997514)
(-6.83064e-07 4.58212e-07 -0.000997772)
(-4.3832e-07 4.51496e-07 -0.000997954)
(-1.52137e-07 4.46837e-07 -0.000998066)
(-1.12605e-06 3.88896e-06 -0.000999719)
(-9.77386e-07 3.85526e-06 -0.000999982)
(-7.65584e-07 3.81225e-06 -0.00100022)
(-4.89954e-07 3.78881e-06 -0.00100039)
(-1.69406e-07 3.75965e-06 -0.00100049)
(-1.18473e-06 3.56876e-06 -0.000998555)
(-1.02519e-06 3.50992e-06 -0.000998821)
(-8.03996e-07 3.44993e-06 -0.000999094)
(-5.13683e-07 3.4093e-06 -0.000999259)
(-1.7979e-07 3.37437e-06 -0.000999374)
(-1.2639e-06 2.89344e-06 -0.000997506)
(-1.09619e-06 2.82759e-06 -0.000997814)
(-8.65809e-07 2.76612e-06 -0.00099814)
(-5.58116e-07 2.72063e-06 -0.00099835)
(-1.97204e-07 2.68695e-06 -0.000998501)
(-1.32993e-06 1.89731e-06 -0.000996697)
(-1.15237e-06 1.85022e-06 -0.000997034)
(-9.10528e-07 1.80698e-06 -0.00099739)
(-5.86768e-07 1.77657e-06 -0.000997615)
(-2.07642e-07 1.75507e-06 -0.000997778)
(-1.36768e-06 6.61348e-07 -0.000996244)
(-1.18539e-06 6.44042e-07 -0.000996598)
(-9.38396e-07 6.27466e-07 -0.000996978)
(-6.05568e-07 6.1546e-07 -0.000997217)
(-2.14735e-07 6.06937e-07 -0.000997393)
(-1.46502e-06 5.21225e-06 -0.000999738)
(-1.2506e-06 5.18695e-06 -0.000999987)
(-9.94601e-07 5.09444e-06 -0.00100031)
(-6.42195e-07 5.07421e-06 -0.00100053)
(-2.26653e-07 5.0159e-06 -0.00100069)
(-1.56421e-06 4.83943e-06 -0.000998218)
(-1.31727e-06 4.7574e-06 -0.000998379)
(-1.04733e-06 4.63807e-06 -0.000998795)
(-6.64042e-07 4.57452e-06 -0.000998911)
(-2.43608e-07 4.50522e-06 -0.000999085)
(-1.71806e-06 3.97186e-06 -0.000996782)
(-1.45193e-06 3.86247e-06 -0.00099702)
(-1.17693e-06 3.74472e-06 -0.000997562)
(-7.64713e-07 3.66071e-06 -0.000997808)
(-2.85861e-07 3.59393e-06 -0.000998087)
(-1.8395e-06 2.63227e-06 -0.000995646)
(-1.54421e-06 2.5593e-06 -0.000995907)
(-1.24851e-06 2.48058e-06 -0.000996503)
(-8.06258e-07 2.43322e-06 -0.000996738)
(-3.02053e-07 2.39633e-06 -0.000997025)