/*--------------------------------*- C++ -*----------------------------------*\
| =========                 |                                                 |
| \\      /  F ield         | OpenFOAM: The Open Source CFD Toolbox           |
|  \\    /   O peration     | Version:  5.x                                   |
|   \\  /    A nd           | Web:      www.OpenFOAM.org                      |
|    \\/     M anipulation  |                                                 |
\*---------------------------------------------------------------------------*/
FoamFile
{
    version     2.0;
    format      ascii;
    class       surfaceScalarField;
    location    "6000";
    object      phi;
}
// * * * * * * * * * * * * * * * * * * * * * * * * * * * * * * * * * * * * * //

dimensions      [0 3 -1 0 0 0 0];

internalField   nonuniform List<scalar> 
179
(
1.07996e+07
1.08038e+07
1.08066e+07
1.08093e+07
1.08115e+07
1.08142e+07
1.08177e+07
1.08223e+07
1.08262e+07
1.08326e+07
1.08374e+07
1.08422e+07
1.08462e+07
1.08517e+07
1.08575e+07
1.08613e+07
1.08656e+07
1.08692e+07
1.08728e+07
1.08769e+07
1.08816e+07
1.08871e+07
1.08929e+07
1.08982e+07
1.09049e+07
1.09104e+07
1.09181e+07
1.09245e+07
1.09295e+07
1.09366e+07
1.09449e+07
1.09473e+07
1.09492e+07
1.09495e+07
1.09516e+07
1.09518e+07
1.09445e+07
1.09339e+07
1.09209e+07
1.08994e+07
1.08758e+07
1.08521e+07
1.08256e+07
1.07951e+07
1.07648e+07
1.0733e+07
1.06999e+07
1.06658e+07
1.06342e+07
1.06078e+07
1.05813e+07
1.0556e+07
1.05295e+07
1.05024e+07
1.04773e+07
1.04537e+07
1.04299e+07
1.04066e+07
1.0389e+07
1.03747e+07
1.03633e+07
1.03529e+07
1.03432e+07
1.03326e+07
1.03269e+07
1.03232e+07
1.03239e+07
1.03266e+07
1.033e+07
1.03359e+07
1.03408e+07
1.0348e+07
1.03584e+07
1.03659e+07
1.03772e+07
1.03867e+07
1.0395e+07
1.04034e+07
1.04115e+07
1.04189e+07
1.04288e+07
1.04397e+07
1.04498e+07
1.04642e+07
1.0478e+07
1.04961e+07
1.05203e+07
1.05437e+07
1.05689e+07
1.0596e+07
1.06252e+07
1.06563e+07
1.06868e+07
1.07237e+07
1.07646e+07
1.08104e+07
1.08747e+07
1.09499e+07
1.10374e+07
1.11376e+07
1.12457e+07
1.13805e+07
1.15292e+07
1.17883e+07
1.2029e+07
1.30557e+07
1.44394e+07
1.56432e+07
1.67204e+07
1.76671e+07
1.84679e+07
1.91169e+07
1.96266e+07
1.99903e+07
2.02408e+07
2.03754e+07
2.04857e+07
2.05026e+07
2.04941e+07
2.04657e+07
2.04278e+07
2.03875e+07
2.03469e+07
2.02744e+07
2.01949e+07
2.01073e+07
2.00606e+07
2.00304e+07
2.00236e+07
2.00104e+07
1.99885e+07
1.99392e+07
1.9863e+07
1.9741e+07
1.95828e+07
1.93649e+07
1.90955e+07
1.87483e+07
1.83134e+07
1.77746e+07
1.71259e+07
1.63569e+07
1.5451e+07
1.44193e+07
1.32791e+07
1.20736e+07
1.08407e+07
9.66222e+06
8.62219e+06
7.78596e+06
7.17186e+06
6.77154e+06
6.58049e+06
6.50699e+06
6.5888e+06
6.74241e+06
7.03706e+06
7.40434e+06
7.77574e+06
8.19873e+06
8.63283e+06
9.0547e+06
9.42948e+06
9.7036e+06
9.88907e+06
9.9718e+06
9.94737e+06
9.82517e+06
9.64619e+06
9.44802e+06
9.26339e+06
9.12014e+06
9.02966e+06
9.00159e+06
9.03248e+06
9.10722e+06
9.22271e+06
9.35317e+06
9.50386e+06
)
;

boundaryField
{
    inlet
    {
        type            calculated;
        value           uniform 9.6248e+06;
    }
    outlet
    {
        type            calculated;
        value           uniform -1.07944e+07;
    }
    repeat_boundary
    {
        type            calculated;
        value           uniform 0;
    }
    procBoundary3to1
    {
        type            processor;
        value           nonuniform List<scalar> 
180
(
-3288.49
-2734.79
-1945.26
-2062.06
-2187.29
-2439.58
-3059.89
-3467.83
-2902.56
-4892.96
-3988.25
-3945.03
-2971.15
-3483.84
-3391.16
-1497.63
-1535.9
-543.836
-1836.88
-3012.12
-4077.91
-4883.79
-5005.29
-4484.87
-5039.89
-4988.26
-3745.13
-2086.45
-620.475
-1520.65
-3261.07
235.12
2343.73
6219.38
5355.31
5900.15
6135.28
7594.42
8984.8
11818.9
11574
12583.3
14230
13684.7
11704.7
12187.1
11688.9
11477.9
9813.26
6485.94
6168.11
4943.74
5559.55
5776.56
5159.73
4113.01
4455.91
3997.73
1730.58
449.594
-679.067
-940.388
-1367.33
-1636.26
-2741.77
-4341.56
-6196.55
-9303.79
-10215.6
-13282.3
-14384.1
-15146.1
-20199.9
-20159.5
-24293.9
-26390.7
-26721.6
-27777.8
-29853.2
-34264.8
-36423.5
-39625.8
-43993.6
-50528.2
-55837.4
-61249.5
-68725.1
-70437.1
-81545.9
-83471.4
-94310.4
-100172
-119955
-125571
-145538
-150175
-164500
-183092
-201391
-227718
-255628
-304113
-341724
-487114
-494802
-1.31423e+06
-1.77194e+06
-1.61587e+06
-1.50982e+06
-1.37233e+06
-1.20518e+06
-1.01875e+06
-825305
-627871
-441440
-278504
-147523
-60246.2
-8020.29
-3939.45
-28674.8
-60780.7
-97664.1
-83278.9
-85824.6
-65184
-100313
-101735
-115402
-94711.1
-79720.8
-43802.7
-14866.5
33258.4
69102.5
126418
175255
239292
307160
390308
473188
572073
677743
797175
888077
956967
986720
963125
874666
733894
570393
402709
227259
131390
-2947.24
-34956.1
-93481.7
-51786
108837
267207
469545
674668
870420
1.06347e+06
1.18617e+06
1.27215e+06
1.31772e+06
1.31357e+06
1.23908e+06
1.11554e+06
961041
783256
604650
422780
256217
103542
-18847.1
-122361
-201656
-278914
)
;
    }
    procBoundary3to2
    {
        type            processor;
        value           nonuniform List<scalar> 
180
(
-1911.28
-1526.22
-796.886
-675.417
-13.8911
-181.707
-491.222
-1152.43
-960.257
-1550.92
-781.05
-841.292
-1011.8
-2010.71
-2411.57
-2349.62
-2759.27
-3059.29
-1719.28
-1114.65
-608.812
-591.158
-799.151
-905.397
-1577.65
-569.259
-3936.29
-4360.08
-4348.23
-5586.63
-5037.1
-2573.81
-4257.72
-6495.38
-7546.95
-6065.56
1144.59
2999.88
4043.74
9732.4
12032.4
11098.9
12230.7
16818.6
18639.2
19554.3
21415.6
22597.7
21869.7
19894.4
20335.8
20359.5
20893.2
21391.3
19858.3
19474.8
19384.3
19283.4
15880.3
13860.1
12038.1
11376.5
11085.3
12253.2
8407.81
8082.84
5502.44
6547.46
6842.38
7354.35
9454.93
8028.63
9749.74
12645.4
13068.3
16820.9
18478.5
19329
21792.6
26856
26540.8
28675.5
33960.5
36090
41987.4
43224.1
44497.6
47001
56358.6
56361.4
65171.1
69022.3
89501.4
88681.1
104547
104374
100283
107876
113876
127484
147566
169297
193080
227963
254141
287477
388245
412112
432577
425636
404377
369728
315676
264161
190960
143818
37307.4
43255.5
16573.7
32280.3
66632.4
101116
138224
155769
165368
152746
146992
131964
122201
107860
101635
93180.6
90982.7
88745
89079.7
91550.5
94117.5
107919
127697
148519
175493
196912
228180
234503
252144
248516
246222
215360
165361
102331
43706.7
-2385.82
-36208.4
-57886.6
-78867.5
-118645
-201170
-315498
-480234
-690193
-903644
-1.09654e+06
-1.2452e+06
-1.33759e+06
-1.37164e+06
-1.35488e+06
-1.29329e+06
-1.19137e+06
-1.06011e+06
-917372
-776413
-640004
-514167
-394717
-287105
-178276
-96646.2
-8099.36
50971.2
157970
)
;
    }
}


// ************************************************************************* //
