/*--------------------------------*- C++ -*----------------------------------*\
| =========                 |                                                 |
| \\      /  F ield         | OpenFOAM: The Open Source CFD Toolbox           |
|  \\    /   O peration     | Version:  5.x                                   |
|   \\  /    A nd           | Web:      www.OpenFOAM.org                      |
|    \\/     M anipulation  |                                                 |
\*---------------------------------------------------------------------------*/
FoamFile
{
    version     2.0;
    format      ascii;
    class       volVectorField;
    location    "9000";
    object      U;
}
// * * * * * * * * * * * * * * * * * * * * * * * * * * * * * * * * * * * * * //

dimensions      [0 1 -1 0 0 0 0];

internalField   nonuniform List<vector> 
180
(
(-0.0435138 -0.00220214 123.021)
(-0.0439727 0.00754921 123.027)
(-0.0562368 0.0251299 123.061)
(-0.0642935 0.0499468 123.015)
(-0.0636651 0.0636897 123.009)
(-0.0885203 0.0854786 123.045)
(-0.123708 0.103418 123.01)
(-0.147092 0.189801 123.031)
(-0.14129 0.227982 123.02)
(-0.145519 0.244585 123.021)
(-0.153969 0.276326 123.02)
(-0.0790245 0.447751 123.084)
(-0.110748 0.601868 123.117)
(-0.133893 0.684221 123.127)
(-0.135067 0.71612 123.181)
(-0.12429 0.687124 123.228)
(-0.100612 0.899984 123.37)
(-0.109 1.14477 123.463)
(-0.128682 1.21675 123.468)
(-0.128667 1.34524 123.712)
(-0.149133 1.58458 123.778)
(-0.137903 1.63735 123.872)
(-0.143705 1.65001 123.998)
(-0.169449 1.62704 124.111)
(-0.165823 1.64306 124.194)
(-0.142032 1.667 124.223)
(-0.0740243 1.83546 124.341)
(-0.0281351 1.94982 124.425)
(-0.0244943 1.96295 124.429)
(0.018449 1.99982 124.445)
(0.117568 1.99281 124.587)
(0.156963 1.92198 124.704)
(0.138627 1.83811 124.628)
(0.166978 1.85663 124.66)
(0.215937 1.97158 124.721)
(0.205573 1.94521 124.771)
(0.14534 1.69147 124.807)
(0.080895 1.45881 124.781)
(0.0148711 1.35528 124.782)
(-0.0566769 1.22363 124.783)
(-0.0324057 1.14876 124.666)
(-0.0579277 1.13659 124.68)
(-0.188099 1.02105 124.673)
(-0.18322 0.977354 124.554)
(-0.158304 0.960105 124.495)
(-0.172621 0.93531 124.478)
(-0.205531 0.746276 124.376)
(-0.118303 0.63774 124.248)
(-0.0561606 0.467084 124.212)
(0.0331106 0.313868 124.087)
(-0.00648426 0.0900726 123.996)
(-0.0288952 -0.0991369 123.877)
(-0.0256652 -0.162688 123.743)
(-0.00444849 -0.20955 123.699)
(-0.0479736 -0.478468 123.542)
(-0.0941272 -0.75897 123.385)
(-0.0842054 -0.870217 123.308)
(-0.0999791 -0.912956 123.154)
(-0.0174649 -0.890678 123.041)
(-0.0353146 -1.06291 122.932)
(-0.0579098 -1.11882 122.765)
(-0.0152827 -1.14193 122.702)
(0.0174177 -1.16616 122.554)
(-0.0103756 -1.23397 122.397)
(-0.0486264 -1.28133 122.322)
(-0.0224296 -1.33024 122.144)
(0.137388 -1.32954 122.012)
(0.166072 -1.36299 121.895)
(0.273782 -1.35249 121.812)
(0.277882 -1.35963 121.661)
(0.375035 -1.40148 121.539)
(0.52282 -1.55787 121.429)
(0.640861 -1.69697 121.273)
(0.749532 -1.89303 121.181)
(0.725536 -2.04288 121.024)
(0.637002 -2.17424 120.865)
(0.596478 -2.4142 120.656)
(0.509807 -2.59481 120.525)
(0.453634 -2.81361 120.24)
(0.400671 -3.01809 120.011)
(0.273581 -3.18247 119.739)
(0.176861 -3.22339 119.437)
(0.207143 -2.97606 119.054)
(0.606544 -2.55906 118.744)
(1.37983 -1.96736 118.404)
(2.41633 -1.3571 118.136)
(3.61478 -0.632773 117.952)
(4.74459 0.115459 117.796)
(5.89691 0.81039 117.797)
(6.86986 1.53626 117.77)
(7.78227 2.11272 117.871)
(8.41156 2.71403 117.983)
(8.82861 3.18237 118.143)
(9.16215 3.48232 118.392)
(9.15074 3.74596 118.544)
(9.12768 3.985 118.891)
(9.09459 4.13303 119.058)
(8.9237 4.29555 119.361)
(8.64711 4.4268 119.686)
(8.40665 4.47092 119.92)
(8.32808 4.53171 120.319)
(8.17624 4.47142 120.526)
(8.03818 4.52923 120.996)
(7.64631 4.46521 121.205)
(7.45258 4.49308 121.725)
(7.28668 4.4507 121.87)
(7.02588 4.44877 122.566)
(7.01613 4.42577 122.654)
(6.67519 4.26216 123.18)
(6.4034 4.08476 123.644)
(6.24016 4.0041 123.998)
(6.21896 3.90334 124.369)
(5.84898 3.7424 124.722)
(5.0261 2.57624 124.986)
(3.54516 0.85425 124.861)
(2.39218 -1.01273 124.643)
(0.923409 -2.5081 123.912)
(-0.0248625 -3.52707 123.242)
(-1.24154 -3.78988 122.063)
(-2.0073 -3.37172 121.096)
(-3.0023 -2.26703 119.765)
(-3.69079 -0.621753 118.685)
(-4.48683 1.4398 117.365)
(-5.07099 3.83221 116.272)
(-5.60549 6.47889 115.113)
(-5.97623 9.19904 114.15)
(-6.21264 12.0141 113.166)
(-6.29858 14.7739 112.441)
(-6.26184 17.4649 111.587)
(-6.04936 20.07 111.018)
(-5.73457 22.5494 110.353)
(-5.26009 24.8113 109.972)
(-4.72525 26.9387 109.455)
(-4.06751 28.989 109.215)
(-3.38481 30.9103 108.905)
(-2.60708 32.7587 108.805)
(-1.83195 34.4928 108.681)
(-0.925976 36.1218 108.738)
(-0.0379649 37.5762 108.873)
(0.9742 39.1902 109.079)
(1.97878 40.5341 109.395)
(3.09258 42.0307 109.714)
(4.21089 43.226 110.202)
(5.42821 44.5435 110.613)
(6.66849 45.6193 111.255)
(7.99236 46.6849 111.645)
(9.36033 47.5081 112.454)
(10.7351 48.3715 112.749)
(12.2301 48.9805 113.713)
(13.5452 49.604 113.855)
(15.1382 49.9447 114.896)
(16.2376 50.1941 114.916)
(17.8512 50.3155 115.913)
(18.6237 50.0136 115.878)
(19.8347 49.7681 116.763)
(20.2715 49.068 116.636)
(21.2679 48.3599 117.47)
(21.3819 46.9488 117.163)
(22.3917 45.1676 118.05)
(22.0635 42.7596 117.583)
(22.7073 40.0462 118.226)
(22.1821 36.5712 117.729)
(22.5945 32.6867 118.075)
(22.143 28.048 117.438)
(22.5292 23.139 117.465)
(22.3637 17.8951 116.59)
(22.8655 12.6394 116.269)
(23.205 7.59621 115.065)
(24.0577 2.71567 114.405)
(25.0868 -1.357 112.852)
(26.4718 -5.01022 111.856)
(28.2234 -7.59223 110.173)
(30.0177 -8.90182 108.764)
(32.1699 -9.50538 107.548)
(33.7435 -8.09125 105.533)
(35.6725 -6.71387 105.464)
(36.6199 -2.48442 102.94)
(37.9153 -0.0870429 103.87)
(38.3676 2.70929 102.064)
(39.1068 4.43982 102.899)
)
;

boundaryField
{
    inlet
    {
        type            zeroGradient;
    }
    outlet
    {
        type            zeroGradient;
    }
    repeat_boundary
    {
        type            slip;
    }
    procBoundary3to1
    {
        type            processor;
        value           nonuniform List<vector> 
180
(
(-0.0759541 0.00181877 122.827)
(-0.0747232 0.011512 122.777)
(-0.0795955 0.0198695 122.81)
(-0.0934662 0.0442873 122.774)
(-0.0995278 0.0600372 122.75)
(-0.0910996 0.0639279 122.733)
(-0.0903362 0.0695041 122.731)
(-0.105344 0.145333 122.72)
(-0.12344 0.189771 122.643)
(-0.128452 0.232611 122.632)
(-0.218153 0.273399 122.529)
(-0.381985 0.404008 122.517)
(-0.57245 0.528176 122.282)
(-0.695878 0.670471 122.243)
(-1.05221 0.798444 121.988)
(-1.26649 0.933192 121.776)
(-1.46578 1.02426 121.628)
(-1.60064 1.1625 121.245)
(-1.61682 1.27885 121.02)
(-1.47331 1.31178 120.665)
(-1.24682 1.23753 120.414)
(-0.912224 1.0741 120.054)
(-0.487142 0.775966 119.812)
(-0.1352 0.537579 119.581)
(0.550376 -0.0125217 119.273)
(0.624435 -0.054419 119.239)
(0.981472 -0.352647 119.052)
(1.21171 -0.519581 118.904)
(1.42334 -0.67605 118.786)
(1.66613 -0.862118 118.718)
(1.69772 -0.90821 118.616)
(2.1044 -1.17994 118.624)
(2.14075 -1.13314 118.589)
(2.38762 -1.27907 118.596)
(2.61122 -1.41978 118.638)
(2.7238 -1.50612 118.654)
(2.8001 -1.59528 118.725)
(2.80023 -1.59752 118.776)
(2.89993 -1.70046 118.926)
(2.9337 -1.75329 118.965)
(2.94438 -1.73285 119.062)
(2.89887 -1.61013 119.203)
(2.86372 -1.57042 119.299)
(2.9209 -1.7446 119.438)
(2.92049 -1.74666 119.656)
(2.92306 -1.77707 119.679)
(2.96758 -1.82389 119.815)
(3.02714 -1.87223 119.984)
(2.96556 -1.74699 120.233)
(2.96031 -1.70756 120.425)
(2.95124 -1.6984 120.596)
(3.02922 -1.74763 120.771)
(2.98016 -1.53706 121.146)
(3.02086 -1.48041 121.258)
(2.97977 -1.31482 121.527)
(2.99154 -1.19628 121.821)
(2.89794 -0.963465 122.063)
(2.85792 -0.795199 122.336)
(2.70509 -0.721008 122.605)
(2.62063 -0.707502 122.8)
(2.62596 -0.564297 123.084)
(2.57878 -0.579213 123.301)
(2.42557 -0.68011 123.583)
(2.37196 -0.695817 123.776)
(2.38518 -0.569691 124.126)
(2.43091 -0.541989 124.251)
(2.4937 -0.471918 124.534)
(2.4683 -0.48295 124.782)
(2.38106 -0.466061 125.02)
(2.3014 -0.50087 125.233)
(2.21254 -0.561091 125.433)
(2.07129 -0.557998 125.69)
(1.95926 -0.519103 125.831)
(1.85543 -0.596761 126.102)
(1.74039 -0.80787 126.25)
(1.68932 -0.904921 126.572)
(1.66541 -0.921049 126.713)
(1.67443 -1.00578 126.942)
(1.70784 -1.3346 127.285)
(1.69076 -1.54449 127.511)
(1.6719 -1.71863 127.762)
(1.72484 -2.10468 128.084)
(1.70833 -2.51903 128.358)
(1.82521 -3.0219 128.714)
(1.88473 -3.41268 128.931)
(1.96197 -3.68237 129.307)
(2.01457 -3.86954 129.519)
(2.04919 -3.97489 129.747)
(1.95285 -3.9431 129.954)
(1.92353 -4.04452 130.16)
(1.92933 -4.09558 130.176)
(1.92772 -4.09621 130.255)
(1.8753 -4.05658 130.351)
(1.82127 -4.04511 130.372)
(1.85251 -4.12448 130.33)
(1.85892 -4.14493 130.357)
(1.84938 -4.1177 130.383)
(1.77705 -4.01695 130.319)
(1.72487 -3.97912 130.23)
(1.73893 -3.93826 130.196)
(1.66437 -3.69595 130.159)
(1.53346 -3.47402 129.988)
(1.46414 -3.35625 129.921)
(1.4559 -3.35174 129.79)
(1.47036 -3.26471 129.732)
(1.54673 -2.90524 129.538)
(1.61557 -2.45813 129.454)
(1.54581 -2.30581 129.274)
(1.6353 -2.01289 129.141)
(1.62521 -1.99182 128.937)
(1.73963 -1.92539 128.889)
(2.05924 -1.98438 128.631)
(2.65262 -2.64599 128.572)
(3.13849 -3.7149 128.547)
(3.70431 -4.99868 128.7)
(4.18565 -6.5261 129.065)
(5.1218 -8.34718 129.567)
(5.55936 -9.89099 130.369)
(6.1172 -11.3317 131.23)
(6.1834 -12.2095 132.15)
(6.58102 -13.3026 133.174)
(6.9181 -14.1578 134.027)
(7.88222 -15.4685 135.074)
(8.19094 -15.8718 135.961)
(8.64922 -16.5147 136.565)
(9.41865 -17.4673 137.653)
(9.36846 -17.4773 137.956)
(10.7176 -18.7411 138.613)
(12.3727 -20.2516 139.224)
(13.0934 -20.8426 139.81)
(14.2569 -21.8897 140.125)
(15.792 -23.0898 140.833)
(17.0187 -23.9562 141.221)
(18.4118 -24.9392 141.768)
(19.1085 -25.273 142.225)
(21.0049 -26.7408 142.754)
(20.8199 -26.5317 142.799)
(20.8214 -26.5067 142.79)
(21.4209 -26.9724 142.782)
(22.4254 -27.7989 142.482)
(22.7843 -28.1291 141.816)
(23.4542 -28.6943 141.235)
(23.5336 -28.7683 140.477)
(23.9428 -29.2187 139.671)
(24.4416 -29.6928 138.676)
(24.7493 -30.0087 137.883)
(25.0247 -30.2193 136.725)
(25.4042 -30.5828 135.805)
(25.9443 -31.0412 134.461)
(26.4338 -31.6023 133.201)
(27.0464 -32.1748 131.628)
(27.5376 -32.8691 130.106)
(28.0788 -33.4704 128.487)
(28.4015 -34.0765 126.881)
(28.7628 -34.4951 125.298)
(28.8244 -34.8207 123.733)
(28.9292 -34.9349 122.24)
(28.6216 -34.8718 120.792)
(28.3085 -34.5455 119.424)
(27.5221 -33.952 118.156)
(26.7789 -33.0757 116.941)
(25.592 -31.8576 115.875)
(24.4486 -30.3513 114.845)
(23.0633 -28.5435 113.999)
(21.905 -26.7272 113.199)
(20.7062 -25.0496 112.626)
(19.8654 -23.6422 112.132)
(19.1249 -22.6942 111.921)
(18.7109 -21.9605 111.791)
(18.585 -21.6142 112.027)
(18.5393 -21.2927 112.243)
(18.8379 -20.9307 112.894)
(19.1991 -20.6839 113.404)
(19.8432 -20.4986 114.15)
(20.2829 -20.0911 114.908)
(20.8427 -19.6619 115.561)
(21.2032 -18.835 116.11)
(21.3514 -18.3055 116.543)
(21.6395 -17.7355 116.752)
(21.5945 -16.7682 116.655)
)
;
    }
    procBoundary3to2
    {
        type            processor;
        value           nonuniform List<vector> 
180
(
(-0.0473754 -0.030389 126.155)
(-0.051148 -0.020728 126.234)
(-0.0555403 0.00230737 126.19)
(-0.0602791 0.0119179 126.171)
(-0.0897174 0.0461852 126.252)
(-0.105417 0.0774884 126.204)
(-0.160759 0.153468 126.237)
(-0.201488 0.211221 126.312)
(-0.21882 0.258379 126.284)
(-0.203354 0.322201 126.359)
(-0.204005 0.320621 126.352)
(-0.191499 0.306508 126.442)
(-0.202611 0.31842 126.421)
(-0.209718 0.337277 126.446)
(-0.211436 0.342424 126.456)
(-0.207449 0.315439 126.551)
(-0.192239 0.13589 126.549)
(-0.194029 0.163402 126.521)
(-0.195269 0.143692 126.56)
(-0.211002 0.16169 126.595)
(-0.225953 0.126018 126.616)
(-0.22983 0.129151 126.622)
(-0.252691 0.100326 126.689)
(-0.238946 0.119928 126.666)
(-0.237238 0.0924088 126.731)
(-0.204908 0.0456016 126.734)
(-0.1699 -0.0164454 126.768)
(-0.173294 0.0283655 126.751)
(-0.169231 0.0577526 126.794)
(-0.0865717 0.0392389 126.777)
(-0.0117018 0.00408116 126.842)
(-0.0548924 0.0353095 126.746)
(-0.0930021 0.276012 126.842)
(-0.0815832 0.289412 126.821)
(-0.0890475 0.372095 126.817)
(-0.0869996 0.631285 126.918)
(-0.0793453 0.704231 126.914)
(-0.0901359 0.701713 126.883)
(-0.0794942 0.747854 126.933)
(-0.107943 0.786222 126.967)
(-0.151287 0.770705 127.039)
(-0.142395 0.735844 126.984)
(-0.145483 0.728711 126.956)
(-0.26803 0.656023 127.059)
(-0.351657 0.486154 127.04)
(-0.332655 0.429813 126.945)
(-0.390823 0.384519 127.056)
(-0.413533 0.404719 126.992)
(-0.411117 0.375172 127.001)
(-0.411586 0.371857 127.006)
(-0.412006 0.367109 126.986)
(-0.401887 0.348723 127.018)
(-0.401807 0.33588 126.978)
(-0.417235 0.350173 127.003)
(-0.46965 0.311399 127.013)
(-0.514525 0.273649 127.039)
(-0.54879 0.216867 127.059)
(-0.577412 0.188682 127.106)
(-0.597109 0.159118 127.116)
(-0.665051 0.0628709 127.217)
(-0.683965 0.0458702 127.163)
(-0.67735 0.049357 127.199)
(-0.653787 0.0456055 127.224)
(-0.610262 0.241322 127.347)
(-0.661337 0.220634 127.276)
(-0.670162 0.465413 127.36)
(-0.704047 0.668611 127.471)
(-0.726109 0.676128 127.417)
(-0.756649 0.735162 127.485)
(-0.769989 0.73226 127.559)
(-0.805769 0.724529 127.515)
(-0.849855 0.71526 127.548)
(-0.829715 0.52839 127.562)
(-0.832461 0.313201 127.525)
(-0.880909 0.221854 127.488)
(-0.916671 0.218169 127.417)
(-0.924563 0.200302 127.433)
(-0.956887 0.0979869 127.391)
(-0.994321 0.0743289 127.322)
(-1.02491 0.0244516 127.285)
(-1.23364 -0.118026 127.219)
(-1.35822 -0.212458 127.17)
(-1.47416 -0.223753 127.097)
(-1.56052 -0.248451 127.072)
(-1.86992 -0.373324 126.911)
(-2.11298 -0.484627 126.792)
(-2.16403 -0.54631 126.555)
(-2.42041 -0.528877 126.387)
(-3.02069 -0.479078 126.029)
(-3.54562 -0.544316 125.564)
(-3.81696 -0.578921 125.35)
(-3.97066 -0.577066 124.87)
(-4.13872 -0.532508 124.491)
(-4.09395 -0.594284 123.887)
(-4.04929 -0.722468 123.499)
(-4.11316 -0.586352 123.059)
(-3.70031 -0.758545 122.435)
(-3.54126 -0.946931 122.016)
(-3.12525 -1.0397 121.486)
(-2.94645 -1.03475 120.806)
(-2.84672 -1.11295 120.385)
(-2.69856 -1.10239 119.834)
(-2.14092 -0.966099 119.018)
(-1.91486 -1.08696 118.691)
(-1.58049 -1.01771 118.029)
(-1.27965 -0.927287 117.351)
(-1.08444 -0.900622 116.823)
(-1.1018 -0.944994 116.167)
(-0.889068 -0.80634 115.672)
(-0.489528 -0.526616 114.879)
(-0.438817 0.228252 114.385)
(-0.879625 0.890724 113.845)
(-1.52444 1.50282 113.357)
(-2.39086 1.6966 112.979)
(-3.13271 1.8176 112.67)
(-3.90401 1.52768 112.552)
(-4.44442 1.21911 112.413)
(-4.95256 0.560621 112.469)
(-5.22784 -0.0570379 112.481)
(-5.47299 -0.769097 112.623)
(-5.53357 -1.32372 112.688)
(-5.59482 -1.78472 112.911)
(-5.54268 -1.99038 113.019)
(-5.51536 -2.04653 113.324)
(-5.4249 -1.95445 113.533)
(-5.3888 -1.73799 113.898)
(-5.33243 -1.40284 114.165)
(-5.32346 -0.922361 114.597)
(-5.31935 -0.380449 114.948)
(-5.36111 0.209628 115.442)
(-5.42362 0.828927 115.861)
(-5.5316 1.54994 116.413)
(-5.6651 2.26563 116.904)
(-5.8314 3.09641 117.524)
(-6.01694 3.85728 118.065)
(-6.23645 4.60905 118.8)
(-6.4655 5.18373 119.422)
(-6.75449 5.7448 120.265)
(-7.06895 6.14667 120.918)
(-7.5202 6.58449 121.829)
(-8.05147 6.9049 122.488)
(-8.79159 7.40998 123.439)
(-9.67 7.96675 124.115)
(-10.8281 8.75702 125.086)
(-12.0869 9.56078 125.856)
(-13.6615 10.7043 126.864)
(-15.1971 11.7833 127.827)
(-17.0392 13.1273 128.899)
(-18.7274 14.1822 130.129)
(-20.6422 15.4277 131.288)
(-22.2532 16.2362 132.742)
(-23.9642 17.159 133.923)
(-25.2991 17.5749 135.479)
(-26.5917 18.047 136.644)
(-27.5255 18.0379 138.186)
(-28.2971 18.078 139.32)
(-28.7773 17.657 140.763)
(-29.0516 17.3491 141.823)
(-29.1321 16.6473 143.091)
(-29.0732 16.0019 144.014)
(-28.8446 15.3254 145.12)
(-28.6772 14.4117 145.871)
(-28.3647 13.7747 146.767)
(-28.1784 12.9568 147.537)
(-27.8702 12.5241 147.98)
(-27.8388 11.6936 149.066)
(-27.5792 11.6828 149.032)
(-27.68 11.3311 149.698)
(-27.4886 11.2609 150.111)
(-28.1882 10.9413 150.437)
(-28.5574 11.3667 150.856)
(-29.9762 11.4186 150.853)
(-30.6321 12.7991 151.292)
(-31.9951 13.4483 151.179)
(-32.5635 15.4484 151.67)
(-33.2905 16.557 151.46)
(-33.4523 18.7545 151.976)
(-33.2786 20.1566 151.925)
(-32.6333 21.3829 152.344)
(-31.5985 21.0631 152.063)
)
;
    }
}


// ************************************************************************* //
