/*--------------------------------*- C++ -*----------------------------------*\
| =========                 |                                                 |
| \\      /  F ield         | OpenFOAM: The Open Source CFD Toolbox           |
|  \\    /   O peration     | Version:  5.x                                   |
|   \\  /    A nd           | Web:      www.OpenFOAM.org                      |
|    \\/     M anipulation  |                                                 |
\*---------------------------------------------------------------------------*/
FoamFile
{
    version     2.0;
    format      ascii;
    class       volVectorField;
    location    "7000";
    object      stored_U;
}
// * * * * * * * * * * * * * * * * * * * * * * * * * * * * * * * * * * * * * //

dimensions      [0 1 -1 0 0 0 0];

internalField   nonuniform List<vector> 
180
(
(-1.13863e-09 1.48735e-08 -0.000999921)
(-1.57141e-09 1.86591e-08 -0.00099992)
(-2.21021e-09 2.51166e-08 -0.000999917)
(-2.97243e-09 3.32306e-08 -0.000999914)
(-3.82716e-09 4.23511e-08 -0.000999911)
(-4.76534e-09 5.21676e-08 -0.000999906)
(-5.78957e-09 6.259e-08 -0.0009999)
(-6.90992e-09 7.36436e-08 -0.000999893)
(-8.14184e-09 8.54062e-08 -0.000999885)
(-9.50449e-09 9.79797e-08 -0.000999876)
(-1.102e-08 1.11479e-07 -0.000999866)
(-1.27136e-08 1.26028e-07 -0.000999855)
(-1.46134e-08 1.41762e-07 -0.000999842)
(-1.67517e-08 1.58826e-07 -0.000999827)
(-1.91646e-08 1.77377e-07 -0.000999812)
(-2.18932e-08 1.97582e-07 -0.000999794)
(-2.49844e-08 2.19627e-07 -0.000999775)
(-2.84913e-08 2.43708e-07 -0.000999753)
(-3.24748e-08 2.70042e-07 -0.00099973)
(-3.70042e-08 2.98863e-07 -0.000999704)
(-4.21585e-08 3.30425e-07 -0.000999676)
(-4.80284e-08 3.65005e-07 -0.000999644)
(-5.47171e-08 4.02904e-07 -0.00099961)
(-6.23432e-08 4.44449e-07 -0.000999573)
(-7.10421e-08 4.89998e-07 -0.000999533)
(-8.09686e-08 5.39935e-07 -0.000999488)
(-9.23005e-08 5.94683e-07 -0.000999439)
(-1.05241e-07 6.54698e-07 -0.000999386)
(-1.20023e-07 7.20474e-07 -0.000999328)
(-1.36912e-07 7.92549e-07 -0.000999265)
(-1.56216e-07 8.71505e-07 -0.000999196)
(-1.78284e-07 9.57971e-07 -0.000999121)
(-2.03518e-07 1.05263e-06 -0.000999039)
(-2.32379e-07 1.15621e-06 -0.000998951)
(-2.65394e-07 1.2695e-06 -0.000998855)
(-3.03171e-07 1.39336e-06 -0.00099875)
(-3.46402e-07 1.5287e-06 -0.000998637)
(-3.95887e-07 1.6765e-06 -0.000998515)
(-4.52539e-07 1.83781e-06 -0.000998383)
(-5.17408e-07 2.01374e-06 -0.00099824)
(-5.91699e-07 2.20549e-06 -0.000998087)
(-6.76795e-07 2.41431e-06 -0.000997922)
(-7.74284e-07 2.64153e-06 -0.000997746)
(-8.85989e-07 2.88857e-06 -0.000997556)
(-1.014e-06 3.15687e-06 -0.000997355)
(-1.16073e-06 3.44798e-06 -0.00099714)
(-1.32893e-06 3.76348e-06 -0.000996912)
(-1.52178e-06 4.10499e-06 -0.000996671)
(-1.74291e-06 4.47416e-06 -0.000996417)
(-1.99653e-06 4.87265e-06 -0.00099615)
(-2.28744e-06 5.30212e-06 -0.000995872)
(-2.62116e-06 5.76416e-06 -0.000995584)
(-3.00407e-06 6.2603e-06 -0.000995288)
(-3.44347e-06 6.79192e-06 -0.000994985)
(-3.94776e-06 7.36021e-06 -0.00099468)
(-4.52662e-06 7.96613e-06 -0.000994376)
(-5.19115e-06 8.61024e-06 -0.000994079)
(-5.95416e-06 9.29269e-06 -0.000993794)
(-6.83036e-06 1.0013e-05 -0.000993531)
(-7.83669e-06 1.07701e-05 -0.000993299)
(-8.99264e-06 1.15618e-05 -0.00099311)
(-1.03206e-05 1.23848e-05 -0.00099298)
(-1.18465e-05 1.32346e-05 -0.000992926)
(-1.36001e-05 1.41049e-05 -0.00099297)
(-1.56155e-05 1.49873e-05 -0.000993138)
(-1.79322e-05 1.5871e-05 -0.000993461)
(-2.05956e-05 1.67423e-05 -0.000993975)
(-2.36579e-05 1.75837e-05 -0.000994724)
(-2.71792e-05 1.83739e-05 -0.000995759)
(-3.12279e-05 1.90861e-05 -0.000997142)
(-3.58802e-05 1.96871e-05 -0.000998946)
(-4.12154e-05 2.01343e-05 -0.00100124)
(-4.72952e-05 2.03683e-05 -0.00100406)
(-5.4108e-05 2.02929e-05 -0.00100749)
(-6.14392e-05 1.97309e-05 -0.00101223)
(-6.86258e-05 1.83551e-05 -0.00102022)
(-7.40449e-05 1.57017e-05 -0.0010303)
(-7.50214e-05 1.12811e-05 -0.00102265)
(-6.66294e-05 5.32853e-06 -0.00096438)
(-4.36535e-05 -1.29695e-06 -0.000937383)
(-1.06967e-05 -2.31446e-05 -0.00218123)
(3.44822e-05 2.53142e-07 -8.68232e-05)
(0.000162166 0.000573037 -0.00283705)
(4.51629e-05 9.90121e-06 -0.00017042)
(-5.81804e-05 1.6353e-05 -0.00354498)
(-9.36067e-07 0.000122022 -0.00385116)
(2.28145e-05 1.45555e-05 -0.00044166)
(-0.000301098 -0.0001405 -0.003541)
(-0.000358016 -0.000106684 -0.00350952)
(-5.45603e-06 -5.4482e-06 -0.000253045)
(-0.000301649 -0.0006661 -0.00278906)
(0.000151426 -0.000346779 -0.00381301)
(-3.1193e-05 -4.00282e-05 -0.000388162)
(-0.000251122 -0.00075673 -0.00468097)
(-0.000169568 -0.000872428 -0.00350845)
(-2.92927e-05 -3.38885e-05 -0.00015872)
(-0.000247426 -0.00104013 -0.00524105)
(-5.09628e-05 -7.96356e-06 -0.000109163)
(-0.000315303 -0.000310009 -0.00482749)
(-7.30439e-05 4.63725e-05 -0.00154325)
(0.000426864 0.000460865 -0.00478141)
(4.15309e-05 -6.03133e-06 -0.000443811)
(3.1551e-05 -8.87248e-06 -0.00393214)
(5.54363e-05 4.23516e-05 -0.00152747)
(9.32006e-05 9.54523e-05 -0.00141757)
(0.000124211 0.000117512 -0.00131485)
(0.000134363 0.000120403 -0.00124122)
(0.00012979 0.000116405 -0.00120799)
(0.00011856 0.000108816 -0.00118673)
(0.000105643 9.89839e-05 -0.00116601)
(9.32163e-05 8.83836e-05 -0.00114628)
(8.19756e-05 7.81245e-05 -0.00112868)
(7.2023e-05 6.87446e-05 -0.00111328)
(6.32724e-05 6.03911e-05 -0.00109979)
(5.55946e-05 5.30304e-05 -0.00108793)
(4.88611e-05 4.65686e-05 -0.00107751)
(4.29556e-05 4.09021e-05 -0.00106834)
(3.77753e-05 3.59338e-05 -0.00106028)
(3.32303e-05 3.15772e-05 -0.00105318)
(2.92416e-05 2.77562e-05 -0.00104694)
(2.57403e-05 2.44042e-05 -0.00104145)
(2.26659e-05 2.1463e-05 -0.00103661)
(1.99657e-05 1.88816e-05 -0.00103235)
(1.75934e-05 1.66154e-05 -0.0010286)
(1.55084e-05 1.46256e-05 -0.00102529)
(1.36755e-05 1.28783e-05 -0.00102237)
(1.20635e-05 1.13439e-05 -0.0010198)
(1.06454e-05 9.99643e-06 -0.00101753)
(9.39729e-06 8.81273e-06 -0.00101553)
(8.29851e-06 7.77252e-06 -0.00101376)
(7.33081e-06 6.8581e-06 -0.0010122)
(6.47826e-06 6.05397e-06 -0.00101082)
(5.72689e-06 5.34661e-06 -0.0010096)
(5.06446e-06 4.72419e-06 -0.00100852)
(4.48028e-06 4.17637e-06 -0.00100756)
(3.96495e-06 3.6939e-06 -0.00100672)
(3.51019e-06 3.26867e-06 -0.00100597)
(3.10882e-06 2.89366e-06 -0.00100531)
(2.75449e-06 2.56274e-06 -0.00100472)
(2.44151e-06 2.27055e-06 -0.0010042)
(2.16492e-06 2.01244e-06 -0.00100373)
(1.92037e-06 1.78436e-06 -0.00100332)
(1.70409e-06 1.58272e-06 -0.00100296)
(1.51276e-06 1.40439e-06 -0.00100263)
(1.34343e-06 1.24663e-06 -0.00100235)
(1.19352e-06 1.107e-06 -0.00100209)
(1.06076e-06 9.8339e-07 -0.00100186)
(9.43145e-07 8.73914e-07 -0.00100166)
(8.38899e-07 7.76927e-07 -0.00100148)
(7.46474e-07 6.90974e-07 -0.00100132)
(6.64499e-07 6.14776e-07 -0.00100118)
(5.91768e-07 5.47203e-07 -0.00100105)
(5.27217e-07 4.8726e-07 -0.00100094)
(4.69906e-07 4.34068e-07 -0.00100084)
(4.19008e-07 3.86853e-07 -0.00100075)
(3.73793e-07 3.44932e-07 -0.00100067)
(3.33616e-07 3.07701e-07 -0.0010006)
(2.97907e-07 2.74627e-07 -0.00100053)
(2.66162e-07 2.45239e-07 -0.00100048)
(2.37939e-07 2.19123e-07 -0.00100043)
(2.12843e-07 1.95911e-07 -0.00100038)
(1.90528e-07 1.7528e-07 -0.00100034)
(1.70686e-07 1.56942e-07 -0.0010003)
(1.53047e-07 1.40644e-07 -0.00100027)
(1.3737e-07 1.26164e-07 -0.00100024)
(1.23444e-07 1.13302e-07 -0.00100022)
(1.11081e-07 1.01885e-07 -0.00100019)
(1.00115e-07 9.17588e-08 -0.00100017)
(9.04002e-08 8.27863e-08 -0.00100015)
(8.18074e-08 7.48477e-08 -0.00100014)
(7.42232e-08 6.78373e-08 -0.00100012)
(6.75475e-08 6.16618e-08 -0.00100011)
(6.16929e-08 5.62398e-08 -0.00100009)
(5.65831e-08 5.14999e-08 -0.00100008)
(5.21518e-08 4.73804e-08 -0.00100007)
(4.83426e-08 4.38281e-08 -0.00100006)
(4.51092e-08 4.08012e-08 -0.00100005)
(4.24449e-08 3.82984e-08 -0.00100004)
(4.03921e-08 3.63659e-08 -0.00100003)
(3.93549e-08 3.53991e-08 -0.00100003)
)
;

boundaryField
{
    inlet
    {
        type            calculated;
        value           uniform (3.93549e-08 3.53991e-08 -0.00100003);
    }
    outlet
    {
        type            calculated;
        value           uniform (-1.13863e-09 1.48735e-08 -0.000999921);
    }
    repeat_boundary
    {
        type            calculated;
        value           nonuniform List<vector> 
360
(
(0 1.48735e-08 -0.000999921)
(0 1.86591e-08 -0.00099992)
(0 2.51166e-08 -0.000999917)
(0 3.32306e-08 -0.000999914)
(0 4.23511e-08 -0.000999911)
(0 5.21676e-08 -0.000999906)
(0 6.259e-08 -0.0009999)
(0 7.36436e-08 -0.000999893)
(0 8.54062e-08 -0.000999885)
(0 9.79797e-08 -0.000999876)
(0 1.11479e-07 -0.000999866)
(0 1.26028e-07 -0.000999855)
(0 1.41762e-07 -0.000999842)
(0 1.58826e-07 -0.000999827)
(0 1.77377e-07 -0.000999812)
(0 1.97582e-07 -0.000999794)
(0 2.19627e-07 -0.000999775)
(0 2.43708e-07 -0.000999753)
(0 2.70042e-07 -0.00099973)
(0 2.98863e-07 -0.000999704)
(0 3.30425e-07 -0.000999676)
(0 3.65005e-07 -0.000999644)
(0 4.02904e-07 -0.00099961)
(0 4.44449e-07 -0.000999573)
(0 4.89998e-07 -0.000999533)
(0 5.39935e-07 -0.000999488)
(0 5.94683e-07 -0.000999439)
(0 6.54698e-07 -0.000999386)
(0 7.20474e-07 -0.000999328)
(0 7.92549e-07 -0.000999265)
(0 8.71505e-07 -0.000999196)
(0 9.57971e-07 -0.000999121)
(0 1.05263e-06 -0.000999039)
(0 1.15621e-06 -0.000998951)
(0 1.2695e-06 -0.000998855)
(0 1.39336e-06 -0.00099875)
(0 1.5287e-06 -0.000998637)
(0 1.6765e-06 -0.000998515)
(0 1.83781e-06 -0.000998383)
(0 2.01374e-06 -0.00099824)
(0 2.20549e-06 -0.000998087)
(0 2.41431e-06 -0.000997922)
(0 2.64153e-06 -0.000997746)
(0 2.88857e-06 -0.000997556)
(0 3.15687e-06 -0.000997355)
(0 3.44798e-06 -0.00099714)
(0 3.76348e-06 -0.000996912)
(0 4.10499e-06 -0.000996671)
(0 4.47416e-06 -0.000996417)
(0 4.87265e-06 -0.00099615)
(0 5.30212e-06 -0.000995872)
(0 5.76416e-06 -0.000995584)
(0 6.2603e-06 -0.000995288)
(0 6.79192e-06 -0.000994985)
(0 7.36021e-06 -0.00099468)
(0 7.96613e-06 -0.000994376)
(0 8.61024e-06 -0.000994079)
(0 9.29269e-06 -0.000993794)
(0 1.0013e-05 -0.000993531)
(0 1.07701e-05 -0.000993299)
(0 1.15618e-05 -0.00099311)
(0 1.23848e-05 -0.00099298)
(0 1.32346e-05 -0.000992926)
(0 1.41049e-05 -0.00099297)
(0 1.49873e-05 -0.000993138)
(0 1.5871e-05 -0.000993461)
(0 1.67423e-05 -0.000993975)
(0 1.75837e-05 -0.000994724)
(0 1.83739e-05 -0.000995759)
(0 1.90861e-05 -0.000997142)
(0 1.96871e-05 -0.000998946)
(0 2.01343e-05 -0.00100124)
(0 2.03683e-05 -0.00100406)
(0 2.02929e-05 -0.00100749)
(0 1.97309e-05 -0.00101223)
(0 1.83551e-05 -0.00102022)
(0 1.57017e-05 -0.0010303)
(0 1.12811e-05 -0.00102265)
(0 5.32853e-06 -0.00096438)
(0 -1.29695e-06 -0.000937383)
(0 -2.31446e-05 -0.00218123)
(0 2.53142e-07 -8.68232e-05)
(0 0.000573037 -0.00283705)
(0 9.90121e-06 -0.00017042)
(0 1.6353e-05 -0.00354498)
(0 0.000122022 -0.00385116)
(0 1.45555e-05 -0.00044166)
(0 -0.0001405 -0.003541)
(0 -0.000106684 -0.00350952)
(0 -5.4482e-06 -0.000253045)
(0 -0.0006661 -0.00278906)
(0 -0.000346779 -0.00381301)
(0 -4.00282e-05 -0.000388162)
(0 -0.00075673 -0.00468097)
(0 -0.000872428 -0.00350845)
(0 -3.38885e-05 -0.00015872)
(0 -0.00104013 -0.00524105)
(0 -7.96356e-06 -0.000109163)
(0 -0.000310009 -0.00482749)
(0 4.63725e-05 -0.00154325)
(0 0.000460865 -0.00478141)
(0 -6.03133e-06 -0.000443811)
(0 -8.87248e-06 -0.00393214)
(0 4.23516e-05 -0.00152747)
(0 9.54523e-05 -0.00141757)
(0 0.000117512 -0.00131485)
(0 0.000120403 -0.00124122)
(0 0.000116405 -0.00120799)
(0 0.000108816 -0.00118673)
(0 9.89839e-05 -0.00116601)
(0 8.83836e-05 -0.00114628)
(0 7.81245e-05 -0.00112868)
(0 6.87446e-05 -0.00111328)
(0 6.03911e-05 -0.00109979)
(0 5.30304e-05 -0.00108793)
(0 4.65686e-05 -0.00107751)
(0 4.09021e-05 -0.00106834)
(0 3.59338e-05 -0.00106028)
(0 3.15772e-05 -0.00105318)
(0 2.77562e-05 -0.00104694)
(0 2.44042e-05 -0.00104145)
(0 2.1463e-05 -0.00103661)
(0 1.88816e-05 -0.00103235)
(0 1.66154e-05 -0.0010286)
(0 1.46256e-05 -0.00102529)
(0 1.28783e-05 -0.00102237)
(0 1.13439e-05 -0.0010198)
(0 9.99643e-06 -0.00101753)
(0 8.81273e-06 -0.00101553)
(0 7.77252e-06 -0.00101376)
(0 6.8581e-06 -0.0010122)
(0 6.05397e-06 -0.00101082)
(0 5.34661e-06 -0.0010096)
(0 4.72419e-06 -0.00100852)
(0 4.17637e-06 -0.00100756)
(0 3.6939e-06 -0.00100672)
(0 3.26867e-06 -0.00100597)
(0 2.89366e-06 -0.00100531)
(0 2.56274e-06 -0.00100472)
(0 2.27055e-06 -0.0010042)
(0 2.01244e-06 -0.00100373)
(0 1.78436e-06 -0.00100332)
(0 1.58272e-06 -0.00100296)
(0 1.40439e-06 -0.00100263)
(0 1.24663e-06 -0.00100235)
(0 1.107e-06 -0.00100209)
(0 9.8339e-07 -0.00100186)
(0 8.73914e-07 -0.00100166)
(0 7.76927e-07 -0.00100148)
(0 6.90974e-07 -0.00100132)
(0 6.14776e-07 -0.00100118)
(0 5.47203e-07 -0.00100105)
(0 4.8726e-07 -0.00100094)
(0 4.34068e-07 -0.00100084)
(0 3.86853e-07 -0.00100075)
(0 3.44932e-07 -0.00100067)
(0 3.07701e-07 -0.0010006)
(0 2.74627e-07 -0.00100053)
(0 2.45239e-07 -0.00100048)
(0 2.19123e-07 -0.00100043)
(0 1.95911e-07 -0.00100038)
(0 1.7528e-07 -0.00100034)
(0 1.56942e-07 -0.0010003)
(0 1.40644e-07 -0.00100027)
(0 1.26164e-07 -0.00100024)
(0 1.13302e-07 -0.00100022)
(0 1.01885e-07 -0.00100019)
(0 9.17588e-08 -0.00100017)
(0 8.27863e-08 -0.00100015)
(0 7.48477e-08 -0.00100014)
(0 6.78373e-08 -0.00100012)
(0 6.16618e-08 -0.00100011)
(0 5.62398e-08 -0.00100009)
(0 5.14999e-08 -0.00100008)
(0 4.73804e-08 -0.00100007)
(0 4.38281e-08 -0.00100006)
(0 4.08012e-08 -0.00100005)
(0 3.82984e-08 -0.00100004)
(0 3.63659e-08 -0.00100003)
(0 3.53991e-08 -0.00100003)
(-1.13863e-09 0 -0.000999921)
(-1.57141e-09 0 -0.00099992)
(-2.21021e-09 0 -0.000999917)
(-2.97243e-09 0 -0.000999914)
(-3.82716e-09 0 -0.000999911)
(-4.76534e-09 0 -0.000999906)
(-5.78957e-09 0 -0.0009999)
(-6.90992e-09 0 -0.000999893)
(-8.14184e-09 0 -0.000999885)
(-9.50449e-09 0 -0.000999876)
(-1.102e-08 0 -0.000999866)
(-1.27136e-08 0 -0.000999855)
(-1.46134e-08 0 -0.000999842)
(-1.67517e-08 0 -0.000999827)
(-1.91646e-08 0 -0.000999812)
(-2.18932e-08 0 -0.000999794)
(-2.49844e-08 0 -0.000999775)
(-2.84913e-08 0 -0.000999753)
(-3.24748e-08 0 -0.00099973)
(-3.70042e-08 0 -0.000999704)
(-4.21585e-08 0 -0.000999676)
(-4.80284e-08 0 -0.000999644)
(-5.47171e-08 0 -0.00099961)
(-6.23432e-08 0 -0.000999573)
(-7.10421e-08 0 -0.000999533)
(-8.09686e-08 0 -0.000999488)
(-9.23005e-08 0 -0.000999439)
(-1.05241e-07 0 -0.000999386)
(-1.20023e-07 0 -0.000999328)
(-1.36912e-07 0 -0.000999265)
(-1.56216e-07 0 -0.000999196)
(-1.78284e-07 0 -0.000999121)
(-2.03518e-07 0 -0.000999039)
(-2.32379e-07 0 -0.000998951)
(-2.65394e-07 0 -0.000998855)
(-3.03171e-07 0 -0.00099875)
(-3.46402e-07 0 -0.000998637)
(-3.95887e-07 0 -0.000998515)
(-4.52539e-07 0 -0.000998383)
(-5.17408e-07 0 -0.00099824)
(-5.91699e-07 0 -0.000998087)
(-6.76795e-07 0 -0.000997922)
(-7.74284e-07 0 -0.000997746)
(-8.85989e-07 0 -0.000997556)
(-1.014e-06 0 -0.000997355)
(-1.16073e-06 0 -0.00099714)
(-1.32893e-06 0 -0.000996912)
(-1.52178e-06 0 -0.000996671)
(-1.74291e-06 0 -0.000996417)
(-1.99653e-06 0 -0.00099615)
(-2.28744e-06 0 -0.000995872)
(-2.62116e-06 0 -0.000995584)
(-3.00407e-06 0 -0.000995288)
(-3.44347e-06 0 -0.000994985)
(-3.94776e-06 0 -0.00099468)
(-4.52662e-06 0 -0.000994376)
(-5.19115e-06 0 -0.000994079)
(-5.95416e-06 0 -0.000993794)
(-6.83036e-06 0 -0.000993531)
(-7.83669e-06 0 -0.000993299)
(-8.99264e-06 0 -0.00099311)
(-1.03206e-05 0 -0.00099298)
(-1.18465e-05 0 -0.000992926)
(-1.36001e-05 0 -0.00099297)
(-1.56155e-05 0 -0.000993138)
(-1.79322e-05 0 -0.000993461)
(-2.05956e-05 0 -0.000993975)
(-2.36579e-05 0 -0.000994724)
(-2.71792e-05 0 -0.000995759)
(-3.12279e-05 0 -0.000997142)
(-3.58802e-05 0 -0.000998946)
(-4.12154e-05 0 -0.00100124)
(-4.72952e-05 0 -0.00100406)
(-5.4108e-05 0 -0.00100749)
(-6.14392e-05 0 -0.00101223)
(-6.86258e-05 0 -0.00102022)
(-7.40449e-05 0 -0.0010303)
(-7.50214e-05 0 -0.00102265)
(-6.66294e-05 0 -0.00096438)
(-4.36535e-05 0 -0.000937383)
(-1.06967e-05 0 -0.00218123)
(3.44822e-05 0 -8.68232e-05)
(0.000162166 0 -0.00283705)
(4.51629e-05 0 -0.00017042)
(-5.81804e-05 0 -0.00354498)
(-9.36067e-07 0 -0.00385116)
(2.28145e-05 0 -0.00044166)
(-0.000301098 0 -0.003541)
(-0.000358016 0 -0.00350952)
(-5.45603e-06 0 -0.000253045)
(-0.000301649 0 -0.00278906)
(0.000151426 0 -0.00381301)
(-3.1193e-05 0 -0.000388162)
(-0.000251122 0 -0.00468097)
(-0.000169568 0 -0.00350845)
(-2.92927e-05 0 -0.00015872)
(-0.000247426 0 -0.00524105)
(-5.09628e-05 0 -0.000109163)
(-0.000315303 0 -0.00482749)
(-7.30439e-05 0 -0.00154325)
(0.000426864 0 -0.00478141)
(4.15309e-05 0 -0.000443811)
(3.1551e-05 0 -0.00393214)
(5.54363e-05 0 -0.00152747)
(9.32006e-05 0 -0.00141757)
(0.000124211 0 -0.00131485)
(0.000134363 0 -0.00124122)
(0.00012979 0 -0.00120799)
(0.00011856 0 -0.00118673)
(0.000105643 0 -0.00116601)
(9.32163e-05 0 -0.00114628)
(8.19756e-05 0 -0.00112868)
(7.2023e-05 0 -0.00111328)
(6.32724e-05 0 -0.00109979)
(5.55946e-05 0 -0.00108793)
(4.88611e-05 0 -0.00107751)
(4.29556e-05 0 -0.00106834)
(3.77753e-05 0 -0.00106028)
(3.32303e-05 0 -0.00105318)
(2.92416e-05 0 -0.00104694)
(2.57403e-05 0 -0.00104145)
(2.26659e-05 0 -0.00103661)
(1.99657e-05 0 -0.00103235)
(1.75934e-05 0 -0.0010286)
(1.55084e-05 0 -0.00102529)
(1.36755e-05 0 -0.00102237)
(1.20635e-05 0 -0.0010198)
(1.06454e-05 0 -0.00101753)
(9.39729e-06 0 -0.00101553)
(8.29851e-06 0 -0.00101376)
(7.33081e-06 0 -0.0010122)
(6.47826e-06 0 -0.00101082)
(5.72689e-06 0 -0.0010096)
(5.06446e-06 0 -0.00100852)
(4.48028e-06 0 -0.00100756)
(3.96495e-06 0 -0.00100672)
(3.51019e-06 0 -0.00100597)
(3.10882e-06 0 -0.00100531)
(2.75449e-06 0 -0.00100472)
(2.44151e-06 0 -0.0010042)
(2.16492e-06 0 -0.00100373)
(1.92037e-06 0 -0.00100332)
(1.70409e-06 0 -0.00100296)
(1.51276e-06 0 -0.00100263)
(1.34343e-06 0 -0.00100235)
(1.19352e-06 0 -0.00100209)
(1.06076e-06 0 -0.00100186)
(9.43145e-07 0 -0.00100166)
(8.38899e-07 0 -0.00100148)
(7.46474e-07 0 -0.00100132)
(6.64499e-07 0 -0.00100118)
(5.91768e-07 0 -0.00100105)
(5.27217e-07 0 -0.00100094)
(4.69906e-07 0 -0.00100084)
(4.19008e-07 0 -0.00100075)
(3.73793e-07 0 -0.00100067)
(3.33616e-07 0 -0.0010006)
(2.97907e-07 0 -0.00100053)
(2.66162e-07 0 -0.00100048)
(2.37939e-07 0 -0.00100043)
(2.12843e-07 0 -0.00100038)
(1.90528e-07 0 -0.00100034)
(1.70686e-07 0 -0.0010003)
(1.53047e-07 0 -0.00100027)
(1.3737e-07 0 -0.00100024)
(1.23444e-07 0 -0.00100022)
(1.11081e-07 0 -0.00100019)
(1.00115e-07 0 -0.00100017)
(9.04002e-08 0 -0.00100015)
(8.18074e-08 0 -0.00100014)
(7.42232e-08 0 -0.00100012)
(6.75475e-08 0 -0.00100011)
(6.16929e-08 0 -0.00100009)
(5.65831e-08 0 -0.00100008)
(5.21518e-08 0 -0.00100007)
(4.83426e-08 0 -0.00100006)
(4.51092e-08 0 -0.00100005)
(4.24449e-08 0 -0.00100004)
(4.03921e-08 0 -0.00100003)
(3.93549e-08 0 -0.00100003)
)
;
    }
    procBoundary3to1
    {
        type            processor;
        value           nonuniform List<vector> 
180
(
(-2.15403e-11 1.48736e-08 -0.0010001)
(-6.07097e-11 1.86592e-08 -0.0010001)
(-7.28482e-11 2.51167e-08 -0.00100011)
(-5.87786e-11 3.32308e-08 -0.00100011)
(-2.95247e-11 4.23512e-08 -0.00100011)
(1.36685e-11 5.21677e-08 -0.00100012)
(7.63586e-11 6.25902e-08 -0.00100012)
(1.65962e-10 7.36438e-08 -0.00100013)
(2.90514e-10 8.54065e-08 -0.00100014)
(4.58543e-10 9.798e-08 -0.00100014)
(6.7943e-10 1.11479e-07 -0.00100015)
(9.63869e-10 1.26029e-07 -0.00100017)
(1.32407e-09 1.41763e-07 -0.00100018)
(1.77291e-09 1.58827e-07 -0.00100019)
(2.32638e-09 1.77377e-07 -0.00100021)
(3.00364e-09 1.97583e-07 -0.00100023)
(3.82725e-09 2.19628e-07 -0.00100025)
(4.82373e-09 2.43709e-07 -0.00100027)
(6.02416e-09 2.70044e-07 -0.0010003)
(7.46489e-09 2.98865e-07 -0.00100033)
(9.1884e-09 3.30427e-07 -0.00100036)
(1.12443e-08 3.65007e-07 -0.00100039)
(1.36906e-08 4.02907e-07 -0.00100043)
(1.65948e-08 4.44453e-07 -0.00100047)
(2.00357e-08 4.90003e-07 -0.00100052)
(2.41052e-08 5.39941e-07 -0.00100057)
(2.89102e-08 5.9469e-07 -0.00100062)
(3.45753e-08 6.54706e-07 -0.00100068)
(4.12453e-08 7.20484e-07 -0.00100075)
(4.90889e-08 7.92562e-07 -0.00100082)
(5.83021e-08 8.7152e-07 -0.0010009)
(6.91128e-08 9.57989e-07 -0.00100099)
(8.17858e-08 1.05265e-06 -0.00100108)
(9.66287e-08 1.15623e-06 -0.00100119)
(1.13999e-07 1.26953e-06 -0.0010013)
(1.34311e-07 1.3934e-06 -0.00100142)
(1.58045e-07 1.52875e-06 -0.00100156)
(1.85762e-07 1.67656e-06 -0.00100171)
(2.18107e-07 1.83788e-06 -0.00100186)
(2.55832e-07 2.01383e-06 -0.00100204)
(2.99807e-07 2.20559e-06 -0.00100222)
(3.51042e-07 2.41443e-06 -0.00100243)
(4.10705e-07 2.64168e-06 -0.00100265)
(4.80151e-07 2.88874e-06 -0.00100288)
(5.60949e-07 3.15708e-06 -0.00100314)
(6.54915e-07 3.44824e-06 -0.00100341)
(7.64154e-07 3.76378e-06 -0.00100371)
(8.91102e-07 4.10535e-06 -0.00100402)
(1.03858e-06 4.47459e-06 -0.00100436)
(1.20985e-06 4.87317e-06 -0.00100472)
(1.40868e-06 5.30273e-06 -0.0010051)
(1.63946e-06 5.7649e-06 -0.00100551)
(1.90723e-06 6.26117e-06 -0.00100594)
(2.21785e-06 6.79296e-06 -0.00100639)
(2.57809e-06 7.36145e-06 -0.00100686)
(2.99578e-06 7.9676e-06 -0.00100735)
(3.47998e-06 8.61199e-06 -0.00100785)
(4.04118e-06 9.29478e-06 -0.00100837)
(4.69148e-06 1.00155e-05 -0.00100889)
(5.44493e-06 1.07731e-05 -0.00100941)
(6.31772e-06 1.15653e-05 -0.00100993)
(7.3286e-06 1.2389e-05 -0.00101042)
(8.49927e-06 1.32397e-05 -0.00101088)
(9.85478e-06 1.4111e-05 -0.0010113)
(1.14241e-05 1.49947e-05 -0.00101164)
(1.32407e-05 1.588e-05 -0.00101189)
(1.53432e-05 1.67532e-05 -0.00101202)
(1.77763e-05 1.75971e-05 -0.001012)
(2.05915e-05 1.83904e-05 -0.00101177)
(2.38477e-05 1.91065e-05 -0.0010113)
(2.76114e-05 1.97122e-05 -0.00101053)
(3.19532e-05 2.01643e-05 -0.00100938)
(3.69354e-05 2.04016e-05 -0.00100771)
(4.25697e-05 2.03225e-05 -0.00100531)
(4.87092e-05 1.97393e-05 -0.00100248)
(5.48265e-05 1.83095e-05 -0.00100089)
(5.95847e-05 1.55626e-05 -0.00100108)
(6.09888e-05 1.1052e-05 -0.000986364)
(5.55332e-05 5.08479e-06 -0.000919168)
(3.92602e-05 -1.17012e-06 -0.000706061)
(3.24313e-06 -1.92898e-05 -0.00293145)
(4.24303e-06 1.43705e-05 -0.000125763)
(-0.000199723 0.000382692 -0.00354011)
(-8.08348e-05 0.000169218 -0.00248746)
(-6.28237e-05 4.20867e-06 -0.00113391)
(-0.000308856 0.000121614 -0.00473937)
(-7.86131e-05 1.06077e-05 -0.000451658)
(-0.000934101 -0.000326801 -0.00451849)
(-3.25797e-05 -2.74278e-05 -0.00029322)
(0.00063214 -0.000799357 -0.00375849)
(-2.13708e-05 -3.39584e-05 -0.000224094)
(0.000527718 -0.000479633 -0.00367106)
(0.000170997 -0.000230537 -0.00141356)
(0.00031157 -0.000648833 -0.0047509)
(3.33354e-05 -2.22732e-05 -0.000561951)
(9.86056e-05 -0.000336846 -0.00303348)
(0.000345221 -0.000607192 -0.00230275)
(1.32885e-05 -5.42297e-05 -0.000113984)
(2.83443e-05 -0.00010966 -0.00431575)
(-4.85283e-06 1.81271e-06 -0.00068614)
(-0.000190906 0.000189366 -0.00258657)
(-8.99e-05 0.000141492 -0.00122123)
(-0.000147332 -9.25854e-06 -0.00126122)
(-8.33351e-05 7.10669e-06 -0.00103054)
(-3.29404e-05 5.15485e-05 -0.000928811)
(-5.94162e-05 9.57515e-05 -0.000865125)
(-6.95326e-05 0.000115863 -0.000836141)
(-6.72792e-05 0.000118186 -0.000849238)
(-6.03958e-05 0.000111171 -0.00087096)
(-5.2574e-05 0.000100508 -0.000888928)
(-4.51045e-05 8.92147e-05 -0.000903545)
(-3.84041e-05 7.85839e-05 -0.000916166)
(-3.25637e-05 6.90265e-05 -0.000927236)
(-2.7539e-05 6.05835e-05 -0.000936888)
(-2.32388e-05 5.31704e-05 -0.000945267)
(-1.95665e-05 4.66735e-05 -0.000952534)
(-1.64343e-05 4.09815e-05 -0.00095884)
(-1.37658e-05 3.59941e-05 -0.000964311)
(-1.1495e-05 3.16231e-05 -0.000969057)
(-9.56507e-06 2.77912e-05 -0.000973175)
(-7.92711e-06 2.44309e-05 -0.000976748)
(-6.53911e-06 2.14834e-05 -0.000979849)
(-5.365e-06 1.88971e-05 -0.000982539)
(-4.37388e-06 1.66272e-05 -0.000984876)
(-3.53931e-06 1.46347e-05 -0.000986906)
(-2.83879e-06 1.28852e-05 -0.000988674)
(-2.25333e-06 1.13492e-05 -0.000990213)
(-1.76636e-06 1.00005e-05 -0.000991549)
(-1.36279e-06 8.81583e-06 -0.000992704)
(-1.02971e-06 7.77489e-06 -0.000993703)
(-7.56171e-07 6.85991e-06 -0.000994566)
(-5.32828e-07 6.05536e-06 -0.000995312)
(-3.51753e-07 5.34768e-06 -0.000995958)
(-2.06239e-07 4.72501e-06 -0.000996516)
(-9.05798e-08 4.177e-06 -0.000996998)
(4.14432e-10 3.69438e-06 -0.000997411)
(7.12266e-08 3.26904e-06 -0.000997765)
(1.2545e-07 2.89394e-06 -0.000998069)
(1.66067e-07 2.56296e-06 -0.000998331)
(1.95699e-07 2.27072e-06 -0.000998557)
(2.16441e-07 2.01257e-06 -0.000998752)
(2.29982e-07 1.78446e-06 -0.00099892)
(2.37695e-07 1.5828e-06 -0.000999066)
(2.40742e-07 1.40445e-06 -0.000999192)
(2.40089e-07 1.24667e-06 -0.000999301)
(2.36541e-07 1.10704e-06 -0.000999396)
(2.3077e-07 9.83417e-07 -0.000999478)
(2.23326e-07 8.73935e-07 -0.000999548)
(2.14665e-07 7.76943e-07 -0.000999609)
(2.0516e-07 6.90987e-07 -0.000999662)
(1.95113e-07 6.14786e-07 -0.000999708)
(1.84771e-07 5.47211e-07 -0.000999748)
(1.74331e-07 4.87265e-07 -0.000999782)
(1.63948e-07 4.34072e-07 -0.000999812)
(1.53745e-07 3.86857e-07 -0.000999838)
(1.43817e-07 3.44935e-07 -0.00099986)
(1.34235e-07 3.07703e-07 -0.000999879)
(1.25051e-07 2.74628e-07 -0.000999896)
(1.16301e-07 2.45241e-07 -0.00099991)
(1.08009e-07 2.19124e-07 -0.000999922)
(1.00188e-07 1.95912e-07 -0.000999933)
(9.28425e-08 1.7528e-07 -0.000999943)
(8.59709e-08 1.56942e-07 -0.000999951)
(7.95664e-08 1.40645e-07 -0.000999958)
(7.36185e-08 1.26164e-07 -0.000999964)
(6.81138e-08 1.13303e-07 -0.000999969)
(6.30374e-08 1.01886e-07 -0.000999973)
(5.83729e-08 9.17589e-08 -0.000999977)
(5.41035e-08 8.27864e-08 -0.000999981)
(5.02121e-08 7.48478e-08 -0.000999983)
(4.66818e-08 6.78373e-08 -0.000999986)
(4.34963e-08 6.16619e-08 -0.000999988)
(4.06399e-08 5.62399e-08 -0.00099999)
(3.80975e-08 5.15e-08 -0.000999991)
(3.58553e-08 4.73804e-08 -0.000999993)
(3.39014e-08 4.38282e-08 -0.000999994)
(3.22299e-08 4.08012e-08 -0.000999994)
(3.08427e-08 3.82984e-08 -0.000999995)
(2.98238e-08 3.63659e-08 -0.000999996)
(2.91586e-08 3.53991e-08 -0.000999996)
)
;
    }
    procBoundary3to2
    {
        type            processor;
        value           nonuniform List<vector> 
180
(
(-1.13863e-09 1.59906e-08 -0.000999905)
(-1.57141e-09 2.01698e-08 -0.000999903)
(-2.21021e-09 2.72539e-08 -0.0009999)
(-2.97243e-09 3.61443e-08 -0.000999897)
(-3.82716e-09 4.61487e-08 -0.000999892)
(-4.76533e-09 5.69465e-08 -0.000999886)
(-5.78957e-09 6.84559e-08 -0.000999878)
(-6.90992e-09 8.07194e-08 -0.000999869)
(-8.14184e-09 9.38385e-08 -0.000999859)
(-9.50448e-09 1.07943e-07 -0.000999847)
(-1.102e-08 1.23178e-07 -0.000999833)
(-1.27135e-08 1.39706e-07 -0.000999818)
(-1.46134e-08 1.577e-07 -0.0009998)
(-1.67517e-08 1.77351e-07 -0.000999781)
(-1.91645e-08 1.98867e-07 -0.000999759)
(-2.18932e-08 2.22479e-07 -0.000999734)
(-2.49843e-08 2.48438e-07 -0.000999707)
(-2.84913e-08 2.77023e-07 -0.000999676)
(-3.24748e-08 3.08541e-07 -0.000999642)
(-3.70041e-08 3.43332e-07 -0.000999605)
(-4.21584e-08 3.81771e-07 -0.000999563)
(-4.80283e-08 4.24277e-07 -0.000999516)
(-5.4717e-08 4.71311e-07 -0.000999464)
(-6.23431e-08 5.23387e-07 -0.000999406)
(-7.10419e-08 5.81075e-07 -0.000999342)
(-8.09684e-08 6.45008e-07 -0.00099927)
(-9.23001e-08 7.15892e-07 -0.000999191)
(-1.0524e-07 7.94512e-07 -0.000999102)
(-1.20022e-07 8.81739e-07 -0.000999004)
(-1.36912e-07 9.78547e-07 -0.000998894)
(-1.56215e-07 1.08602e-06 -0.000998772)
(-1.78283e-07 1.20536e-06 -0.000998636)
(-2.03516e-07 1.33792e-06 -0.000998485)
(-2.32377e-07 1.48521e-06 -0.000998317)
(-2.65391e-07 1.64888e-06 -0.000998129)
(-3.03166e-07 1.83083e-06 -0.00099792)
(-3.46397e-07 2.03313e-06 -0.000997687)
(-3.95879e-07 2.25813e-06 -0.000997427)
(-4.52529e-07 2.50843e-06 -0.000997137)
(-5.17395e-07 2.78694e-06 -0.000996814)
(-5.91682e-07 3.09694e-06 -0.000996453)
(-6.76773e-07 3.44208e-06 -0.00099605)
(-7.74255e-07 3.82644e-06 -0.0009956)
(-8.85949e-07 4.2546e-06 -0.000995098)
(-1.01395e-06 4.73168e-06 -0.000994537)
(-1.16066e-06 5.26345e-06 -0.000993909)
(-1.32884e-06 5.85633e-06 -0.000993208)
(-1.52165e-06 6.51756e-06 -0.000992424)
(-1.74275e-06 7.25526e-06 -0.000991546)
(-1.99631e-06 8.07852e-06 -0.000990564)
(-2.28715e-06 8.99759e-06 -0.000989463)
(-2.62078e-06 1.00239e-05 -0.000988231)
(-3.00357e-06 1.11705e-05 -0.00098685)
(-3.4428e-06 1.24518e-05 -0.000985301)
(-3.94687e-06 1.38843e-05 -0.000983564)
(-4.52543e-06 1.54862e-05 -0.000981615)
(-5.18958e-06 1.72784e-05 -0.000979428)
(-5.95207e-06 1.92841e-05 -0.000976971)
(-6.82758e-06 2.15299e-05 -0.00097421)
(-7.833e-06 2.40452e-05 -0.000971107)
(-8.98774e-06 2.68637e-05 -0.000967617)
(-1.03141e-05 3.00232e-05 -0.000963691)
(-1.18379e-05 3.35664e-05 -0.000959272)
(-1.35886e-05 3.75416e-05 -0.000954296)
(-1.56002e-05 4.20034e-05 -0.000948689)
(-1.79119e-05 4.70134e-05 -0.000942369)
(-2.05687e-05 5.26416e-05 -0.000935242)
(-2.36221e-05 5.89669e-05 -0.000927201)
(-2.71317e-05 6.60784e-05 -0.000918123)
(-3.11648e-05 7.40756e-05 -0.000907872)
(-3.57966e-05 8.30664e-05 -0.000896293)
(-4.11051e-05 9.31551e-05 -0.000883203)
(-4.71519e-05 0.000104402 -0.00086836)
(-5.39294e-05 0.000116706 -0.000851493)
(-6.1238e-05 0.000129528 -0.000832695)
(-6.845e-05 0.000141368 -0.000813181)
(-7.41168e-05 0.000149047 -0.000793928)
(-7.53393e-05 0.000147084 -0.000764806)
(-6.7203e-05 0.000127475 -0.000701258)
(-4.44128e-05 8.2091e-05 -0.000524697)
(-1.44621e-05 -2.80318e-06 -0.00199767)
(2.16791e-05 -9.75652e-06 -0.000143008)
(0.000132531 6.0741e-05 -0.00275973)
(1.79902e-05 -6.74828e-06 -0.000182048)
(-7.8898e-05 -7.29804e-05 -0.00325471)
(1.20902e-05 1.2528e-05 -0.000250215)
(-0.000120665 -0.000230772 -0.00307428)
(-0.000189565 -0.00019233 -0.00134934)
(-0.000391987 0.000172217 -0.00239041)
(-1.86341e-05 -4.12967e-05 -0.000217583)
(-0.000126632 0.000124569 -0.00454937)
(3.33946e-06 -5.32316e-05 -0.00100903)
(7.19696e-05 -0.000201323 -0.00227983)
(-0.000270283 -0.000190807 -0.00292266)
(6.47388e-05 -1.65462e-06 -3.65199e-05)
(-0.000146514 -0.000231677 -0.00344055)
(-1.99831e-05 3.9958e-06 -0.000668239)
(-3.2768e-05 -7.18791e-05 -0.0020014)
(-0.000183181 2.01076e-05 -0.00252388)
(2.69533e-05 1.82788e-05 -0.000179422)
(0.000125419 -0.000137985 -0.00286972)
(0.000116669 -7.4626e-05 -0.00102577)
(4.97924e-05 -0.000253766 -0.00118458)
(0.000102151 -0.000260243 -0.000873467)
(0.000111976 -0.000120767 -0.000771163)
(0.00013591 -0.000105363 -0.000821315)
(0.000140059 -9.27821e-05 -0.00082038)
(0.000132412 -7.96486e-05 -0.000838207)
(0.000119833 -6.7825e-05 -0.000859531)