/*--------------------------------*- C++ -*----------------------------------*\
| =========                 |                                                 |
| \\      /  F ield         | OpenFOAM: The Open Source CFD Toolbox           |
|  \\    /   O peration     | Version:  5.x                                   |
|   \\  /    A nd           | Web:      www.OpenFOAM.org                      |
|    \\/     M anipulation  |                                                 |
\*---------------------------------------------------------------------------*/
FoamFile
{
    version     2.0;
    format      ascii;
    class       volVectorField;
    location    "7000";
    object      U;
}
// * * * * * * * * * * * * * * * * * * * * * * * * * * * * * * * * * * * * * //

dimensions      [0 1 -1 0 0 0 0];

internalField   nonuniform List<vector> 
180
(
(-1.12823e-09 1.50622e-08 -0.000999908)
(-1.49952e-09 1.89105e-08 -0.000999906)
(-2.07075e-09 2.54438e-08 -0.000999904)
(-2.76338e-09 3.3649e-08 -0.000999902)
(-3.54897e-09 4.28737e-08 -0.000999898)
(-4.41674e-09 5.28059e-08 -0.000999894)
(-5.36945e-09 6.33524e-08 -0.000999889)
(-6.41746e-09 7.45362e-08 -0.000999883)
(-7.57661e-09 8.64345e-08 -0.000999876)
(-8.86654e-09 9.91487e-08 -0.000999868)
(-1.03099e-08 1.12794e-07 -0.000999859)
(-1.19322e-08 1.27495e-07 -0.000999848)
(-1.3762e-08 1.43386e-07 -0.000999836)
(-1.58314e-08 1.60614e-07 -0.000999823)
(-1.81762e-08 1.79337e-07 -0.000999808)
(-2.08367e-08 1.99724e-07 -0.000999791)
(-2.38583e-08 2.21962e-07 -0.000999772)
(-2.72919e-08 2.46252e-07 -0.000999751)
(-3.11953e-08 2.72815e-07 -0.000999728)
(-3.56338e-08 3.0189e-07 -0.000999703)
(-4.06815e-08 3.33738e-07 -0.000999674)
(-4.64228e-08 3.68645e-07 -0.000999643)
(-5.29538e-08 4.0692e-07 -0.000999608)
(-6.03844e-08 4.48903e-07 -0.00099957)
(-6.884e-08 4.94961e-07 -0.000999529)
(-7.84644e-08 5.45496e-07 -0.000999483)
(-8.94227e-08 6.00943e-07 -0.000999433)
(-1.01904e-07 6.61778e-07 -0.000999378)
(-1.16125e-07 7.28516e-07 -0.000999318)
(-1.32335e-07 8.01715e-07 -0.000999252)
(-1.5082e-07 8.81983e-07 -0.00099918)
(-1.71909e-07 9.69976e-07 -0.000999102)
(-1.95979e-07 1.06641e-06 -0.000999016)
(-2.23461e-07 1.17204e-06 -0.000998923)
(-2.54853e-07 1.28771e-06 -0.000998821)
(-2.90721e-07 1.41432e-06 -0.000998711)
(-3.31718e-07 1.55283e-06 -0.000998591)
(-3.7859e-07 1.70429e-06 -0.000998461)
(-4.32192e-07 1.86981e-06 -0.00099832)
(-4.93503e-07 2.0506e-06 -0.000998166)
(-5.63643e-07 2.24795e-06 -0.000998)
(-6.43895e-07 2.46323e-06 -0.000997821)
(-7.35728e-07 2.69792e-06 -0.000997627)
(-8.40825e-07 2.95359e-06 -0.000997418)
(-9.61109e-07 3.23189e-06 -0.000997192)
(-1.09879e-06 3.53459e-06 -0.00099695)
(-1.25638e-06 3.86354e-06 -0.00099669)
(-1.43679e-06 4.22067e-06 -0.000996411)
(-1.64331e-06 4.60803e-06 -0.000996113)
(-1.87975e-06 5.0277e-06 -0.000995796)
(-2.15046e-06 5.48187e-06 -0.000995458)
(-2.4604e-06 5.97275e-06 -0.000995101)
(-2.81529e-06 6.50257e-06 -0.000994723)
(-3.22167e-06 7.07357e-06 -0.000994326)
(-3.68702e-06 7.68796e-06 -0.000993911)
(-4.21993e-06 8.34787e-06 -0.000993478)
(-4.83023e-06 9.05527e-06 -0.000993029)
(-5.52918e-06 9.81198e-06 -0.000992568)
(-6.32967e-06 1.06195e-05 -0.000992099)
(-7.24647e-06 1.1479e-05 -0.000991624)
(-8.29649e-06 1.23912e-05 -0.000991152)
(-9.49908e-06 1.33561e-05 -0.000990688)
(-1.08764e-05 1.43731e-05 -0.000990242)
(-1.24537e-05 1.54405e-05 -0.000989824)
(-1.42601e-05 1.65556e-05 -0.000989449)
(-1.63286e-05 1.77142e-05 -0.000989132)
(-1.86971e-05 1.89106e-05 -0.000988892)
(-2.14087e-05 2.01371e-05 -0.000988751)
(-2.45127e-05 2.13833e-05 -0.000988735)
(-2.80643e-05 2.26364e-05 -0.000988875)
(-3.2124e-05 2.38792e-05 -0.000989211)
(-3.67512e-05 2.50882e-05 -0.000989768)
(-4.19829e-05 2.62268e-05 -0.000990529)
(-4.77749e-05 2.72251e-05 -0.000991514)
(-5.38687e-05 2.7938e-05 -0.000993342)
(-5.95453e-05 2.80787e-05 -0.000997836)
(-6.31245e-05 2.72388e-05 -0.00100362)
(-6.18597e-05 2.50291e-05 -0.000990368)
(-5.07435e-05 2.18461e-05 -0.000927582)
(-2.49724e-05 1.86558e-05 -0.000971443)
(-8.61496e-06 -2.89099e-06 -0.0024434)
(-6.44602e-05 1.36512e-05 -0.000133973)
(0.000120124 0.000537601 -0.00308302)
(-6.52412e-05 -3.73021e-06 -0.000201434)
(-0.000121757 -3.36495e-05 -0.00359334)
(-5.18504e-05 6.19731e-05 -0.00387431)
(-7.9847e-05 -2.79648e-05 -0.000440666)
(-0.000316245 -0.000155738 -0.00352905)
(-0.000362231 -0.000141102 -0.00321613)
(-6.62478e-05 5.92492e-06 -0.000238991)
(-0.000275976 -0.000670241 -0.00254595)
(0.000177395 -0.000364103 -0.00370754)
(1.9413e-05 -1.19191e-05 -0.000372989)
(-0.000191429 -0.000736678 -0.00450581)
(-0.000126307 -0.000859788 -0.00337522)
(-7.69871e-06 -1.14815e-05 -0.00013592)
(-0.00022398 -0.00103186 -0.00528569)
(-7.73573e-06 -1.49491e-06 -6.55669e-05)
(-0.000340535 -0.000289528 -0.00530459)
(-8.26226e-05 5.46928e-05 -0.00156274)
(0.000446482 0.000494021 -0.00493177)
(2.44116e-05 -2.00479e-05 -0.00036515)
(1.91409e-05 -1.17378e-05 -0.00406767)
(4.87134e-05 4.25598e-05 -0.00149733)
(8.47971e-05 9.44702e-05 -0.00140594)
(0.000115981 0.000116816 -0.0013046)
(0.000127298 0.000120156 -0.00123243)
(0.000123885 0.000116295 -0.00120044)
(0.00011359 0.000108761 -0.00118023)
(0.000101411 9.89889e-05 -0.00116039)
(8.95819e-05 8.8437e-05 -0.00114142)
(7.88401e-05 7.82047e-05 -0.00112448)
(6.93122e-05 6.8835e-05 -0.00110965)
(6.09267e-05 6.04829e-05 -0.00109664)
(5.35639e-05 5.31196e-05 -0.00108521)
(4.71028e-05 4.66536e-05 -0.00107514)
(4.1433e-05 4.09822e-05 -0.00106629)
(3.64566e-05 3.60089e-05 -0.0010585)
(3.2088e-05 3.16473e-05 -0.00105165)
(2.8252e-05 2.78215e-05 -0.00104561)
(2.48828e-05 2.4465e-05 -0.0010403)
(2.19229e-05 2.15195e-05 -0.00103561)
(1.93217e-05 1.89341e-05 -0.00103149)
(1.70352e-05 1.66644e-05 -0.00102785)
(1.50246e-05 1.46713e-05 -0.00102464)
(1.3256e-05 1.29209e-05 -0.00102181)
(1.16998e-05 1.13835e-05 -0.00101931)
(1.033e-05 1.0033e-05 -0.00101711)
(9.12392e-06 8.84634e-06 -0.00101516)
(8.06154e-06 7.80325e-06 -0.00101344)
(7.12543e-06 6.88605e-06 -0.00101192)
(6.30031e-06 6.07928e-06 -0.00101058)
(5.57276e-06 5.36938e-06 -0.00100939)
(4.93103e-06 4.74452e-06 -0.00100833)
(4.36482e-06 4.19429e-06 -0.0010074)
(3.86509e-06 3.70953e-06 -0.00100658)
(3.42388e-06 3.28215e-06 -0.00100585)
(3.03424e-06 2.90526e-06 -0.0010052)
(2.69001e-06 2.57271e-06 -0.00100463)
(2.38574e-06 2.27914e-06 -0.00100412)
(2.11664e-06 2.01987e-06 -0.00100367)
(1.8786e-06 1.79079e-06 -0.00100326)
(1.66798e-06 1.58832e-06 -0.00100291)
(1.48156e-06 1.4093e-06 -0.00100259)
(1.31651e-06 1.25096e-06 -0.00100231)
(1.17032e-06 1.11086e-06 -0.00100206)
(1.0408e-06 9.86844e-07 -0.00100184)
(9.25996e-07 8.77042e-07 -0.00100164)
(8.24204e-07 7.79787e-07 -0.00100147)
(7.33914e-07 6.93616e-07 -0.00100131)
(6.53799e-07 6.17239e-07 -0.00100117)
(5.82687e-07 5.49519e-07 -0.00100104)
(5.19541e-07 4.89453e-07 -0.00100093)
(4.6345e-07 4.36157e-07 -0.00100083)
(4.13608e-07 3.88851e-07 -0.00100075)
(3.69302e-07 3.46846e-07 -0.00100067)
(3.29903e-07 3.09535e-07 -0.0010006)
(2.94857e-07 2.76379e-07 -0.00100053)
(2.63673e-07 2.46908e-07 -0.00100048)
(2.35916e-07 2.20702e-07 -0.00100043)
(2.11205e-07 1.97392e-07 -0.00100038)
(1.89201e-07 1.76655e-07 -0.00100034)
(1.69606e-07 1.58202e-07 -0.0010003)
(1.52155e-07 1.41781e-07 -0.00100027)
(1.36616e-07 1.27169e-07 -0.00100024)
(1.22783e-07 1.14169e-07 -0.00100022)
(1.10475e-07 1.02608e-07 -0.00100019)
(9.95333e-08 9.23337e-08 -0.00100017)
(8.98165e-08 8.3212e-08 -0.00100015)
(8.12013e-08 7.51251e-08 -0.00100014)
(7.35789e-08 6.79693e-08 -0.00100012)
(6.68541e-08 6.16541e-08 -0.00100011)
(6.09435e-08 5.61e-08 -0.00100009)
(5.57745e-08 5.12378e-08 -0.00100008)
(5.12842e-08 4.70077e-08 -0.00100007)
(4.74187e-08 4.33582e-08 -0.00100006)
(4.41348e-08 4.02497e-08 -0.00100005)
(4.1422e-08 3.76763e-08 -0.00100004)
(3.93446e-08 3.57051e-08 -0.00100003)
(3.828e-08 3.47023e-08 -0.00100003)
)
;

boundaryField
{
    inlet
    {
        type            zeroGradient;
    }
    outlet
    {
        type            zeroGradient;
    }
    repeat_boundary
    {
        type            slip;
    }
    procBoundary3to1
    {
        type            processor;
        value           nonuniform List<vector> 
180
(
(-3.42699e-11 1.50622e-08 -0.00100009)
(-9.68052e-11 1.89106e-08 -0.00100009)
(-1.4331e-10 2.54439e-08 -0.00100009)
(-1.65873e-10 3.36492e-08 -0.0010001)
(-1.70349e-10 4.28738e-08 -0.0010001)
(-1.58445e-10 5.28061e-08 -0.00100011)
(-1.23441e-10 6.33526e-08 -0.00100011)
(-5.66928e-11 7.45364e-08 -0.00100012)
(5.13235e-11 8.64347e-08 -0.00100013)
(2.10982e-10 9.91491e-08 -0.00100014)
(4.33726e-10 1.12794e-07 -0.00100015)
(7.32468e-10 1.27495e-07 -0.00100016)
(1.12177e-09 1.43387e-07 -0.00100018)
(1.61777e-09 1.60615e-07 -0.00100019)
(2.2394e-09 1.79337e-07 -0.00100021)
(3.00853e-09 1.99725e-07 -0.00100023)
(3.95028e-09 2.21963e-07 -0.00100025)
(5.09352e-09 2.46253e-07 -0.00100027)
(6.47156e-09 2.72817e-07 -0.0010003)
(8.12281e-09 3.01892e-07 -0.00100033)
(1.00918e-08 3.33741e-07 -0.00100036)
(1.24301e-08 3.68648e-07 -0.0010004)
(1.51977e-08 4.06924e-07 -0.00100044)
(1.84645e-08 4.48907e-07 -0.00100048)
(2.23119e-08 4.94966e-07 -0.00100052)
(2.68351e-08 5.45502e-07 -0.00100058)
(3.21451e-08 6.00951e-07 -0.00100063)
(3.83716e-08 6.61787e-07 -0.00100069)
(4.56662e-08 7.28527e-07 -0.00100076)
(5.42056e-08 8.01728e-07 -0.00100083)
(6.41959e-08 8.81999e-07 -0.00100091)
(7.58775e-08 9.69995e-07 -0.001001)
(8.953e-08 1.06643e-06 -0.0010011)
(1.05479e-07 1.17207e-06 -0.00100121)
(1.24101e-07 1.28775e-06 -0.00100132)
(1.45836e-07 1.41436e-06 -0.00100145)
(1.71191e-07 1.55288e-06 -0.00100158)
(2.00755e-07 1.70435e-06 -0.00100173)
(2.35209e-07 1.86988e-06 -0.00100189)
(2.75342e-07 2.05068e-06 -0.00100207)
(3.22064e-07 2.24805e-06 -0.00100226)
(3.76429e-07 2.46335e-06 -0.00100247)
(4.39653e-07 2.69807e-06 -0.00100269)
(5.1314e-07 2.95377e-06 -0.00100293)
(5.98513e-07 3.23211e-06 -0.00100319)
(6.97642e-07 3.53485e-06 -0.00100348)
(8.1269e-07 3.86384e-06 -0.00100378)
(9.46149e-07 4.22104e-06 -0.00100411)
(1.1009e-06 4.60847e-06 -0.00100446)
(1.28026e-06 5.02823e-06 -0.00100483)
(1.48805e-06 5.4825e-06 -0.00100523)
(1.7287e-06 5.97349e-06 -0.00100566)
(2.00731e-06 6.50345e-06 -0.00100611)
(2.32973e-06 7.07463e-06 -0.00100659)
(2.70275e-06 7.68922e-06 -0.0010071)
(3.13417e-06 8.34936e-06 -0.00100763)
(3.63297e-06 9.05706e-06 -0.00100819)
(4.20951e-06 9.8141e-06 -0.00100876)
(4.87569e-06 1.0622e-05 -0.00100936)
(5.64524e-06 1.1482e-05 -0.00100998)
(6.53394e-06 1.23948e-05 -0.0010106)
(7.55991e-06 1.33604e-05 -0.00101123)
(8.744e-06 1.43782e-05 -0.00101185)
(1.01102e-05 1.54467e-05 -0.00101246)
(1.16859e-05 1.65631e-05 -0.00101304)
(1.35027e-05 1.77233e-05 -0.00101358)
(1.55967e-05 1.89218e-05 -0.00101405)
(1.80094e-05 2.01507e-05 -0.00101444)
(2.0788e-05 2.14001e-05 -0.00101472)
(2.39861e-05 2.26571e-05 -0.00101487)
(2.76632e-05 2.39047e-05 -0.00101484)
(3.1881e-05 2.51187e-05 -0.0010146)
(3.66891e-05 2.62605e-05 -0.00101403)
(4.20814e-05 2.72549e-05 -0.00101297)
(4.78843e-05 2.79462e-05 -0.00101177)
(5.35311e-05 2.80339e-05 -0.0010122)
(5.76609e-05 2.71012e-05 -0.00101494)
(5.82258e-05 2.48057e-05 -0.0010036)
(5.17145e-05 2.16178e-05 -0.000943786)
(3.40575e-05 1.87348e-05 -0.000767031)
(-4.08621e-06 -3.73534e-06 -0.00294824)
(-1.06381e-05 -8.32347e-06 -6.41095e-05)
(-0.000195355 0.000342947 -0.00355356)
(-8.26162e-05 0.000132176 -0.00260198)
(-2.89935e-05 -2.9948e-06 -0.00117648)
(-0.000285549 8.78756e-05 -0.00490607)
(4.70181e-06 -4.58936e-06 -0.000450488)
(-0.000928313 -0.000328231 -0.00427732)
(2.22654e-05 -3.35539e-05 -0.000243031)
(0.000678926 -0.000811764 -0.00332102)
(3.74195e-05 -2.68689e-05 -0.000205609)
(0.000600762 -0.000505417 -0.00349083)
(0.0001743 -0.000244842 -0.00141446)
(0.000321215 -0.000651032 -0.00466295)
(-2.49483e-05 -4.45541e-05 -0.000526819)
(0.000126128 -0.000340445 -0.00292395)
(0.000400504 -0.000605387 -0.00225296)
(6.82238e-06 -3.03659e-05 -8.0547e-05)
(2.89399e-05 -0.000100419 -0.00468422)
(1.79761e-05 2.46461e-06 -0.000681848)
(-0.000183565 0.000209702 -0.00258958)
(-9.72274e-05 0.000163219 -0.00120576)
(-0.00015778 -1.39669e-05 -0.00125772)
(-9.36237e-05 6.76508e-06 -0.00101614)
(-4.0695e-05 5.295e-05 -0.00091906)
(-6.55361e-05 9.51444e-05 -0.000856175)
(-7.49761e-05 0.000115243 -0.00082791)
(-7.21791e-05 0.000117863 -0.000841955)
(-6.47705e-05 0.000111063 -0.000864542)
(-5.64497e-05 0.000100522 -0.00088329)
(-4.85181e-05 8.92855e-05 -0.000898603)
(-4.13997e-05 7.86766e-05 -0.000911839)
(-3.51873e-05 6.91246e-05 -0.00092345)
(-2.98346e-05 6.06801e-05 -0.000933578)
(-2.52466e-05 5.32629e-05 -0.000942375)
(-2.13223e-05 4.67608e-05 -0.000950008)
(-1.79697e-05 4.10634e-05 -0.000956634)
(-1.51085e-05 3.60706e-05 -0.000962386)
(-1.26693e-05 3.16943e-05 -0.000967379)
(-1.05924e-05 2.78573e-05 -0.000971713)
(-8.82626e-06 2.44923e-05 -0.000975474)
(-7.32648e-06 2.15403e-05 -0.000978739)
(-6.05496e-06 1.895e-05 -0.000981573)
(-4.97897e-06 1.66765e-05 -0.000984034)
(-4.07045e-06 1.46805e-05 -0.000986172)
(-3.30537e-06 1.29279e-05 -0.000988032)
(-2.6633e-06 1.13889e-05 -0.000989649)
(-2.12638e-06 1.00371e-05 -0.000991051)
(-1.67878e-06 8.84951e-06 -0.000992265)
(-1.30691e-06 7.80568e-06 -0.000993315)
(-9.99182e-07 6.88791e-06 -0.000994223)
(-7.4569e-07 6.0807e-06 -0.000995009)
(-5.37984e-07 5.37047e-06 -0.000995689)
(-3.6887e-07 4.74536e-06 -0.000996278)
(-2.32165e-07 4.19493e-06 -0.000996785)
(-1.22486e-07 3.71002e-06 -0.000997222)
(-3.51328e-08 3.28254e-06 -0.000997599)
(3.35232e-08 2.90556e-06 -0.000997926)
(8.67444e-08 2.57294e-06 -0.000998207)
(1.27335e-07 2.27932e-06 -0.00099845)
(1.57583e-07 2.02e-06 -0.00099866)
(1.79314e-07 1.7909e-06 -0.000998842)
(1.94077e-07 1.5884e-06 -0.000998999)
(2.03186e-07 1.40937e-06 -0.000999135)
(2.0774e-07 1.25101e-06 -0.000999253)
(2.08664e-07 1.11089e-06 -0.000999356)
(2.06729e-07 9.86872e-07 -0.000999444)
(2.02575e-07 8.77064e-07 -0.00099952)
(1.96733e-07 7.79804e-07 -0.000999587)
(1.89643e-07 6.93629e-07 -0.000999644)
(1.81664e-07 6.17249e-07 -0.000999693)
(1.73093e-07 5.49526e-07 -0.000999736)
(1.64169e-07 4.89459e-07 -0.000999772)
(1.55087e-07 4.36162e-07 -0.000999804)
(1.46002e-07 3.88855e-07 -0.000999831)
(1.37038e-07 3.46849e-07 -0.000999855)
(1.28289e-07 3.09537e-07 -0.000999875)
(1.19829e-07 2.76381e-07 -0.000999892)
(1.11712e-07 2.46909e-07 -0.000999907)
(1.03977e-07 2.20703e-07 -0.00099992)
(9.6651e-08 1.97393e-07 -0.000999931)
(8.97483e-08 1.76655e-07 -0.00099994)
(8.32762e-08 1.58202e-07 -0.000999948)
(7.72351e-08 1.41781e-07 -0.000999955)
(7.16201e-08 1.27169e-07 -0.000999961)
(6.64221e-08 1.14169e-07 -0.000999966)
(6.16291e-08 1.02608e-07 -0.00099997)
(5.72269e-08 9.23338e-08 -0.000999974)
(5.31998e-08 8.32121e-08 -0.000999978)
(4.95313e-08 7.51252e-08 -0.000999981)
(4.62046e-08 6.79694e-08 -0.000999983)
(4.32029e-08 6.16541e-08 -0.000999985)
(4.05099e-08 5.61e-08 -0.000999987)
(3.81097e-08 5.12378e-08 -0.000999989)
(3.59877e-08 4.70077e-08 -0.000999991)
(3.41315e-08 4.33582e-08 -0.000999992)
(3.25346e-08 4.02497e-08 -0.000999993)
(3.12062e-08 3.76763e-08 -0.000999994)
(3.02137e-08 3.57051e-08 -0.000999995)
(2.95794e-08 3.47023e-08 -0.000999996)
)
;
    }
    procBoundary3to2
    {
        type            processor;
        value           nonuniform List<vector> 
180
(
(-1.12823e-09 1.61561e-08 -0.000999893)
(-1.49952e-09 2.03132e-08 -0.000999891)
(-2.07074e-09 2.73712e-08 -0.000999888)
(-2.76338e-09 3.62465e-08 -0.000999885)
(-3.54897e-09 4.62523e-08 -0.000999881)
(-4.41674e-09 5.70642e-08 -0.000999875)
(-5.36944e-09 6.85983e-08 -0.000999868)
(-6.41745e-09 8.08969e-08 -0.00099986)
(-7.57661e-09 9.40624e-08 -0.000999851)
(-8.86653e-09 1.08226e-07 -0.00099984)
(-1.03099e-08 1.23537e-07 -0.000999827)
(-1.19322e-08 1.40159e-07 -0.000999813)
(-1.3762e-08 1.5827e-07 -0.000999796)
(-1.58314e-08 1.78063e-07 -0.000999778)
(-1.81762e-08 1.99752e-07 -0.000999757)
(-2.08367e-08 2.23569e-07 -0.000999733)
(-2.38583e-08 2.4977e-07 -0.000999706)
(-2.72919e-08 2.78637e-07 -0.000999676)
(-3.11953e-08 3.10482e-07 -0.000999643)
(-3.56337e-08 3.45646e-07 -0.000999605)
(-4.06814e-08 3.84511e-07 -0.000999564)
(-4.64227e-08 4.27497e-07 -0.000999517)
(-5.29537e-08 4.75071e-07 -0.000999465)
(-6.03842e-08 5.27751e-07 -0.000999407)
(-6.88398e-08 5.86112e-07 -0.000999343)
(-7.84642e-08 6.50794e-07 -0.000999272)
(-8.94223e-08 7.2251e-07 -0.000999192)
(-1.01903e-07 8.02052e-07 -0.000999104)
(-1.16124e-07 8.90304e-07 -0.000999005)
(-1.32334e-07 9.88253e-07 -0.000998896)
(-1.50819e-07 1.09699e-06 -0.000998774)
(-1.71908e-07 1.21776e-06 -0.000998638)
(-1.95977e-07 1.35191e-06 -0.000998487)
(-2.23459e-07 1.50097e-06 -0.000998318)
(-2.54849e-07 1.66666e-06 -0.000998131)
(-2.90717e-07 1.85086e-06 -0.000997922)
(-3.31713e-07 2.05572e-06 -0.000997689)
(-3.78583e-07 2.28361e-06 -0.000997429)
(-4.32183e-07 2.53718e-06 -0.000997139)
(-4.9349e-07 2.8194e-06 -0.000996816)
(-5.63626e-07 3.1336e-06 -0.000996455)
(-6.43872e-07 3.48349e-06 -0.000996053)
(-7.35698e-07 3.87322e-06 -0.000995603)
(-8.40784e-07 4.30744e-06 -0.000995101)
(-9.61056e-07 4.79137e-06 -0.000994541)
(-1.09872e-06 5.33083e-06 -0.000993914)
(-1.25629e-06 5.93237e-06 -0.000993215)
(-1.43666e-06 6.6033e-06 -0.000992432)
(-1.64315e-06 7.35184e-06 -0.000991558)
(-1.87953e-06 8.1872e-06 -0.00099058)
(-2.15016e-06 9.11971e-06 -0.000989486)
(-2.46001e-06 1.0161e-05 -0.000988262)
(-2.81477e-06 1.13241e-05 -0.000986891)
(-3.22098e-06 1.26235e-05 -0.000985357)
(-3.68611e-06 1.40759e-05 -0.000983638)
(-4.21872e-06 1.56996e-05 -0.000981712)
(-4.82862e-06 1.75154e-05 -0.000979554)
(-5.52704e-06 1.95467e-05 -0.000977134)
(-6.32683e-06 2.18197e-05 -0.000974421)
(-7.24269e-06 2.43641e-05 -0.000971376)
(-8.29147e-06 2.7213e-05 -0.00096796)
(-9.49242e-06 3.0404e-05 -0.000964125)
(-1.08675e-05 3.39791e-05 -0.000959819)
(-1.2442e-05 3.79858e-05 -0.000954984)
(-1.42445e-05 4.24775e-05 -0.000949551)
(-1.63079e-05 4.75144e-05 -0.000943447)
(-1.86696e-05 5.31642e-05 -0.000936587)
(-2.13722e-05 5.95031e-05 -0.000928876)
(-2.44641e-05 6.66164e-05 -0.000920205)
(-2.79998e-05 7.45988e-05 -0.000910455)
(-3.20386e-05 8.35516e-05 -0.000899494)
(-3.66387e-05 9.35695e-05 -0.000887165)
(-4.18369e-05 0.000104698 -0.000873258)
(-4.75935e-05 0.000116812 -0.000857542)
(-5.36654e-05 0.000129335 -0.000840163)
(-5.93702e-05 0.000140718 -0.000822399)
(-6.31962e-05 0.000147738 -0.00080532)
(-6.21775e-05 0.000144918 -0.000778904)
(-5.13231e-05 0.000124319 -0.000720537)
(-2.55902e-05 7.79058e-05 -0.000571863)
(-5.23564e-06 -6.18809e-06 -0.00201967)
(-3.60472e-05 5.02979e-06 -7.4506e-05)
(8.88471e-05 6.56265e-05 -0.00280359)
(-5.4356e-05 -8.3573e-06 -0.000202958)
(-0.000126682 -9.9367e-05 -0.00366556)
(-8.83392e-05 -2.99459e-05 -0.000277175)
(-0.000142614 -0.000253278 -0.00321325)
(-0.000203538 -0.000193049 -0.00140204)
(-0.000379567 0.000150305 -0.00230395)
(-4.13068e-05 4.78016e-06 -0.000190331)
(-0.000105769 0.000131551 -0.00434828)
(4.38821e-05 -1.72075e-05 -0.00104321)
(0.000126244 -0.000220677 -0.00231221)
(-0.000206007 -0.000221867 -0.0027417)
(6.67194e-06 -4.24969e-05 -0.0001898)
(-0.000129327 -0.000219397 -0.0032098)
(-3.56034e-05 -6.76414e-05 -0.000689223)
(-3.77547e-05 -8.88765e-05 -0.00205443)
(-0.000235086 3.24634e-05 -0.00266051)
(-8.07793e-05 -4.90408e-05 -7.88921e-05)
(0.000116066 -0.000173798 -0.00308258)
(9.52128e-05 -0.000117155 -0.00107046)
(3.11309e-05 -0.00026642 -0.00122553)
(9.04172e-05 -0.00026104 -0.000898462)
(0.00010156 -0.000121199 -0.000783183)
(0.000127588 -0.000104582 -0.000833397)
(0.000133092 -9.21152e-05 -0.000830455)
(0.000126578 -7.91076e-05 -0.000846835)
(0.000114903 -6.73839e-05 -0.00086695)
(0.000102139 -5.74624e-05 -0.000884707)
(9.00493e-05 -4.90359e-05 -0.000899742)
(7.91707e-05 -4.1807e-05 -0.000912747)
(6.95572e-05 -3.55927e-05 -0.0009241)
(6.11114e-05 -3.02583e-05 -0.000933996)
(5.37041e-05 -2.56859e-05 -0.000942605)
(4.72094e-05 -2.17704e-05 -0.000950091)
(4.1514e-05 -1.84203e-05 -0.000956601)
(3.65183e-05 -1.55562e-05 -0.000962261)
(3.2135e-05 -1.31101e-05 -0.000967183)
(2.82878e-05 -1.1023e-05 -0.000971463)
(2.49101e-05 -9.24415e-06 -0.000975184)
(2.19437e-05 -7.7299e-06 -0.000978419)
(1.93376e-05 -6.44258e-06 -0.000981232)
(1.70473e-05 -5.34981e-06 -0.000983678)
(1.50338e-05 -4.42375e-06 -0.000985804)
(1.32631e-05 -3.64051e-06 -0.000987652)
(1.17052e-05 -2.97963e-06 -0.000989258)
(1.03342e-05 -2.42341e-06 -0.000990655)
(9.12709e-06 -1.95636e-06 -0.00099187)
(8.06397e-06 -1.5652e-06 -0.000992926)
(7.1273e-06 -1.23857e-06 -0.000993845)
(6.30174e-06 -9.66726e-07 -0.000994644)
(5.57385e-06 -7.41364e-07 -0.00099534)
(4.93187e-06 -5.55382e-07 -0.000995945)
(4.36547e-06 -4.027e-07 -0.000996472)
(3.86559e-06 -2.78053e-07 -0.000996931)
(3.42427e-06 -1.76863e-07 -0.000997331)
(3.03453e-06 -9.54511e-08 -0.000997679)
(2.69023e-06 -3.05501e-08 -0.000997981)
(2.38591e-06 2.07409e-08 -0.000998242)
(2.11677e-06 6.08117e-08 -0.00099847)
(1.8787e-06 9.15069e-08 -0.000998669)
(1.66806e-06 1.14422e-07 -0.000998842)
(1.48162e-06 1.30927e-07 -0.000998993)
(1.31656e-06 1.42189e-07 -0.000999124)
(1.17036e-06 1.49195e-07 -0.000999239)
(1.04083e-06 1.52773e-07 -0.000999338)
(9.26018e-07 1.53621e-07 -0.000999424)
(8.24221e-07 1.52317e-07 -0.000999499)
(7.33927e-07 1.49344e-07 -0.000999565)
(6.5381e-07 1.45103e-07 -0.000999621)
(5.82694e-07 1.39925e-07 -0.00099967)
(5.19547e-07 1.34081e-07 -0.000999713)
(4.63455e-07 1.27794e-07 -0.00099975)
(4.13611e-07 1.21246e-07 -0.000999782)
(3.69304e-07 1.14582e-07 -0.00099981)
(3.29905e-07 1.0792e-07 -0.000999835)
(2.94859e-07 1.01351e-07 -0.000999856)
(2.63674e-07 9.49471e-08 -0.000999874)
(2.35917e-07 8.87626e-08 -0.00099989)
(2.11206e-07 8.28379e-08 -0.000999904)
(1.89202e-07 7.72015e-08 -0.000999916)
(1.69606e-07 7.18723e-08 -0.000999926)
(1.52155e-07 6.68613e-08 -0.000999935)
(1.36616e-07 6.21733e-08 -0.000999943)
(1.22783e-07 5.78082e-08 -0.00099995)
(1.10475e-07 5.37619e-08 -0.000999956)
(9.95334e-08 5.00273e-08 -0.000999962)
(8.98166e-08 4.65953e-08 -0.000999966)
(8.12014e-08 4.34551e-08 -0.000999971)
(7.3579e-08 4.0595e-08 -0.000999974)
(6.68542e-08 3.80029e-08 -0.000999978)
(6.09436e-08 3.56663e-08 -0.000999981)
(5.57746e-08 3.35729e-08 -0.000999983)
(5.12843e-08 3.17111e-08 -0.000999986)
(4.74187e-08 3.00711e-08 -0.000999988)
(4.41348e-08 2.86495e-08 -0.00099999)
(4.1422e-08 2.74604e-08 -0.000999992)
(3.93446e-08 2.65742e-08 -0.000999994)
(3.828e-08 2.60017e-08 -0.000999995)
)
;
    }
}


// ************************************************************************* //
