/*--------------------------------*- C++ -*----------------------------------*\
| =========                 |                                                 |
| \\      /  F ield         | OpenFOAM: The Open Source CFD Toolbox           |
|  \\    /   O peration     | Version:  5.x                                   |
|   \\  /    A nd           | Web:      www.OpenFOAM.org                      |
|    \\/     M anipulation  |                                                 |
\*---------------------------------------------------------------------------*/
FoamFile
{
    version     2.0;
    format      ascii;
    class       volScalarField;
    location    "0.04";
    object      p;
}
// * * * * * * * * * * * * * * * * * * * * * * * * * * * * * * * * * * * * * //

dimensions      [0 2 -2 0 0 0 0];

internalField   nonuniform List<scalar> 
2250
(
-4.15224e-10
-4.10977e-10
-4.04233e-10
-3.94978e-10
-3.8335e-10
-3.89775e-10
-3.58793e-10
-3.42445e-10
-3.30494e-10
-3.19346e-10
-3.27e-10
-2.99023e-10
-2.81808e-10
-2.70596e-10
-2.61628e-10
-2.65042e-10
-2.4715e-10
-2.34102e-10
-2.24534e-10
-2.17688e-10
-2.27146e-10
-2.18956e-10
-2.08951e-10
-1.9992e-10
-1.9456e-10
-1.10464e-09
-1.15177e-09
-1.13324e-09
-1.09171e-09
-1.04966e-09
-1.1013e-09
-1.03556e-09
-9.79478e-10
-9.32509e-10
-8.95279e-10
-9.57771e-10
-8.8506e-10
-8.267e-10
-7.82865e-10
-7.52749e-10
-8.06562e-10
-7.56791e-10
-7.07681e-10
-6.67583e-10
-6.43967e-10
-7.21196e-10
-6.95931e-10
-6.514e-10
-6.11508e-10
-5.92469e-10
-1.56593e-09
-1.69729e-09
-1.68173e-09
-1.61018e-09
-1.54285e-09
-1.65803e-09
-1.5967e-09
-1.50819e-09
-1.42244e-09
-1.36048e-09
-1.53787e-09
-1.43275e-09
-1.32601e-09
-1.23791e-09
-1.18365e-09
-1.39088e-09
-1.2925e-09
-1.18345e-09
-1.09383e-09
-1.04744e-09
-1.32024e-09
-1.23725e-09
-1.12388e-09
-1.03098e-09
-9.92165e-10
-2.12991e-09
-2.14107e-09
-2.06672e-09
-1.96062e-09
-1.87991e-09
-2.16762e-09
-2.05401e-09
-1.91896e-09
-1.79462e-09
-1.71193e-09
-2.10211e-09
-1.9365e-09
-1.76601e-09
-1.62627e-09
-1.54572e-09
-2.04409e-09
-1.84831e-09
-1.6477e-09
-1.49165e-09
-1.41556e-09
-2.03909e-09
-1.82416e-09
-1.60301e-09
-1.43829e-09
-1.3735e-09
-2.72712e-09
-2.50612e-09
-2.33734e-09
-2.1935e-09
-2.10397e-09
-2.62172e-09
-2.41123e-09
-2.22137e-09
-2.06587e-09
-1.96877e-09
-2.61675e-09
-2.36283e-09
-2.12607e-09
-1.9421e-09
-1.84102e-09
-2.68439e-09
-2.35782e-09
-2.05981e-09
-1.84277e-09
-1.74284e-09
-2.75467e-09
-2.36913e-09
-2.03774e-09
-1.8104e-09
-1.72842e-09
-2.92835e-09
-2.65957e-09
-2.48191e-09
-2.33537e-09
-2.24866e-09
-2.83614e-09
-2.61514e-09
-2.41733e-09
-2.25886e-09
-2.16374e-09
-2.94419e-09
-2.65031e-09
-2.38817e-09
-2.19189e-09
-2.09084e-09
-3.1378e-09
-2.72686e-09
-2.38156e-09
-2.14432e-09
-2.04501e-09
-3.26135e-09
-2.7669e-09
-2.38705e-09
-2.1445e-09
-2.06784e-09
-2.80957e-09
-2.63292e-09
-2.53794e-09
-2.43429e-09
-2.36622e-09
-2.80556e-09
-2.68442e-09
-2.54853e-09
-2.42518e-09
-2.35344e-09
-3.02946e-09
-2.79699e-09
-2.58189e-09
-2.41995e-09
-2.34546e-09
-3.30284e-09
-2.92904e-09
-2.62966e-09
-2.43283e-09
-2.36119e-09
-3.44478e-09
-2.9901e-09
-2.66594e-09
-2.46971e-09
-2.41565e-09
-2.89783e-09
-2.68709e-09
-2.64688e-09
-2.58648e-09
-2.53812e-09
-2.79127e-09
-2.76213e-09
-2.71188e-09
-2.64247e-09
-2.60627e-09
-3.00938e-09
-2.90262e-09
-2.78882e-09
-2.69483e-09
-2.66101e-09
-3.26804e-09
-3.04798e-09
-2.87531e-09
-2.76172e-09
-2.72697e-09
-3.39291e-09
-3.11957e-09
-2.93464e-09
-2.82203e-09
-2.79326e-09
-3.32749e-09
-2.97861e-09
-2.92144e-09
-2.87714e-09
-2.84524e-09
-2.98452e-09
-2.98309e-09
-2.99535e-09
-2.97676e-09
-2.97747e-09
-3.0742e-09
-3.09341e-09
-3.0896e-09
-3.06953e-09
-3.07391e-09
-3.23508e-09
-3.21129e-09
-3.1895e-09
-3.16517e-09
-3.16297e-09
-3.31851e-09
-3.27388e-09
-3.24955e-09
-3.22605e-09
-3.22453e-09
-3.83055e-09
-3.44398e-09
-3.36588e-09
-3.34529e-09
-3.35019e-09
-3.35812e-09
-3.37241e-09
-3.4293e-09
-3.46456e-09
-3.50616e-09
-3.30382e-09
-3.42549e-09
-3.51868e-09
-3.57061e-09
-3.61303e-09
-3.33883e-09
-3.48877e-09
-3.6031e-09
-3.6639e-09
-3.70089e-09
-3.36258e-09
-3.51762e-09
-3.64229e-09
-3.71284e-09
-3.75658e-09
-4.21604e-09
-3.97049e-09
-3.9573e-09
-4.02984e-09
-4.11492e-09
-3.78741e-09
-3.88205e-09
-4.02002e-09
-4.14591e-09
-4.2481e-09
-3.63916e-09
-3.87856e-09
-4.08735e-09
-4.23675e-09
-4.3383e-09
-3.55523e-09
-3.87495e-09
-4.13505e-09
-4.3066e-09
-4.41102e-09
-3.50072e-09
-3.85904e-09
-4.15018e-09
-4.34566e-09
-4.46829e-09
-4.44351e-09
-4.53005e-09
-4.74534e-09
-5.01841e-09
-5.22633e-09
-4.16229e-09
-4.47934e-09
-4.81025e-09
-5.10135e-09
-5.29906e-09
-3.97534e-09
-4.43218e-09
-4.83911e-09
-5.14965e-09
-5.34704e-09
-3.79549e-09
-4.36637e-09
-4.84108e-09
-5.1824e-09
-5.39091e-09
-3.66677e-09
-4.31897e-09
-4.84092e-09
-5.21347e-09
-5.44676e-09
-4.64606e-09
-5.25313e-09
-5.86902e-09
-6.43198e-09
-6.78515e-09
-4.51138e-09
-5.21891e-09
-5.88815e-09
-6.42932e-09
-6.75556e-09
-4.30874e-09
-5.12862e-09
-5.85164e-09
-6.39957e-09
-6.72484e-09
-4.06513e-09
-5.01277e-09
-5.79948e-09
-6.37608e-09
-6.71457e-09
-3.90057e-09
-4.95037e-09
-5.78222e-09
-6.38542e-09
-6.73809e-09
-5.00677e-09
-6.30354e-09
-7.44063e-09
-8.3386e-09
-8.83798e-09
-4.9573e-09
-6.19564e-09
-7.32024e-09
-8.17455e-09
-8.64676e-09
-4.73191e-09
-6.03343e-09
-7.1734e-09
-8.02043e-09
-8.4914e-09
-4.45245e-09
-5.86456e-09
-7.0459e-09
-7.91169e-09
-8.38656e-09
-4.29096e-09
-5.77939e-09
-6.98934e-09
-7.86558e-09
-8.33371e-09
-5.4635e-09
-7.65226e-09
-9.41444e-09
-1.06838e-08
-1.13315e-08
-5.50523e-09
-7.41848e-09
-9.08246e-09
-1.02948e-08
-1.09251e-08
-5.26026e-09
-7.14212e-09
-8.77797e-09
-9.97682e-09
-1.06059e-08
-4.95611e-09
-6.89457e-09
-8.54538e-09
-9.75007e-09
-1.03697e-08
-4.79917e-09
-6.76018e-09
-8.42013e-09
-9.61651e-09
-1.0226e-08
-6.09909e-09
-9.22989e-09
-1.16751e-08
-1.33615e-08
-1.41801e-08
-6.12446e-09
-8.82923e-09
-1.11041e-08
-1.27297e-08
-1.35466e-08
-5.79327e-09
-8.38316e-09
-1.06114e-08
-1.223e-08
-1.30476e-08
-5.4256e-09
-8.01942e-09
-1.02487e-08
-1.18635e-08
-1.26754e-08
-5.23624e-09
-7.81917e-09
-1.00403e-08
-1.16424e-08
-1.24507e-08
-7.23639e-09
-1.109e-08
-1.42098e-08
-1.63731e-08
-1.74173e-08
-6.83632e-09
-1.04003e-08
-1.33861e-08
-1.55207e-08
-1.65897e-08
-6.2295e-09
-9.71888e-09
-1.26906e-08
-1.48343e-08
-1.59136e-08
-5.71958e-09
-9.20678e-09
-1.21797e-08
-1.43241e-08
-1.54106e-08
-5.46289e-09
-8.93869e-09
-1.18927e-08
-1.40282e-08
-1.50981e-08
-8.64735e-09
-1.32464e-08
-1.71611e-08
-1.99479e-08
-2.13354e-08
-7.53391e-09
-1.21575e-08
-1.60688e-08
-1.88868e-08
-2.03249e-08
-6.52964e-09
-1.12006e-08
-1.51497e-08
-1.79943e-08
-1.94535e-08
-5.83496e-09
-1.05166e-08
-1.44716e-08
-1.73296e-08
-1.87886e-08
-5.49276e-09
-1.01666e-08
-1.41054e-08
-1.69461e-08
-1.83797e-08
-9.78291e-09
-1.57588e-08
-2.08701e-08
-2.45733e-08
-2.64902e-08
-8.08047e-09
-1.4226e-08
-1.9444e-08
-2.32293e-08
-2.51992e-08
-6.70594e-09
-1.29539e-08
-1.82419e-08
-2.20704e-08
-2.40578e-08
-5.80226e-09
-1.20601e-08
-1.73631e-08
-2.12026e-08
-2.31769e-08
-5.33161e-09
-1.15909e-08
-1.68884e-08
-2.07062e-08
-2.2678e-08
-1.06093e-08
-1.88826e-08
-2.58301e-08
-3.08776e-08
-3.3541e-08
-8.4787e-09
-1.68441e-08
-2.3935e-08
-2.90902e-08
-3.17867e-08
-6.7443e-09
-1.51732e-08
-2.23471e-08
-2.75553e-08
-3.02604e-08
-5.55613e-09
-1.39996e-08
-2.11956e-08
-2.64048e-08
-2.91167e-08
-4.90079e-09
-1.33619e-08
-2.0562e-08
-2.57753e-08
-2.85046e-08
-1.14966e-08
-2.29761e-08
-3.25672e-08
-3.95032e-08
-4.3168e-08
-8.80727e-09
-2.03151e-08
-3.00486e-08
-3.71036e-08
-4.07868e-08
-6.58453e-09
-1.81188e-08
-2.79404e-08
-3.50579e-08
-3.87683e-08
-4.98045e-09
-1.65509e-08
-2.64045e-08
-3.35503e-08
-3.73028e-08
-4.09875e-09
-1.5684e-08
-2.55656e-08
-3.27516e-08
-3.65228e-08
-1.30133e-08
-2.85882e-08
-4.17365e-08
-5.12363e-08
-5.62479e-08
-9.27036e-09
-2.50367e-08
-3.83933e-08
-4.8063e-08
-5.31302e-08
-6.20587e-09
-2.20989e-08
-3.55991e-08
-4.53898e-08
-5.05342e-08
-3.97132e-09
-1.99722e-08
-3.3571e-08
-4.34624e-08
-4.86657e-08
-2.78586e-09
-1.88098e-08
-3.24876e-08
-4.24466e-08
-4.76907e-08
-1.53285e-08
-3.62876e-08
-5.42169e-08
-6.72423e-08
-7.41033e-08
-9.93174e-09
-3.14704e-08
-4.98017e-08
-6.31255e-08
-7.015e-08
-5.57289e-09
-2.75149e-08
-4.61603e-08
-5.97306e-08
-6.68825e-08
-2.46548e-09
-2.46687e-08
-4.35578e-08
-5.73125e-08
-6.4551e-08
-8.60241e-10
-2.31522e-08
-4.21902e-08
-5.60542e-08
-6.33748e-08
-1.77704e-08
-4.64708e-08
-7.11445e-08
-8.91741e-08
-9.86479e-08
-1.05008e-08
-4.01664e-08
-6.54892e-08
-8.39719e-08
-9.37226e-08
-4.61719e-09
-3.49995e-08
-6.08824e-08
-7.97528e-08
-8.96895e-08
-4.82252e-10
-3.13279e-08
-5.76312e-08
-7.67825e-08
-8.68748e-08
1.65539e-09
-2.94126e-08
-5.59473e-08
-7.52669e-08
-8.54601e-08
-2.0271e-08
-6.00603e-08
-9.42464e-08
-1.19305e-07
-1.32491e-07
-1.09893e-08
-5.209e-08
-8.72217e-08
-1.1291e-07
-1.26443e-07
-3.43363e-09
-4.5568e-08
-8.15448e-08
-1.07783e-07
-1.21607e-07
1.87308e-09
-4.09894e-08
-7.75855e-08
-1.04244e-07
-1.18302e-07
4.64754e-09
-3.86388e-08
-7.55655e-08
-1.02454e-07
-1.16637e-07
-2.37948e-08
-7.88037e-08
-1.26107e-07
-1.60804e-07
-1.79162e-07
-1.18742e-08
-6.87589e-08
-1.17471e-07
-1.53111e-07
-1.71907e-07
-2.26631e-09
-6.06827e-08
-1.10629e-07
-1.47088e-07
-1.66316e-07
4.43284e-09
-5.51135e-08
-1.05965e-07
-1.43043e-07
-1.6259e-07
7.91597e-09
-5.23024e-08
-1.03629e-07
-1.41027e-07
-1.60751e-07
-2.87931e-08
-1.04672e-07
-1.70086e-07
-2.18034e-07
-2.43487e-07
-1.34113e-08
-9.20503e-08
-1.5955e-07
-2.08955e-07
-2.35049e-07
-1.2924e-09
-8.22627e-08
-1.51578e-07
-2.02208e-07
-2.28903e-07
6.99956e-09
-7.57145e-08
-1.46373e-07
-1.97903e-07
-2.25047e-07
1.1226e-08
-7.24842e-08
-1.43841e-07
-1.95833e-07
-2.23194e-07
-3.50548e-08
-1.39772e-07
-2.3031e-07
-2.96747e-07
-3.31975e-07
-1.5455e-08
-1.24206e-07
-2.17813e-07
-2.86388e-07
-3.22608e-07
-5.48098e-10
-1.12832e-07
-2.09096e-07
-2.79427e-07
-3.16482e-07
9.2795e-09
-1.05647e-07
-2.03878e-07
-2.75516e-07
-3.13209e-07
1.41959e-08
-1.02198e-07
-2.01452e-07
-2.73742e-07
-3.11712e-07
-4.18189e-08
-1.86418e-07
-3.11894e-07
-4.04355e-07
-4.53343e-07
-1.73286e-08
-1.6799e-07
-2.98006e-07
-3.93473e-07
-4.43894e-07
1.63322e-10
-1.55847e-07
-2.89682e-07
-3.87561e-07
-4.39088e-07
1.08693e-08
-1.49078e-07
-2.85764e-07
-3.85534e-07
-4.37945e-07
1.60928e-08
-1.45989e-07
-2.84132e-07
-3.84777e-07
-4.37566e-07
-4.65584e-08
-2.46773e-07
-4.21368e-07
-5.50742e-07
-6.19429e-07
-1.7185e-08
-2.26779e-07
-4.07864e-07
-5.41361e-07
-6.11949e-07
1.46397e-09
-2.16228e-07
-4.02535e-07
-5.39059e-07
-6.10722e-07
1.12665e-08
-2.12395e-07
-4.02821e-07
-5.42169e-07
-6.15148e-07
1.57888e-08
-2.11061e-07
-4.03318e-07
-5.43755e-07
-6.16905e-07
-4.38902e-08
-3.22695e-07
-5.67088e-07
-7.49452e-07
-8.4646e-07
-1.13094e-08
-3.04927e-07
-5.57883e-07
-7.45846e-07
-8.45418e-07
4.58091e-09
-3.01448e-07
-5.60561e-07
-7.5134e-07
-8.50288e-07
9.13254e-09
-3.06199e-07
-5.7129e-07
-7.66984e-07
-8.68723e-07
1.11631e-08
-3.09392e-07
-5.75919e-07
-7.72637e-07
-8.72818e-07
-2.22352e-08
-4.14934e-07
-7.58872e-07
-1.01869e-06
-1.15609e-06
8.22945e-09
-4.0881e-07
-7.62051e-07
-1.03015e-06
-1.17257e-06
1.29178e-08
-4.24148e-07
-7.80891e-07
-1.04748e-06
-1.18004e-06
1.82179e-09
-4.49785e-07
-8.16004e-07
-1.09495e-06
-1.23743e-06
-8.29705e-10
-4.63056e-07
-8.25933e-07
-1.10447e-06
-1.23701e-06
4.60862e-08
-5.21758e-07
-1.00648e-06
-1.38306e-06
-1.57306e-06
6.20882e-08
-5.51223e-07
-1.03806e-06
-1.43181e-06
-1.64342e-06
4.19843e-08
-6.1151e-07
-1.08212e-06
-1.45575e-06
-1.61877e-06
-1.03435e-08
-6.83591e-07
-1.17494e-06
-1.58635e-06
-1.78589e-06
-1.58754e-08
-7.20359e-07
-1.18182e-06
-1.59227e-06
-1.74978e-06
2.30174e-07
-6.46574e-07
-1.31692e-06
-1.88382e-06
-2.11485e-06
2.0108e-07
-7.6641e-07
-1.40416e-06
-2.01656e-06
-2.34768e-06
1.456e-07
-9.27131e-07
-1.47204e-06
-2.02295e-06
-2.18331e-06
-2.2912e-08
-1.08711e-06
-1.69743e-06
-2.3405e-06
-2.6053e-06
-1.00861e-08
-1.18081e-06
-1.66173e-06
-2.33518e-06
-2.4627e-06
6.97243e-07
-8.25413e-07
-1.67575e-06
-2.62367e-06
-2.79013e-06
5.00031e-07
-1.10343e-06
-1.8636e-06
-2.88129e-06
-3.40123e-06
4.44069e-07
-1.49155e-06
-1.93946e-06
-2.85983e-06
-2.89755e-06
-5.58813e-08
-1.76593e-06
-2.45897e-06
-3.49833e-06
-3.82151e-06
5.50505e-08
-2.00956e-06
-2.30316e-06
-3.49241e-06
-3.44615e-06
1.88206e-06
-1.09096e-06
-1.93396e-06
-3.75033e-06
-3.50014e-06
1.05976e-06
-1.53967e-06
-2.36626e-06
-4.08523e-06
-4.92778e-06
1.16563e-06
-2.49242e-06
-2.49706e-06
-4.03936e-06
-3.63313e-06
-1.46673e-07
-2.82874e-06
-3.62642e-06
-5.20802e-06
-5.65015e-06
2.70161e-07
-3.473e-06
-3.19043e-06
-5.28626e-06
-4.69955e-06
5.1453e-06
-7.74389e-07
-8.30283e-07
-4.92037e-06
-2.85169e-06
2.04562e-06
-1.87485e-06
-2.21158e-06
-5.19674e-06
-6.46992e-06
2.60511e-06
-4.19482e-06
-3.00195e-06
-4.8765e-06
-2.86394e-06
-3.85989e-07
-4.476e-06
-5.39967e-06
-7.44947e-06
-8.02227e-06
9.21182e-07
-6.18488e-06
-4.55139e-06
-7.87009e-06
-4.8937e-06
-4.44179e-07
-1.04407e-05
-1.30382e-05
-1.73515e-05
-1.74858e-05
-2.2181e-07
-1.00651e-05
-1.36965e-05
-1.67375e-05
-1.91386e-05
-1.66892e-06
-1.2111e-05
-1.38001e-05
-1.90909e-05
-1.88277e-05
-6.96688e-06
-1.16592e-05
-1.55244e-05
-1.84399e-05
-1.89491e-05
-5.6334e-06
-1.27124e-05
-1.24364e-05
-1.81911e-05
-1.7637e-05
4.39051e-05
9.23219e-06
1.83184e-05
-2.85062e-07
2.2744e-05
1.47705e-05
3.68529e-06
1.18037e-05
1.8677e-07
-5.17548e-06
2.62716e-05
-7.78728e-06
2.76887e-06
6.07354e-06
2.05305e-05
7.26472e-06
-2.24225e-06
-4.26604e-06
-6.13756e-06
-1.06972e-05
2.00296e-05
-1.19481e-05
1.93753e-06
-1.18217e-05
1.39676e-05
-2.87564e-05
-3.3953e-05
-3.4075e-05
-4.04945e-05
-5.78394e-05
1.02161e-05
-3.10707e-05
-4.72476e-05
-4.81277e-05
-4.22574e-05
-1.81452e-05
-3.13165e-05
-4.61434e-05
-6.54364e-05
-7.08476e-05
-3.32865e-05
-2.82883e-05
-4.75493e-05
-5.24195e-05
-3.74095e-05
-3.85015e-05
-1.86183e-05
-3.34954e-05
-4.53432e-05
-4.17405e-05
0.000156351
-3.59054e-05
5.43081e-05
-3.97909e-05
0.00013652
-8.86753e-05
-5.09617e-05
2.48353e-05
-3.73495e-05
-2.69947e-05
5.05874e-05
-6.48e-05
-6.21911e-05
3.07554e-06
4.65291e-05
-3.45949e-05
-3.57835e-05
-5.43136e-05
-3.80068e-05
-7.08966e-05
7.78994e-05
-4.62742e-05
-4.07525e-05
-0.000121365
5.26723e-05
0.000900675
0.000784206
0.000660475
0.000522019
0.000598872
0.00081471
0.000743171
0.000781847
0.000600669
0.00102637
0.000691298
0.000973107
0.00069342
0.000653627
0.000853297
0.000552614
0.000770251
0.000746161
0.000574046
0.00101496
0.000366034
0.000579882
0.000724194
0.000847574
0.000926333
0.00124818
0.00120367
0.000864637
0.0015499
0.00135648
0.00126068
0.00132326
0.00103661
0.00143183
0.00186817
0.00131344
0.00123761
0.00104889
0.00109371
0.00149821
0.00110533
0.0011633
0.00162001
0.00129511
0.00155647
0.000433671
0.0012592
0.00132228
0.00145141
0.00126802
0.0013296
0.00181017
0.00272754
0.00254447
0.00247061
0.00124566
0.0018386
0.00197059
0.00230486
0.00252191
0.00153858
0.00173551
0.00251359
0.0023596
0.00242265
0.00139908
0.00212721
0.00222492
0.00206315
0.00216579
0.0017726
0.00149247
0.00172896
0.00185675
0.00182822
0.00162316
0.00251675
0.00292539
0.00267034
0.00306633
0.00223054
0.00232868
0.00255361
0.00261394
0.00264582
0.00155815
0.00254823
0.00278175
0.00273805
0.00264018
0.00241362
0.00254791
0.00279389
0.00257238
0.00288849
0.00264811
0.00235682
0.00243674
0.00226926
0.00208869
0.00321179
0.00312824
0.0027543
0.00299691
0.00315044
0.00336666
0.00314677
0.00314436
0.00334264
0.00280274
0.00179333
0.00316205
0.0032596
0.00324389
0.00314116
0.00313866
0.00273304
0.00323386
0.00301736
0.00298283
0.00347889
0.00296718
0.00319796
0.00281365
0.00358461
0.00447415
0.0038805
0.0033033
0.00382908
0.0041168
0.00384431
0.0038166
0.00355736
0.00364561
0.00354674
0.003752
0.00383346
0.00356545
0.00378492
0.00397814
0.00372874
0.00379462
0.00343686
0.00385069
0.00294905
0.00370308
0.00363391
0.00348361
0.00364071
0.00334725
0.00420962
0.0046098
0.0049656
0.00505751
0.00485119
0.00435195
0.00442429
0.00425226
0.00402214
0.00410118
0.00506249
0.00440712
0.00405972
0.00416856
0.00399954
0.00414049
0.00436549
0.00411193
0.00435005
0.00408533
0.00414748
0.0041107
0.00393732
0.00463659
0.00375801
0.00453032
0.00514249
0.00493434
0.0048685
0.00450148
0.00517569
0.0052416
0.00480764
0.00512659
0.00496491
0.00516572
0.00479198
0.00534613
0.00476405
0.00524801
0.00496561
0.00473872
0.00453091
0.00484235
0.00506003
0.00452026
0.00553302
0.00481346
0.00485578
0.00496656
0.00538853
0.00553342
0.00513503
0.00542287
0.00484972
0.00519677
0.00548814
0.00540751
0.00585149
0.00560577
0.00538411
0.00544058
0.00530744
0.00555516
0.00554536
0.00551627
0.00560156
0.0052118
0.00559983
0.0054469
0.00550746
0.00594896
0.0052948
0.00529416
0.00494931
0.00571682
0.00578665
0.00621655
0.00627506
0.0060606
0.00618282
0.0058092
0.0062707
0.0061794
0.00616304
0.00584859
0.00612502
0.00598322
0.00607505
0.00576233
0.00595115
0.00621375
0.00612889
0.00614134
0.00609557
0.00640341
0.00621379
0.00623494
0.00635902
0.00626003
0.0062235
0.0062884
0.00640937
0.00635325
0.00638494
0.00638702
0.00633682
0.00639016
0.00633443
0.00634307
0.00624912
0.00635434
0.00638656
0.00635079
0.00633653
0.00641411
0.00635682
0.00638343
0.00634201
0.00638013
0.0064115
0.00634854
0.00640164
0.00638838
0.00639738
0.00632153
0.00632977
0.0063168
0.00634721
0.00635364
0.00632259
0.00634387
0.00634899
0.00635554
0.00635186
0.00634401
0.00633985
0.00632188
0.00634986
0.00634318
0.00635652
0.00634727
0.00635508
0.00635693
0.0063582
0.00635641
0.00635319
0.00635759
0.00634508
0.00634669
0.00633462
0.00633352
0.00634745
0.00634517
0.00635112
0.00634558
0.0063437
0.00635335
0.0063516
0.00635494
0.00633765
0.00634095
0.00635222
0.00634648
0.00635257
0.00635339
0.00634545
0.00635808
0.00635006
0.00635593
0.00635719
0.00634366
0.00635861
0.00635044
0.00635791
0.00633894
0.00634078
0.00634245
0.00634545
0.00634861
0.00634302
0.00634461
0.00634867
0.0063486
0.00634985
0.00634369
0.00634327
0.00634561
0.00634715
0.00634932
0.00635006
0.00634552
0.00635234
0.00634879
0.00635184
0.00635051
0.00634513
0.00635252
0.00634776
0.00635094
0.00634171
0.00634279
0.00634427
0.00634574
0.00634735
0.00634394
0.00634483
0.00634707
0.00634723
0.00634807
0.00634467
0.00634422
0.00634642
0.00634658
0.00634805
0.00634791
0.00634541
0.00634941
0.00634761
0.0063494
0.00634833
0.00634514
0.00634956
0.00634715
0.0063491
0.00634321
0.00634395
0.00634495
0.00634576
0.0063466
0.00634436
0.0063449
0.00634613
0.00634637
0.00634692
0.00634508
0.00634466
0.00634628
0.00634622
0.00634712
0.00634659
0.00634531
0.0063476
0.00634676
0.00634779
0.00634695
0.00634522
0.00634782
0.00634661
0.00634775
0.00634393
0.00634446
0.00634511
0.00634559
0.00634604
0.00634456
0.00634488
0.00634562
0.00634583
0.00634621
0.00634511
0.00634489
0.00634594
0.0063459
0.00634642
0.00634582
0.00634522
0.00634653
0.00634617
0.00634676
0.00634608
0.00634522
0.00634673
0.00634614
0.00634681
0.00634426
0.00634463
0.00634506
0.00634537
0.00634561
0.00634464
0.00634485
0.00634532
0.00634549
0.00634573
0.00634501
0.00634497
0.00634557
0.00634558
0.0063459
0.00634537
0.00634512
0.00634588
0.00634573
0.00634608
0.00634554
0.00634515
0.00634601
0.00634576
0.00634614
0.00634442
0.00634467
0.00634495
0.00634515
0.0063453
0.00634465
0.00634481
0.00634511
0.00634524
0.00634539
0.00634489
0.00634493
0.00634528
0.00634533
0.00634551
0.00634509
0.00634501
0.00634546
0.00634542
0.00634562
0.0063452
0.00634504
0.00634554
0.00634546
0.00634568
0.00634448
0.00634466
0.00634485
0.00634498
0.00634507
0.00634464
0.00634476
0.00634495
0.00634505
0.00634514
0.00634479
0.00634485
0.00634507
0.00634513
0.00634523
0.0063449
0.00634491
0.00634518
0.00634519
0.0063453
0.00634498
0.00634494
0.00634523
0.00634522
0.00634534
0.0063445
0.00634463
0.00634476
0.00634485
0.00634491
0.00634461
0.00634471
0.00634483
0.00634491
0.00634497
0.00634471
0.00634478
0.00634491
0.00634496
0.00634502
0.00634478
0.00634482
0.00634498
0.00634501
0.00634508
0.00634483
0.00634484
0.00634501
0.00634503
0.00634511
0.00634451
0.0063446
0.00634469
0.00634475
0.00634479
0.00634458
0.00634466
0.00634474
0.0063448
0.00634483
0.00634465
0.00634471
0.00634479
0.00634484
0.00634488
0.0063447
0.00634475
0.00634484
0.00634487
0.00634491
0.00634473
0.00634476
0.00634487
0.00634489
0.00634493
0.0063445
0.00634457
0.00634463
0.00634468
0.0063447
0.00634456
0.00634461
0.00634467
0.00634471
0.00634474
0.0063446
0.00634465
0.00634471
0.00634475
0.00634477
0.00634464
0.00634468
0.00634474
0.00634477
0.00634479
0.00634466
0.00634469
0.00634476
0.00634478
0.00634481
0.0063445
0.00634455
0.00634459
0.00634462
0.00634464
0.00634454
0.00634458
0.00634462
0.00634465
0.00634467
0.00634457
0.00634461
0.00634465
0.00634467
0.00634469
0.00634459
0.00634463
0.00634467
0.00634469
0.00634471
0.00634461
0.00634464
0.00634468
0.0063447
0.00634472
0.00634449
0.00634453
0.00634456
0.00634458
0.00634459
0.00634452
0.00634455
0.00634458
0.0063446
0.00634461
0.00634454
0.00634457
0.0063446
0.00634462
0.00634463
0.00634456
0.00634459
0.00634462
0.00634463
0.00634465
0.00634457
0.0063446
0.00634462
0.00634464
0.00634465
0.00634449
0.00634451
0.00634453
0.00634455
0.00634456
0.00634451
0.00634453
0.00634455
0.00634457
0.00634458
0.00634452
0.00634455
0.00634457
0.00634458
0.00634459
0.00634454
0.00634456
0.00634458
0.00634459
0.0063446
0.00634454
0.00634456
0.00634458
0.0063446
0.0063446
0.00634448
0.0063445
0.00634452
0.00634453
0.00634454
0.0063445
0.00634451
0.00634453
0.00634454
0.00634455
0.00634451
0.00634453
0.00634454
0.00634455
0.00634456
0.00634452
0.00634454
0.00634455
0.00634456
0.00634457
0.00634452
0.00634454
0.00634455
0.00634456
0.00634457
0.00634448
0.00634449
0.0063445
0.00634451
0.00634452
0.00634449
0.0063445
0.00634451
0.00634452
0.00634453
0.0063445
0.00634451
0.00634452
0.00634453
0.00634453
0.00634451
0.00634452
0.00634453
0.00634454
0.00634454
0.00634451
0.00634452
0.00634453
0.00634454
0.00634454
0.00634448
0.00634449
0.00634449
0.0063445
0.0063445
0.00634448
0.00634449
0.0063445
0.00634451
0.00634451
0.00634449
0.0063445
0.00634451
0.00634451
0.00634452
0.0063445
0.0063445
0.00634451
0.00634452
0.00634452
0.0063445
0.00634451
0.00634451
0.00634452
0.00634452
0.00634447
0.00634448
0.00634449
0.00634449
0.00634449
0.00634448
0.00634449
0.00634449
0.0063445
0.0063445
0.00634448
0.00634449
0.0063445
0.0063445
0.0063445
0.00634449
0.0063445
0.0063445
0.00634451
0.00634451
0.00634449
0.0063445
0.0063445
0.00634451
0.00634451
0.00634447
0.00634448
0.00634448
0.00634449
0.00634449
0.00634448
0.00634448
0.00634449
0.00634449
0.00634449
0.00634448
0.00634449
0.00634449
0.00634449
0.00634449
0.00634448
0.00634449
0.00634449
0.0063445
0.0063445
0.00634448
0.00634449
0.00634449
0.0063445
0.0063445
0.00634447
0.00634447
0.00634448
0.00634448
0.00634448
0.00634447
0.00634448
0.00634448
0.00634448
0.00634449
0.00634448
0.00634448
0.00634448
0.00634449
0.00634449
0.00634448
0.00634448
0.00634449
0.00634449
0.00634449
0.00634448
0.00634448
0.00634449
0.00634449
0.00634449
0.00634447
0.00634447
0.00634448
0.00634448
0.00634448
0.00634447
0.00634448
0.00634448
0.00634448
0.00634448
0.00634447
0.00634448
0.00634448
0.00634448
0.00634448
0.00634448
0.00634448
0.00634448
0.00634448
0.00634448
0.00634448
0.00634448
0.00634448
0.00634448
0.00634448
0.00634447
0.00634447
0.00634447
0.00634448
0.00634448
0.00634447
0.00634447
0.00634448
0.00634448
0.00634448
0.00634447
0.00634447
0.00634448
0.00634448
0.00634448
0.00634447
0.00634448
0.00634448
0.00634448
0.00634448
0.00634447
0.00634448
0.00634448
0.00634448
0.00634448
0.00634447
0.00634447
0.00634447
0.00634447
0.00634447
0.00634447
0.00634447
0.00634447
0.00634447
0.00634448
0.00634447
0.00634447
0.00634447
0.00634448
0.00634448
0.00634447
0.00634447
0.00634448
0.00634448
0.00634448
0.00634447
0.00634447
0.00634448
0.00634448
0.00634448
0.00634447
0.00634447
0.00634447
0.00634447
0.00634447
0.00634447
0.00634447
0.00634447
0.00634447
0.00634447
0.00634447
0.00634447
0.00634447
0.00634447
0.00634447
0.00634447
0.00634447
0.00634447
0.00634447
0.00634447
0.00634447
0.00634447
0.00634447
0.00634447
0.00634447
0.00634447
0.00634447
0.00634447
0.00634447
0.00634447
0.00634447
0.00634447
0.00634447
0.00634447
0.00634447
0.00634447
0.00634447
0.00634447
0.00634447
0.00634447
0.00634447
0.00634447
0.00634447
0.00634447
0.00634447
0.00634447
0.00634447
0.00634447
0.00634447
0.00634447
0.00634447
0.00634447
0.00634447
0.00634447
0.00634447
0.00634447
0.00634447
0.00634447
0.00634447
0.00634447
0.00634447
0.00634447
0.00634447
0.00634447
0.00634447
0.00634447
0.00634447
0.00634447
0.00634447
0.00634447
0.00634447
0.00634447
0.00634447
0.00634447
0.00634447
0.00634447
0.00634447
0.00634447
0.00634447
0.00634447
0.00634447
0.00634447
0.00634447
0.00634447
0.00634447
0.00634447
0.00634447
0.00634447
0.00634447
0.00634447
0.00634447
0.00634447
0.00634447
0.00634447
0.00634447
0.00634447
0.00634447
0.00634447
0.00634447
0.00634447
0.00634447
0.00634447
0.00634447
0.00634447
0.00634447
0.00634447
0.00634447
0.00634447
0.00634447
0.00634447
0.00634447
0.00634447
0.00634447
0.00634447
0.00634447
0.00634447
0.00634447
0.00634447
0.00634447
0.00634447
0.00634447
0.00634447
0.00634447
0.00634447
0.00634447
0.00634447
0.00634447
0.00634447
0.00634447
0.00634447
0.00634447
0.00634447
0.00634447
0.00634447
0.00634447
0.00634447
0.00634447
0.00634447
0.00634447
0.00634447
0.00634447
0.00634447
0.00634447
0.00634447
0.00634447
0.00634447
0.00634447
0.00634447
0.00634447
0.00634447
0.00634447
0.00634447
0.00634447
0.00634447
0.00634447
0.00634447
0.00634447
0.00634447
0.00634447
0.00634447
0.00634447
0.00634447
0.00634447
0.00634447
0.00634447
0.00634447
0.00634447
0.00634447
0.00634447
0.00634447
0.00634447
0.00634447
0.00634447
0.00634447
0.00634447
0.00634447
0.00634447
0.00634447
0.00634447
0.00634447
0.00634447
0.00634447
0.00634447
0.00634447
0.00634447
0.00634447
0.00634447
0.00634447
0.00634447
0.00634447
0.00634447
0.00634447
0.00634447
0.00634447
0.00634447
0.00634447
0.00634447
0.00634447
0.00634447
0.00634447
0.00634447
0.00634447
0.00634447
0.00634447
0.00634447
0.00634447
0.00634447
0.00634447
0.00634447
0.00634447
0.00634447
0.00634447
0.00634447
0.00634447
0.00634447
0.00634447
0.00634447
0.00634447
0.00634447
0.00634447
0.00634447
0.00634447
0.00634447
0.00634447
0.00634447
0.00634447
0.00634447
0.00634447
0.00634447
0.00634447
0.00634447
0.00634447
0.00634447
0.00634447
0.00634447
0.00634447
0.00634447
0.00634447
0.00634447
0.00634447
0.00634447
0.00634447
0.00634447
0.00634447
0.00634447
0.00634447
0.00634447
0.00634447
0.00634447
0.00634447
0.00634447
0.00634447
0.00634447
0.00634447
0.00634447
0.00634447
0.00634447
0.00634447
0.00634447
0.00634447
0.00634447
0.00634447
0.00634447
0.00634447
0.00634447
0.00634447
0.00634447
0.00634447
0.00634447
0.00634447
0.00634447
0.00634447
0.00634447
0.00634447
0.00634447
0.00634447
0.00634447
0.00634447
0.00634447
0.00634447
0.00634447
0.00634447
0.00634447
0.00634447
0.00634447
0.00634447
0.00634447
0.00634447
0.00634447
0.00634447
0.00634446
0.00634447
0.00634447
0.00634447
0.00634447
0.00634446
0.00634446
0.00634446
0.00634447
0.00634447
0.00634447
0.00634447
0.00634447
0.00634447
0.00634447
0.00634446
0.00634446
0.00634446
0.00634446
0.00634446
0.00634446
0.00634446
0.00634446
0.00634446
0.00634446
0.00634446
0.00634446
0.00634446
0.00634446
0.00634446
0.00634446
0.00634446
0.00634446
0.00634446
0.00634446
0.00634446
0.00634446
0.00634446
0.00634446
0.00634446
0.00634446
0.00634446
0.00634446
0.00634446
0.00634446
0.00634446
0.00634446
0.00634446
0.00634446
0.00634446
0.00634446
0.00634446
0.00634446
0.00634446
0.00634446
0.00634446
0.00634446
0.00634446
0.00634446
0.00634446
)
;

boundaryField
{
    inlet
    {
        type            zeroGradient;
    }
    outlet
    {
        type            fixedValue;
        value           uniform 0;
    }
    repeat_boundary
    {
        type            zeroGradient;
    }
    procBoundary3to1
    {
        type            processor;
        value           nonuniform List<scalar> 
450
(
-4.20491e-10
-3.98564e-10
-4.05523e-10
-4.05347e-10
-3.95984e-10
-1.29182e-09
-1.15525e-09
-1.13068e-09
-1.10769e-09
-1.07276e-09
-2.17253e-09
-1.87071e-09
-1.72776e-09
-1.6371e-09
-1.56754e-09
-2.78411e-09
-2.41332e-09
-2.16777e-09
-2.00573e-09
-1.90674e-09
-2.94067e-09
-2.6528e-09
-2.40898e-09
-2.22924e-09
-2.12276e-09
-2.76454e-09
-2.64582e-09
-2.481e-09
-2.33707e-09
-2.24752e-09
-2.48792e-09
-2.58465e-09
-2.51359e-09
-2.41719e-09
-2.35221e-09
-2.23491e-09
-2.59892e-09
-2.63004e-09
-2.5723e-09
-2.52769e-09
-2.15122e-09
-2.74559e-09
-2.88357e-09
-2.86433e-09
-2.84585e-09
-2.39379e-09
-3.06845e-09
-3.28691e-09
-3.32931e-09
-3.36483e-09
-2.96845e-09
-3.57415e-09
-3.86176e-09
-4.02291e-09
-4.1515e-09
-3.66629e-09
-4.25188e-09
-4.69056e-09
-5.05053e-09
-5.3012e-09
-4.32128e-09
-5.14429e-09
-5.90253e-09
-6.53755e-09
-6.92234e-09
-5.0667e-09
-6.33754e-09
-7.56937e-09
-8.53484e-09
-9.05752e-09
-6.10406e-09
-7.90235e-09
-9.66986e-09
-1.09877e-08
-1.16491e-08
-7.38656e-09
-9.83579e-09
-1.21494e-08
-1.38211e-08
-1.46306e-08
-8.7261e-09
-1.20363e-08
-1.49748e-08
-1.70556e-08
-1.8071e-08
-9.96644e-09
-1.44365e-08
-1.82474e-08
-2.09313e-08
-2.22971e-08
-1.11852e-08
-1.72256e-08
-2.23205e-08
-2.59522e-08
-2.78692e-08
-1.28023e-08
-2.08714e-08
-2.77611e-08
-3.27644e-08
-3.54194e-08
-1.50027e-08
-2.58714e-08
-3.52266e-08
-4.20692e-08
-4.56507e-08
-1.75386e-08
-3.25597e-08
-4.5366e-08
-5.46835e-08
-5.95203e-08
-2.05404e-08
-4.13272e-08
-5.89325e-08
-7.17014e-08
-7.8374e-08
-2.4501e-08
-5.29779e-08
-7.71827e-08
-9.4789e-08
-1.04096e-07
-2.97506e-08
-6.87684e-08
-1.02085e-07
-1.26411e-07
-1.39327e-07
-3.67852e-08
-9.03153e-08
-1.36206e-07
-1.69852e-07
-1.87664e-07
-4.62189e-08
-1.19601e-07
-1.82787e-07
-2.29327e-07
-2.53911e-07
-5.8335e-08
-1.58951e-07
-2.46039e-07
-3.10399e-07
-3.44494e-07
-7.27567e-08
-2.10808e-07
-3.31255e-07
-4.20514e-07
-4.68027e-07
-8.72666e-08
-2.77273e-07
-4.44765e-07
-5.69451e-07
-6.36147e-07
-9.61545e-08
-3.59234e-07
-5.93903e-07
-7.69706e-07
-8.64701e-07
-8.81356e-08
-4.54249e-07
-7.86296e-07
-1.03655e-06
-1.17509e-06
-3.91623e-08
-5.50154e-07
-1.02625e-06
-1.38496e-06
-1.59615e-06
1.05413e-07
-6.04991e-07
-1.30242e-06
-1.81172e-06
-2.17022e-06
4.61944e-07
-4.8953e-07