/*--------------------------------*- C++ -*----------------------------------*\
| =========                 |                                                 |
| \\      /  F ield         | OpenFOAM: The Open Source CFD Toolbox           |
|  \\    /   O peration     | Version:  5.x                                   |
|   \\  /    A nd           | Web:      www.OpenFOAM.org                      |
|    \\/     M anipulation  |                                                 |
\*---------------------------------------------------------------------------*/
FoamFile
{
    version     2.0;
    format      ascii;
    class       volVectorField;
    location    "0.04";
    object      stored_U;
}
// * * * * * * * * * * * * * * * * * * * * * * * * * * * * * * * * * * * * * //

dimensions      [0 1 -1 0 0 0 0];

internalField   nonuniform List<vector> 
2250
(
(-1.01912e-10 -1.21888e-10 -0.001)
(-1.06367e-10 -1.32538e-10 -0.001)
(-8.09987e-11 -1.2779e-10 -0.001)
(-5.23374e-11 -1.23869e-10 -0.001)
(-1.74874e-11 -1.21456e-10 -0.001)
(-1.15579e-10 -1.04962e-10 -0.001)
(-9.32182e-11 -9.48237e-11 -0.001)
(-7.76074e-11 -9.34937e-11 -0.001)
(-4.94852e-11 -9.21812e-11 -0.001)
(-1.58977e-11 -9.0461e-11 -0.001)
(-1.15663e-10 -6.65457e-11 -0.001)
(-9.48722e-11 -6.91866e-11 -0.001)
(-7.83489e-11 -7.1028e-11 -0.001)
(-4.95266e-11 -7.11312e-11 -0.001)
(-1.59921e-11 -7.16993e-11 -0.001)
(-1.15646e-10 -3.7808e-11 -0.001)
(-9.76786e-11 -4.07331e-11 -0.001)
(-7.95527e-11 -4.26574e-11 -0.001)
(-5.03256e-11 -4.3288e-11 -0.001)
(-1.66232e-11 -4.45605e-11 -0.001)
(-1.165e-10 -1.17891e-11 -0.001)
(-9.94639e-11 -1.29406e-11 -0.001)
(-8.0716e-11 -1.38182e-11 -0.001)
(-5.14168e-11 -1.42819e-11 -0.001)
(-1.73138e-11 -1.49772e-11 -0.001)
(-2.50233e-10 -2.9643e-10 -0.001)
(-3.74105e-10 -3.84399e-10 -0.001)
(-2.45219e-10 -3.79822e-10 -0.001)
(-1.46743e-10 -3.70229e-10 -0.001)
(-4.61649e-11 -3.64373e-10 -0.001)
(-3.42259e-10 -3.71268e-10 -0.001)
(-2.87932e-10 -2.93823e-10 -0.001)
(-2.25472e-10 -2.80177e-10 -0.001)
(-1.3827e-10 -2.75458e-10 -0.001)
(-4.30658e-11 -2.73647e-10 -0.001)
(-3.48943e-10 -2.14084e-10 -0.001)
(-2.83066e-10 -2.1065e-10 -0.001)
(-2.26902e-10 -2.14617e-10 -0.001)
(-1.40798e-10 -2.16935e-10 -0.001)
(-4.49036e-11 -2.21364e-10 -0.001)
(-3.48876e-10 -1.19848e-10 -0.001)
(-2.88477e-10 -1.24969e-10 -0.001)
(-2.31761e-10 -1.31208e-10 -0.001)
(-1.45455e-10 -1.3491e-10 -0.001)
(-4.78939e-11 -1.40115e-10 -0.001)
(-3.50281e-10 -3.71564e-11 -0.001)
(-2.93776e-10 -4.00503e-11 -0.001)
(-2.36367e-10 -4.30581e-11 -0.001)
(-1.49685e-10 -4.50987e-11 -0.001)
(-5.0252e-11 -4.7463e-11 -0.001)
(-3.93843e-10 -4.52321e-10 -0.001)
(-7.73251e-10 -6.58047e-10 -0.001)
(-4.80399e-10 -6.85789e-10 -0.001)
(-2.78186e-10 -6.8664e-10 -0.001)
(-8.65462e-11 -6.84302e-10 -0.001)
(-6.02585e-10 -7.80717e-10 -0.001)
(-5.81724e-10 -5.97987e-10 -0.001)
(-4.33229e-10 -5.59088e-10 -0.001)
(-2.62506e-10 -5.46084e-10 -0.001)
(-8.32786e-11 -5.44691e-10 -0.001)
(-6.40074e-10 -4.62042e-10 -0.001)
(-5.51611e-10 -4.30771e-10 -0.001)
(-4.28543e-10 -4.2814e-10 -0.001)
(-2.64891e-10 -4.29556e-10 -0.001)
(-8.61597e-11 -4.35824e-10 -0.001)
(-6.51039e-10 -2.64627e-10 -0.001)
(-5.47765e-10 -2.61234e-10 -0.001)
(-4.32015e-10 -2.65956e-10 -0.001)
(-2.71021e-10 -2.70713e-10 -0.001)
(-9.03229e-11 -2.77407e-10 -0.001)
(-6.55967e-10 -8.37431e-11 -0.001)
(-5.51832e-10 -8.56645e-11 -0.001)
(-4.37194e-10 -8.88263e-11 -0.001)
(-2.76356e-10 -9.16229e-11 -0.001)
(-9.31789e-11 -9.44722e-11 -0.001)
(-7.99366e-10 -8.69446e-10 -0.001)
(-1.11529e-09 -1.04438e-09 -0.001)
(-7.69728e-10 -1.08727e-09 -0.001)
(-4.63736e-10 -1.10038e-09 -0.001)
(-1.50617e-10 -1.10281e-09 -0.001)
(-9.76706e-10 -1.15534e-09 -0.001)
(-9.53099e-10 -9.97991e-10 -0.001)
(-7.20719e-10 -9.54641e-10 -0.001)
(-4.4597e-10 -9.36464e-10 -0.001)
(-1.47153e-10 -9.32195e-10 -0.001)
(-1.02521e-09 -7.8931e-10 -0.001)
(-9.14593e-10 -7.48114e-10 -0.001)
(-7.08266e-10 -7.36639e-10 -0.001)
(-4.43144e-10 -7.32597e-10 -0.001)
(-1.4812e-10 -7.34915e-10 -0.001)
(-1.04641e-09 -4.75309e-10 -0.001)
(-9.00365e-10 -4.6312e-10 -0.001)
(-7.05203e-10 -4.61612e-10 -0.001)
(-4.45667e-10 -4.63521e-10 -0.001)
(-1.50853e-10 -4.6839e-10 -0.001)
(-1.05539e-09 -1.55282e-10 -0.001)
(-8.99194e-10 -1.54414e-10 -0.001)
(-7.07335e-10 -1.55708e-10 -0.001)
(-4.49955e-10 -1.57823e-10 -0.001)
(-1.53575e-10 -1.60534e-10 -0.001)
(-1.51025e-09 -1.59249e-09 -0.001)
(-1.47458e-09 -1.63239e-09 -0.001)
(-1.12595e-09 -1.64279e-09 -0.001)
(-7.14218e-10 -1.64807e-09 -0.001)
(-2.4203e-10 -1.64729e-09 -0.001)
(-1.55406e-09 -1.55063e-09 -0.001)
(-1.4106e-09 -1.48751e-09 -0.001)
(-1.10312e-09 -1.46762e-09 -0.001)
(-7.00843e-10 -1.45238e-09 -0.001)
(-2.37705e-10 -1.44341e-09 -0.001)
(-1.56986e-09 -1.17839e-09 -0.001)
(-1.39156e-09 -1.15658e-09 -0.001)
(-1.09091e-09 -1.14493e-09 -0.001)
(-6.92914e-10 -1.13561e-09 -0.001)
(-2.35899e-10 -1.13253e-09 -0.001)
(-1.58439e-09 -7.39187e-10 -0.001)
(-1.37705e-09 -7.28694e-10 -0.001)
(-1.08215e-09 -7.23068e-10 -0.001)
(-6.90664e-10 -7.21415e-10 -0.001)
(-2.36817e-10 -7.24854e-10 -0.001)
(-1.59155e-09 -2.4718e-10 -0.001)
(-1.3727e-09 -2.45534e-10 -0.001)
(-1.08151e-09 -2.45469e-10 -0.001)
(-6.94764e-10 -2.46989e-10 -0.001)
(-2.40248e-10 -2.50398e-10 -0.001)
(-2.39263e-09 -2.46088e-09 -0.001)
(-2.06069e-09 -2.41175e-09 -0.001)
(-1.63706e-09 -2.38189e-09 -0.001)
(-1.06018e-09 -2.36819e-09 -0.001)
(-3.65307e-10 -2.358e-09 -0.001)
(-2.35236e-09 -2.13572e-09 -0.001)
(-2.05422e-09 -2.12806e-09 -0.001)
(-1.6285e-09 -2.12373e-09 -0.001)
(-1.0468e-09 -2.11004e-09 -0.001)
(-3.58878e-10 -2.09682e-09 -0.001)
(-2.33012e-09 -1.68602e-09 -0.001)
(-2.04871e-09 -1.67772e-09 -0.001)
(-1.61918e-09 -1.66877e-09 -0.001)
(-1.03751e-09 -1.65735e-09 -0.001)
(-3.56232e-10 -1.65237e-09 -0.001)
(-2.32884e-09 -1.07523e-09 -0.001)
(-2.03684e-09 -1.06815e-09 -0.001)
(-1.60813e-09 -1.06218e-09 -0.001)
(-1.03361e-09 -1.05947e-09 -0.001)
(-3.57066e-10 -1.06379e-09 -0.00100001)
(-2.32821e-09 -3.64146e-10 -0.001)
(-2.03156e-09 -3.62583e-10 -0.001)
(-1.60736e-09 -3.62873e-10 -0.001)
(-1.03918e-09 -3.649e-10 -0.00100001)
(-3.61851e-10 -3.6967e-10 -0.00100001)
(-3.47759e-09 -3.4726e-09 -0.001)
(-2.96458e-09 -3.37664e-09 -0.001)
(-2.38497e-09 -3.33661e-09 -0.001)
(-1.539e-09 -3.31307e-09 -0.001)
(-5.29656e-10 -3.29744e-09 -0.001)
(-3.39283e-09 -2.9732e-09 -0.001)
(-2.98996e-09 -2.99763e-09 -0.001)
(-2.3653e-09 -2.98502e-09 -0.001)
(-1.51917e-09 -2.96631e-09 -0.001)
(-5.21423e-10 -2.95101e-09 -0.00100001)
(-3.36162e-09 -2.38483e-09 -0.001)
(-2.97639e-09 -2.36736e-09 -0.001)
(-2.35382e-09 -2.35535e-09 -0.001)
(-1.51091e-09 -2.34371e-09 -0.00100001)
(-5.20119e-10 -2.33997e-09 -0.00100001)
(-3.34981e-09 -1.52747e-09 -0.001)
(-2.9603e-09 -1.51541e-09 -0.001)
(-2.34165e-09 -1.50892e-09 -0.00100001)
(-1.50833e-09 -1.50703e-09 -0.00100001)
(-5.22128e-10 -1.51246e-09 -0.00100001)
(-3.34111e-09 -5.21003e-10 -0.001)
(-2.95184e-09 -5.17424e-10 -0.001)
(-2.34088e-09 -5.18427e-10 -0.00100001)
(-1.51444e-09 -5.21124e-10 -0.00100001)
(-5.27374e-10 -5.26373e-10 -0.00100001)
(-4.94565e-09 -4.79828e-09 -0.001)
(-4.1974e-09 -4.64159e-09 -0.001)
(-3.39019e-09 -4.59575e-09 -0.001)
(-2.1789e-09 -4.57442e-09 -0.00100001)
(-7.47141e-10 -4.56051e-09 -0.00100001)
(-4.79565e-09 -4.08095e-09 -0.001)
(-4.26402e-09 -4.1469e-09 -0.001)
(-3.37304e-09 -4.1347e-09 -0.00100001)
(-2.16062e-09 -4.11541e-09 -0.00100001)
(-7.41608e-10 -4.10292e-09 -0.00100001)
(-4.75461e-09 -3.31041e-09 -0.001)
(-4.25115e-09 -3.29243e-09 -0.00100001)
(-3.35894e-09 -3.27604e-09 -0.00100001)
(-2.15529e-09 -3.26602e-09 -0.00100001)
(-7.42582e-10 -3.26346e-09 -0.00100001)
(-4.7354e-09 -2.13565e-09 -0.001)
(-4.2294e-09 -2.11542e-09 -0.00100001)
(-3.34662e-09 -2.10718e-09 -0.00100001)
(-2.15438e-09 -2.10602e-09 -0.00100001)
(-7.45259e-10 -2.11046e-09 -0.00100001)
(-4.7196e-09 -7.33212e-10 -0.00100001)
(-4.2142e-09 -7.25918e-10 -0.00100001)
(-3.34305e-09 -7.26288e-10 -0.00100001)
(-2.15847e-09 -7.28706e-10 -0.00100001)
(-7.49588e-10 -7.33066e-10 -0.00100001)
(-6.95433e-09 -6.6179e-09 -0.001)
(-5.81974e-09 -6.37319e-09 -0.001)
(-4.70257e-09 -6.30437e-09 -0.00100001)
(-3.02565e-09 -6.28685e-09 -0.00100001)
(-1.03817e-09 -6.27512e-09 -0.00100001)
(-6.70751e-09 -5.54686e-09 -0.001)
(-5.94652e-09 -5.66937e-09 -0.00100001)
(-4.71719e-09 -5.68302e-09 -0.00100001)
(-3.0255e-09 -5.67652e-09 -0.00100001)
(-1.04075e-09 -5.6708e-09 -0.00100001)
(-6.63531e-09 -4.52842e-09 -0.00100001)
(-5.9559e-09 -4.52935e-09 -0.00100001)
(-4.71005e-09 -4.51815e-09 -0.00100001)
(-3.02469e-09 -4.51232e-09 -0.00100001)
(-1.04337e-09 -4.50845e-09 -0.00100001)
(-6.6043e-09 -2.94052e-09 -0.00100001)
(-5.93592e-09 -2.91808e-09 -0.00100001)
(-4.70015e-09 -2.9097e-09 -0.00100001)
(-3.02457e-09 -2.90958e-09 -0.00100001)
(-1.0455e-09 -2.9111e-09 -0.00100001)
(-6.57999e-09 -1.01447e-09 -0.00100001)
(-5.91333e-09 -1.00419e-09 -0.00100001)
(-4.69244e-09 -1.0033e-09 -0.00100001)
(-3.02587e-09 -1.00543e-09 -0.00100001)
(-1.04843e-09 -1.00844e-09 -0.00100001)
(-9.55541e-09 -9.00454e-09 -0.001)
(-8.05584e-09 -8.72565e-09 -0.00100001)
(-6.46875e-09 -8.6344e-09 -0.00100001)
(-4.17174e-09 -8.61478e-09 -0.00100001)
(-1.43619e-09 -8.59789e-09 -0.00100001)
(-9.26647e-09 -7.60559e-09 -0.00100001)
(-8.19886e-09 -7.73753e-09 -0.00100001)
(-6.51577e-09 -7.77947e-09 -0.00100001)
(-4.19207e-09 -7.7902e-09 -0.00100001)
(-1.44619e-09 -7.78827e-09 -0.00100001)
(-9.16446e-09 -6.16974e-09 -0.00100001)
(-8.22972e-09 -6.1879e-09 -0.00100001)
(-6.52187e-09 -6.18962e-09 -0.00100001)
(-4.19603e-09 -6.19006e-09 -0.00100001)
(-1.44929e-09 -6.1826e-09 -0.00100002)
(-9.12156e-09 -4.00536e-09 -0.00100001)
(-8.21828e-09 -3.98857e-09 -0.00100001)
(-6.51793e-09 -3.9848e-09 -0.00100001)
(-4.19711e-09 -3.98766e-09 -0.00100002)
(-1.45059e-09 -3.98592e-09 -0.00100002)
(-9.08882e-09 -1.38295e-09 -0.00100001)
(-8.19296e-09 -1.37362e-09 -0.00100001)
(-6.50828e-09 -1.37336e-09 -0.00100002)
(-4.19674e-09 -1.37644e-09 -0.00100002)
(-1.45238e-09 -1.37838e-09 -0.00100002)
(-1.28769e-08 -1.20758e-08 -0.001)
(-1.11934e-08 -1.18758e-08 -0.00100001)
(-8.90572e-09 -1.17864e-08 -0.00100001)
(-5.74852e-09 -1.17609e-08 -0.00100001)
(-1.98371e-09 -1.17321e-08 -0.00100001)
(-1.26654e-08 -1.05153e-08 -0.00100001)
(-1.12663e-08 -1.05738e-08 -0.00100001)
(-8.9533e-09 -1.06204e-08 -0.00100001)
(-5.77235e-09 -1.06369e-08 -0.00100002)
(-1.99438e-09 -1.06298e-08 -0.00100002)
(-1.25651e-08 -8.40879e-09 -0.00100001)
(-1.12984e-08 -8.42577e-09 -0.00100001)
(-8.96951e-09 -8.43922e-09 -0.00100002)
(-5.77911e-09 -8.44475e-09 -0.00100002)
(-1.99712e-09 -8.43212e-09 -0.00100002)
(-1.25223e-08 -5.43296e-09 -0.00100001)
(-1.12961e-08 -5.42742e-09 -0.00100002)
(-8.97227e-09 -5.43092e-09 -0.00100002)
(-5.7817e-09 -5.43655e-09 -0.00100002)
(-1.99793e-09 -5.43079e-09 -0.00100002)
(-1.24851e-08 -1.87258e-09 -0.00100001)
(-1.1274e-08 -1.86996e-09 -0.00100002)
(-8.96115e-09 -1.8722e-09 -0.00100002)
(-5.77829e-09 -1.87604e-09 -0.00100002)
(-1.99788e-09 -1.87624e-09 -0.00100002)
(-1.73671e-08 -1.62368e-08 -0.00100001)
(-1.54334e-08 -1.61073e-08 -0.00100001)
(-1.22649e-08 -1.60378e-08 -0.00100002)
(-7.91209e-09 -1.60048e-08 -0.00100002)
(-2.73202e-09 -1.5962e-08 -0.00100002)
(-1.72324e-08 -1.44283e-08 -0.00100001)
(-1.54582e-08 -1.44442e-08 -0.00100002)
(-1.2283e-08 -1.44675e-08 -0.00100002)
(-7.91987e-09 -1.44723e-08 -0.00100002)
(-2.73606e-09 -1.44487e-08 -0.00100003)
(-1.71601e-08 -1.14659e-08 -0.00100001)
(-1.54726e-08 -1.1471e-08 -0.00100002)
(-1.22938e-08 -1.14814e-08 -0.00100002)
(-7.92204e-09 -1.14835e-08 -0.00100003)
(-2.73631e-09 -1.14613e-08 -0.00100003)
(-1.71267e-08 -7.37836e-09 -0.00100002)
(-1.54729e-08 -7.38317e-09 -0.00100002)
(-1.22956e-08 -7.38713e-09 -0.00100003)
(-7.92212e-09 -7.3892e-09 -0.00100003)
(-2.73575e-09 -7.37575e-09 -0.00100003)
(-1.70846e-08 -2.54032e-09 -0.00100002)
(-1.54507e-08 -2.54553e-09 -0.00100002)
(-1.22759e-08 -2.548e-09 -0.00100003)
(-7.9096e-09 -2.54943e-09 -0.00100003)
(-2.73165e-09 -2.5457e-09 -0.00100003)
(-2.36258e-08 -2.20381e-08 -0.00100001)
(-2.11512e-08 -2.18836e-08 -0.00100001)
(-1.68309e-08 -2.18024e-08 -0.00100002)
(-1.08507e-08 -2.17485e-08 -0.00100003)
(-3.74526e-09 -2.16848e-08 -0.00100003)
(-2.34749e-08 -1.96866e-08 -0.00100001)
(-2.11484e-08 -1.96854e-08 -0.00100002)
(-1.68138e-08 -1.96752e-08 -0.00100003)
(-1.0832e-08 -1.96539e-08 -0.00100003)
(-3.73836e-09 -1.96035e-08 -0.00100003)
(-2.34002e-08 -1.56254e-08 -0.00100002)
(-2.11398e-08 -1.56195e-08 -0.00100003)
(-1.68005e-08 -1.56082e-08 -0.00100003)
(-1.08179e-08 -1.55931e-08 -0.00100004)
(-3.73267e-09 -1.5553e-08 -0.00100004)
(-2.33597e-08 -1.00437e-08 -0.00100002)
(-2.113e-08 -1.00483e-08 -0.00100003)
(-1.67873e-08 -1.00395e-08 -0.00100004)
(-1.08071e-08 -1.00283e-08 -0.00100004)
(-3.72805e-09 -1.00009e-08 -0.00100004)
(-2.32993e-08 -3.4586e-09 -0.00100003)
(-2.10936e-08 -3.46537e-09 -0.00100003)
(-1.67479e-08 -3.46302e-09 -0.00100004)
(-1.07778e-08 -3.45806e-09 -0.00100004)
(-3.71716e-09 -3.4477e-09 -0.00100005)
(-3.22316e-08 -3.0023e-08 -0.00100001)
(-2.89314e-08 -2.97942e-08 -0.00100002)
(-2.3012e-08 -2.96505e-08 -0.00100003)
(-1.48162e-08 -2.95506e-08 -0.00100003)
(-5.10832e-09 -2.94502e-08 -0.00100004)
(-3.20096e-08 -2.68628e-08 -0.00100002)
(-2.88575e-08 -2.6799e-08 -0.00100003)
(-2.2942e-08 -2.67329e-08 -0.00100004)
(-1.47644e-08 -2.66724e-08 -0.00100004)
(-5.08959e-09 -2.65876e-08 -0.00100005)
(-3.18777e-08 -2.13019e-08 -0.00100003)
(-2.88015e-08 -2.12613e-08 -0.00100004)
(-2.28869e-08 -2.121e-08 -0.00100005)
(-1.47238e-08 -2.11644e-08 -0.00100005)
(-5.07491e-09 -2.1097e-08 -0.00100005)
(-3.17941e-08 -1.36876e-08 -0.00100003)
(-2.8764e-08 -1.36719e-08 -0.00100004)
(-2.28451e-08 -1.36378e-08 -0.00100005)
(-1.46925e-08 -1.36049e-08 -0.00100006)
(-5.06263e-09 -1.35571e-08 -0.00100006)
(-3.16932e-08 -4.71546e-09 -0.00100004)
(-2.86946e-08 -4.71359e-09 -0.00100005)
(-2.27755e-08 -4.70164e-09 -0.00100005)
(-1.46409e-08 -4.68773e-09 -0.00100006)
(-5.04321e-09 -4.66905e-09 -0.00100006)
(-4.37934e-08 -4.07753e-08 -0.00100001)
(-3.95615e-08 -4.05313e-08 -0.00100003)
(-3.13923e-08 -4.03151e-08 -0.00100004)
(-2.01755e-08 -4.01564e-08 -0.00100005)
(-6.94629e-09 -4.00042e-08 -0.00100005)
(-4.3553e-08 -3.67337e-08 -0.00100003)
(-3.93129e-08 -3.64987e-08 -0.00100004)
(-3.12253e-08 -3.63293e-08 -0.00100005)
(-2.00745e-08 -3.62069e-08 -0.00100006)
(-6.9133e-09 -3.6076e-08 -0.00100006)
(-4.33494e-08 -2.90741e-08 -0.00100004)
(-3.9157e-08 -2.89423e-08 -0.00100005)
(-3.11027e-08 -2.88241e-08 -0.00100006)
(-1.99941e-08 -2.87325e-08 -0.00100007)
(-6.88518e-09 -2.86262e-08 -0.00100007)
(-4.31991e-08 -1.86702e-08 -0.00100004)
(-3.90607e-08 -1.86003e-08 -0.00100006)
(-3.10155e-08 -1.85259e-08 -0.00100007)
(-1.99325e-08 -1.84627e-08 -0.00100008)
(-6.86202e-09 -1.83891e-08 -0.00100008)
(-4.30403e-08 -6.43246e-09 -0.00100005)
(-3.89351e-08 -6.40896e-09 -0.00100006)
(-3.09046e-08 -6.38243e-09 -0.00100007)
(-1.98543e-08 -6.35757e-09 -0.00100008)
(-6.83369e-09 -6.33024e-09 -0.00100009)
(-5.94552e-08 -5.54003e-08 -0.00100002)
(-5.38881e-08 -5.50924e-08 -0.00100004)
(-4.27322e-08 -5.47932e-08 -0.00100005)
(-2.74383e-08 -5.45652e-08 -0.00100006)
(-9.439e-09 -5.43445e-08 -0.00100007)
(-5.91469e-08 -5.01134e-08 -0.00100004)
(-5.34628e-08 -4.97006e-08 -0.00100005)
(-4.24326e-08 -4.93915e-08 -0.00100007)
(-2.72615e-08 -4.91769e-08 -0.00100008)
(-9.38245e-09 -4.89764e-08 -0.00100009)
(-5.88576e-08 -3.96659e-08 -0.00100005)
(-5.31662e-08 -3.93974e-08 -0.00100007)
(-4.22113e-08 -3.91809e-08 -0.00100008)
(-2.7121e-08 -3.9021e-08 -0.00100009)
(-9.33369e-09 -3.88604e-08 -0.0010001)
(-5.86257e-08 -2.54651e-08 -0.00100006)
(-5.29748e-08 -2.53083e-08 -0.00100008)
(-4.20562e-08 -2.51732e-08 -0.00100009)
(-2.70172e-08 -2.50669e-08 -0.0010001)
(-9.29696e-09 -2.49607e-08 -0.00100011)
(-5.83972e-08 -8.77153e-09 -0.00100007)
(-5.27689e-08 -8.71645e-09 -0.00100008)
(-4.18878e-08 -8.66831e-09 -0.0010001)
(-2.69046e-08 -8.62906e-09 -0.00100011)
(-9.25757e-09 -8.59099e-09 -0.00100012)
(-8.09027e-08 -7.55007e-08 -0.00100003)
(-7.31446e-08 -7.49397e-08 -0.00100005)
(-5.80634e-08 -7.44735e-08 -0.00100007)
(-3.72893e-08 -7.41324e-08 -0.00100009)
(-1.28261e-08 -7.38119e-08 -0.00100009)
(-8.03401e-08 -6.81524e-08 -0.00100005)
(-7.25955e-08 -6.76129e-08 -0.00100007)
(-5.76161e-08 -6.71475e-08 -0.00100009)
(-3.70088e-08 -6.68063e-08 -0.00100011)
(-1.27338e-08 -6.65064e-08 -0.00100012)
(-7.98787e-08 -5.40294e-08 -0.00100007)
(-7.21397e-08 -5.36067e-08 -0.00100009)
(-5.72608e-08 -5.32571e-08 -0.00100011)
(-3.67814e-08 -5.29981e-08 -0.00100013)
(-1.26559e-08 -5.27626e-08 -0.00100014)
(-7.95266e-08 -3.46966e-08 -0.00100008)
(-7.18192e-08 -3.44305e-08 -0.00100011)
(-5.70075e-08 -3.42072e-08 -0.00100013)
(-3.6618e-08 -3.40395e-08 -0.00100014)
(-1.26005e-08 -3.38866e-08 -0.00100015)
(-7.92012e-08 -1.19483e-08 -0.00100009)
(-7.15072e-08 -1.18554e-08 -0.00100011)
(-5.67582e-08 -1.17758e-08 -0.00100013)
(-3.64557e-08 -1.17161e-08 -0.00100015)
(-1.25439e-08 -1.16614e-08 -0.00100016)
(-1.10185e-07 -1.02978e-07 -0.00100004)
(-9.92683e-08 -1.01987e-07 -0.00100007)
(-7.88654e-08 -1.01223e-07 -0.0010001)
(-5.06676e-08 -1.00686e-07 -0.00100012)
(-1.74302e-08 -1.00213e-07 -0.00100013)
(-1.0919e-07 -9.26374e-08 -0.00100007)
(-9.85429e-08 -9.1918e-08 -0.0010001)
(-7.82276e-08 -9.12455e-08 -0.00100013)
(-5.02509e-08 -9.07325e-08 -0.00100015)
(-1.72904e-08 -9.02982e-08 -0.00100016)
(-1.08425e-07 -7.35221e-08 -0.00100009)
(-9.78764e-08 -7.28999e-08 -0.00100013)
(-7.76852e-08 -7.23623e-08 -0.00100015)
(-4.99017e-08 -7.19623e-08 -0.00100017)
(-1.71726e-08 -7.16206e-08 -0.00100018)
(-1.07876e-07 -4.72263e-08 -0.00100011)
(-9.73778e-08 -4.6816e-08 -0.00100015)
(-7.72899e-08 -4.64676e-08 -0.00100017)
(-4.96502e-08 -4.62119e-08 -0.00100019)
(-1.70878e-08 -4.599e-08 -0.0010002)
(-1.07392e-07 -1.62577e-08 -0.00100012)
(-9.69232e-08 -1.61147e-08 -0.00100016)
(-7.69293e-08 -1.59928e-08 -0.00100018)
(-4.94173e-08 -1.59038e-08 -0.0010002)
(-1.70066e-08 -1.58249e-08 -0.00100021)
(-1.49943e-07 -1.40256e-07 -0.00100005)
(-1.34955e-07 -1.38737e-07 -0.00100009)
(-1.07201e-07 -1.37537e-07 -0.00100013)
(-6.88767e-08 -1.36691e-07 -0.00100016)
(-2.36984e-08 -1.3599e-07 -0.00100017)
(-1.48413e-07 -1.26043e-07 -0.00100009)
(-1.33836e-07 -1.24923e-07 -0.00100014)
(-1.06258e-07 -1.23914e-07 -0.00100017)
(-6.82657e-08 -1.23154e-07 -0.0010002)
(-2.34926e-08 -1.22531e-07 -0.00100022)
(-1.47206e-07 -1.00025e-07 -0.00100013)
(-1.32826e-07 -9.90806e-08 -0.00100017)
(-1.05439e-07 -9.82618e-08 -0.00100021)
(-6.77408e-08 -9.76571e-08 -0.00100024)
(-2.33163e-08 -9.7161e-08 -0.00100025)
(-1.46346e-07 -6.42345e-08 -0.00100015)
(-1.32065e-07 -6.3615e-08 -0.0010002)
(-1.04835e-07 -6.30867e-08 -0.00100023)
(-6.73569e-08 -6.27014e-08 -0.00100026)
(-2.31859e-08 -6.23799e-08 -0.00100028)
(-1.45619e-07 -2.21018e-08 -0.00100017)
(-1.31414e-07 -2.18887e-08 -0.00100021)
(-1.04319e-07 -2.17082e-08 -0.00100025)
(-6.70248e-08 -2.15763e-08 -0.00100027)
(-2.3071e-08 -2.14646e-08 -0.00100029)
(-2.0388e-07 -1.90747e-07 -0.00100006)
(-1.83739e-07 -1.88582e-07 -0.00100013)
(-1.45878e-07 -1.86779e-07 -0.00100018)
(-9.37185e-08 -1.85476e-07 -0.00100022)
(-3.22511e-08 -1.84441e-07 -0.00100024)
(-2.01696e-07 -1.71609e-07 -0.00100012)
(-1.81902e-07 -1.69762e-07 -0.00100018)
(-1.44423e-07 -1.68191e-07 -0.00100024)
(-9.27954e-08 -1.67043e-07 -0.00100027)
(-3.19394e-08 -1.66134e-07 -0.00100029)
(-1.99878e-07 -1.36082e-07 -0.00100017)
(-1.80321e-07 -1.34602e-07 -0.00100023)
(-1.43169e-07 -1.33344e-07 -0.00100028)
(-9.19986e-08 -1.32426e-07 -0.00100032)
(-3.16701e-08 -1.31699e-07 -0.00100034)
(-1.98557e-07 -8.73467e-08 -0.00100021)
(-1.79154e-07 -8.6398e-08 -0.00100027)
(-1.42246e-07 -8.55936e-08 -0.00100032)
(-9.14123e-08 -8.50084e-08 -0.00100036)
(-3.14709e-08 -8.45409e-08 -0.00100037)
(-1.97482e-07 -3.00438e-08 -0.00100023)
(-1.78207e-07 -2.97211e-08 -0.00100029)
(-1.41498e-07 -2.94486e-08 -0.00100034)
(-9.09331e-08 -2.92504e-08 -0.00100037)
(-3.13062e-08 -2.90901e-08 -0.00100039)
(-2.77263e-07 -2.5934e-07 -0.00100009)
(-2.50249e-07 -2.56179e-07 -0.00100017)
(-1.98664e-07 -2.53485e-07 -0.00100024)
(-1.2764e-07 -2.51505e-07 -0.0010003)
(-4.39339e-08 -2.49992e-07 -0.00100032)
(-2.74087e-07 -2.33571e-07 -0.00100017)
(-2.47342e-07 -2.30646e-07 -0.00100025)
(-1.9639e-07 -2.28188e-07 -0.00100032)
(-1.26202e-07 -2.26415e-07 -0.00100037)
(-4.34441e-08 -2.2506e-07 -0.0010004)
(-2.71361e-07 -1.85097e-07 -0.00100023)
(-2.44867e-07 -1.8278e-07 -0.00100032)
(-1.94446e-07 -1.80828e-07 -0.00100039)
(-1.24969e-07 -1.79414e-07 -0.00100044)
(-4.30251e-08 -1.78338e-07 -0.00100046)
(-2.69351e-07 -1.18763e-07 -0.00100028)
(-2.4306e-07 -1.17286e-07 -0.00100036)
(-1.93025e-07 -1.16042e-07 -0.00100043)
(-1.24068e-07 -1.15141e-07 -0.00100048)
(-4.27196e-08 -1.14452e-07 -0.00100051)
(-2.67784e-07 -4.08459e-08 -0.00100031)
(-2.41655e-07 -4.03431e-08 -0.00100039)
(-1.91918e-07 -3.99205e-08 -0.00100046)
(-1.23361e-07 -3.96151e-08 -0.00100051)
(-4.24771e-08 -3.93788e-08 -0.00100053)
(-3.77441e-07 -3.52864e-07 -0.00100012)
(-3.4073e-07 -3.47959e-07 -0.00100023)
(-2.70597e-07 -3.43819e-07 -0.00100033)
(-1.73908e-07 -3.40781e-07 -0.0010004)
(-5.9875e-08 -3.38554e-07 -0.00100044)
(-3.72527e-07 -3.17602e-07 -0.00100023)
(-3.3631e-07 -3.13165e-07 -0.00100034)
(-2.6709e-07 -3.09377e-07 -0.00100044)
(-1.71669e-07 -3.06631e-07 -0.00100051)
(-5.91058e-08 -3.04602e-07 -0.00100054)
(-3.68324e-07 -2.51592e-07 -0.00100032)
(-3.32505e-07 -2.48033e-07 -0.00100043)
(-2.64081e-07 -2.45015e-07 -0.00100052)
(-1.69755e-07 -2.42826e-07 -0.00100059)
(-5.84536e-08 -2.4122e-07 -0.00100063)
(-3.65236e-07 -1.61388e-07 -0.00100038)
(-3.29715e-07 -1.59103e-07 -0.00100049)
(-2.61882e-07 -1.57172e-07 -0.00100059)
(-1.68358e-07 -1.55774e-07 -0.00100065)
(-5.79784e-08 -1.54746e-07 -0.00100069)
(-3.6293e-07 -5.5503e-08 -0.00100042)
(-3.2762e-07 -5.47212e-08 -0.00100053)
(-2.60231e-07 -5.40623e-08 -0.00100062)
(-1.67304e-07 -5.35861e-08 -0.00100069)
(-5.76173e-08 -5.32337e-08 -0.00100072)
(-5.14077e-07 -4.80247e-07 -0.00100016)
(-4.63946e-07 -4.72557e-07 -0.00100032)
(-3.686e-07 -4.66103e-07 -0.00100045)
(-2.36966e-07 -4.61391e-07 -0.00100055)
(-8.16004e-08 -4.58059e-07 -0.0010006)
(-5.06362e-07 -4.31628e-07 -0.00100031)
(-4.57198e-07 -4.24862e-07 -0.00100046)
(-3.63211e-07 -4.19045e-07 -0.00100059)
(-2.33511e-07 -4.14808e-07 -0.00100069)
(-8.04127e-08 -4.11781e-07 -0.00100074)
(-4.99799e-07 -3.4173e-07 -0.00100043)
(-4.51363e-07 -3.36274e-07 -0.00100058)
(-3.5857e-07 -3.31616e-07 -0.00100071)
(-2.30549e-07 -3.28229e-07 -0.0010008)
(-7.94011e-08 -3.25826e-07 -0.00100085)
(-4.95e-07 -2.19129e-07 -0.00100052)
(-4.4706e-07 -2.15602e-07 -0.00100067)
(-3.55167e-07 -2.12613e-07 -0.0010008)
(-2.28379e-07 -2.10444e-07 -0.00100089)
(-7.86601e-08 -2.08907e-07 -0.00100094)
(-4.91535e-07 -7.53469e-08 -0.00100057)
(-4.43936e-07 -7.41356e-08 -0.00100071)
(-3.527e-07 -7.31138e-08 -0.00100084)
(-2.26807e-07 -7.23731e-08 -0.00100093)
(-7.81249e-08 -7.18502e-08 -0.00100098)
(-6.99949e-07 -6.53215e-07 -0.00100022)
(-6.31978e-07 -6.41407e-07 -0.00100043)
(-5.0224e-07 -6.31421e-07 -0.00100062)
(-3.22964e-07 -6.24129e-07 -0.00100075)
(-1.11226e-07 -6.19107e-07 -0.00100082)
(-6.88068e-07 -5.86491e-07 -0.00100042)
(-6.21491e-07 -5.75961e-07 -0.00100063)
(-4.93894e-07 -5.6696e-07 -0.00100081)
(-3.1762e-07 -5.60404e-07 -0.00100094)
(-1.09393e-07 -5.55876e-07 -0.001001)
(-6.77895e-07 -4.63889e-07 -0.00100059)
(-6.12447e-07 -4.55414e-07 -0.00100079)
(-4.86716e-07 -4.48206e-07 -0.00100096)
(-3.13033e-07 -4.42962e-07 -0.00100109)
(-1.07825e-07 -4.39361e-07 -0.00100116)
(-6.7043e-07 -2.97266e-07 -0.00100071)
(-6.05775e-07 -2.91787e-07 -0.00100091)
(-4.81441e-07 -2.87153e-07 -0.00100108)
(-3.09668e-07 -2.83786e-07 -0.0010012)
(-1.06678e-07 -2.81482e-07 -0.00100127)
(-6.65195e-07 -1.02177e-07 -0.00100077)
(-6.01091e-07 -1.00295e-07 -0.00100097)
(-4.77745e-07 -9.87098e-08 -0.00100114)
(-3.07311e-07 -9.75599e-08 -0.00100126)
(-1.05874e-07 -9.67744e-08 -0.00100133)
(-9.52781e-07 -8.87952e-07 -0.0010003)
(-8.60997e-07 -8.69918e-07 -0.00100059)
(-6.84502e-07 -8.54558e-07 -0.00100084)
(-4.40322e-07 -8.4332e-07 -0.00100102)
(-1.51668e-07 -8.35766e-07 -0.00100112)
(-9.34599e-07 -7.96432e-07 -0.00100057)
(-8.44699e-07 -7.80027e-07 -0.00100085)
(-6.71553e-07 -7.66076e-07 -0.0010011)
(-4.32021e-07 -7.55913e-07 -0.00100127)
(-1.48821e-07 -7.49103e-07 -0.00100136)
(-9.18892e-07 -6.29124e-07 -0.0010008)
(-8.30641e-07 -6.15913e-07 -0.00100107)
(-6.60433e-07 -6.04732e-07 -0.00100131)
(-4.24915e-07 -5.96604e-07 -0.00100148)
(-1.46392e-07 -5.91192e-07 -0.00100157)
(-9.07299e-07 -4.02796e-07 -0.00100096)
(-8.2026e-07 -3.9425e-07 -0.00100123)
(-6.52243e-07 -3.87034e-07 -0.00100146)
(-4.19694e-07 -3.81801e-07 -0.00100163)
(-1.44611e-07 -3.78322e-07 -0.00100172)
(-8.99391e-07 -1.3839e-07 -0.00100104)
(-8.13186e-07 -1.35454e-07 -0.00100131)
(-6.46661e-07 -1.32976e-07 -0.00100154)
(-4.16128e-07 -1.31183e-07 -0.00100171)
(-1.43389e-07 -1.29987e-07 -0.00100179)
(-1.29703e-06 -1.2066e-06 -0.00100041)
(-1.17294e-06 -1.17893e-06 -0.00100081)
(-9.33047e-07 -1.15531e-06 -0.00100115)
(-6.00511e-07 -1.13798e-06 -0.0010014)
(-2.06905e-07 -1.12661e-06 -0.00100153)
(-1.26908e-06 -1.08029e-06 -0.00100078)
(-1.1478e-06 -1.05491e-06 -0.00100116)
(-9.13044e-07 -1.03335e-06 -0.00100149)
(-5.87651e-07 -1.01763e-06 -0.00100173)
(-2.02486e-07 -1.00737e-06 -0.00100186)
(-1.24475e-06 -8.51976e-07 -0.00100108)
(-1.12601e-06 -8.31424e-07 -0.00100146)
(-8.95832e-07 -8.14069e-07 -0.00100178)
(-5.76654e-07 -8.01482e-07 -0.00100201)
(-1.98725e-07 -7.93322e-07 -0.00100213)
(-1.22668e-06 -5.44904e-07 -0.0010013)
(-1.10983e-06 -5.31532e-07 -0.00100167)
(-8.83101e-07 -5.20271e-07 -0.00100198)
(-5.68546e-07 -5.12131e-07 -0.00100221)
(-1.95957e-07 -5.06874e-07 -0.00100233)
(-1.21465e-06 -1.87127e-07 -0.00100141)
(-1.09907e-06 -1.82511e-07 -0.00100177)
(-8.74626e-07 -1.78628e-07 -0.00100208)
(-5.63146e-07 -1.75827e-07 -0.00100231)
(-1.94111e-07 -1.74021e-07 -0.00100243)
(-1.76588e-06 -1.63878e-06 -0.00100057)
(-1.59801e-06 -1.59634e-06 -0.00100111)
(-1.27217e-06 -1.56002e-06 -0.00100157)
(-8.19308e-07 -1.53327e-06 -0.00100191)
(-2.82394e-07 -1.51609e-06 -0.00100209)
(-1.72282e-06 -1.46324e-06 -0.00100106)
(-1.55934e-06 -1.42405e-06 -0.00100158)
(-1.24137e-06 -1.3908e-06 -0.00100203)
(-7.99475e-07 -1.36657e-06 -0.00100236)
(-2.75576e-07 -1.35113e-06 -0.00100253)
(-1.68502e-06 -1.15156e-06 -0.00100147)
(-1.52557e-06 -1.11955e-06 -0.00100197)
(-1.21477e-06 -1.09261e-06 -0.00100241)
(-7.82524e-07 -1.07314e-06 -0.00100272)
(-2.69787e-07 -1.06085e-06 -0.00100289)
(-1.65666e-06 -7.35539e-07 -0.00100176)
(-1.5003e-06 -7.14536e-07 -0.00100225)
(-1.19495e-06 -6.96942e-07 -0.00100268)
(-7.69937e-07 -6.8428e-07 -0.00100299)
(-2.65495e-07 -6.7634e-07 -0.00100315)
(-1.63818e-06 -2.52458e-07 -0.00100191)
(-1.48383e-06 -2.45164e-07 -0.0010024)
(-1.18205e-06 -2.39076e-07 -0.00100281)
(-7.61752e-07 -2.34708e-07 -0.00100312)
(-2.62709e-07 -2.31982e-07 -0.00100328)
(-2.40454e-06 -2.2242e-06 -0.00100078)
(-2.17763e-06 -2.15927e-06 -0.00100152)
(-1.73531e-06 -2.1035e-06 -0.00100215)
(-1.11853e-06 -2.06223e-06 -0.00100262)
(-3.85695e-07 -2.0362e-06 -0.00100286)
(-2.33832e-06 -1.97845e-06 -0.00100144)
(-2.11811e-06 -1.91777e-06 -0.00100215)
(-1.68798e-06 -1.86656e-06 -0.00100276)
(-1.08807e-06 -1.82936e-06 -0.00100321)
(-3.7524e-07 -1.80627e-06 -0.00100344)
(-2.27942e-06 -1.55258e-06 -0.00100199)
(-2.06574e-06 -1.50248e-06 -0.00100267)
(-1.64702e-06 -1.46065e-06 -0.00100326)
(-1.06214e-06 -1.43057e-06 -0.00100369)
(-3.6644e-07 -1.41213e-06 -0.00100392)
(-2.23463e-06 -9.90116e-07 -0.00100238)
(-2.02607e-06 -9.56879e-07 -0.00100304)
(-1.61607e-06 -9.29301e-07 -0.00100361)
(-1.04255e-06 -9.09557e-07 -0.00100403)
(-3.59782e-07 -8.97568e-07 -0.00100425)
(-2.20588e-06 -3.39675e-07 -0.00100258)
(-2.00064e-06 -3.28045e-07 -0.00100323)
(-1.59634e-06 -3.18471e-07 -0.00100379)
(-1.03015e-06 -3.11666e-07 -0.0010042)
(-3.55601e-07 -3.07579e-07 -0.00100442)
(-3.27513e-06 -3.01601e-06 -0.00100109)
(-2.96829e-06 -2.91678e-06 -0.00100209)
(-2.3685e-06 -2.83148e-06 -0.00100296)
(-1.52839e-06 -2.76781e-06 -0.00100359)
(-5.27285e-07 -2.72844e-06 -0.00100393)
(-3.17348e-06 -2.66842e-06 -0.00100197)
(-2.87678e-06 -2.57415e-06 -0.00100293)
(-2.29604e-06 -2.49568e-06 -0.00100376)
(-1.48181e-06 -2.43897e-06 -0.00100437)
(-5.11353e-07 -2.40487e-06 -0.00100469)
(-3.08138e-06 -2.08607e-06 -0.0010027)
(-2.79555e-06 -2.00702e-06 -0.00100361)
(-2.23346e-06 -1.94204e-06 -0.00100441)
(-1.44285e-06 -1.89562e-06 -0.001005)
(-4.98377e-07 -1.86822e-06 -0.00100531)
(-3.00991e-06 -1.32822e-06 -0.00100321)
(-2.73261e-06 -1.27485e-06 -0.00100409)
(-2.18464e-06 -1.23141e-06 -0.00100486)
(-1.412e-06 -1.2004e-06 -0.00100543)
(-4.87953e-07 -1.18242e-06 -0.00100573)
(-2.96446e-06 -4.55687e-07 -0.00100348)
(-2.69289e-06 -4.36804e-07 -0.00100434)
(-2.15441e-06 -4.21751e-07 -0.00100509)
(-1.39344e-06 -4.11163e-07 -0.00100565)
(-4.81919e-07 -4.05279e-07 -0.00100594)
(-4.46369e-06 -4.08503e-06 -0.00100153)
(-4.04666e-06 -3.93265e-06 -0.00100289)
(-3.23504e-06 -3.8031e-06 -0.00100408)
(-2.09058e-06 -3.70473e-06 -0.00100495)
(-7.21571e-07 -3.64568e-06 -0.00100541)
(-4.30765e-06 -3.58592e-06 -0.00100271)
(-3.90618e-06 -3.43838e-06 -0.001004)
(-3.12494e-06 -3.31964e-06 -0.00100513)
(-2.01973e-06 -3.23454e-06 -0.00100596)
(-6.9748e-07 -3.18601e-06 -0.00100639)
(-4.16278e-06 -2.78929e-06 -0.00100365)
(-3.78038e-06 -2.66284e-06 -0.00100488)
(-3.0314e-06 -2.56215e-06 -0.00100596)
(-1.96405e-06 -2.49047e-06 -0.00100677)
(-6.80024e-07 -2.45067e-06 -0.0010072)
(-4.04693e-06 -1.77436e-06 -0.00100432)
(-3.67884e-06 -1.68661e-06 -0.00100549)
(-2.95257e-06 -1.61791e-06 -0.00100653)
(-1.9136e-06 -1.56818e-06 -0.00100729)
(-6.63019e-07 -1.54161e-06 -0.0010077)
(-3.9732e-06 -6.09861e-07 -0.00100468)
(-3.61594e-06 -5.78203e-07 -0.00100581)
(-2.90668e-06 -5.54885e-07 -0.00100682)
(-1.88706e-06 -5.38596e-07 -0.00100758)
(-6.55416e-07 -5.31233e-07 -0.00100798)
(-6.09109e-06 -5.52572e-06 -0.00100219)
(-5.51483e-06 -5.28605e-06 -0.00100403)
(-4.42195e-06 -5.09246e-06 -0.00100565)
(-2.86255e-06 -4.93884e-06 -0.00100685)
(-9.8819e-07 -4.85235e-06 -0.00100748)