/*--------------------------------*- C++ -*----------------------------------*\
| =========                 |                                                 |
| \\      /  F ield         | OpenFOAM: The Open Source CFD Toolbox           |
|  \\    /   O peration     | Version:  5.x                                   |
|   \\  /    A nd           | Web:      www.OpenFOAM.org                      |
|    \\/     M anipulation  |                                                 |
\*---------------------------------------------------------------------------*/
FoamFile
{
    version     2.0;
    format      ascii;
    class       volVectorField;
    location    "0.04";
    object      U;
}
// * * * * * * * * * * * * * * * * * * * * * * * * * * * * * * * * * * * * * //

dimensions      [0 1 -1 0 0 0 0];

internalField   nonuniform List<vector> 
2250
(
(-1.25187e-10 -1.37671e-10 -0.001)
(-1.12233e-10 -1.52851e-10 -0.001)
(-8.92815e-11 -1.59758e-10 -0.001)
(-6.29548e-11 -1.61728e-10 -0.001)
(-2.33467e-11 -1.60133e-10 -0.001)
(-1.40361e-10 -1.49483e-10 -0.001)
(-1.17243e-10 -1.51202e-10 -0.001)
(-9.20374e-11 -1.55103e-10 -0.001)
(-6.12092e-11 -1.54765e-10 -0.001)
(-2.15198e-11 -1.51595e-10 -0.001)
(-1.44195e-10 -1.29239e-10 -0.001)
(-1.17827e-10 -1.25337e-10 -0.001)
(-9.28376e-11 -1.25522e-10 -0.001)
(-5.97919e-11 -1.24435e-10 -0.001)
(-2.05269e-11 -1.22751e-10 -0.001)
(-1.42849e-10 -8.79416e-11 -0.001)
(-1.13503e-10 -8.09733e-11 -0.001)
(-9.11359e-11 -7.92914e-11 -0.001)
(-5.87091e-11 -7.88331e-11 -0.001)
(-2.00989e-11 -7.82347e-11 -0.001)
(-1.40151e-10 -3.0766e-11 -0.001)
(-1.089e-10 -2.70784e-11 -0.001)
(-9.04904e-11 -2.64376e-11 -0.001)
(-5.87744e-11 -2.66336e-11 -0.001)
(-2.00423e-11 -2.6564e-11 -0.001)
(-3.65443e-10 -3.92274e-10 -0.001)
(-3.60044e-10 -4.44586e-10 -0.001)
(-2.75531e-10 -4.55754e-10 -0.001)
(-1.88678e-10 -4.5815e-10 -0.001)
(-6.71918e-11 -4.53285e-10 -0.001)
(-4.16748e-10 -4.44838e-10 -0.001)
(-3.4922e-10 -4.27476e-10 -0.001)
(-2.77265e-10 -4.33723e-10 -0.001)
(-1.80541e-10 -4.30162e-10 -0.001)
(-6.17091e-11 -4.22111e-10 -0.001)
(-4.23021e-10 -3.61633e-10 -0.001)
(-3.48981e-10 -3.50247e-10 -0.001)
(-2.78266e-10 -3.50727e-10 -0.001)
(-1.77947e-10 -3.49612e-10 -0.001)
(-5.99972e-11 -3.46987e-10 -0.001)
(-4.2134e-10 -2.3822e-10 -0.001)
(-3.38324e-10 -2.19684e-10 -0.001)
(-2.76635e-10 -2.19003e-10 -0.001)
(-1.77487e-10 -2.20732e-10 -0.001)
(-5.97415e-11 -2.20238e-10 -0.001)
(-4.16922e-10 -7.97811e-11 -0.001)
(-3.29045e-10 -7.04857e-11 -0.001)
(-2.78755e-10 -7.12009e-11 -0.001)
(-1.79262e-10 -7.31337e-11 -0.001)
(-5.97954e-11 -7.3162e-11 -0.001)
(-6.92236e-10 -7.10583e-10 -0.001)
(-7.15316e-10 -7.95446e-10 -0.001)
(-5.24327e-10 -7.95973e-10 -0.001)
(-3.47823e-10 -7.94367e-10 -0.001)
(-1.20217e-10 -7.88039e-10 -0.001)
(-7.78927e-10 -7.94542e-10 -0.001)
(-6.57165e-10 -7.30639e-10 -0.001)
(-5.2071e-10 -7.37291e-10 -0.001)
(-3.36595e-10 -7.32576e-10 -0.001)
(-1.14293e-10 -7.24312e-10 -0.001)
(-7.78098e-10 -5.9582e-10 -0.001)
(-6.58054e-10 -5.8311e-10 -0.001)
(-5.26311e-10 -5.90745e-10 -0.001)
(-3.36305e-10 -5.94099e-10 -0.001)
(-1.13328e-10 -5.92268e-10 -0.001)
(-7.79507e-10 -3.73546e-10 -0.001)
(-6.52033e-10 -3.59171e-10 -0.001)
(-5.317e-10 -3.67196e-10 -0.001)
(-3.39257e-10 -3.74344e-10 -0.001)
(-1.13559e-10 -3.7313e-10 -0.001)
(-7.80883e-10 -1.19045e-10 -0.001)
(-6.50401e-10 -1.1333e-10 -0.001)
(-5.40453e-10 -1.18633e-10 -0.001)
(-3.4231e-10 -1.23056e-10 -0.001)
(-1.12602e-10 -1.22076e-10 -0.001)
(-1.19275e-09 -1.17858e-09 -0.001)
(-1.14696e-09 -1.22451e-09 -0.001)
(-8.60382e-10 -1.21215e-09 -0.001)
(-5.57408e-10 -1.2064e-09 -0.001)
(-1.90995e-10 -1.2005e-09 -0.001)
(-1.24558e-09 -1.16912e-09 -0.001)
(-1.07802e-09 -1.1007e-09 -0.001)
(-8.50844e-10 -1.10541e-09 -0.001)
(-5.49764e-10 -1.10406e-09 -0.001)
(-1.88517e-10 -1.09939e-09 -0.001)
(-1.24232e-09 -8.51326e-10 -0.001)
(-1.08325e-09 -8.51264e-10 -0.001)
(-8.63809e-10 -8.72567e-10 -0.001)
(-5.53573e-10 -8.8437e-10 -0.001)
(-1.88421e-10 -8.83099e-10 -0.001)
(-1.25592e-09 -5.07011e-10 -0.001)
(-1.0992e-09 -5.19522e-10 -0.001)
(-8.83952e-10 -5.43322e-10 -0.001)
(-5.6201e-10 -5.57704e-10 -0.001)
(-1.88924e-10 -5.54537e-10 -0.001)
(-1.27029e-09 -1.57886e-10 -0.001)
(-1.11742e-09 -1.66577e-10 -0.001)
(-9.00278e-10 -1.78101e-10 -0.001)
(-5.64762e-10 -1.84532e-10 -0.001)
(-1.85959e-10 -1.81578e-10 -0.001)
(-1.80888e-09 -1.75256e-09 -0.001)
(-1.66979e-09 -1.75372e-09 -0.001)
(-1.28279e-09 -1.73716e-09 -0.001)
(-8.31214e-10 -1.73032e-09 -0.001)
(-2.86816e-10 -1.72471e-09 -0.001)
(-1.82339e-09 -1.60594e-09 -0.001)
(-1.61148e-09 -1.55966e-09 -0.001)
(-1.27632e-09 -1.57373e-09 -0.001)
(-8.27456e-10 -1.57856e-09 -0.001)
(-2.86264e-10 -1.5751e-09 -0.001)
(-1.83369e-09 -1.14749e-09 -0.001)
(-1.63758e-09 -1.1837e-09 -0.001)
(-1.30178e-09 -1.2261e-09 -0.001)
(-8.35763e-10 -1.24753e-09 -0.001)
(-2.8645e-10 -1.24566e-09 -0.001)
(-1.87252e-09 -6.70587e-10 -0.001)
(-1.68998e-09 -7.2583e-10 -0.001)
(-1.34014e-09 -7.67497e-10 -0.001)
(-8.49458e-10 -7.87506e-10 -0.001)
(-2.86796e-10 -7.81319e-10 -0.001)
(-1.90296e-09 -2.12281e-10 -0.001)
(-1.73103e-09 -2.40003e-10 -0.001)
(-1.36078e-09 -2.56584e-10 -0.001)
(-8.49452e-10 -2.63237e-10 -0.001)
(-2.81219e-10 -2.57705e-10 -0.001)
(-2.52772e-09 -2.42574e-09 -0.001)
(-2.28463e-09 -2.42777e-09 -0.001)
(-1.79986e-09 -2.41449e-09 -0.001)
(-1.17717e-09 -2.40806e-09 -0.001)
(-4.08694e-10 -2.40057e-09 -0.001)
(-2.55086e-09 -2.12834e-09 -0.001)
(-2.26455e-09 -2.1334e-09 -0.001)
(-1.8073e-09 -2.17122e-09 -0.001)
(-1.17397e-09 -2.1824e-09 -0.001)
(-4.06463e-10 -2.17621e-09 -0.001)
(-2.58366e-09 -1.53597e-09 -0.001)
(-2.32753e-09 -1.62247e-09 -0.001)
(-1.849e-09 -1.68719e-09 -0.001)
(-1.18656e-09 -1.71512e-09 -0.001)
(-4.06788e-10 -1.71215e-09 -0.001)
(-2.64867e-09 -9.17223e-10 -0.001)
(-2.41563e-09 -1.01024e-09 -0.001)
(-1.89996e-09 -1.06309e-09 -0.001)
(-1.20227e-09 -1.0835e-09 -0.001)
(-4.06761e-10 -1.07565e-09 -0.001)
(-2.687e-09 -3.0272e-10 -0.001)
(-2.46842e-09 -3.42728e-10 -0.001)
(-1.91851e-09 -3.60262e-10 -0.001)
(-1.19888e-09 -3.64935e-10 -0.001)
(-4.002e-10 -3.58458e-10 -0.001)
(-3.4708e-09 -3.31472e-09 -0.001)
(-3.10167e-09 -3.32774e-09 -0.001)
(-2.4852e-09 -3.3202e-09 -0.001)
(-1.62535e-09 -3.31015e-09 -0.001)
(-5.63776e-10 -3.29792e-09 -0.001)
(-3.50903e-09 -2.8644e-09 -0.001)
(-3.11971e-09 -2.91664e-09 -0.001)
(-2.4958e-09 -2.96396e-09 -0.001)
(-1.61724e-09 -2.97439e-09 -0.001)
(-5.57397e-10 -2.96231e-09 -0.001)
(-3.55924e-09 -2.13732e-09 -0.001)
(-3.20123e-09 -2.24591e-09 -0.001)
(-2.54314e-09 -2.31554e-09 -0.001)
(-1.62964e-09 -2.34062e-09 -0.00100001)
(-5.57473e-10 -2.33686e-09 -0.00100001)
(-3.62939e-09 -1.3206e-09 -0.001)
(-3.29774e-09 -1.41938e-09 -0.001)
(-2.59051e-09 -1.4674e-09 -0.00100001)
(-1.64308e-09 -1.48265e-09 -0.00100001)
(-5.58065e-10 -1.47796e-09 -0.00100001)
(-3.65779e-09 -4.50443e-10 -0.001)
(-3.34125e-09 -4.8712e-10 -0.001)
(-2.60134e-09 -5.00497e-10 -0.00100001)
(-1.63988e-09 -5.02899e-10 -0.00100001)
(-5.54501e-10 -4.99446e-10 -0.00100001)
(-4.74994e-09 -4.52165e-09 -0.001)
(-4.32436e-09 -4.5614e-09 -0.001)
(-3.44169e-09 -4.55632e-09 -0.001)
(-2.23395e-09 -4.54084e-09 -0.001)
(-7.71491e-10 -4.52283e-09 -0.00100001)
(-4.81107e-09 -4.02658e-09 -0.001)
(-4.30533e-09 -4.04058e-09 -0.001)
(-3.43404e-09 -4.06506e-09 -0.00100001)
(-2.21416e-09 -4.06257e-09 -0.00100001)
(-7.59933e-10 -4.04299e-09 -0.00100001)
(-4.85736e-09 -3.07345e-09 -0.001)
(-4.36284e-09 -3.15067e-09 -0.00100001)
(-3.46394e-09 -3.19539e-09 -0.00100001)
(-2.21992e-09 -3.20745e-09 -0.00100001)
(-7.59716e-10 -3.20429e-09 -0.00100001)
(-4.90442e-09 -1.9448e-09 -0.001)
(-4.42701e-09 -2.00767e-09 -0.00100001)
(-3.49081e-09 -2.03499e-09 -0.00100001)
(-2.22926e-09 -2.04313e-09 -0.00100001)
(-7.62851e-10 -2.04518e-09 -0.00100001)
(-4.90827e-09 -6.71188e-10 -0.00100001)
(-4.44409e-09 -6.90429e-10 -0.00100001)
(-3.49261e-09 -6.96926e-10 -0.00100001)
(-2.22974e-09 -6.98857e-10 -0.00100001)
(-7.64158e-10 -7.0029e-10 -0.00100001)
(-6.52613e-09 -6.2035e-09 -0.001)
(-6.02446e-09 -6.25639e-09 -0.001)
(-4.75488e-09 -6.25053e-09 -0.00100001)
(-3.06466e-09 -6.23269e-09 -0.00100001)
(-1.05439e-09 -6.21153e-09 -0.00100001)
(-6.58876e-09 -5.67513e-09 -0.001)
(-5.94318e-09 -5.61391e-09 -0.00100001)
(-4.72193e-09 -5.60077e-09 -0.00100001)
(-3.03543e-09 -5.58218e-09 -0.00100001)
(-1.04075e-09 -5.5586e-09 -0.00100001)
(-6.60953e-09 -4.40483e-09 -0.00100001)
(-5.9501e-09 -4.41679e-09 -0.00100001)
(-4.7235e-09 -4.42255e-09 -0.00100001)
(-3.03352e-09 -4.41958e-09 -0.00100001)
(-1.04152e-09 -4.41733e-09 -0.00100001)
(-6.61714e-09 -2.81939e-09 -0.00100001)
(-5.96055e-09 -2.82882e-09 -0.00100001)
(-4.72471e-09 -2.8307e-09 -0.00100001)
(-3.03879e-09 -2.83228e-09 -0.00100001)
(-1.04691e-09 -2.83686e-09 -0.00100001)
(-6.59519e-09 -9.73166e-10 -0.00100001)
(-5.94958e-09 -9.73292e-10 -0.00100001)
(-4.7178e-09 -9.73656e-10 -0.00100001)
(-3.03929e-09 -9.75358e-10 -0.00100001)
(-1.04949e-09 -9.78078e-10 -0.00100001)
(-8.96627e-09 -8.52538e-09 -0.001)
(-8.29035e-09 -8.5763e-09 -0.001)
(-6.52019e-09 -8.56596e-09 -0.00100001)
(-4.18083e-09 -8.54991e-09 -0.00100001)
(-1.43416e-09 -8.53014e-09 -0.00100001)
(-9.01017e-09 -7.87107e-09 -0.001)
(-8.16594e-09 -7.74935e-09 -0.00100001)
(-6.47179e-09 -7.70555e-09 -0.00100001)
(-4.15495e-09 -7.68003e-09 -0.00100001)
(-1.42588e-09 -7.65965e-09 -0.00100001)
(-8.99362e-09 -6.18149e-09 -0.00100001)
(-8.12483e-09 -6.13178e-09 -0.00100001)
(-6.45134e-09 -6.10471e-09 -0.00100001)
(-4.15014e-09 -6.09237e-09 -0.00100001)
(-1.42854e-09 -6.08737e-09 -0.00100001)
(-8.96146e-09 -3.97724e-09 -0.00100001)
(-8.08869e-09 -3.9438e-09 -0.00100001)
(-6.43238e-09 -3.92427e-09 -0.00100001)
(-4.14946e-09 -3.91781e-09 -0.00100002)
(-1.43252e-09 -3.91553e-09 -0.00100002)
(-8.91965e-09 -1.37151e-09 -0.00100001)
(-8.05594e-09 -1.35965e-09 -0.00100001)
(-6.41288e-09 -1.35422e-09 -0.00100001)
(-4.14095e-09 -1.35242e-09 -0.00100002)
(-1.43098e-09 -1.35104e-09 -0.00100002)
(-1.22472e-08 -1.16706e-08 -0.001)
(-1.13253e-08 -1.17254e-08 -0.00100001)
(-8.87882e-09 -1.17109e-08 -0.00100001)
(-5.67144e-09 -1.17031e-08 -0.00100001)
(-1.94185e-09 -1.16876e-08 -0.00100001)
(-1.22776e-08 -1.08064e-08 -0.00100001)
(-1.11534e-08 -1.06232e-08 -0.00100001)
(-8.82415e-09 -1.05587e-08 -0.00100001)
(-5.66003e-09 -1.05368e-08 -0.00100002)
(-1.94396e-09 -1.05217e-08 -0.00100002)
(-1.22273e-08 -8.52761e-09 -0.00100001)
(-1.10777e-08 -8.43208e-09 -0.00100001)
(-8.79311e-09 -8.3844e-09 -0.00100002)
(-5.65532e-09 -8.36706e-09 -0.00100002)
(-1.94699e-09 -8.35346e-09 -0.00100002)
(-1.21654e-08 -5.50383e-09 -0.00100001)
(-1.10096e-08 -5.43889e-09 -0.00100002)
(-8.75912e-09 -5.40121e-09 -0.00100002)
(-5.64537e-09 -5.38377e-09 -0.00100002)
(-1.94635e-09 -5.36761e-09 -0.00100002)
(-1.21054e-08 -1.90033e-09 -0.00100001)
(-1.09534e-08 -1.87845e-09 -0.00100002)
(-8.72101e-09 -1.8652e-09 -0.00100002)
(-5.62122e-09 -1.85709e-09 -0.00100002)
(-1.93735e-09 -1.84826e-09 -0.00100002)
(-1.66981e-08 -1.59945e-08 -0.001)
(-1.52864e-08 -1.59987e-08 -0.00100001)
(-1.20243e-08 -1.59831e-08 -0.00100001)
(-7.67398e-09 -1.59844e-08 -0.00100002)
(-2.62908e-09 -1.5968e-08 -0.00100002)
(-1.66644e-08 -1.46664e-08 -0.00100001)
(-1.51387e-08 -1.44977e-08 -0.00100001)
(-1.19757e-08 -1.44252e-08 -0.00100002)
(-7.67779e-09 -1.44112e-08 -0.00100002)
(-2.63816e-09 -1.4393e-08 -0.00100002)
(-1.65913e-08 -1.16529e-08 -0.00100001)
(-1.50452e-08 -1.15311e-08 -0.00100002)
(-1.19387e-08 -1.14696e-08 -0.00100002)
(-7.67036e-09 -1.14466e-08 -0.00100003)
(-2.63856e-09 -1.1419e-08 -0.00100003)
(-1.65078e-08 -7.53484e-09 -0.00100002)
(-1.49546e-08 -7.44206e-09 -0.00100002)
(-1.18911e-08 -7.38852e-09 -0.00100003)
(-7.64946e-09 -7.35957e-09 -0.00100003)
(-2.63244e-09 -7.32831e-09 -0.00100003)
(-1.64264e-08 -2.60527e-09 -0.00100002)
(-1.48694e-08 -2.56992e-09 -0.00100002)
(-1.18331e-08 -2.54883e-09 -0.00100003)
(-7.60958e-09 -2.53467e-09 -0.00100003)
(-2.61624e-09 -2.51866e-09 -0.00100003)
(-2.27373e-08 -2.19503e-08 -0.00100001)
(-2.05458e-08 -2.18534e-08 -0.00100001)
(-1.62464e-08 -2.18166e-08 -0.00100002)
(-1.03959e-08 -2.18095e-08 -0.00100002)
(-3.57011e-09 -2.17748e-08 -0.00100003)
(-2.25982e-08 -1.98616e-08 -0.00100001)
(-2.04661e-08 -1.97539e-08 -0.00100002)
(-1.62135e-08 -1.96902e-08 -0.00100003)
(-1.04014e-08 -1.96762e-08 -0.00100003)
(-3.57661e-09 -1.96397e-08 -0.00100003)
(-2.24932e-08 -1.58534e-08 -0.00100002)
(-2.03744e-08 -1.57275e-08 -0.00100003)
(-1.61699e-08 -1.56574e-08 -0.00100003)
(-1.03845e-08 -1.56246e-08 -0.00100004)
(-3.57139e-09 -1.55784e-08 -0.00100004)
(-2.23878e-08 -1.02507e-08 -0.00100002)
(-2.02689e-08 -1.01405e-08 -0.00100003)
(-1.61105e-08 -1.00773e-08 -0.00100004)
(-1.03526e-08 -1.00385e-08 -0.00100004)
(-3.56017e-09 -9.99748e-09 -0.00100004)
(-2.2284e-08 -3.54167e-09 -0.00100003)
(-2.01609e-08 -3.49754e-09 -0.00100003)
(-1.60367e-08 -3.47266e-09 -0.00100004)
(-1.0304e-08 -3.45443e-09 -0.00100004)
(-3.54258e-09 -3.43705e-09 -0.00100004)
(-3.09087e-08 -3.00868e-08 -0.00100001)
(-2.77235e-08 -2.98747e-08 -0.00100002)
(-2.20013e-08 -2.97845e-08 -0.00100003)
(-1.4122e-08 -2.974e-08 -0.00100003)
(-4.86059e-09 -2.96644e-08 -0.00100004)
(-3.06622e-08 -2.70094e-08 -0.00100002)
(-2.76844e-08 -2.69427e-08 -0.00100003)
(-2.19593e-08 -2.68751e-08 -0.00100004)
(-1.41055e-08 -2.68398e-08 -0.00100004)
(-4.85538e-09 -2.67689e-08 -0.00100004)
(-3.05086e-08 -2.15611e-08 -0.00100003)
(-2.75891e-08 -2.14336e-08 -0.00100004)
(-2.19001e-08 -2.13539e-08 -0.00100004)
(-1.4069e-08 -2.13025e-08 -0.00100005)
(-4.84131e-09 -2.12335e-08 -0.00100005)
(-3.03792e-08 -1.39123e-08 -0.00100003)
(-2.74756e-08 -1.38032e-08 -0.00100004)
(-2.18281e-08 -1.37341e-08 -0.00100005)
(-1.40264e-08 -1.36866e-08 -0.00100006)
(-4.82708e-09 -1.364e-08 -0.00100006)
(-3.02545e-08 -4.79742e-09 -0.00100004)
(-2.73565e-08 -4.75751e-09 -0.00100004)
(-2.17411e-08 -4.73127e-09 -0.00100005)
(-1.39743e-08 -4.71216e-09 -0.00100006)
(-4.81148e-09 -4.69678e-09 -0.00100006)
(-4.19385e-08 -4.10872e-08 -0.00100001)
(-3.75983e-08 -4.07861e-08 -0.00100003)
(-2.9886e-08 -4.06215e-08 -0.00100004)
(-1.9223e-08 -4.05153e-08 -0.00100004)
(-6.62505e-09 -4.0378e-08 -0.00100005)
(-4.16189e-08 -3.68477e-08 -0.00100003)
(-3.75359e-08 -3.67654e-08 -0.00100004)
(-2.97963e-08 -3.6659e-08 -0.00100005)
(-1.9159e-08 -3.65717e-08 -0.00100006)
(-6.60075e-09 -3.64494e-08 -0.00100006)
(-4.14076e-08 -2.9358e-08 -0.00100004)
(-3.74096e-08 -2.92134e-08 -0.00100005)
(-2.96944e-08 -2.91017e-08 -0.00100006)
(-1.9086e-08 -2.90139e-08 -0.00100007)
(-6.57321e-09 -2.89123e-08 -0.00100007)
(-4.1247e-08 -1.89067e-08 -0.00100004)
(-3.72774e-08 -1.87971e-08 -0.00100006)
(-2.95968e-08 -1.87107e-08 -0.00100007)
(-1.90261e-08 -1.86486e-08 -0.00100008)
(-6.55469e-09 -1.85844e-08 -0.00100008)
(-4.10896e-08 -6.51273e-09 -0.00100005)
(-3.71396e-08 -6.47793e-09 -0.00100006)
(-2.94883e-08 -6.44683e-09 -0.00100007)
(-1.8959e-08 -6.4261e-09 -0.00100008)
(-6.53204e-09 -6.4037e-09 -0.00100008)
(-5.69837e-08 -5.60486e-08 -0.00100002)
(-5.1117e-08 -5.56132e-08 -0.00100004)
(-4.06792e-08 -5.5333e-08 -0.00100005)
(-2.61939e-08 -5.51278e-08 -0.00100006)
(-9.03317e-09 -5.49024e-08 -0.00100007)
(-5.65415e-08 -5.02831e-08 -0.00100004)
(-5.09888e-08 -5.01397e-08 -0.00100005)
(-4.0495e-08 -4.99389e-08 -0.00100007)
(-2.60483e-08 -4.97579e-08 -0.00100008)
(-8.97742e-09 -4.95568e-08 -0.00100008)
(-5.62297e-08 -4.0028e-08 -0.00100005)
(-5.07728e-08 -3.98148e-08 -0.00100007)
(-4.03004e-08 -3.96209e-08 -0.00100008)
(-2.59108e-08 -3.94662e-08 -0.00100009)
(-8.92831e-09 -3.93074e-08 -0.0010001)
(-5.5997e-08 -2.57517e-08 -0.00100006)
(-5.05787e-08 -2.55982e-08 -0.00100008)
(-4.01464e-08 -2.54666e-08 -0.00100009)
(-2.58117e-08 -2.53685e-08 -0.0010001)
(-8.89441e-09 -2.52663e-08 -0.00100011)
(-5.57722e-08 -8.86869e-09 -0.00100007)
(-5.03871e-08 -8.81897e-09 -0.00100008)
(-3.99923e-08 -8.77487e-09 -0.0010001)
(-2.57096e-08 -8.74197e-09 -0.00100011)
(-8.85757e-09 -8.70542e-09 -0.00100011)
(-7.75839e-08 -7.6469e-08 -0.00100002)
(-6.96809e-08 -7.57814e-08 -0.00100005)
(-5.54393e-08 -7.52912e-08 -0.00100007)
(-3.56965e-08 -7.49229e-08 -0.00100008)
(-1.23087e-08 -7.45742e-08 -0.00100009)
(-7.68877e-08 -6.86784e-08 -0.00100005)
(-6.93421e-08 -6.83197e-08 -0.00100007)
(-5.5073e-08 -6.79281e-08 -0.00100009)
(-3.54179e-08 -6.75964e-08 -0.00100011)
(-1.22039e-08 -6.72775e-08 -0.00100011)
(-7.63736e-08 -5.46049e-08 -0.00100007)
(-6.89305e-08 -5.42204e-08 -0.00100009)
(-5.472e-08 -5.38771e-08 -0.00100011)
(-3.51807e-08 -5.3613e-08 -0.00100013)
(-1.21209e-08 -5.33676e-08 -0.00100013)
(-7.59977e-08 -3.50908e-08 -0.00100008)
(-6.86102e-08 -3.48314e-08 -0.00100011)
(-5.44656e-08 -3.46168e-08 -0.00100013)
(-3.50132e-08 -3.44531e-08 -0.00100014)
(-1.20618e-08 -3.4304e-08 -0.00100015)
(-7.56627e-08 -1.208e-08 -0.00100009)
(-6.83197e-08 -1.19927e-08 -0.00100011)
(-5.42353e-08 -1.19225e-08 -0.00100013)
(-3.48669e-08 -1.18673e-08 -0.00100015)
(-1.20146e-08 -1.18204e-08 -0.00100015)
(-1.0564e-07 -1.04226e-07 -0.00100003)
(-9.5042e-08 -1.03158e-07 -0.00100007)
(-7.55383e-08 -1.02344e-07 -0.00100009)
(-4.85954e-08 -1.01739e-07 -0.00100011)
(-1.67428e-08 -1.01229e-07 -0.00100012)
(-1.04555e-07 -9.37263e-08 -0.00100007)
(-9.43048e-08 -9.29698e-08 -0.0010001)
(-7.48862e-08 -9.22797e-08 -0.00100012)
(-4.81376e-08 -9.17375e-08 -0.00100014)
(-1.65777e-08 -9.12655e-08 -0.00100015)
(-1.03727e-07 -7.43947e-08 -0.00100009)
(-9.35954e-08 -7.37433e-08 -0.00100012)
(-7.43114e-08 -7.31836e-08 -0.00100015)
(-4.77645e-08 -7.27633e-08 -0.00100017)
(-1.64493e-08 -7.24096e-08 -0.00100018)
(-1.03137e-07 -4.77596e-08 -0.00100011)
(-9.30881e-08 -4.73477e-08 -0.00100014)
(-7.39062e-08 -4.70042e-08 -0.00100017)
(-4.75062e-08 -4.67502e-08 -0.00100019)
(-1.63645e-08 -4.654e-08 -0.0010002)
(-1.02648e-07 -1.64333e-08 -0.00100012)
(-9.26541e-08 -1.62942e-08 -0.00100015)
(-7.35691e-08 -1.61803e-08 -0.00100018)
(-4.72989e-08 -1.60999e-08 -0.0010002)
(-1.62973e-08 -1.60332e-08 -0.00100021)
(-1.43705e-07 -1.41852e-07 -0.00100005)
(-1.29452e-07 -1.40281e-07 -0.00100009)
(-1.02825e-07 -1.39018e-07 -0.00100013)
(-6.60871e-08 -1.38095e-07 -0.00100015)
(-2.27486e-08 -1.37364e-07 -0.00100017)
(-1.42119e-07 -1.27622e-07 -0.00100009)
(-1.28194e-07 -1.26365e-07 -0.00100013)
(-1.01789e-07 -1.25267e-07 -0.00100017)
(-6.54083e-08 -1.24444e-07 -0.0010002)
(-2.25163e-08 -1.23783e-07 -0.00100021)
(-1.40861e-07 -1.01196e-07 -0.00100013)
(-1.27098e-07 -1.00195e-07 -0.00100017)
(-1.00912e-07 -9.9333e-08 -0.00100021)
(-6.48529e-08 -9.87008e-08 -0.00100023)
(-2.23312e-08 -9.82004e-08 -0.00100025)
(-1.39966e-07 -6.49419e-08 -0.00100015)
(-1.26324e-07 -6.43164e-08 -0.0010002)
(-1.00295e-07 -6.37831e-08 -0.00100023)
(-6.44697e-08 -6.34028e-08 -0.00100026)
(-2.22072e-08 -6.30877e-08 -0.00100027)
(-1.39251e-07 -2.23434e-08 -0.00100017)
(-1.25686e-07 -2.21294e-08 -0.00100021)
(-9.98012e-08 -2.19516e-08 -0.00100024)
(-6.41554e-08 -2.18304e-08 -0.00100027)
(-2.20954e-08 -2.17194e-08 -0.00100028)
(-1.9544e-07 -1.92968e-07 -0.00100006)
(-1.76184e-07 -1.90655e-07 -0.00100012)
(-1.39924e-07 -1.8875e-07 -0.00100017)
(-8.98911e-08 -1.87371e-07 -0.00100021)
(-3.09314e-08 -1.86312e-07 -0.00100023)
(-1.93131e-07 -1.73596e-07 -0.00100012)
(-1.74229e-07 -1.7167e-07 -0.00100018)
(-1.38343e-07 -1.69985e-07 -0.00100023)
(-8.88972e-08 -1.68756e-07 -0.00100027)
(-3.06029e-08 -1.67823e-07 -0.00100029)
(-1.9124e-07 -1.37586e-07 -0.00100017)
(-1.72573e-07 -1.36066e-07 -0.00100023)
(-1.3702e-07 -1.34755e-07 -0.00100028)
(-8.80691e-08 -1.33809e-07 -0.00100031)
(-3.03292e-08 -1.33072e-07 -0.00100033)
(-1.89882e-07 -8.8296e-08 -0.00100021)
(-1.71387e-07 -8.73307e-08 -0.00100027)
(-1.36086e-07 -8.65127e-08 -0.00100031)
(-8.74785e-08 -8.59245e-08 -0.00100035)
(-3.01265e-08 -8.5443e-08 -0.00100037)
(-1.88823e-07 -3.03799e-08 -0.00100023)
(-1.70445e-07 -3.00483e-08 -0.00100028)
(-1.35346e-07 -2.97735e-08 -0.00100033)
(-8.69964e-08 -2.9573e-08 -0.00100037)
(-2.99558e-08 -2.94035e-08 -0.00100039)
(-2.65884e-07 -2.6252e-07 -0.00100009)
(-2.3979e-07 -2.59038e-07 -0.00100017)
(-1.9046e-07 -2.56154e-07 -0.00100024)
(-1.22378e-07 -2.54066e-07 -0.00100029)
(-4.21179e-08 -2.52497e-07 -0.00100031)
(-2.62423e-07 -2.36101e-07 -0.00100017)
(-2.36795e-07 -2.33147e-07 -0.00100025)
(-1.88055e-07 -2.30573e-07 -0.00100031)
(-1.2087e-07 -2.28708e-07 -0.00100036)
(-4.16186e-08 -2.27325e-07 -0.00100039)
(-2.59537e-07 -1.87069e-07 -0.00100023)
(-2.34262e-07 -1.84719e-07 -0.00100031)
(-1.86035e-07 -1.82707e-07 -0.00100038)
(-1.19592e-07 -1.81246e-07 -0.00100043)
(-4.11858e-08 -1.80132e-07 -0.00100045)
(-2.57455e-07 -1.20044e-07 -0.00100028)
(-2.32419e-07 -1.1854e-07 -0.00100036)
(-1.84582e-07 -1.17266e-07 -0.00100043)
(-1.18655e-07 -1.16329e-07 -0.00100047)
(-4.0859e-08 -1.15608e-07 -0.0010005)
(-2.55883e-07 -4.12982e-08 -0.00100031)
(-2.31014e-07 -4.07877e-08 -0.00100039)
(-1.83458e-07 -4.0351e-08 -0.00100045)
(-1.17929e-07 -4.00253e-08 -0.0010005)
(-4.06109e-08 -3.97788e-08 -0.00100052)
(-3.61814e-07 -3.57109e-07 -0.00100012)
(-3.26471e-07 -3.5183e-07 -0.00100023)
(-2.59354e-07 -3.47412e-07 -0.00100032)
(-1.66704e-07 -3.44196e-07 -0.00100039)
(-5.73914e-08 -3.41847e-07 -0.00100043)
(-3.56542e-07 -3.21107e-07 -0.00100023)
(-3.21849e-07 -3.16508e-07 -0.00100033)
(-2.55656e-07 -3.12542e-07 -0.00100043)
(-1.64351e-07 -3.09649e-07 -0.00100049)
(-5.65941e-08 -3.07547e-07 -0.00100053)
(-3.52084e-07 -2.54321e-07 -0.00100032)
(-3.17907e-07 -2.50643e-07 -0.00100042)
(-2.52514e-07 -2.47502e-07 -0.00100051)
(-1.62337e-07 -2.45201e-07 -0.00100058)
(-5.59031e-08 -2.43522e-07 -0.00100061)
(-3.48859e-07 -1.63149e-07 -0.00100038)
(-3.15011e-07 -1.60796e-07 -0.00100049)
(-2.50214e-07 -1.58776e-07 -0.00100058)
(-1.60859e-07 -1.57293e-07 -0.00100064)
(-5.53981e-08 -1.56212e-07 -0.00100068)
(-3.46499e-07 -5.61113e-08 -0.00100042)
(-3.12895e-07 -5.53175e-08 -0.00100052)
(-2.48512e-07 -5.46189e-08 -0.00100061)
(-1.59766e-07 -5.41086e-08 -0.00100068)
(-5.50217e-08 -5.37347e-08 -0.00100071)
(-4.92437e-07 -4.85702e-07 -0.00100016)
(-4.44642e-07 -4.77634e-07 -0.00100031)
(-3.53234e-07 -4.70813e-07 -0.00100044)
(-2.27093e-07 -4.65821e-07 -0.00100053)
(-7.82001e-08 -4.62303e-07 -0.00100058)
(-4.84323e-07 -4.36642e-07 -0.00100031)
(-4.374e-07 -4.29381e-07 -0.00100045)
(-3.47492e-07 -4.23203e-07 -0.00100058)
(-2.23406e-07 -4.1869e-07 -0.00100067)
(-7.69303e-08 -4.1551e-07 -0.00100072)
(-4.77401e-07 -3.4557e-07 -0.00100043)
(-4.31202e-07 -3.39779e-07 -0.00100058)
(-3.42568e-07 -3.34841e-07 -0.0010007)
(-2.20256e-07 -3.31236e-07 -0.00100079)
(-7.58546e-08 -3.28719e-07 -0.00100083)
(-4.72354e-07 -2.21554e-07 -0.00100052)
(-4.26644e-07 -2.1785e-07 -0.00100066)
(-3.38948e-07 -2.14663e-07 -0.00100078)
(-2.17948e-07 -2.12345e-07 -0.00100087)
(-7.50699e-08 -2.10721e-07 -0.00100092)
(-4.6877e-07 -7.61705e-08 -0.00100057)
(-4.23441e-07 -7.49143e-08 -0.00100071)
(-3.36385e-07 -7.38177e-08 -0.00100083)
(-2.16302e-07 -7.3022e-08 -0.00100092)
(-7.45007e-08 -7.24567e-08 -0.00100096)
(-6.70207e-07 -6.60421e-07 -0.00100022)
(-6.0548e-07 -6.48013e-07 -0.00100042)
(-4.81039e-07 -6.37463e-07 -0.0010006)
(-3.09309e-07 -6.29729e-07 -0.00100072)
(-1.06531e-07 -6.24472e-07 -0.00100079)
(-6.57678e-07 -5.93251e-07 -0.00100042)
(-5.94181e-07 -5.81876e-07 -0.00100062)
(-4.72138e-07 -5.72265e-07 -0.00100079)
(-3.03597e-07 -5.65285e-07 -0.00100091)
(-1.04559e-07 -5.60515e-07 -0.00100098)
(-6.46919e-07 -4.69043e-07 -0.00100059)
(-5.84494e-07 -4.59974e-07 -0.00100078)
(-4.64483e-07 -4.52273e-07 -0.00100095)
(-2.98721e-07 -4.46691e-07 -0.00100107)
(-1.02897e-07 -4.42911e-07 -0.00100113)
(-6.39004e-07 -3.00494e-07 -0.00100071)
(-5.77376e-07 -2.9467e-07 -0.0010009)
(-4.58854e-07 -2.89707e-07 -0.00100106)
(-2.95136e-07 -2.86114e-07 -0.00100118)
(-1.01671e-07 -2.83677e-07 -0.00100124)
(-6.33557e-07 -1.03274e-07 -0.00100077)
(-5.72521e-07 -1.01281e-07 -0.00100096)
(-4.55002e-07 -9.95788e-08 -0.00100112)
(-2.92673e-07 -9.83441e-08 -0.00100124)
(-1.00827e-07 -9.75065e-08 -0.0010013)
(-9.12037e-07 -8.97611e-07 -0.0010003)
(-8.24267e-07 -8.78528e-07 -0.00100058)
(-6.55085e-07 -8.62253e-07 -0.00100082)
(-4.21331e-07 -8.50327e-07 -0.00100099)
(-1.45132e-07 -8.42448e-07 -0.00100108)
(-8.92735e-07 -8.05099e-07 -0.00100057)
(-8.06833e-07 -7.87514e-07 -0.00100084)
(-6.41343e-07 -7.72661e-07 -0.00100107)
(-4.12538e-07 -7.61902e-07 -0.00100124)
(-1.42111e-07 -7.54759e-07 -0.00100133)
(-8.7603e-07 -6.35751e-07 -0.0010008)
(-7.91829e-07 -6.21653e-07 -0.00100106)
(-6.2952e-07 -6.09734e-07 -0.00100128)
(-4.05008e-07 -6.01116e-07 -0.00100145)
(-1.39534e-07 -5.95431e-07 -0.00100153)
(-8.63658e-07 -4.0696e-07 -0.00100096)
(-7.80768e-07 -3.97835e-07 -0.00100122)
(-6.20805e-07 -3.9014e-07 -0.00100144)
(-3.99456e-07 -3.84579e-07 -0.0010016)
(-1.37636e-07 -3.80914e-07 -0.00100168)
(-8.55398e-07 -1.39815e-07 -0.00100105)
(-7.73393e-07 -1.36666e-07 -0.0010013)
(-6.15003e-07 -1.34022e-07 -0.00100152)
(-3.95752e-07 -1.32113e-07 -0.00100168)
(-1.36365e-07 -1.30853e-07 -0.00100176)
(-1.24109e-06 -1.21943e-06 -0.00100041)
(-1.12214e-06 -1.19008e-06 -0.00100079)
(-8.92328e-07 -1.16503e-06 -0.00100111)
(-5.74163e-07 -1.1467e-06 -0.00100135)
(-1.97803e-07 -1.13482e-06 -0.00100147)
(-1.21135e-06 -1.09139e-06 -0.00100078)
(-1.09534e-06 -1.0643e-06 -0.00100114)
(-8.71139e-07 -1.04141e-06 -0.00100146)
(-5.60606e-07 -1.0248e-06 -0.00100168)
(-1.93164e-07 -1.01408e-06 -0.0010018)
(-1.18543e-06 -8.60393e-07 -0.00100108)
(-1.07216e-06 -8.385e-07 -0.00100144)
(-8.52892e-07 -8.20067e-07 -0.00100174)
(-5.48979e-07 -8.06753e-07 -0.00100196)
(-1.89186e-07 -7.98205e-07 -0.00100208)
(-1.16612e-06 -5.50161e-07 -0.0010013)
(-1.05495e-06 -5.35882e-07 -0.00100165)
(-8.39392e-07 -5.23925e-07 -0.00100195)
(-5.40398e-07 -5.15311e-07 -0.00100216)
(-1.86257e-07 -5.09798e-07 -0.00100227)
(-1.15354e-06 -1.8892e-07 -0.00100142)
(-1.04372e-06 -1.83966e-07 -0.00100176)
(-8.30603e-07 -1.79845e-07 -0.00100205)
(-5.34803e-07 -1.76883e-07 -0.00100226)
(-1.84341e-07 -1.74984e-07 -0.00100237)
(-1.68897e-06 -1.6557e-06 -0.00100056)
(-1.52784e-06 -1.61061e-06 -0.00100108)
(-1.21587e-06 -1.57211e-06 -0.00100152)
(-7.82853e-07 -1.54391e-06 -0.00100184)
(-2.69774e-07 -1.52595e-06 -0.00100201)
(-1.64313e-06 -1.47745e-06 -0.00100106)
(-1.48673e-06 -1.43569e-06 -0.00100155)
(-1.18328e-06 -1.40047e-06 -0.00100198)
(-7.61961e-07 -1.37489e-06 -0.00100229)
(-2.62633e-07 -1.35881e-06 -0.00100245)
(-1.60288e-06 -1.16212e-06 -0.00100147)
(-1.45087e-06 -1.12805e-06 -0.00100195)
(-1.15515e-06 -1.09952e-06 -0.00100236)
(-7.4409e-07 -1.07898e-06 -0.00100266)
(-2.56542e-07 -1.06615e-06 -0.00100281)
(-1.57266e-06 -7.4202e-07 -0.00100176)
(-1.42405e-06 -7.19637e-07 -0.00100223)
(-1.13421e-06 -7.01014e-07 -0.00100263)
(-7.30821e-07 -6.87664e-07 -0.00100292)
(-2.52023e-07 -6.79381e-07 -0.00100307)
(-1.55334e-06 -2.54641e-07 -0.00100191)
(-1.40687e-06 -2.46846e-07 -0.00100237)
(-1.12084e-06 -2.40406e-07 -0.00100276)
(-7.22372e-07 -2.35805e-07 -0.00100305)
(-2.49155e-07 -2.32968e-07 -0.0010032)
(-2.29881e-06 -2.24634e-06 -0.00100078)
(-2.08065e-06 -2.17731e-06 -0.00100148)
(-1.65735e-06 -2.11826e-06 -0.00100208)
(-1.06803e-06 -2.07485e-06 -0.00100253)
(-3.68227e-07 -2.04772e-06 -0.00100276)
(-2.22826e-06 -1.99631e-06 -0.00100144)
(-2.01756e-06 -1.93181e-06 -0.00100212)
(-1.60739e-06 -1.87772e-06 -0.00100269)
(-1.036e-06 -1.83856e-06 -0.00100312)
(-3.57273e-07 -1.81452e-06 -0.00100334)
(-2.16558e-06 -1.56542e-06 -0.00100199)
(-1.96207e-06 -1.51221e-06 -0.00100264)
(-1.56421e-06 -1.46804e-06 -0.00100319)
(-1.00876e-06 -1.43641e-06 -0.0010036)
(-3.48052e-07 -1.41722e-06 -0.00100381)
(-2.11795e-06 -9.97783e-07 -0.00100238)
(-1.92007e-06 -9.62475e-07 -0.001003)
(-1.5316e-06 -9.33388e-07 -0.00100354)
(-9.88179e-07 -9.12653e-07 -0.00100394)
(-3.41072e-07 -9.00195e-07 -0.00100414)
(-2.08795e-06 -3.42226e-07 -0.00100258)
(-1.89359e-06 -3.29859e-07 -0.00100319)
(-1.51119e-06 -3.19769e-07 -0.00100372)
(-9.75419e-07 -3.12635e-07 -0.00100411)
(-3.36788e-07 -3.08406e-07 -0.00100431)
(-3.1298e-06 -3.04466e-06 -0.00100108)
(-2.83414e-06 -2.93908e-06 -0.00100204)
(-2.26024e-06 -2.84896e-06 -0.00100286)
(-1.45812e-06 -2.78215e-06 -0.00100347)
(-5.02992e-07 -2.74128e-06 -0.00100378)
(-3.02136e-06 -2.69021e-06 -0.00100197)
(-2.73729e-06 -2.5902e-06 -0.00100288)
(-2.18398e-06 -2.50751e-06 -0.00100367)
(-1.4093e-06 -2.44806e-06 -0.00100424)
(-4.86338e-07 -2.41266e-06 -0.00100455)
(-2.9234e-06 -2.10078e-06 -0.0010027)
(-2.65144e-06 -2.01705e-06 -0.00100356)
(-2.11826e-06 -1.94871e-06 -0.00100432)
(-1.36857e-06 -1.90012e-06 -0.00100487)
(-4.72805e-07 -1.87169e-06 -0.00100516)
(-2.84753e-06 -1.33657e-06 -0.00100321)
(-2.58506e-06 -1.28015e-06 -0.00100404)
(-2.06703e-06 -1.23453e-06 -0.00100476)
(-1.33631e-06 -1.20211e-06 -0.0010053)
(-4.61934e-07 -1.18349e-06 -0.00100558)
(-2.80015e-06 -4.58423e-07 -0.00100348)
(-2.54382e-06 -4.38465e-07 -0.00100429)
(-2.03586e-06 -4.22678e-07 -0.00100499)
(-1.31727e-06 -4.11648e-07 -0.00100552)
(-4.55761e-07 -4.05571e-07 -0.00100579)
(-4.26371e-06 -4.12133e-06 -0.00100153)
(-3.86047e-06 -3.95908e-06 -0.00100283)
(-3.08403e-06 -3.82268e-06 -0.00100395)
(-1.99218e-06 -3.71986e-06 -0.00100478)
(-6.87504e-07 -3.6588e-06 -0.00100521)
(-4.0971e-06 -3.611e-06 -0.00100271)
(-3.71199e-06 -3.45465e-06 -0.00100393)
(-2.96858e-06 -3.33e-06 -0.001005)
(-1.91828e-06 -3.24129e-06 -0.00100578)
(-6.62453e-07 -3.19124e-06 -0.0010062)
(-3.94323e-06 -2.80432e-06 -0.00100366)
(-3.57947e-06 -2.67077e-06 -0.00100481)
(-2.87088e-06 -2.56537e-06 -0.00100583)
(-1.86054e-06 -2.49073e-06 -0.00100659)
(-6.44461e-07 -2.44971e-06 -0.001007)
(-3.82055e-06 -1.78203e-06 -0.00100432)
(-3.47282e-06 -1.68965e-06 -0.00100541)
(-2.78852e-06 -1.61795e-06 -0.00100639)
(-1.80798e-06 -1.56623e-06 -0.0010071)
(-6.26785e-07 -1.5389e-06 -0.00100749)
(-3.74362e-06 -6.1229e-07 -0.00100468)
(-3.40779e-06 -5.79023e-07 -0.00100573)
(-2.74148e-06 -5.54782e-07 -0.00100668)
(-1.78102e-06 -5.37942e-07 -0.00100738)
(-6.1917e-07 -5.30497e-07 -0.00100777)
(-5.81506e-06 -5.56984e-06 -0.00100221)
(-5.25487e-06 -5.31476e-06 -0.00100395)
(-4.2099e-06 -5.11196e-06 -0.00100548)
(-2.72373e-06 -4.95218e-06 -0.00100662)
(-9.4007e-07 -4.86333e-06 -0.00100721)
(-5.5585e-06 -4.81851e-06 -0.00100376)