FoamFile
{version 2.0; format ascii;class Cloud<passiveParticle>; location 0;object  positions;}
350
(
( -0.00130858 0.00382181 0.00049878 ) 0 
( -0.002517 0.00288583 0.000496326 ) 0 
( -0.00457709 0.00300422 0.000497437 ) 0 
( -0.00151956 0.00284642 0.000498536 ) 0 
( -0.00172214 0.00134375 0.000498411 ) 0 
( -0.00147539 0.0048056 0.000497656 ) 0 
( -2.35288e-05 0.00170766 0.000496977 ) 0 
( -0.00230747 0.00389639 0.000497729 ) 0 
( -0.000536019 0.00302019 0.000498076 ) 0 
( -0.00247385 0.000632495 0.000498413 ) 0 
( -0.0048793 0.00395799 0.000496852 ) 0 
( -0.000760359 0.00103341 0.000497725 ) 0 
( -0.00416517 0.000208451 0.000498078 ) 0 
( -0.000325088 0.00399633 0.000497748 ) 0 
( -0.00271329 0.00171366 0.000497882 ) 0 
( -0.000527117 6.13365e-05 0.000499152 ) 0 
( -0.00414392 0.00463526 0.000499676 ) 0 
( -0.00384145 0.0036797 0.000499127 ) 0 
( -0.00315819 0.00438269 0.000690262 ) 0 
( -0.00489209 0.00236751 0.00119879 ) 0 
( -0.00149837 0.000346619 0.000499232 ) 0 
( -0.00424262 0.0020631 0.000498815 ) 0 
( -0.00439902 0.00112737 0.000809658 ) 0 
( -0.00344901 0.000904686 0.000498068 ) 0 
( -0.00204204 0.00331306 0.00126174 ) 0 
( -0.00350523 0.00273768 0.000499512 ) 0 
( -0.00180834 0.0042837 0.00128107 ) 0 
( -0.000975731 0.00200879 0.000498731 ) 0 
( -0.00416799 0.00177052 0.00153722 ) 0 
( -0.00132984 0.000909068 0.00130772 ) 0 
( -0.00306342 0.00347184 0.00109052 ) 0 
( -0.0022887 0.00118949 0.00130637 ) 0 
( -0.00302963 0.000487151 0.00131546 ) 0 
( -0.00110805 0.00247418 0.00137302 ) 0 
( -6.56562e-05 0.00244709 0.00116528 ) 0 
( -0.00198872 0.00214561 0.00103214 ) 0 
( -7.17401e-05 0.00350924 0.00133201 ) 0 
( -0.000820446 0.00443164 0.00124598 ) 0 
( -0.0032492 0.00146158 0.00130096 ) 0 
( -0.00292345 0.00240493 0.00126974 ) 0 
( -0.0010667 0.00347223 0.00140247 ) 0 
( -0.00206776 0.000215674 0.00131097 ) 0 
( -0.00478394 0.00031723 0.00127579 ) 0 
( -0.00161901 0.00169873 0.00184434 ) 0 
( -0.00483437 0.00453732 0.0021129 ) 0 
( -0.00131014 0.00453683 0.00210844 ) 0 
( -0.000307431 0.0028512 0.00204473 ) 0 
( -0.00399187 0.00307832 0.0013035 ) 0 
( -0.00264261 0.00178605 0.00202472 ) 0 
( -0.00058235 0.00159259 0.00131797 ) 0 
( -0.00394217 0.000759701 0.00161842 ) 0 
( -0.000357135 0.000618661 0.00131122 ) 0 
( -0.00339434 0.000135841 0.00217553 ) 0 
( -0.00437967 0.00408149 0.00134978 ) 0 
( -7.89871e-05 0.00432476 0.00190754 ) 0 
( -0.00363065 0.00472438 0.00150126 ) 0 
( -0.00473065 0.00349549 0.00207752 ) 0 
( -0.00354511 0.00142203 0.00225314 ) 0 
( -0.00269929 0.0033508 0.0020133 ) 0 
( -0.000743165 0.00197367 0.00223604 ) 0 
( -0.000896726 0.000595298 0.00215064 ) 0 
( -0.00356827 0.00239698 0.00203049 ) 0 
( -0.00205531 0.00259046 0.00194876 ) 0 
( -0.00275042 0.00426501 0.00161263 ) 0 
( -6.66805e-05 0.00123917 0.00220882 ) 0 
( -0.0016794 0.00103572 0.00258819 ) 0 
( -0.00175743 9.80825e-05 0.00225183 ) 0 
( -0.00439637 0.000299822 0.00238048 ) 0 
( -0.0045556 0.00251216 0.00212738 ) 0 
( -0.00253522 0.000718471 0.00215298 ) 0 
( -0.00358719 0.00378765 0.00187869 ) 0 
( -0.00122297 0.00283515 0.00244332 ) 0 
( -0.00174259 0.00363819 0.00215582 ) 0 
( -0.00367571 0.000710847 0.00294134 ) 0 
( -0.00456194 0.00128294 0.00231322 ) 0 
( -0.00222441 0.00444376 0.00249968 ) 0 
( -0.00278749 0.00256789 0.00262843 ) 0 
( -0.000709728 0.00468213 0.00289294 ) 0 
( -0.000747051 0.00370599 0.00232031 ) 0 
( -0.00393092 0.00315416 0.00256993 ) 0 
( -0.000755891 0.00120356 0.00293042 ) 0 
( -0.00304557 0.0049658 0.00227382 ) 0 
( -0.00194284 0.000301007 0.00321106 ) 0 
( -0.0025627 0.00135837 0.00292383 ) 0 
( -0.00389318 0.0044897 0.00251976 ) 0 
( -3.86845e-05 0.00191734 0.00294209 ) 0 
( -0.00317807 0.00201212 0.0033607 ) 0 
( -0.00497371 0.00092973 0.00315059 ) 0 
( -0.00147172 0.00404948 0.00302439 ) 0 
( -0.000431519 0.00305088 0.00301464 ) 0 
( -0.00403293 0.00205961 0.00284741 ) 0 
( -0.000128486 0.000410114 0.00276157 ) 0 
( -0.00285369 0.000594329 0.00349828 ) 0 
( -0.00307015 0.00395879 0.00271401 ) 0 
( -0.00229306 0.00337478 0.00294556 ) 0 
( -0.00492384 0.00299668 0.00291953 ) 0 
( -0.0046743 6.2806e-05 0.00354569 ) 0 
( -0.00429131 0.00385664 0.00318017 ) 0 
( -0.00229167 0.00253983 0.00349504 ) 0 
( -0.00154695 0.00143965 0.00349276 ) 0 
( -0.00185097 0.00483201 0.00351806 ) 0 
( -0.00143053 0.00311591 0.00338 ) 0 
( -0.00109377 0.000578421 0.00371499 ) 0 
( -0.00377675 0.00491978 0.00349008 ) 0 
( -0.00282378 0.00463257 0.00340694 ) 0 
( -0.000960216 0.00221947 0.003184 ) 0 
( -0.00184529 0.00204063 0.00275447 ) 0 
( -0.00324108 0.00316317 0.00329215 ) 0 
( -0.00373161 0.000242126 0.0038209 ) 0 
( -0.000155759 0.00246022 0.0037726 ) 0 
( -0.000114975 0.000700347 0.00386952 ) 0 
( -0.00482188 0.00445467 0.00377774 ) 0 
( -0.00305918 0.00264433 0.00412492 ) 0 
( -0.00415602 0.00134968 0.00353927 ) 0 
( -0.00243577 0.00162767 0.00390661 ) 0 
( -0.00160503 0.001403 0.00448879 ) 0 
( -0.00395391 0.00223829 0.00394705 ) 0 
( -0.00333496 0.00123425 0.00409471 ) 0 
( -0.00221302 0.00393245 0.0037688 ) 0 
( -0.000690825 0.00381652 0.00360079 ) 0 
( -0.000623546 0.00155986 0.0038539 ) 0 
( -0.00209369 0.000598016 0.00415289 ) 0 
( -0.000917605 0.00475285 0.00386641 ) 0 
( -0.00445388 0.00308772 0.00379502 ) 0 
( -0.00492729 0.00112094 0.004131 ) 0 
( -0.001488 0.00228219 0.00402971 ) 0 
( -0.00350173 0.00399883 0.00377488 ) 0 
( -0.00483997 0.00214178 0.0034288 ) 0 
( -0.00201154 0.0030968 0.00427561 ) 0 
( -0.0033784 0.00195989 0.00477834 ) 0 
( -0.00405639 0.0046004 0.00440324 ) 0 
( -0.000442102 0.00415365 0.00450718 ) 0 
( -0.000852354 0.00303393 0.00420075 ) 0 
( -0.00300783 0.000379468 0.004495 ) 0 
( -0.00494236 0.00243904 0.00437628 ) 0 
( -0.00207616 0.00462913 0.00447085 ) 0 
( -0.00434262 0.00170963 0.00469949 ) 0 
( -0.00253088 0.0012111 0.00480949 ) 0 
( -0.00306683 0.00473514 0.00436916 ) 0 
( -0.00287416 0.00357856 0.00442962 ) 0 
( -0.00412538 0.000741463 0.00459065 ) 0 
( -0.00482316 0.00372966 0.00446289 ) 0 
( -0.00138239 0.0038716 0.00431862 ) 0 
( -0.000761041 0.000882808 0.00460727 ) 0 
( -3.89987e-05 0.0027784 0.00472065 ) 0 
( -0.00194502 0.00364092 0.00511127 ) 0 
( -0.00323432 0.00290353 0.00507278 ) 0 
( -0.00420293 0.00264674 0.00501649 ) 0 
( -0.00342514 0.00106263 0.00522745 ) 0 
( -0.00120806 0.00456557 0.00501385 ) 0 
( -0.00233582 0.0022455 0.00468556 ) 0 
( -0.00386656 0.00344844 0.00452399 ) 0 
( -0.00146895 0.0026903 0.00500834 ) 0 
( -0.00371055 2.87269e-05 0.00515436 ) 0 
( -0.00466534 0.000142273 0.00542576 ) 0 
( -0.000745702 0.00207144 0.00470359 ) 0 
( -0.00444422 0.00420371 0.00525514 ) 0 
( -0.000897464 0.0035036 0.00511111 ) 0 
( -0.00393104 0.000411323 0.0060489 ) 0 
( -0.00387467 0.00194184 0.00564524 ) 0 
( -0.000657381 0.00421639 0.00577 ) 0 
( -0.00141458 4.00588e-05 0.00587601 ) 0 
( -0.00165283 0.00425254 0.00585195 ) 0 
( -0.00249977 0.00443542 0.00535424 ) 0 
( -0.0022203 0.000263838 0.00509637 ) 0 
( -0.000627481 0.00140363 0.00545006 ) 0 
( -0.00233906 0.00281279 0.00550768 ) 0 
( -0.00176753 0.00181476 0.00538397 ) 0 
( -0.00345914 0.00416477 0.00508973 ) 0 
( -0.00438831 0.00109913 0.00548729 ) 0 
( -0.00337854 0.0027196 0.00604352 ) 0 
( -0.00392056 0.00342023 0.00558313 ) 0 
( -0.000572511 0.000393628 0.00545794 ) 0 
( -0.00291663 0.00360184 0.00571236 ) 0 
( -0.00259292 0.000911998 0.00576045 ) 0 
( -0.00489164 0.00328735 0.00535532 ) 0 
( -0.00146556 0.00319636 0.00587129 ) 0 
( -0.00224682 0.00345214 0.00643865 ) 0 
( -0.00274892 0.00190066 0.00555074 ) 0 
( -0.00443684 0.00268122 0.00601349 ) 0 
( -0.00112184 0.00200212 0.00612193 ) 0 
( -0.0010556 0.000949246 0.00623031 ) 0 
( -0.000623945 0.00264343 0.00553947 ) 0 
( -0.00145908 0.000867734 0.00532054 ) 0 
( -0.00133414 0.00378327 0.00667435 ) 0 
( -0.00304125 0.0047167 0.0061459 ) 0 
( -0.00491446 0.00395141 0.00609994 ) 0 
( -0.000410453 0.00349969 0.00641989 ) 0 
( -0.00107496 0.00281101 0.00670679 ) 0 
( -0.00195868 0.00248744 0.00637173 ) 0 
( -0.00341802 0.00125396 0.00620878 ) 0 
( -0.000250354 0.00158636 0.00637603 ) 0 
( -0.000543361 0.0045986 0.00668648 ) 0 
( -0.00195825 0.00148712 0.00630769 ) 0 
( -0.00403058 0.00459082 0.0060788 ) 0 
( -0.0030496 0.000367996 0.00651561 ) 0 
( -0.000555609 0.000104097 0.0064143 ) 0 
( -0.00231316 0.00439893 0.00675247 ) 0 
( -0.00128015 0.000260462 0.00708408 ) 0 
( -0.00135752 0.0046871 0.00725794 ) 0 
( -0.00382971 0.00205593 0.00664006 ) 0 
( -0.0021034 0.00196551 0.00721033 ) 0 
( -0.00352232 0.00382666 0.0064737 ) 0 
( -0.00204564 0.000508483 0.00649224 ) 0 
( -0.00428926 0.00110085 0.00667515 ) 0 
( -0.00121546 0.00155306 0.00700942 ) 0 
( -0.00283631 0.00204106 0.00653523 ) 0 
( -0.00484699 0.0017174 0.00612239 ) 0 
( -0.00482967 0.00478081 0.0066483 ) 0 
( -0.00475524 0.00224857 0.00696285 ) 0 
( -0.00299574 0.00300193 0.00692197 ) 0 
( -0.00399049 0.00302241 0.00683702 ) 0 
( -0.00353352 0.000847003 0.00727711 ) 0 
( -0.000479974 0.000876715 0.00704386 ) 0 
( -0.000605856 0.0037808 0.00735918 ) 0 
( -0.00158031 0.00379248 0.00764267 ) 0 
( -0.00324567 0.00181059 0.00741674 ) 0 
( -0.0019588 0.00295311 0.0072557 ) 0 
( -0.00439397 0.00392961 0.00695282 ) 0 
( -0.000195866 0.0028854 0.00717708 ) 0 
( -0.000437171 0.00177597 0.00759575 ) 0 
( -0.00445971 0.00471033 0.00757338 ) 0 
( -0.00263939 0.00116064 0.00696087 ) 0 
( -0.0049104 0.000206687 0.00695653 ) 0 
( -0.00272705 0.00261937 0.00780444 ) 0 
( -0.0017035 7.96628e-05 0.00797134 ) 0 
( -0.00441851 0.000657022 0.00770092 ) 0 
( -0.0025589 0.00372837 0.00745161 ) 0 
( -0.00183837 0.000963547 0.00752295 ) 0 
( -0.00218535 0.00453928 0.00791594 ) 0 
( -4.21278e-05 0.00032415 0.00784172 ) 0 
( -0.000450016 0.00475182 0.00767049 ) 0 
( -0.00422003 0.00162042 0.00752514 ) 0 
( -0.00459805 0.00313338 0.00762168 ) 0 
( -0.00355626 0.00367024 0.00745974 ) 0 
( -0.00104678 0.00294916 0.00769583 ) 0 
( -0.00249652 0.000215459 0.00733435 ) 0 
( -0.00327706 0.00456239 0.00710455 ) 0 
( -0.00136414 0.00201938 0.00787982 ) 0 
( -0.000948622 0.000737923 0.00791599 ) 0 
( -0.000163666 0.00117853 0.00834908 ) 0 
( -0.00124011 0.00451878 0.00823855 ) 0 
( -0.00411949 0.00401726 0.00820742 ) 0 
( -0.0012234 0.00352231 0.0085356 ) 0 
( -0.000625629 0.00204104 0.00855186 ) 0 
( -0.0037181 0.00113899 0.00824188 ) 0 
( -0.00372197 0.00264229 0.00772052 ) 0 
( -0.00229381 0.00180033 0.00817685 ) 0 
( -0.000376459 0.0030016 0.00843479 ) 0 
( -0.00382082 0.00489811 0.00857177 ) 0 
( -0.00106717 0.000210405 0.00875644 ) 0 
( -0.00312962 0.00337832 0.00831513 ) 0 
( -0.00315308 0.004348 0.0080727 ) 0 
( -0.00185715 0.00280073 0.00826037 ) 0 
( -0.0027858 0.000967652 0.00792858 ) 0 
( -0.00454319 0.00230416 0.00817734 ) 0 
( -0.000944241 0.00117922 0.00897283 ) 0 
( -0.00329622 0.00203297 0.00838914 ) 0 
( -0.00181614 0.000992893 0.00852171 ) 0 
( -0.00442086 0.00155018 0.0088206 ) 0 
( -0.00405197 0.00308497 0.00856257 ) 0 
( -0.00168765 0.00429697 0.00910411 ) 0 
( -0.00396486 0.000218926 0.00854184 ) 0 
( -0.00249015 0.000256263 0.00856249 ) 0 
( -0.00157423 0.00194574 0.00885375 ) 0 
( -0.00271681 0.00123875 0.00888726 ) 0 
( -0.00220246 0.00371303 0.00847712 ) 0 
( -0.00497424 0.000411987 0.00849442 ) 0 
( -0.000378799 0.00402599 0.00835414 ) 0 
( -0.00324154 0.000441613 0.00919477 ) 0 
( -0.00466538 0.0044801 0.0089054 ) 0 
( -0.00359392 0.00136402 0.00935021 ) 0 
( -0.00282368 0.00334549 0.009282 ) 0 
( -0.00386576 0.00230757 0.00916294 ) 0 
( -0.0010408 0.00274219 0.00913363 ) 0 
( -0.00463092 0.00290592 0.00939805 ) 0 
( -0.00362839 0.00389715 0.00906821 ) 0 
( -0.00255132 0.00246512 0.00889546 ) 0 
( -0.00186566 0.000382653 0.00933196 ) 0 
( -0.00275272 0.00437253 0.00898813 ) 0 
( -0.000545814 0.00486707 0.00886772 ) 0 
( -0.000699773 0.00390684 0.00929368 ) 0 
( -0.00258058 0.00088901 0.0098133 ) 0 
( -0.002788 0.00186765 0.0096603 ) 0 
( -0.000622834 0.00193321 0.00954499 ) 0 
( -0.00182564 0.00333089 0.00932053 ) 0 
( -0.00370712 0.00313155 0.00970562 ) 0 
( -0.00385907 0.00473748 0.00955748 ) 0 
( -0.00492869 0.0019682 0.00957325 ) 0 
( -0.00170041 0.00132358 0.00962494 ) 0 
( -0.000440843 0.000695103 0.00968766 ) 0 
( -0.000133064 0.00295913 0.00949106 ) 0 
( -0.00420021 0.00057271 0.00944593 ) 0 
( -0.00441321 0.003839 0.00968368 ) 0 
( -0.00390319 0.00226361 0.0101611 ) 0 
( -0.00349402 0.00065884 0.0101477 ) 0 
( -0.00221555 0.00160232 0.0104349 ) 0 
( -0.00128685 0.00194305 0.0102918 ) 0 
( -0.00430667 0.00135472 0.0100591 ) 0 
( -0.0028632 0.00276456 0.0100947 ) 0 
( -0.00136272 0.00384779 0.0100396 ) 0 
( -0.00307109 0.0049611 0.0101303 ) 0 
( -0.00102312 0.00291118 0.0101182 ) 0 
( -0.00192519 0.00239998 0.00967211 ) 0 
( -0.00232694 0.00403275 0.00982574 ) 0 
( -0.0010425 0.00474079 0.00972559 ) 0 
( -0.00332397 0.00400132 0.0100146 ) 0 
( -0.00202927 0.000213641 0.0103034 ) 0 
( -0.000281879 0.00367606 0.0101714 ) 0 
( -0.00266107 0.00374874 0.0107234 ) 0 
( -0.0044758 0.00310893 0.0103639 ) 0 
( -0.00422173 0.00064644 0.010833 ) 0 
( -0.00326121 0.00156918 0.0104882 ) 0 
( -0.00178844 0.00468045 0.0103915 ) 0 
( -0.000256019 0.00239187 0.0104927 ) 0 
( -0.0013844 0.000200837 0.0111442 ) 0 
( -0.000108357 0.000512155 0.0106447 ) 0 
( -0.00269574 0.000806402 0.0108025 ) 0 
( -0.000441621 0.00141613 0.0103803 ) 0 
( -0.00196925 0.00312196 0.0103622 ) 0 
( -0.000784008 0.00440757 0.010632 ) 0 
( -0.00413007 0.00431883 0.0105135 ) 0 
( -0.00128387 0.000879095 0.0104171 ) 0 
( -0.00239964 0.00294148 0.0112515 ) 0 
( -0.00321999 0.00244318 0.0109715 ) 0 
( -0.000224263 0.0028028 0.0114034 ) 0 
( -0.00250899 0.000182321 0.0115607 ) 0 
( -0.00141637 0.00261344 0.0110217 ) 0 
( -0.0048237 0.00218381 0.0105437 ) 0 
( -0.00173197 0.00390301 0.0110577 ) 0 
( -0.00357476 0.00334462 0.0107253 ) 0 
( -0.000853798 0.00343698 0.0109551 ) 0 
( -0.000740779 0.000990233 0.0112531 ) 0 
( -0.0026905 0.00166655 0.0113121 ) 0 
( -0.00259909 0.00471365 0.0109761 ) 0 
( -0.0040856 0.00171951 0.0110327 ) 0 
( -0.00193313 0.00224314 0.0117935 ) 0 
( -0.00498262 0.00127929 0.0110137 ) 0 
( -0.000431784 0.00484194 0.0114605 ) 0 
( -0.000943141 0.002066 0.0117115 ) 0 
( -0.0044565 0.00366437 0.011195 ) 0 
( -0.00148094 0.00465541 0.0116661 ) 0 
( -0.000106417 0.00176311 0.0112558 ) 0 
( -0.000770502 0.00396466 0.0118 ) 0 
( -0.00347714 0.00101181 0.0113913 ) 0 
( -0.00160028 0.0014987 0.0112155 ) 0 
( -0.00415759 0.00269914 0.0112184 ) 0 
( -0.00350445 0.00197187 0.0118061 ) 0 
( -0.000587974 0.000133117 0.0117447 ) 0 
( -0.00176187 0.000766695 0.0118769 ) 0 
)
