FoamFile
{version 2.0; format ascii;class Cloud<passiveParticle>; location 0;object  positions;}
41
(
( -67.7799 -326.826 99.8377 ) 0 
( -236.782 -433.412 99.7982 ) 0 
( -138.478 -139.874 99.8388 ) 0 
( -485.705 -332.772 99.7909 ) 0 
( -342.481 -138.191 99.8619 ) 0 
( -436.551 -45.7583 284.459 ) 0 
( -241.565 -268.624 212.764 ) 0 
( -414.948 -404.829 272.2 ) 0 
( -106.347 -224.841 353.338 ) 0 
( -239.733 -61.5547 253.269 ) 0 
( -135.521 -423.543 281.614 ) 0 
( -452.36 -229.702 361.124 ) 0 
( -304.008 -117.392 434.1 ) 0 
( -67.7018 -174.214 542.829 ) 0 
( -29.026 -385.094 446.741 ) 0 
( -135.124 -11.4639 448.149 ) 0 
( -489.071 -413.846 457.591 ) 0 
( -281.222 -327.973 399.39 ) 0 
( -391.101 -255.282 549.697 ) 0 
( -178.82 -338.523 570.735 ) 0 
( -244.7 -129.965 624.595 ) 0 
( -146.492 -279.145 758.861 ) 0 
( -27.8135 -452.499 635.462 ) 0 
( -57.4612 -101.9 733.679 ) 0 
( -336.904 -396.086 680.798 ) 0 
( -462.912 -280.081 784.375 ) 0 
( -439.755 -111.391 679.659 ) 0 
( -299.676 -163.087 813.919 ) 0 
( -450.154 -42.6998 867.16 ) 0 
( -175.827 -476.731 767.617 ) 0 
( -174.731 -234.466 955.908 ) 0 
( -305.216 -362.701 875.347 ) 0 
( -378.891 -216.073 989.649 ) 0 
( -121.785 -42.4608 973.304 ) 0 
( -254.7 -498.773 1012.86 ) 0 
( -71.7056 -421.821 929.219 ) 0 
( -364.73 -34.4835 1072.19 ) 0 
( -142.576 -362.15 1106.43 ) 0 
( -72.4932 -38.3726 1167.06 ) 0 
( -246.074 -182.552 1135.35 ) 0 
( -395.584 -384.198 1096.63 ) 0 
)
