FoamFile
{version 2.0; format ascii;class vectorField; location 0;object  v;}
41
(
( -6.34129e-06 -5.06901e-05 -0.000146678 )  
( 6.93411e-06 -2.59342e-05 -0.000184865 )  
( 5.11647e-06 -8.13869e-06 -0.000122634 )  
( 2.44332e-05 3.64348e-05 -0.000139871 )  
( 3.21934e-06 -9.06529e-06 -0.000106595 )  
( 2.45243e-05 -1.00014e-06 -0.000255692 )  
( 2.36735e-06 -7.22889e-05 -0.000188524 )  
( -5.0856e-05 3.39677e-05 -0.000294732 )  
( -3.92523e-06 1.88434e-05 -0.000321448 )  
( 3.49585e-05 6.17257e-07 -0.00019753 )  
( 0.000115295 -7.28887e-05 -0.00063821 )  
( -3.04893e-05 1.04217e-05 -0.000373086 )  
( 2.58932e-06 -4.21887e-05 -0.000307601 )  
( 4.8185e-06 5.84163e-05 -0.000376854 )  
( -1.22207e-05 3.62857e-05 -0.000252883 )  
( 1.26951e-05 0.000102565 -0.000281939 )  
( -7.13102e-05 0.000153398 -0.000300661 )  
( -7.41982e-05 -0.000164261 -0.000253963 )  
( 8.99125e-06 5.05911e-05 -0.000301911 )  
( -4.69336e-05 -0.000118058 -0.000165988 )  
( 3.76113e-05 -7.25084e-06 -0.000276023 )  
( -4.20209e-05 -9.84024e-05 -5.06679e-05 )  
( 3.34009e-05 -8.27925e-06 -0.000140749 )  
( -9.44061e-06 -0.000118037 -0.000142189 )  
( 2.92382e-05 8.40018e-05 -0.000118855 )  
( 1.70354e-05 2.60715e-07 -0.000221665 )  
( 8.78266e-05 7.79755e-05 -0.00021813 )  
( -2.49061e-05 -5.26882e-05 -0.000107696 )  
( 4.33516e-05 -1.47879e-05 -3.52823e-05 )  
( 8.75348e-06 4.39878e-06 -5.80624e-05 )  
( -9.35385e-05 -4.76743e-05 4.0901e-05 )  
( 9.18648e-06 6.52465e-05 -4.71383e-05 )  
( -8.86155e-05 -1.13732e-05 4.40013e-05 )  
( -7.7309e-06 -0.0001017 -0.000146456 )  
( 5.27965e-05 7.68482e-05 3.25537e-05 )  
( -1.8573e-05 1.186e-05 0.000135053 )  
( 9.86313e-05 1.42704e-05 3.6864e-05 )  
( -9.8681e-05 8.83244e-05 0.00018127 )  
( 0.000163523 -8.75471e-05 -0.000236923 )  
( -8.18031e-05 0.000121927 -9.29383e-05 )  
( 8.93836e-05 -2.81484e-05 3.33995e-05 )  
)
