FoamFile
{version 2.0; format ascii;class vectorField; location 0;object  v;}
349
(
( -3.41806e-06 -5.50403e-06 -1.90841e-05 )  
( -2.00405e-06 6.08643e-07 -9.344e-06 )  
( 1.1619e-06 1.22503e-06 -1.78881e-05 )  
( -8.87126e-07 -1.64052e-06 -1.72747e-05 )  
( 2.51113e-06 -3.49948e-06 -1.16175e-05 )  
( -2.10067e-06 -1.47759e-06 -1.4856e-05 )  
( 2.52212e-07 7.07916e-07 -1.38927e-05 )  
( -9.94397e-07 -4.47725e-06 -1.74733e-05 )  
( 4.85364e-05 -4.17847e-06 -3.2717e-08 )  
( -7.25259e-07 2.40211e-06 -1.84024e-05 )  
( -4.69591e-06 -2.34117e-06 -1.72166e-05 )  
( 3.08162e-07 9.93092e-07 -1.4218e-05 )  
( -5.5845e-06 -1.38538e-06 -1.49906e-05 )  
( -9.73604e-07 -2.9001e-06 -1.33666e-05 )  
( 2.63099e-07 1.00904e-06 -1.99341e-05 )  
( -1.32993e-06 2.03992e-06 -1.67036e-05 )  
( -1.57149e-06 4.73302e-06 -1.90703e-05 )  
( -3.68945e-06 1.55291e-07 -1.72074e-05 )  
( -8.16209e-06 -3.89531e-06 -1.57568e-05 )  
( -2.99849e-06 -9.49878e-06 -1.13854e-05 )  
( 2.62114e-06 6.01321e-06 -3.38462e-05 )  
( -6.95096e-06 -1.02921e-05 -4.98627e-06 )  
( -4.54281e-07 -3.3974e-07 -1.56509e-05 )  
( -3.59712e-07 5.55816e-07 -3.50725e-06 )  
( -2.72952e-06 2.34568e-06 -3.91179e-05 )  
( 5.15676e-07 -7.40218e-07 -1.50891e-05 )  
( -3.91957e-07 4.28226e-06 -1.2629e-05 )  
( 2.7576e-06 -1.75792e-07 -3.34401e-05 )  
( -2.18489e-07 -1.7666e-08 -1.34071e-05 )  
( -7.39949e-07 -1.22285e-05 -3.92405e-05 )  
( -4.37714e-06 -5.63215e-06 -2.1184e-05 )  
( 3.57269e-06 -1.42669e-06 -3.57113e-05 )  
( 9.87157e-06 2.8649e-06 -2.02473e-05 )  
( 3.75511e-06 -4.27118e-06 -3.36337e-05 )  
( -3.31369e-06 -6.1399e-06 -3.54731e-05 )  
( -6.59615e-07 1.47021e-06 -3.46843e-05 )  
( 8.51989e-06 -5.31031e-06 -3.98778e-05 )  
( -3.96905e-07 -1.07944e-06 -3.20135e-05 )  
( 6.66104e-06 -5.37328e-06 -2.6056e-05 )  
( -3.19602e-07 -3.24831e-06 -3.16832e-05 )  
( -2.54141e-06 1.00158e-06 -3.46278e-05 )  
( 8.53353e-06 6.6012e-06 -2.29356e-05 )  
( 1.6076e-06 -1.2815e-06 -4.46859e-05 )  
( 1.69732e-06 -1.21208e-05 -2.32522e-05 )  
( -1.81092e-06 -4.71572e-06 -5.88514e-05 )  
( -4.75233e-06 8.07957e-07 -5.40736e-05 )  
( 7.19376e-06 -7.55696e-09 -4.80951e-05 )  
( -5.99786e-06 1.23026e-07 -5.52863e-05 )  
( 1.2854e-06 -5.44717e-07 -4.0419e-05 )  
( 9.27838e-07 4.74036e-06 -3.57653e-05 )  
( 6.46024e-06 -1.24325e-07 -5.42499e-05 )  
( -3.75863e-06 1.10937e-07 -3.2499e-05 )  
( -3.76751e-06 -2.84383e-06 -4.74794e-05 )  
( -1.09243e-05 -3.85485e-06 -4.08126e-05 )  
( -1.50768e-06 5.21337e-06 -3.53309e-05 )  
( 3.04831e-06 1.4345e-06 -4.86683e-05 )  
( -5.32501e-06 5.63409e-07 -5.2933e-05 )  
( 7.27044e-07 -9.44014e-06 -6.22281e-05 )  
( 6.22215e-06 -2.38461e-06 -5.08766e-05 )  
( -1.64219e-06 4.02826e-06 -6.82234e-05 )  
( 9.01439e-06 2.37799e-06 -5.52954e-05 )  
( 3.99158e-06 2.87887e-06 -5.03201e-05 )  
( -1.93845e-06 5.64257e-06 -5.52612e-05 )  
( -2.89643e-06 1.93267e-06 -4.99826e-05 )  
( 6.13989e-06 -7.7884e-06 -5.91495e-05 )  
( 2.52356e-06 4.46974e-06 -5.54494e-05 )  
( 1.09172e-06 -5.64482e-06 -5.37924e-05 )  
( 8.11146e-06 3.4621e-06 -4.35434e-05 )  
( -5.51001e-06 -1.06204e-05 -4.69564e-05 )  
( 1.06243e-05 -7.70701e-07 -5.28673e-05 )  
( 4.18938e-06 3.8495e-06 -6.74725e-05 )  
( 3.1484e-06 -2.84782e-06 -6.71892e-05 )  
( 1.26701e-06 -4.44025e-07 -6.56896e-05 )  
( 3.94341e-06 -5.25493e-08 -6.83111e-05 )  
( 2.78949e-06 5.92881e-07 -6.6516e-05 )  
( 3.99705e-07 8.9798e-08 -5.38004e-05 )  
( -5.40661e-06 -4.5735e-07 -8.2099e-05 )  
( -2.99877e-07 -1.55037e-05 -5.03546e-05 )  
( 6.34008e-06 -1.18675e-06 -5.84802e-05 )  
( 3.6745e-06 8.12476e-07 -7.00381e-05 )  
( 2.29938e-06 1.17742e-06 -6.19256e-05 )  
( 4.2488e-06 1.72194e-06 -6.72923e-05 )  
( -6.99688e-06 -1.46104e-06 -8.41426e-05 )  
( 5.33128e-06 1.1478e-06 -7.18902e-05 )  
( 4.88092e-06 -4.20942e-07 -7.52488e-05 )  
( -1.20881e-07 -3.51141e-06 -6.91522e-05 )  
( 1.13887e-05 7.47062e-06 -8.07666e-05 )  
( -4.5024e-06 -2.72441e-06 -6.88561e-05 )  
( -2.90043e-06 3.53477e-07 -8.97304e-05 )  
( 3.61208e-06 -2.19171e-07 -7.54276e-05 )  
( 2.61133e-06 3.96205e-07 -8.11399e-05 )  
( -2.11362e-08 1.17657e-05 -8.77748e-05 )  
( 3.67919e-06 -7.28368e-06 -6.65477e-05 )  
( 3.83409e-06 -5.46593e-06 -7.3006e-05 )  
( -8.59723e-06 -1.17349e-06 -6.97434e-05 )  
( -7.65298e-06 -6.84778e-07 -7.33401e-05 )  
( 4.17225e-06 5.82461e-06 -7.83738e-05 )  
( -4.29966e-06 -1.40165e-06 -9.18422e-05 )  
( -5.87839e-07 5.64193e-06 -9.7183e-05 )  
( -1.44954e-06 -4.72774e-06 -8.27178e-05 )  
( 2.32244e-06 -1.78417e-06 -7.99208e-05 )  
( -2.17476e-06 -1.99105e-06 -7.85767e-05 )  
( 8.65799e-07 -3.54352e-07 -9.07665e-05 )  
( 1.67902e-07 -8.46092e-07 -9.3778e-05 )  
( 3.8383e-06 -1.30698e-06 -9.16777e-05 )  
( -1.40898e-06 1.18532e-07 -9.29119e-05 )  
( -1.68445e-07 -1.0188e-06 -8.50659e-05 )  
( 3.83296e-06 -2.16939e-06 -7.72833e-05 )  
( -6.73552e-06 -7.11943e-07 -9.34815e-05 )  
( 1.54165e-05 2.60679e-05 -0.000102042 )  
( 6.37393e-07 8.75147e-07 -8.49937e-05 )  
( -8.30823e-06 -2.06634e-07 -9.80396e-05 )  
( -2.68633e-06 -1.26716e-06 -9.87453e-05 )  
( 1.80156e-06 -3.07769e-06 -8.31445e-05 )  
( -1.67748e-06 -9.86498e-06 -0.000111106 )  
( -1.12907e-06 -4.89357e-07 -9.67862e-05 )  
( 3.43778e-08 -7.16257e-07 -7.8905e-05 )  
( -1.52605e-06 -7.14292e-07 -9.55644e-05 )  
( 5.11854e-07 -3.89524e-06 -0.000100306 )  
( -4.48777e-06 -3.20882e-06 -0.000104228 )  
( 3.30301e-06 5.51898e-06 -8.16182e-05 )  
( -2.40542e-06 -1.51626e-06 -8.84461e-05 )  
( -6.30155e-06 7.60486e-06 -9.81121e-05 )  
( -5.6276e-06 -5.78714e-06 -0.000108902 )  
( 3.40871e-06 -6.08106e-08 -8.50769e-05 )  
( -3.70739e-06 -8.27719e-06 -9.88988e-05 )  
( -2.49783e-06 -2.66062e-06 -0.000102295 )  
( -2.68777e-06 -3.42547e-06 -0.000101753 )  
( 4.1428e-06 1.16178e-06 -9.08195e-05 )  
( 1.53387e-07 -5.04532e-08 -0.000116778 )  
( -1.16855e-06 -6.8287e-07 -0.000112714 )  
( 1.45661e-06 -1.89341e-06 -9.99277e-05 )  
( -4.33835e-06 -8.00646e-06 -0.000107056 )  
( 3.11148e-06 -2.94924e-06 -0.000100903 )  
( 2.10145e-06 -1.88937e-07 -0.000104311 )  
( -1.19263e-05 -4.07168e-06 -0.000107865 )  
( 2.36233e-06 -1.77553e-06 -8.44251e-05 )  
( -6.66525e-07 -5.84655e-06 -0.000117551 )  
( -5.7857e-06 -3.24927e-06 -0.000112867 )  
( -6.7155e-06 2.48869e-06 -0.000102135 )  
( 1.59106e-06 -6.56967e-06 -0.000119611 )  
( -7.90434e-06 -4.75703e-07 -0.000111095 )  
( -1.82811e-06 -4.26725e-07 -0.000109056 )  
( -3.08772e-06 -4.27243e-07 -0.000114725 )  
( 3.93418e-06 -4.20598e-06 -0.00011772 )  
( -1.13605e-05 -3.24759e-06 -0.000116881 )  
( -4.9094e-07 -3.11067e-06 -0.000124024 )  
( -3.23265e-06 1.85033e-06 -0.000103365 )  
( -2.89659e-06 -4.36489e-06 -0.000120337 )  
( 2.98707e-06 -4.61093e-06 -0.000105141 )  
( 3.56687e-06 -1.23753e-06 -0.000105349 )  
( 1.67876e-06 -7.26227e-06 -0.000107736 )  
( -3.4777e-06 2.95578e-06 -0.000121014 )  
( -3.71644e-06 -6.54187e-06 -0.000109443 )  
( -7.31036e-06 5.78172e-07 -0.000117066 )  
( -1.6497e-06 -6.69643e-06 -0.000134382 )  
( 1.76245e-06 -6.48319e-06 -0.000127616 )  
( -1.73006e-06 -2.72876e-06 -0.000109659 )  
( -3.33064e-06 -1.9481e-06 -0.000122371 )  
( 6.04423e-08 -5.1018e-06 -0.000120481 )  
( -4.4763e-07 -5.16072e-06 -0.000123283 )  
( -4.98448e-06 -5.35479e-06 -0.000118052 )  
( -1.02198e-06 -5.08408e-06 -0.000126708 )  
( -2.48325e-06 -3.54188e-06 -0.00011719 )  
( 2.64973e-06 -2.13857e-06 -0.000119278 )  
( 9.32229e-07 -2.65712e-06 -0.000116375 )  
( -1.23242e-06 -1.6011e-06 -0.000128474 )  
( -4.74935e-06 -6.17255e-06 -0.000131573 )  
( -2.481e-06 -3.0531e-06 -0.000129599 )  
( -1.35153e-06 -5.77462e-06 -0.000129398 )  
( 7.82906e-07 -3.06255e-06 -0.000127885 )  
( -5.83201e-06 -4.47267e-06 -0.000113745 )  
( 3.6921e-07 -8.50497e-06 -0.000134153 )  
( -6.60586e-07 -3.3319e-07 -0.00012175 )  
( -2.2163e-06 1.91936e-07 -0.00012901 )  
( -4.43542e-06 -2.27004e-06 -0.000128109 )  
( -3.78987e-06 -2.34749e-06 -0.000129217 )  
( -3.32476e-06 -5.73912e-06 -0.000136001 )  
( -9.99383e-07 -4.40518e-06 -0.0001257 )  
( -6.6475e-07 -6.22949e-06 -0.000139758 )  
( 1.44511e-06 -4.71782e-06 -0.000130361 )  
( -2.95697e-06 -3.35095e-06 -0.000138377 )  
( -6.6271e-06 -1.05805e-06 -0.000132031 )  
( -9.90352e-08 2.3076e-06 -0.000129845 )  
( 2.68676e-06 -5.26135e-07 -0.000130895 )  
( -7.52166e-06 -3.13012e-06 -0.00013282 )  
( -1.10724e-06 -8.56886e-06 -0.000140003 )  
( -3.79507e-06 -2.83806e-06 -0.000128784 )  
( 1.25741e-06 -2.98695e-06 -0.000125069 )  
( -6.95903e-06 -6.23321e-06 -0.000132144 )  
( -3.84886e-06 -3.15247e-06 -0.000137047 )  
( -2.92497e-06 -4.61829e-06 -0.000142617 )  
( 4.69549e-07 -3.63806e-06 -0.000138259 )  
( -1.50003e-07 -8.70474e-06 -0.000141605 )  
( -9.11084e-06 -3.79315e-06 -0.000133746 )  
( -1.34766e-06 6.41319e-07 -0.000134923 )  
( -4.20592e-06 -6.01428e-06 -0.000137974 )  
( -4.21319e-06 -3.79548e-07 -0.000143812 )  
( 6.40461e-07 -5.20873e-06 -0.000138612 )  
( 5.88695e-07 -8.74815e-06 -0.000142528 )  
( -4.8897e-06 -2.10278e-06 -0.00014323 )  
( 4.13752e-07 2.64528e-06 -0.000136305 )  
( -2.71316e-06 -2.17544e-06 -0.000136038 )  
( -4.6965e-06 -2.37021e-06 -0.000135411 )  
( -2.44689e-06 1.56442e-06 -0.000145741 )  
( -1.24524e-06 -3.20744e-06 -0.000137746 )  
( -6.53976e-06 -1.5294e-06 -0.000146386 )  
( -4.19101e-06 -2.20389e-06 -0.000139018 )  
( -4.8238e-06 -9.94938e-07 -0.000145212 )  
( -3.87426e-06 -4.16427e-06 -0.000142925 )  
( -2.99975e-06 -4.73503e-06 -0.0001403 )  
( -4.6002e-07 -2.59372e-06 -0.000133131 )  
( 2.88045e-06 -6.25956e-06 -0.000136151 )  
( -3.71063e-06 -6.83716e-06 -0.000148321 )  
( -1.12968e-06 -6.20006e-06 -0.000141339 )  
( -2.62593e-06 -1.44811e-06 -0.000145023 )  
( -7.50224e-06 -9.22719e-07 -0.000143304 )  
( -4.71358e-06 -5.09882e-07 -0.000151228 )  
( -1.7224e-06 -3.73267e-06 -0.000138707 )  
( -5.53689e-06 -1.16123e-05 -0.000146805 )  
( -2.74545e-06 -6.96111e-06 -0.00014718 )  
( -2.30164e-06 -2.16583e-06 -0.000152454 )  
( -4.37115e-06 -6.71826e-06 -0.00014852 )  
( -3.97041e-06 -9.62989e-06 -0.000150726 )  
( 1.08671e-06 -8.62412e-06 -0.000146472 )  
( 1.04567e-06 -2.36829e-06 -0.000150016 )  
( 2.661e-07 -3.28352e-06 -0.000147694 )  
( -5.40551e-06 -4.43262e-06 -0.000142956 )  
( -6.971e-06 -3.30719e-06 -0.000152603 )  
( -4.7397e-06 -4.98853e-06 -0.000138655 )  
( -1.34521e-06 -6.04069e-06 -0.00014748 )  
( -3.33325e-07 -7.62294e-07 -0.000149666 )  
( 5.47877e-07 -5.42686e-06 -0.000146205 )  
( -8.30534e-06 -5.26485e-10 -0.0001441 )  
( 8.27281e-07 2.80905e-07 -0.000140453 )  
( 2.84847e-07 -6.24045e-06 -0.000147215 )  
( -2.61587e-06 -5.83585e-06 -0.000144845 )  
( -2.36867e-06 9.03086e-07 -0.000153392 )  
( -1.0375e-05 1.42109e-06 -0.000153287 )  
( -3.03363e-07 -1.22788e-06 -0.000153102 )  
( 2.9322e-06 -7.19609e-06 -0.000149844 )  
( -1.20417e-05 -7.18983e-06 -0.000149807 )  
( 9.67942e-07 -6.72336e-06 -0.00015076 )  
( -2.00999e-06 -4.74225e-06 -0.000148758 )  
( -8.21825e-06 -1.31317e-06 -0.00014206 )  
( 1.78004e-06 -2.15602e-06 -0.000148257 )  
( -7.14463e-09 2.11801e-07 -0.000146788 )  
( -4.34114e-06 -2.54695e-07 -0.000149547 )  
( -2.37886e-06 -3.37445e-06 -0.000149993 )  
( -3.39057e-06 -9.35041e-07 -0.000154624 )  
( 2.44393e-06 -2.72511e-06 -0.000152742 )  
( 3.48992e-06 -4.26962e-06 -0.000150554 )  
( -9.12881e-07 -1.23038e-05 -0.000159736 )  
( 3.30531e-06 -1.12378e-05 -0.000149825 )  
( -2.80332e-06 -2.19733e-06 -0.000162266 )  
( 1.70408e-06 -1.83577e-06 -0.000149597 )  
( 8.92678e-07 -3.81758e-06 -0.000150818 )  
( -2.41651e-06 -2.49482e-06 -0.000154869 )  
( -5.56183e-07 1.53408e-06 -0.000152335 )  
( -7.59243e-06 -2.01409e-06 -0.000156956 )  
( -1.12367e-06 -2.18322e-06 -0.00014436 )  
( 3.4428e-07 -5.7641e-06 -0.000154197 )  
( -1.92827e-06 -2.03678e-06 -0.000150631 )  
( 5.05675e-06 -6.73871e-06 -0.000157352 )  
( -3.17212e-06 -3.28387e-06 -0.000150501 )  
( 4.49118e-06 -3.97119e-06 -0.000144484 )  
( 2.11603e-06 -2.59444e-06 -0.000153957 )  
( 9.85044e-06 -2.1673e-05 -0.000159779 )  
( -3.00848e-06 -5.6414e-07 -0.000165152 )  
( -3.37907e-06 -2.19919e-06 -0.000147849 )  
( 6.5968e-07 -7.42378e-06 -0.00015815 )  
( 3.84673e-06 -4.1724e-06 -0.000154084 )  
( 1.81158e-06 -7.06916e-06 -0.000159719 )  
( 5.79723e-06 3.93758e-06 -0.000153328 )  
( -6.87939e-06 -3.05347e-06 -0.000157926 )  
( 2.72488e-06 -5.14343e-06 -0.000154804 )  
( 1.63687e-06 -9.26895e-07 -0.00015624 )  
( 1.18592e-06 -8.85002e-06 -0.000146457 )  
( 5.20917e-06 -1.00406e-05 -0.000153736 )  
( 8.11601e-06 -4.52127e-06 -0.000160457 )  
( -2.18917e-06 -2.06995e-06 -0.000153702 )  
( 3.87516e-06 -9.86357e-06 -0.000152433 )  
( -3.99738e-06 9.46562e-07 -0.000156071 )  
( 2.57612e-06 -2.52676e-06 -0.000148891 )  
( -6.50938e-06 -5.56415e-06 -0.000161585 )  
( -1.37562e-06 7.21113e-07 -0.000156045 )  
( 2.05729e-06 -7.99892e-06 -0.000142422 )  
( 5.53573e-06 -6.19165e-06 -0.000163638 )  
( -4.45245e-06 -5.59836e-06 -0.000153575 )  
( 2.39358e-06 -2.35344e-06 -0.000166628 )  
( -1.71093e-06 -8.87155e-06 -0.000152721 )  
( -7.46381e-07 -2.85769e-06 -0.000146738 )  
( 1.71847e-06 5.38873e-07 -0.000161882 )  
( 7.11777e-06 -3.89044e-06 -0.000167286 )  
( -5.03653e-06 -6.78446e-06 -0.000153173 )  
( -5.12043e-06 -5.56895e-06 -0.000154789 )  
( 6.80999e-06 6.51436e-06 -0.000156169 )  
( -8.5505e-06 -1.1029e-05 -0.000156022 )  
( 2.82686e-06 1.40615e-05 -0.000163525 )  
( -4.05129e-07 -1.13781e-06 -0.000155181 )  
( 3.63306e-06 -3.15636e-06 -0.000160216 )  
( 1.33181e-06 6.65612e-07 -0.000156404 )  
( 8.06792e-06 -2.67141e-06 -0.000153629 )  
( 1.02482e-05 -3.2768e-07 -0.000173333 )  
( 8.34634e-06 -4.76142e-06 -0.000162074 )  
( 1.55995e-06 -5.06604e-06 -0.000154068 )  
( 9.92224e-06 -8.95536e-07 -0.000150757 )  
( 2.5559e-05 6.65046e-06 -0.000149353 )  
( -9.25257e-06 -1.05703e-05 -0.000151071 )  
( 1.35816e-05 1.49604e-06 -0.00014913 )  
( 8.47677e-06 6.91663e-06 -0.000162983 )  
( -8.9818e-06 1.28697e-06 -0.000148571 )  
( -2.8795e-05 2.11719e-05 -0.000164714 )  
( 1.47194e-05 8.50786e-06 -0.000164908 )  
( -1.89926e-05 -6.54279e-06 -0.000172797 )  
( -6.24288e-06 2.31576e-07 -0.000139132 )  
( 6.54457e-06 -1.65324e-05 -0.000162687 )  
( 6.8987e-06 3.40178e-06 -0.000160202 )  
( 7.17756e-07 2.59045e-07 -0.000157294 )  
( 9.23561e-06 1.89309e-06 -0.000155518 )  
( 6.27764e-07 9.18681e-06 -0.000154874 )  
( 8.56037e-07 7.27521e-06 -0.000161201 )  
( 5.29819e-07 -9.67888e-06 -0.000162759 )  
( 2.27616e-05 -1.33895e-06 -0.000167553 )  
( 1.80804e-06 1.07733e-05 -0.000145668 )  
( 3.16238e-06 -2.79144e-05 -0.000168279 )  
( 5.67746e-06 1.87372e-05 -0.000168479 )  
( -4.96062e-06 -3.01254e-05 -0.000175194 )  
( -1.38013e-05 -7.67072e-06 -0.000149281 )  
( 3.16462e-05 -9.27879e-07 -0.000154954 )  
( 2.5199e-06 2.94731e-06 -0.000150088 )  
( 1.4126e-05 2.22248e-06 -0.000150868 )  
( -1.99776e-05 6.538e-06 -0.00017188 )  
( -1.05966e-05 -6.4141e-06 -0.000152759 )  
( 5.25388e-06 5.75873e-05 -0.000160911 )  
( -3.77746e-05 7.3577e-06 -0.000153848 )  
( 8.66687e-06 -2.64908e-06 -0.000160687 )  
( 2.40666e-05 9.2707e-07 -0.000158108 )  
( -3.18435e-05 -1.59402e-05 -0.000153078 )  
( 2.01598e-06 4.15794e-06 -0.000159644 )  
( 1.41658e-06 -7.12158e-06 -0.000171797 )  
( 3.0423e-05 3.01524e-06 -0.000148218 )  
( -3.68284e-05 -2.4568e-05 -0.000139181 )  
( 9.41193e-06 9.58077e-06 -0.000174966 )  
( 9.32673e-05 -1.01306e-06 -0.000158983 )  
( 7.16506e-05 -2.76047e-05 -0.000205861 )  
( -2.72184e-05 -8.28925e-06 -0.000182398 )  
( 4.84078e-06 2.43303e-05 -0.000157467 )  
( 4.2335e-05 6.62645e-06 -0.0002207 )  
)
