/*--------------------------------*- C++ -*----------------------------------*\
| =========                 |                                                 |
| \\      /  F ield         | OpenFOAM: The Open Source CFD Toolbox           |
|  \\    /   O peration     | Version:  5.x                                   |
|   \\  /    A nd           | Web:      www.OpenFOAM.org                      |
|    \\/     M anipulation  |                                                 |
\*---------------------------------------------------------------------------*/
FoamFile
{
    version     2.0;
    format      ascii;
    class       volScalarField;
    location    "900";
    object      p;
}
// * * * * * * * * * * * * * * * * * * * * * * * * * * * * * * * * * * * * * //

dimensions      [0 2 -2 0 0 0 0];

internalField   nonuniform List<scalar> 
90
(
-0.00986671
-0.0288728
-0.0450047
-0.05091
-0.0557154
-0.0613777
-0.0730007
-0.0960104
-0.101433
-0.0987807
-0.116683
-0.132529
-0.147247
-0.153087
-0.14694
-0.159852
-0.19338
-0.227045
-0.242845
-0.260166
-0.300667
-0.34437
-0.380427
-0.397149
-0.414887
-0.457815
-0.504324
-0.543878
-0.565894
-0.593697
-0.641421
-0.668359
-0.678874
-0.707679
-0.757982
-0.808623
-0.859519
-0.913399
-0.964539
-0.99965
-1.0339
-1.07016
-1.11234
-1.17235
-1.21246
-1.23782
-1.26719
-1.29814
-1.33166
-1.36724
-1.4047
-1.44374
-1.48425
-1.52608
-1.56915
-1.61338
-1.65873
-1.70516
-1.75264
-1.80115
-1.85068
-1.90122
-1.95276
-2.0053
-2.05884
-2.11338
-2.16893
-2.22548
-2.28306
-2.34167
-2.40131
-2.462
-2.52375
-2.58659
-2.65053
-2.71559
-2.7818
-2.84918
-2.91778
-2.98763
-3.05878
-3.13133
-3.2053
-3.28053
-3.35675
-3.43517
-3.51908
-3.60782
-3.68327
-3.70533
)
;

boundaryField
{
    inlet
    {
        type            zeroGradient;
    }
    outlet
    {
        type            fixedValue;
        value           uniform 0;
    }
    repeat_boundary
    {
        type            zeroGradient;
    }
    procBoundary0to1
    {
        type            processor;
        value           nonuniform List<scalar> 
90
(
-0.00644352
-0.029103
-0.040628
-0.0538883
-0.0659962
-0.0791649
-0.092833
-0.107159
-0.121443
-0.136237
-0.152005
-0.16874
-0.186118
-0.203883
-0.222347
-0.242322
-0.264021
-0.287268
-0.311926
-0.338034
-0.365622
-0.394206
-0.423391
-0.453052
-0.48364
-0.515298
-0.547551
-0.580086
-0.612895
-0.646496
-0.680992
-0.715777
-0.751171
-0.787921
-0.826079
-0.865181
-0.904892
-0.944932
-0.984834
-1.02444
-1.06433
-1.10442
-1.14512
-1.18608
-1.22658
-1.26708
-1.3078
-1.3489
-1.39054
-1.43283
-1.47588
-1.51973
-1.56443
-1.61002
-1.65653
-1.70398
-1.75237
-1.80173
-1.85206
-1.90338
-1.95568
-2.00899
-2.06329
-2.11861
-2.17495
-2.2323
-2.29069
-2.3501
-2.41056
-2.47206
-2.53461
-2.59822
-2.6629
-2.72866
-2.79551
-2.86347
-2.93255
-3.00277
-3.07415
-3.14671
-3.22055
-3.29574
-3.37223
-3.44975
-3.5283
-3.60976
-3.69718
-3.78693
-3.85622
-3.86348
)
;
    }
    procBoundary0to2
    {
        type            processor;
        value           nonuniform List<scalar> 
90
(
-0.0339796
-0.0453602
-0.0507604
-0.0517776
-0.056533
-0.0619643
-0.0697844
-0.0788961
-0.0890657
-0.0999529
-0.112487
-0.126286
-0.140766
-0.155592
-0.170756
-0.187592
-0.2069
-0.228764
-0.252436
-0.27735
-0.304254
-0.332719
-0.362133
-0.391744
-0.421779
-0.452952
-0.484932
-0.517397
-0.549889
-0.58291
-0.617067
-0.651597
-0.68629
-0.722269
-0.760173
-0.799429
-0.839555
-0.880368
-0.921177
-0.961214
-1.0012
-1.04116
-1.08166
-1.12261
-1.16278
-1.20231
-1.24167
-1.28113
-1.32097
-1.3614
-1.40255
-1.44449
-1.4873
-1.53099
-1.57561
-1.62116
-1.66765
-1.7151
-1.7635
-1.81286
-1.86317
-1.91445
-1.96669
-2.0199
-2.07406
-2.12919
-2.18527
-2.24231
-2.30029
-2.35921
-2.41906
-2.47982
-2.54148
-2.60401
-2.66739
-2.73155
-2.79645
-2.86205
-2.92842
-2.99542
-3.06239
-3.12858
-3.19383
-3.25867
-3.32309
-3.38123
-3.42323
-3.46486
-3.5762
-3.77844
)
;
    }
}


// ************************************************************************* //
