/*--------------------------------*- C++ -*----------------------------------*\
| =========                 |                                                 |
| \\      /  F ield         | OpenFOAM: The Open Source CFD Toolbox           |
|  \\    /   O peration     | Version:  5.x                                   |
|   \\  /    A nd           | Web:      www.OpenFOAM.org                      |
|    \\/     M anipulation  |                                                 |
\*---------------------------------------------------------------------------*/
FoamFile
{
    version     2.0;
    format      ascii;
    class       surfaceScalarField;
    location    "900";
    object      phi;
}
// * * * * * * * * * * * * * * * * * * * * * * * * * * * * * * * * * * * * * //

dimensions      [0 3 -1 0 0 0 0];

internalField   nonuniform List<scalar> 
89
(
-140.076
-140.084
-140.088
-140.089
-140.089
-140.089
-140.088
-140.083
-140.082
-140.086
-140.09
-140.092
-140.093
-140.095
-140.103
-140.109
-140.109
-140.106
-140.1
-140.097
-140.087
-140.074
-140.058
-140.043
-140.028
-140.007
-139.98
-139.95
-139.924
-139.899
-139.872
-139.846
-139.824
-139.804
-139.776
-139.74
-139.699
-139.655
-139.61
-139.57
-139.528
-139.488
-139.447
-139.404
-139.368
-139.336
-139.308
-139.282
-139.256
-139.232
-139.207
-139.181
-139.155
-139.127
-139.098
-139.067
-139.034
-138.999
-138.961
-138.922
-138.88
-138.836
-138.789
-138.739
-138.686
-138.631
-138.572
-138.51
-138.445
-138.377
-138.305
-138.229
-138.15
-138.068
-137.981
-137.891
-137.798
-137.7
-137.599
-137.495
-137.387
-137.276
-137.162
-137.046
-136.929
-136.811
-136.691
-136.575
-136.465
)
;

boundaryField
{
    inlet
    {
        type            calculated;
        value           uniform -136.36;
    }
    outlet
    {
        type            calculated;
        value           uniform 140.065;
    }
    repeat_boundary
    {
        type            calculated;
        value           uniform 0;
    }
    procBoundary0to1
    {
        type            processor;
        value           nonuniform List<scalar> 
90
(
0.274887
0.281733
0.282776
0.287388
0.289865
0.29342
0.294582
0.295571
0.300421
0.304323
0.305638
0.305937
0.307346
0.310237
0.314213
0.313886
0.311979
0.31203
0.31253
0.314027
0.312555
0.312006
0.313332
0.315516
0.31663
0.315119
0.314207
0.315925
0.320219
0.323706
0.325113
0.329739
0.334437
0.336413
0.335347
0.334196
0.335077
0.336616
0.340107
0.346815
0.349178
0.354311
0.357323
0.360904
0.369616
0.375867
0.382138
0.387602
0.392556
0.397116
0.401362
0.405397
0.40927
0.413029
0.416706
0.420326
0.423905
0.427457
0.430992
0.434515
0.438032
0.441545
0.445056
0.448565
0.452073
0.45558
0.459085
0.462587
0.466087
0.469584
0.473078
0.476568
0.480056
0.483544
0.487032
0.490524
0.494023
0.497534
0.501064
0.504622
0.508222
0.511867
0.515561
0.519315
0.523197
0.527353
0.531526
0.535294
0.531867
0.529557
)
;
    }
    procBoundary0to2
    {
        type            processor;
        value           nonuniform List<scalar> 
90
(
-0.264021
-0.273702
-0.279119
-0.28649
-0.289107
-0.293329
-0.295729
-0.300385
-0.301723
-0.30015
-0.301615
-0.304538
-0.306267
-0.307751
-0.306132
-0.308079
-0.311879
-0.315745
-0.318193
-0.317436
-0.321605
-0.325498
-0.328957
-0.330553
-0.331568
-0.336467
-0.341366
-0.345502
-0.346875
-0.348138
-0.352713
-0.355718
-0.355568
-0.357214
-0.363295
-0.370209
-0.375533
-0.380624
-0.385479
-0.386816
-0.391312
-0.394376
-0.39804
-0.403483
-0.405712
-0.407856
-0.410598
-0.413875
-0.417675
-0.421808
-0.426253
-0.430931
-0.43581
-0.440861
-0.446064
-0.451405
-0.456874
-0.462464
-0.46817
-0.473989
-0.479919
-0.485958
-0.492104
-0.498356
-0.504713
-0.511173
-0.517735
-0.524395
-0.531151
-0.537998
-0.544931
-0.551943
-0.559025
-0.566165
-0.57335
-0.580563
-0.587782
-0.594975
-0.602101
-0.609132
-0.61606
-0.622842
-0.629319
-0.635271
-0.640542
-0.64564
-0.65062
-0.652022
-0.641599
-0.634154
)
;
    }
}


// ************************************************************************* //
