/*--------------------------------*- C++ -*----------------------------------*\
| =========                 |                                                 |
| \\      /  F ield         | OpenFOAM: The Open Source CFD Toolbox           |
|  \\    /   O peration     | Version:  5.x                                   |
|   \\  /    A nd           | Web:      www.OpenFOAM.org                      |
|    \\/     M anipulation  |                                                 |
\*---------------------------------------------------------------------------*/
FoamFile
{
    version     2.0;
    format      ascii;
    class       volVectorField;
    location    "900";
    object      stored_U;
}
// * * * * * * * * * * * * * * * * * * * * * * * * * * * * * * * * * * * * * //

dimensions      [0 1 -1 0 0 0 0];

internalField   nonuniform List<vector> 
90
(
(0.0961345 -0.0156441 -5.14284)
(0.100253 -0.0149867 -5.12366)
(0.10103 -0.013424 -5.10937)
(0.10303 -0.0123374 -5.09326)
(0.104093 -0.0110226 -5.07787)
(0.105298 -0.00983611 -5.06205)
(0.106201 -0.00860388 -5.04631)
(0.107037 -0.00744655 -5.03052)
(0.107732 -0.0063116 -5.01479)
(0.108377 -0.00521775 -4.99914)
(0.108952 -0.00416597 -4.98359)
(0.109465 -0.00318402 -4.96815)
(0.109909 -0.00226879 -4.9529)
(0.11031 -0.0014024 -4.93784)
(0.110685 -0.000582521 -4.92301)
(0.111041 0.000184785 -4.90843)
(0.111414 0.000922078 -4.89411)
(0.111822 0.00163985 -4.88005)
(0.112268 0.00233249 -4.86623)
(0.112746 0.00298679 -4.85266)
(0.113237 0.00360061 -4.83931)
(0.113769 0.00419948 -4.82621)
(0.114342 0.00478304 -4.81333)
(0.114944 0.00533726 -4.80067)
(0.115575 0.00586077 -4.78824)
(0.116236 0.00636612 -4.77601)
(0.116926 0.00685917 -4.764)
(0.117662 0.00734796 -4.7522)
(0.118469 0.00784928 -4.74058)
(0.119355 0.00837018 -4.72913)
(0.12031 0.00890243 -4.71782)
(0.121322 0.00944375 -4.70664)
(0.122407 0.0100016 -4.69558)
(0.123559 0.0105747 -4.68462)
(0.124768 0.0111619 -4.67375)
(0.126025 0.0117544 -4.66296)
(0.127328 0.0123508 -4.65225)
(0.12869 0.0129651 -4.64163)
(0.130107 0.0135973 -4.63107)
(0.131588 0.0142527 -4.62056)
(0.133132 0.0149324 -4.61011)
(0.134729 0.0156278 -4.5997)
(0.136374 0.0163373 -4.58932)
(0.138073 0.017065 -4.57896)
(0.139813 0.0178072 -4.56862)
(0.141585 0.0185578 -4.55829)
(0.143387 0.0193169 -4.54797)
(0.145215 0.0200851 -4.53766)
(0.14707 0.0208622 -4.52737)
(0.148952 0.0216494 -4.5171)
(0.15086 0.0224474 -4.50684)
(0.152796 0.0232573 -4.49661)
(0.154761 0.0240799 -4.48641)
(0.156754 0.0249162 -4.47624)
(0.158777 0.025767 -4.4661)
(0.160829 0.0266331 -4.456)
(0.162912 0.0275153 -4.44594)
(0.165026 0.0284143 -4.43592)
(0.167171 0.0293311 -4.42595)
(0.169346 0.0302663 -4.41603)
(0.171553 0.031221 -4.40617)
(0.173792 0.032196 -4.39636)
(0.176061 0.0331924 -4.38661)
(0.178363 0.0342113 -4.37692)
(0.180696 0.0352541 -4.36731)
(0.18306 0.0363221 -4.35776)
(0.185456 0.0374169 -4.3483)
(0.187884 0.0385406 -4.33891)
(0.190343 0.039695 -4.32961)
(0.192833 0.0408828 -4.32039)
(0.195354 0.0421068 -4.31127)
(0.197906 0.04337 -4.30225)
(0.200487 0.0446765 -4.29333)
(0.203097 0.0460305 -4.28451)
(0.205735 0.0474371 -4.2758)
(0.208399 0.0489024 -4.2672)
(0.211084 0.0504333 -4.25873)
(0.213789 0.052038 -4.25036)
(0.216511 0.0537278 -4.24209)
(0.219252 0.055517 -4.23394)
(0.222002 0.0574182 -4.22599)
(0.224743 0.0594467 -4.21808)
(0.22741 0.0615975 -4.21029)
(0.229946 0.0638701 -4.20257)
(0.232297 0.0662614 -4.19482)
(0.234461 0.0687716 -4.18728)
(0.236177 0.071452 -4.18035)
(0.236677 0.0743182 -4.17463)
(0.236094 0.077262 -4.16756)
(0.236591 0.0788942 -4.15709)
)
;

boundaryField
{
    inlet
    {
        type            calculated;
        value           uniform (0.236591 0.0788942 -4.15709);
    }
    outlet
    {
        type            calculated;
        value           uniform (0.0961345 -0.0156441 -5.14284);
    }
    repeat_boundary
    {
        type            calculated;
        value           nonuniform List<vector> 
180
(
(0 -0.0156441 -5.14284)
(0 -0.0149867 -5.12366)
(0 -0.013424 -5.10937)
(0 -0.0123374 -5.09326)
(0 -0.0110226 -5.07787)
(0 -0.00983611 -5.06205)
(0 -0.00860388 -5.04631)
(0 -0.00744655 -5.03052)
(0 -0.0063116 -5.01479)
(0 -0.00521775 -4.99914)
(0 -0.00416597 -4.98359)
(0 -0.00318402 -4.96815)
(0 -0.00226879 -4.9529)
(0 -0.0014024 -4.93784)
(0 -0.000582521 -4.92301)
(0 0.000184785 -4.90843)
(0 0.000922078 -4.89411)
(0 0.00163985 -4.88005)
(0 0.00233249 -4.86623)
(0 0.00298679 -4.85266)
(0 0.00360061 -4.83931)
(0 0.00419948 -4.82621)
(0 0.00478304 -4.81333)
(0 0.00533726 -4.80067)
(0 0.00586077 -4.78824)
(0 0.00636612 -4.77601)
(0 0.00685917 -4.764)
(0 0.00734796 -4.7522)
(0 0.00784928 -4.74058)
(0 0.00837018 -4.72913)
(0 0.00890243 -4.71782)
(0 0.00944375 -4.70664)
(0 0.0100016 -4.69558)
(0 0.0105747 -4.68462)
(0 0.0111619 -4.67375)
(0 0.0117544 -4.66296)
(0 0.0123508 -4.65225)
(0 0.0129651 -4.64163)
(0 0.0135973 -4.63107)
(0 0.0142527 -4.62056)
(0 0.0149324 -4.61011)
(0 0.0156278 -4.5997)
(0 0.0163373 -4.58932)
(0 0.017065 -4.57896)
(0 0.0178072 -4.56862)
(0 0.0185578 -4.55829)
(0 0.0193169 -4.54797)
(0 0.0200851 -4.53766)
(0 0.0208622 -4.52737)
(0 0.0216494 -4.5171)
(0 0.0224474 -4.50684)
(0 0.0232573 -4.49661)
(0 0.0240799 -4.48641)
(0 0.0249162 -4.47624)
(0 0.025767 -4.4661)
(0 0.0266331 -4.456)
(0 0.0275153 -4.44594)
(0 0.0284143 -4.43592)
(0 0.0293311 -4.42595)
(0 0.0302663 -4.41603)
(0 0.031221 -4.40617)
(0 0.032196 -4.39636)
(0 0.0331924 -4.38661)
(0 0.0342113 -4.37692)
(0 0.0352541 -4.36731)
(0 0.0363221 -4.35776)
(0 0.0374169 -4.3483)
(0 0.0385406 -4.33891)
(0 0.039695 -4.32961)
(0 0.0408828 -4.32039)
(0 0.0421068 -4.31127)
(0 0.04337 -4.30225)
(0 0.0446765 -4.29333)
(0 0.0460305 -4.28451)
(0 0.0474371 -4.2758)
(0 0.0489024 -4.2672)
(0 0.0504333 -4.25873)
(0 0.052038 -4.25036)
(0 0.0537278 -4.24209)
(0 0.055517 -4.23394)
(0 0.0574182 -4.22599)
(0 0.0594467 -4.21808)
(0 0.0615975 -4.21029)
(0 0.0638701 -4.20257)
(0 0.0662614 -4.19482)
(0 0.0687716 -4.18728)
(0 0.071452 -4.18035)
(0 0.0743182 -4.17463)
(0 0.077262 -4.16756)
(0 0.0788942 -4.15709)
(0.0961345 0 -5.14284)
(0.100253 0 -5.12366)
(0.10103 0 -5.10937)
(0.10303 0 -5.09326)
(0.104093 0 -5.07787)
(0.105298 0 -5.06205)
(0.106201 0 -5.04631)
(0.107037 0 -5.03052)
(0.107732 0 -5.01479)
(0.108377 0 -4.99914)
(0.108952 0 -4.98359)
(0.109465 0 -4.96815)
(0.109909 0 -4.9529)
(0.11031 0 -4.93784)
(0.110685 0 -4.92301)
(0.111041 0 -4.90843)
(0.111414 0 -4.89411)
(0.111822 0 -4.88005)
(0.112268 0 -4.86623)
(0.112746 0 -4.85266)
(0.113237 0 -4.83931)
(0.113769 0 -4.82621)
(0.114342 0 -4.81333)
(0.114944 0 -4.80067)
(0.115575 0 -4.78824)
(0.116236 0 -4.77601)
(0.116926 0 -4.764)
(0.117662 0 -4.7522)
(0.118469 0 -4.74058)
(0.119355 0 -4.72913)
(0.12031 0 -4.71782)
(0.121322 0 -4.70664)
(0.122407 0 -4.69558)
(0.123559 0 -4.68462)
(0.124768 0 -4.67375)
(0.126025 0 -4.66296)
(0.127328 0 -4.65225)
(0.12869 0 -4.64163)
(0.130107 0 -4.63107)
(0.131588 0 -4.62056)
(0.133132 0 -4.61011)
(0.134729 0 -4.5997)
(0.136374 0 -4.58932)
(0.138073 0 -4.57896)
(0.139813 0 -4.56862)
(0.141585 0 -4.55829)
(0.143387 0 -4.54797)
(0.145215 0 -4.53766)
(0.14707 0 -4.52737)
(0.148952 0 -4.5171)
(0.15086 0 -4.50684)
(0.152796 0 -4.49661)
(0.154761 0 -4.48641)
(0.156754 0 -4.47624)
(0.158777 0 -4.4661)
(0.160829 0 -4.456)
(0.162912 0 -4.44594)
(0.165026 0 -4.43592)
(0.167171 0 -4.42595)
(0.169346 0 -4.41603)
(0.171553 0 -4.40617)
(0.173792 0 -4.39636)
(0.176061 0 -4.38661)
(0.178363 0 -4.37692)
(0.180696 0 -4.36731)
(0.18306 0 -4.35776)
(0.185456 0 -4.3483)
(0.187884 0 -4.33891)
(0.190343 0 -4.32961)
(0.192833 0 -4.32039)
(0.195354 0 -4.31127)
(0.197906 0 -4.30225)
(0.200487 0 -4.29333)
(0.203097 0 -4.28451)
(0.205735 0 -4.2758)
(0.208399 0 -4.2672)
(0.211084 0 -4.25873)
(0.213789 0 -4.25036)
(0.216511 0 -4.24209)
(0.219252 0 -4.23394)
(0.222002 0 -4.22599)
(0.224743 0 -4.21808)
(0.22741 0 -4.21029)
(0.229946 0 -4.20257)
(0.232297 0 -4.19482)
(0.234461 0 -4.18728)
(0.236177 0 -4.18035)
(0.236677 0 -4.17463)
(0.236094 0 -4.16756)
(0.236591 0 -4.15709)
)
;
    }
    procBoundary3to1
    {
        type            processor;
        value           nonuniform List<vector> 
90
(
(0.0690818 -0.00558194 -4.39472)
(0.0716107 -0.0048054 -4.37346)
(0.0722016 -0.00334903 -4.36327)
(0.0729464 -0.0022284 -4.34851)
(0.0734817 -0.000999577 -4.336)
(0.0743764 0.000148528 -4.32271)
(0.0753322 0.00129742 -4.3099)
(0.0761332 0.00238236 -4.29706)
(0.0769104 0.00341238 -4.28452)
(0.0778485 0.00437707 -4.27216)
(0.0788153 0.00530569 -4.25979)
(0.0797955 0.00617493 -4.24754)
(0.0803514 0.00694699 -4.23536)
(0.0808441 0.00765018 -4.22341)
(0.0813992 0.00830847 -4.21166)
(0.0818489 0.00892087 -4.20015)
(0.0824532 0.00948759 -4.18884)
(0.0832604 0.010068 -4.1776)
(0.0840866 0.0106264 -4.16644)
(0.084916 0.011152 -4.15525)
(0.0856549 0.0116293 -4.14411)
(0.0867093 0.0120491 -4.13299)
(0.0877676 0.0124806 -4.12193)
(0.0884252 0.0128901 -4.11092)
(0.0893012 0.0132649 -4.0999)
(0.0899554 0.0136089 -4.0889)
(0.090395 0.0139119 -4.07798)
(0.0909967 0.0142215 -4.06727)
(0.0917333 0.0145555 -4.05662)
(0.0928102 0.0149016 -4.0459)
(0.093959 0.0152573 -4.03518)
(0.0949286 0.0156174 -4.0244)
(0.0959778 0.015975 -4.01362)
(0.0972581 0.0163562 -4.00274)
(0.0985067 0.0167471 -3.9918)
(0.0995995 0.0171167 -3.98086)
(0.100861 0.0174665 -3.96988)
(0.101838 0.017814 -3.95898)
(0.10307 0.0181744 -3.94801)
(0.104867 0.0185584 -3.93702)
(0.106344 0.018934 -3.92596)
(0.107634 0.019313 -3.91492)
(0.10933 0.0196932 -3.90376)
(0.11125 0.0200681 -3.89252)
(0.112984 0.0204365 -3.88115)
(0.114642 0.0207897 -3.86969)
(0.116241 0.0211269 -3.85817)
(0.117801 0.0214478 -3.84659)
(0.119329 0.0217514 -3.83496)
(0.120841 0.0220379 -3.8233)
(0.122342 0.0223072 -3.81161)
(0.123839 0.0225593 -3.79988)
(0.125337 0.0227943 -3.78812)
(0.126837 0.0230119 -3.77634)
(0.128344 0.0232117 -3.76453)
(0.129858 0.0233933 -3.7527)
(0.131381 0.0235562 -3.74084)
(0.132913 0.0236997 -3.72895)
(0.134454 0.023823 -3.71703)
(0.136005 0.0239253 -3.70509)
(0.137565 0.0240059 -3.69312)
(0.139135 0.0240638 -3.68113)
(0.140714 0.0240981 -3.6691)
(0.142301 0.0241081 -3.65704)
(0.143897 0.0240929 -3.64496)
(0.1455 0.0240519 -3.63284)
(0.14711 0.0239844 -3.6207)
(0.148727 0.0238901 -3.60852)
(0.15035 0.0237686 -3.59632)
(0.15198 0.0236201 -3.58408)
(0.153614 0.0234448 -3.57182)
(0.155255 0.0232436 -3.55952)
(0.156901 0.0230177 -3.5472)
(0.158552 0.0227692 -3.53485)
(0.16021 0.0225006 -3.52248)
(0.161875 0.0222157 -3.51008)
(0.163547 0.0219189 -3.49766)
(0.165227 0.0216166 -3.48523)
(0.166919 0.0213186 -3.47279)
(0.168624 0.0210387 -3.46034)
(0.170344 0.0207881 -3.4479)
(0.172081 0.0205634 -3.43549)
(0.173838 0.0203551 -3.42311)
(0.175622 0.0201536 -3.41072)
(0.177442 0.0199453 -3.39819)
(0.179324 0.0197283 -3.38603)
(0.181212 0.0195377 -3.37477)
(0.183071 0.0194023 -3.3646)
(0.18504 0.0191664 -3.3506)
(0.186456 0.0187263 -3.33239)
)
;
    }
    procBoundary3to2
    {
        type            processor;
        value           nonuniform List<vector> 
90
(
(0.0726532 -0.0720498 -6.9293)
(0.0747136 -0.0748732 -6.96583)
(0.0704585 -0.0761113 -6.99147)
(0.0691503 -0.0783547 -7.02182)
(0.0656264 -0.0799544 -7.04957)
(0.0628464 -0.0814696 -7.07885)
(0.0592697 -0.0825647 -7.10725)
(0.0557829 -0.0837303 -7.13594)
(0.051939 -0.0847725 -7.16428)
(0.0480322 -0.0856258 -7.19266)
(0.0439838 -0.086418 -7.22065)
(0.0398698 -0.0870946 -7.24831)
(0.0356495 -0.087932 -7.27557)
(0.0313791 -0.0887748 -7.30259)
(0.0270777 -0.089607 -7.32937)
(0.0227657 -0.0905559 -7.35598)
(0.0184687 -0.0914062 -7.38237)
(0.0142272 -0.0921345 -7.40847)
(0.0100409 -0.0928071 -7.43427)
(0.00590887 -0.0935104 -7.45973)
(0.00182484 -0.0942795 -7.48486)
(-0.00219726 -0.0948815 -7.50972)
(-0.00613225 -0.0955277 -7.5343)
(-0.00998427 -0.0964119 -7.55861)
(-0.0137758 -0.0972586 -7.58267)
(-0.0175021 -0.0982023 -7.60651)
(-0.0211617 -0.0992353 -7.63019)
(-0.0247439 -0.100224 -7.65378)
(-0.0282391 -0.101224 -7.67725)
(-0.0316617 -0.102195 -7.70056)
(-0.0350227 -0.103219 -7.72377)
(-0.0383237 -0.104416 -7.74686)
(-0.0415683 -0.105557 -7.76989)
(-0.0447597 -0.106598 -7.79279)
(-0.0479087 -0.107714 -7.81555)
(-0.0510356 -0.108964 -7.83824)
(-0.0541544 -0.110162 -7.86092)
(-0.0572616 -0.111532 -7.88364)
(-0.0603441 -0.112841 -7.90635)
(-0.0634103 -0.113908 -7.929)
(-0.0664902 -0.115167 -7.9516)
(-0.0695807 -0.116617 -7.97426)
(-0.07268 -0.117959 -7.99695)
(-0.0757989 -0.119179 -8.01963)
(-0.0789389 -0.120503 -8.04227)
(-0.0821147 -0.121903 -8.06491)
(-0.0853276 -0.123362 -8.08757)
(-0.088582 -0.124862 -8.11027)
(-0.0918813 -0.126404 -8.133)
(-0.0952278 -0.127981 -8.15579)
(-0.0986235 -0.129591 -8.17862)
(-0.10207 -0.131231 -8.20152)
(-0.10557 -0.132902 -8.22448)
(-0.109124 -0.134601 -8.2475)
(-0.112734 -0.136329 -8.27059)
(-0.116401 -0.138085 -8.29375)
(-0.120127 -0.139869 -8.31698)
(-0.123913 -0.141683 -8.34028)
(-0.12776 -0.143525 -8.36366)
(-0.131671 -0.145397 -8.3871)
(-0.135645 -0.147299 -8.41063)
(-0.139685 -0.149231 -8.43422)
(-0.143792 -0.151193 -8.4579)
(-0.147966 -0.153185 -8.48165)
(-0.15221 -0.155209 -8.50549)
(-0.156525 -0.157263 -8.5294)
(-0.160911 -0.159348 -8.55338)
(-0.16537 -0.161463 -8.57745)
(-0.169904 -0.163608 -8.6016)
(-0.174514 -0.165784 -8.62582)
(-0.1792 -0.167988 -8.65012)
(-0.183966 -0.17022 -8.6745)
(-0.188812 -0.172479 -8.69895)
(-0.193739 -0.174763 -8.72347)
(-0.198751 -0.177069 -8.74806)
(-0.203848 -0.179395 -8.77272)
(-0.209033 -0.181737 -8.79742)
(-0.21431 -0.18409 -8.82219)
(-0.21968 -0.186449 -8.847)
(-0.225144 -0.188809 -8.87185)
(-0.23071 -0.191161 -8.89668)
(-0.236411 -0.193492 -8.92154)
(-0.242275 -0.195775 -8.94638)
(-0.248328 -0.197988 -8.97126)
(-0.254596 -0.200114 -8.99627)
(-0.261068 -0.202153 -9.02077)
(-0.267941 -0.203972 -9.04384)
(-0.27549 -0.205213 -9.06645)
(-0.283613 -0.206036 -9.09595)
(-0.287695 -0.207071 -9.11867)
)
;
    }
}


// ************************************************************************* //
